                         Program Version 6.0.0  -   RELEASE  -
|  1> ! pbe def2-sv(p) def2/J RI DEFGRID1 loosescf d4 GCP(DFT/SV(P)) printgap
|  2> %output
|  3>     printlevel normal
|  4> end
|  5> * xyz 0 1
|  6> C -1.2201485692 0.2623629834 -0.4588146415
|  7> C -0.0489514174 0.4966882763 0.5028144946
|  8> C 0.8945532969 -0.7176342119 0.5662877561
|  9> O 1.7344226944 -0.8353031917 -0.5572553824
| 10> O 0.6099604806 1.668254286 0.075631556
| 11> O -1.9806852683 -0.8262811188 0.0106877625
| 12> H -0.8301974977 0.0700708639 -1.4669655959
| 13> H -1.812100372 1.1844409962 -0.491764233
| 14> H -0.4693148434 0.6406569873 1.5116145505
| 15> H 0.2838581367 -1.6163479007 0.7111068376
| 16> H 1.5690169334 -0.6110512885 1.4192821136
| 17> H 1.1993960196 -1.0015357749 -1.3446718867
| 18> H 1.5210143547 1.6565781098 0.4019173952
| 19> H -2.7716393195 -0.9222171301 -0.5374383156
| 20> *
| 21>
| 22>                          ****END OF INPUT****

CARTESIAN COORDINATES (ANGSTROEM)
---------------------------------
  C     -1.220149    0.262363   -0.458815
  C     -0.048951    0.496688    0.502814
  C      0.894553   -0.717634    0.566288
  O      1.734423   -0.835303   -0.557255
  O      0.609960    1.668254    0.075632
  O     -1.980685   -0.826281    0.010688
  H     -0.830197    0.070071   -1.466966
  H     -1.812100    1.184441   -0.491764
  H     -0.469315    0.640657    1.511615
  H      0.283858   -1.616348    0.711107
  H      1.569017   -0.611051    1.419282
  H      1.199396   -1.001536   -1.344672
  H      1.521014    1.656578    0.401917
  H     -2.771639   -0.922217   -0.537438

 Total Charge           Charge          ....    0
 Multiplicity           Mult            ....    1
 Number of Electrons    NEL             ....   50
 Basis Dimension        Dim             ....  100

ORBITAL ENERGIES
----------------

  NO   OCC          E(Eh)            E(eV)
   0   2.0000     -18.755931      -510.3748
   1   2.0000     -18.746190      -510.1098
   2   2.0000     -18.743592      -510.0391
   3   2.0000      -9.935098      -270.3478
   4   2.0000      -9.934323      -270.3267
   5   2.0000      -9.927113      -270.1305
   6   2.0000      -0.937022       -25.4977
   7   2.0000      -0.925796       -25.1922
   8   2.0000      -0.909153       -24.7393
   9   2.0000      -0.678517       -18.4634
  10   2.0000      -0.611593       -16.6423
  11   2.0000      -0.530392       -14.4327
  12   2.0000      -0.490605       -13.3501
  13   2.0000      -0.454823       -12.3764
  14   2.0000      -0.434407       -11.8208
  15   2.0000      -0.418238       -11.3808
  16   2.0000      -0.393332       -10.7031
  17   2.0000      -0.361008        -9.8235
  18   2.0000      -0.350164        -9.5284
  19   2.0000      -0.301940        -8.2162
  20   2.0000      -0.289586        -7.8800
  21   2.0000      -0.269642        -7.3373
  22   2.0000      -0.227380        -6.1873
  23   2.0000      -0.218814        -5.9542
  24   2.0000      -0.209429        -5.6988
  25   0.0000       0.014050         0.3823
  26   0.0000       0.027115         0.7378
  27   0.0000       0.047690         1.2977
  28   0.0000       0.080404         2.1879
  29   0.0000       0.096441         2.6243

MULLIKEN ATOMIC CHARGES
-----------------------
   0 C :    0.006753
   1 C :    0.008449
   2 C :   -0.017465
   3 O :   -0.434549
   4 O :   -0.422784
   5 O :   -0.433862
   6 H :    0.050396
   7 H :    0.090682
   8 H :    0.063574
   9 H :    0.094979
  10 H :    0.086961
  11 H :    0.298607
  12 H :    0.302458
  13 H :    0.305802
Sum of atomic charges:   -0.0000000

LOEWDIN ATOMIC CHARGES
----------------------
   0 C :   -0.131676
   1 C :   -0.088308
   2 C :   -0.143826
   3 O :   -0.337042
   4 O :   -0.326382
   5 O :   -0.342674
   6 H :    0.085309
   7 H :    0.105357
   8 H :    0.101526
   9 H :    0.108046
  10 H :    0.109557
  11 H :    0.282974
  12 H :    0.286915
  13 H :    0.290224

  Mayer bond orders larger than 0.100000
B(  0-C ,  1-C ) :   1.0540 B(  0-C ,  5-O ) :   1.0791 B(  0-C ,  6-H ) :   0.9022
B(  0-C ,  7-H ) :   0.9219 B(  1-C ,  2-C ) :   1.0419 B(  1-C ,  4-O ) :   1.0866
B(  1-C ,  8-H ) :   0.8893 B(  2-C ,  3-O ) :   1.0729 B(  2-C ,  9-H ) :   0.9102
B(  2-C , 10-H ) :   0.9242 B(  3-O , 11-H ) :   0.8497 B(  4-O , 12-H ) :   0.8472
B(  5-O , 13-H ) :   0.8497

Dispersion correction           -0.009251530
FINAL SINGLE POINT ENERGY      -344.004715397371

DIPOLE MOMENT
-------------

Method             : SCF
Type of density    : Electron Density
Multiplicity       :   1
Irrep              :   0
Energy             :  -344.0779060917517427 Eh
Relativity type    :
Basis              : AO
                                X                 Y                 Z
Electronic contribution:      0.677511482       0.385406952      -0.443245824
Nuclear contribution   :     -1.223574378      -0.562246883       0.183531033
                        -----------------------------------------
Total Dipole Moment    :     -0.546062896      -0.176839931      -0.259714791
                        -----------------------------------------
Magnitude (a.u.)       :      0.630007000
Magnitude (Debye)      :      1.601350532

Rotational constants in cm-1:             0.154193             0.090290             0.067569
Rotational constants in MHz :          4622.604350          2706.834309          2025.667296

                             ****ORCA TERMINATED NORMALLY****
TOTAL RUN TIME: 0 days 0 hours 0 minutes 6 seconds 911 msec
