                         Program Version 6.0.0  -   RELEASE  -
|  1> ! r2scan-3c def2/J RI DEFGRID2 scfconv6 printgap
|  2> %output
|  3>     printlevel normal
|  4> end
|  5> * xyz 0 1
|  6> C -2.5477549698 -0.1789016266 -0.3248838037
|  7> C -1.2533194851 -0.6549162349 0.3258328352
|  8> C 8.27124e-05 0.0618041594 -0.1945619751
|  9> C -0.0006272588 1.5345597472 0.2088562281
| 10> C 1.2537364623 -0.6538837236 0.3266864693
| 11> C 2.5479244481 -0.1788566186 -0.32525521
| 12> H -2.7637266726 0.8540985018 -0.0665484113
| 13> H -2.4794812408 -0.2571623615 -1.4078009864
| 14> H -3.3813872609 -0.7911320357 0.0110263132
| 15> H -1.1452411848 -1.7257121854 0.1356535354
| 16> H -1.3188148137 -0.5187506997 1.4078121097
| 17> H 0.0004280041 -0.0009054873 -1.2892300254
| 18> H 0.8763460213 2.0423260024 -0.182527705
| 19> H -0.0001873437 1.6282691815 1.2930401583
| 20> H -0.8785629844 2.0412161256 -0.1817511306
| 21> H 1.3194972425 -0.5158032428 1.4083955224
| 22> H 1.1458320302 -1.7250206208 0.1383756053
| 23> H 2.7621023718 0.8555984298 -0.0713317314
| 24> H 2.4805432983 -0.262102913 -1.4078647557
| 25> H 3.3821531074 -0.7884233077 0.0140433512
| 26> *
| 27>
| 28>                          ****END OF INPUT****

CARTESIAN COORDINATES (ANGSTROEM)
---------------------------------
  C     -2.547755   -0.178902   -0.324884
  C     -1.253319   -0.654916    0.325833
  C      0.000083    0.061804   -0.194562
  C     -0.000627    1.534560    0.208856
  C      1.253736   -0.653884    0.326686
  C      2.547924   -0.178857   -0.325255
  H     -2.763727    0.854099   -0.066548
  H     -2.479481   -0.257162   -1.407801
  H     -3.381387   -0.791132    0.011026
  H     -1.145241   -1.725712    0.135654
  H     -1.318815   -0.518751    1.407812
  H      0.000428   -0.000905   -1.289230
  H      0.876346    2.042326   -0.182528
  H     -0.000187    1.628269    1.293040
  H     -0.878563    2.041216   -0.181751
  H      1.319497   -0.515803    1.408396
  H      1.145832   -1.725021    0.138376
  H      2.762102    0.855598   -0.071332
  H      2.480543   -0.262103   -1.407865
  H      3.382153   -0.788423    0.014043

 Total Charge           Charge          ....    0
 Multiplicity           Mult            ....    1
 Number of Electrons    NEL             ....   50
 Basis Dimension        Dim             ....  184

ORBITAL ENERGIES
----------------

  NO   OCC          E(Eh)            E(eV)
   0   2.0000     -10.027383      -272.8590
   1   2.0000     -10.019693      -272.6497
   2   2.0000     -10.019688      -272.6496
   3   2.0000     -10.013237      -272.4740
   4   2.0000     -10.013234      -272.4740
   5   2.0000     -10.011740      -272.4333
   6   2.0000      -0.780551       -21.2399
   7   2.0000      -0.716296       -19.4914
   8   2.0000      -0.675191       -18.3729
   9   2.0000      -0.617052       -16.7908
  10   2.0000      -0.561870       -15.2893
  11   2.0000      -0.520232       -14.1562
  12   2.0000      -0.435382       -11.8473
  13   2.0000      -0.424024       -11.5383
  14   2.0000      -0.400476       -10.8975
  15   2.0000      -0.386725       -10.5233
  16   2.0000      -0.363911        -9.9025
  17   2.0000      -0.355817        -9.6823
  18   2.0000      -0.341803        -9.3009
  19   2.0000      -0.330734        -8.9997
  20   2.0000      -0.317840        -8.6489
  21   2.0000      -0.302348        -8.2273
  22   2.0000      -0.287403        -7.8206
  23   2.0000      -0.280516        -7.6332
  24   2.0000      -0.273881        -7.4527
  25   0.0000       0.087564         2.3827
  26   0.0000       0.112698         3.0667
  27   0.0000       0.117119         3.1870
  28   0.0000       0.125891         3.4257
  29   0.0000       0.132051         3.5933

MULLIKEN ATOMIC CHARGES
-----------------------
   0 C :   -0.500133
   1 C :   -0.209470
   2 C :   -0.060717
   3 C :   -0.531537
   4 C :   -0.209614
   5 C :   -0.500043
   6 H :    0.146891
   7 H :    0.144949
   8 H :    0.146664
   9 H :    0.137229
  10 H :    0.135855
  11 H :    0.140749
  12 H :    0.147394
  13 H :    0.152856
  14 H :    0.147472
  15 H :    0.135878
  16 H :    0.137187
  17 H :    0.146768
  18 H :    0.144966
  19 H :    0.146657
Sum of atomic charges:   -0.0000000

LOEWDIN ATOMIC CHARGES
----------------------
   0 C :   -0.424705
   1 C :   -0.311399
   2 C :   -0.244162
   3 C :   -0.415132
   4 C :   -0.311390
   5 C :   -0.424657
   6 H :    0.148575
   7 H :    0.150292
   8 H :    0.150705
   9 H :    0.153363
  10 H :    0.154696
  11 H :    0.155432
  12 H :    0.153402
  13 H :    0.153952
  14 H :    0.153428
  15 H :    0.154678
  16 H :    0.153368
  17 H :    0.148575
  18 H :    0.150277
  19 H :    0.150702

  Mayer bond orders larger than 0.100000
B(  0-C ,  1-C ) :   0.8953 B(  0-C ,  6-H ) :   0.9849 B(  0-C ,  7-H ) :   0.9868
B(  0-C ,  8-H ) :   0.9736 B(  1-C ,  2-C ) :   0.9030 B(  1-C ,  9-H ) :   0.9743
B(  1-C , 10-H ) :   0.9700 B(  2-C ,  3-C ) :   0.8848 B(  2-C ,  4-C ) :   0.9030
B(  2-C , 11-H ) :   0.9810 B(  3-C , 12-H ) :   0.9731 B(  3-C , 13-H ) :   0.9882
B(  3-C , 14-H ) :   0.9731 B(  4-C ,  5-C ) :   0.8955 B(  4-C , 15-H ) :   0.9700
B(  4-C , 16-H ) :   0.9742 B(  5-C , 17-H ) :   0.9848 B(  5-C , 18-H ) :   0.9869
B(  5-C , 19-H ) :   0.9737

Dispersion correction           -0.005009603
FINAL SINGLE POINT ENERGY      -236.987386220177

DIPOLE MOMENT
-------------

Method             : SCF
Type of density    : Electron Density
Multiplicity       :   1
Irrep              :   0
Energy             :  -236.9919285079218412 Eh
Relativity type    :
Basis              : AO
                                X                 Y                 Z
Electronic contribution:      0.000403281      -0.826109984       0.183547324
Nuclear contribution   :     -0.000468541       0.784767496      -0.186420272
                        -----------------------------------------
Total Dipole Moment    :     -0.000065260      -0.041342488      -0.002872948
                        -----------------------------------------
Magnitude (a.u.)       :      0.041442242
Magnitude (Debye)      :      0.105337808

Rotational constants in cm-1:             0.217763             0.062487             0.054013
Rotational constants in MHz :          6528.375689          1873.317007          1619.256467

                             ****ORCA TERMINATED NORMALLY****
TOTAL RUN TIME: 0 days 0 hours 0 minutes 16 seconds 470 msec
