                         Program Version 6.0.0  -   RELEASE  -
|  1> ! r2scan-3c def2/J RI DEFGRID2 scfconv6 printgap
|  2> %output
|  3>     printlevel normal
|  4> end
|  5> %cpcm
|  6>     smd true
|  7>     smdsolvent "water"
|  8> end
|  9> * xyz 0 1
| 10> C -2.5477549698 -0.1789016266 -0.3248838037
| 11> C -1.2533194851 -0.6549162349 0.3258328352
| 12> C 8.27124e-05 0.0618041594 -0.1945619751
| 13> C -0.0006272588 1.5345597472 0.2088562281
| 14> C 1.2537364623 -0.6538837236 0.3266864693
| 15> C 2.5479244481 -0.1788566186 -0.32525521
| 16> H -2.7637266726 0.8540985018 -0.0665484113
| 17> H -2.4794812408 -0.2571623615 -1.4078009864
| 18> H -3.3813872609 -0.7911320357 0.0110263132
| 19> H -1.1452411848 -1.7257121854 0.1356535354
| 20> H -1.3188148137 -0.5187506997 1.4078121097
| 21> H 0.0004280041 -0.0009054873 -1.2892300254
| 22> H 0.8763460213 2.0423260024 -0.182527705
| 23> H -0.0001873437 1.6282691815 1.2930401583
| 24> H -0.8785629844 2.0412161256 -0.1817511306
| 25> H 1.3194972425 -0.5158032428 1.4083955224
| 26> H 1.1458320302 -1.7250206208 0.1383756053
| 27> H 2.7621023718 0.8555984298 -0.0713317314
| 28> H 2.4805432983 -0.262102913 -1.4078647557
| 29> H 3.3821531074 -0.7884233077 0.0140433512
| 30> *
| 31>
| 32>                          ****END OF INPUT****

CARTESIAN COORDINATES (ANGSTROEM)
---------------------------------
  C     -2.547755   -0.178902   -0.324884
  C     -1.253319   -0.654916    0.325833
  C      0.000083    0.061804   -0.194562
  C     -0.000627    1.534560    0.208856
  C      1.253736   -0.653884    0.326686
  C      2.547924   -0.178857   -0.325255
  H     -2.763727    0.854099   -0.066548
  H     -2.479481   -0.257162   -1.407801
  H     -3.381387   -0.791132    0.011026
  H     -1.145241   -1.725712    0.135654
  H     -1.318815   -0.518751    1.407812
  H      0.000428   -0.000905   -1.289230
  H      0.876346    2.042326   -0.182528
  H     -0.000187    1.628269    1.293040
  H     -0.878563    2.041216   -0.181751
  H      1.319497   -0.515803    1.408396
  H      1.145832   -1.725021    0.138376
  H      2.762102    0.855598   -0.071332
  H      2.480543   -0.262103   -1.407865
  H      3.382153   -0.788423    0.014043

 Total Charge           Charge          ....    0
 Multiplicity           Mult            ....    1
 Number of Electrons    NEL             ....   50
 Basis Dimension        Dim             ....  184

ORBITAL ENERGIES
----------------

  NO   OCC          E(Eh)            E(eV)
   0   2.0000     -10.019924      -272.6560
   1   2.0000     -10.012394      -272.4511
   2   2.0000     -10.012389      -272.4510
   3   2.0000     -10.006083      -272.2794
   4   2.0000     -10.006080      -272.2793
   5   2.0000     -10.003981      -272.2222
   6   2.0000      -0.773293       -21.0424
   7   2.0000      -0.709506       -19.3066
   8   2.0000      -0.668342       -18.1865
   9   2.0000      -0.610233       -16.6053
  10   2.0000      -0.555233       -15.1087
  11   2.0000      -0.513048       -13.9607
  12   2.0000      -0.428074       -11.6485
  13   2.0000      -0.416821       -11.3423
  14   2.0000      -0.393439       -10.7060
  15   2.0000      -0.379685       -10.3318
  16   2.0000      -0.357017        -9.7149
  17   2.0000      -0.348853        -9.4928
  18   2.0000      -0.334522        -9.1028
  19   2.0000      -0.323607        -8.8058
  20   2.0000      -0.311065        -8.4645
  21   2.0000      -0.294882        -8.0241
  22   2.0000      -0.279586        -7.6079
  23   2.0000      -0.273348        -7.4382
  24   2.0000      -0.266837        -7.2610
  25   0.0000       0.095674         2.6034
  26   0.0000       0.119386         3.2487
  27   0.0000       0.122769         3.3407
  28   0.0000       0.132007         3.5921
  29   0.0000       0.139807         3.8044

MULLIKEN ATOMIC CHARGES
-----------------------
   0 C :   -0.538786
   1 C :   -0.229038
   2 C :   -0.044054
   3 C :   -0.573337
   4 C :   -0.229154
   5 C :   -0.538749
   6 H :    0.158773
   7 H :    0.155390
   8 H :    0.155886
   9 H :    0.146735
  10 H :    0.144961
  11 H :    0.148773
  12 H :    0.158596
  13 H :    0.163727
  14 H :    0.158634
  15 H :    0.145000
  16 H :    0.146678
  17 H :    0.158677
  18 H :    0.155411
  19 H :    0.155876
Sum of atomic charges:    0.0000000

LOEWDIN ATOMIC CHARGES
----------------------
   0 C :   -0.433203
   1 C :   -0.314560
   2 C :   -0.243054
   3 C :   -0.423665
   4 C :   -0.314549
   5 C :   -0.433163
   6 H :    0.151474
   7 H :    0.152704
   8 H :    0.152462
   9 H :    0.155276
  10 H :    0.156405
  11 H :    0.157619
  12 H :    0.155703
  13 H :    0.156538
  14 H :    0.155717
  15 H :    0.156392
  16 H :    0.155278
  17 H :    0.151477
  18 H :    0.152689
  19 H :    0.152460

  Mayer bond orders larger than 0.100000
B(  0-C ,  1-C ) :   0.8891 B(  0-C ,  6-H ) :   0.9813 B(  0-C ,  7-H ) :   0.9844
B(  0-C ,  8-H ) :   0.9714 B(  1-C ,  2-C ) :   0.8962 B(  1-C ,  9-H ) :   0.9747
B(  1-C , 10-H ) :   0.9713 B(  2-C ,  3-C ) :   0.8799 B(  2-C ,  4-C ) :   0.8961
B(  2-C , 11-H ) :   0.9804 B(  3-C , 12-H ) :   0.9704 B(  3-C , 13-H ) :   0.9859
B(  3-C , 14-H ) :   0.9704 B(  4-C ,  5-C ) :   0.8893 B(  4-C , 15-H ) :   0.9712
B(  4-C , 16-H ) :   0.9747 B(  5-C , 17-H ) :   0.9813 B(  5-C , 18-H ) :   0.9845
B(  5-C , 19-H ) :   0.9714

Dispersion correction           -0.005009603
FINAL SINGLE POINT ENERGY      -236.983925535528

DIPOLE MOMENT
-------------

Method             : SCF
Type of density    : Electron Density
Multiplicity       :   1
Irrep              :   0
Energy             :  -236.9884678232733108 Eh
Relativity type    :
Basis              : AO
                                X                 Y                 Z
Electronic contribution:      0.000428769      -0.827667877       0.177744712
Nuclear contribution   :     -0.000468541       0.784767496      -0.186420272
                        -----------------------------------------
Total Dipole Moment    :     -0.000039772      -0.042900381      -0.008675560
                        -----------------------------------------
Magnitude (a.u.)       :      0.043768820
Magnitude (Debye)      :      0.111251500

Rotational constants in cm-1:             0.217763             0.062487             0.054013
Rotational constants in MHz :          6528.375689          1873.317007          1619.256467

                             ****ORCA TERMINATED NORMALLY****
TOTAL RUN TIME: 0 days 0 hours 0 minutes 19 seconds 746 msec
