                         Program Version 6.0.0  -   RELEASE  -
|  1> ! r2scan-3c def2/J RI DEFGRID2 scfconv6 printgap
|  2> %output
|  3>     printlevel normal
|  4> end
|  5> * xyz 0 1
|  6> C 2.2754828128 -0.9907474117 0.3281880808
|  7> C 1.6154355445 0.0597967033 -0.55951608
|  8> C 0.4290491376 0.7601973767 0.1141014201
|  9> C -0.946076696 0.2378500143 -0.3158544235
| 10> H -1.0158756695 0.2968468267 -1.4159961576
| 11> C -1.2059204118 -1.2008855119 0.1223598313
| 12> O -1.8989314336 1.1285898848 0.24974375
| 13> H 3.1010140762 -1.4632002853 -0.1992871791
| 14> H 1.5689500951 -1.7618766519 0.6205673789
| 15> H 2.6674632751 -0.527269227 1.230550945
| 16> H 2.3671819653 0.8071771441 -0.8189770424
| 17> H 1.2842011989 -0.4021348252 -1.4918057114
| 18> H 0.5037189396 0.6727626654 1.1990871488
| 19> H 0.4383010568 1.8257198986 -0.123437823
| 20> H -1.1078368354 -1.2835208895 1.2021907992
| 21> H -2.2107922016 -1.5071520048 -0.1619787708
| 22> H -0.4982822521 -1.8701070422 -0.3559063414
| 23> H -2.7898074564 0.8087228652 0.0533813198
| 24> *
| 25>
| 26>                          ****END OF INPUT****

CARTESIAN COORDINATES (ANGSTROEM)
---------------------------------
  C      2.275483   -0.990747    0.328188
  C      1.615436    0.059797   -0.559516
  C      0.429049    0.760197    0.114101
  C     -0.946077    0.237850   -0.315854
  H     -1.015876    0.296847   -1.415996
  C     -1.205920   -1.200886    0.122360
  O     -1.898931    1.128590    0.249744
  H      3.101014   -1.463200   -0.199287
  H      1.568950   -1.761877    0.620567
  H      2.667463   -0.527269    1.230551
  H      2.367182    0.807177   -0.818977
  H      1.284201   -0.402135   -1.491806
  H      0.503719    0.672763    1.199087
  H      0.438301    1.825720   -0.123438
  H     -1.107837   -1.283521    1.202191
  H     -2.210792   -1.507152   -0.161979
  H     -0.498282   -1.870107   -0.355906
  H     -2.789807    0.808723    0.053381

 Total Charge           Charge          ....    0
 Multiplicity           Mult            ....    1
 Number of Electrons    NEL             ....   50
 Basis Dimension        Dim             ....  179

ORBITAL ENERGIES
----------------

  NO   OCC          E(Eh)            E(eV)
   0   2.0000     -18.942933      -515.4634
   1   2.0000     -10.080093      -274.2933
   2   2.0000     -10.027008      -272.8488
   3   2.0000     -10.020806      -272.6800
   4   2.0000     -10.019541      -272.6456
   5   2.0000     -10.016411      -272.5604
   6   2.0000      -0.980555       -26.6823
   7   2.0000      -0.764269       -20.7968
   8   2.0000      -0.708835       -19.2884
   9   2.0000      -0.654106       -17.7991
  10   2.0000      -0.579005       -15.7555
  11   2.0000      -0.533607       -14.5202
  12   2.0000      -0.471063       -12.8183
  13   2.0000      -0.435055       -11.8385
  14   2.0000      -0.423213       -11.5162
  15   2.0000      -0.391906       -10.6643
  16   2.0000      -0.381928       -10.3928
  17   2.0000      -0.363784        -9.8991
  18   2.0000      -0.342067        -9.3081
  19   2.0000      -0.340443        -9.2639
  20   2.0000      -0.308741        -8.4013
  21   2.0000      -0.304548        -8.2872
  22   2.0000      -0.295396        -8.0381
  23   2.0000      -0.278111        -7.5678
  24   2.0000      -0.233464        -6.3529
  25   0.0000       0.066599         1.8122
  26   0.0000       0.088109         2.3976
  27   0.0000       0.109434         2.9779
  28   0.0000       0.118232         3.2172
  29   0.0000       0.133713         3.6385

MULLIKEN ATOMIC CHARGES
-----------------------
   0 C :   -0.482994
   1 C :   -0.259414
   2 C :   -0.228635
   3 C :   -0.000811
   4 H :    0.135186
   5 C :   -0.507791
   6 O :   -0.420705
   7 H :    0.143991
   8 H :    0.144961
   9 H :    0.149426
  10 H :    0.141395
  11 H :    0.141937
  12 H :    0.147375
  13 H :    0.157554
  14 H :    0.167790
  15 H :    0.134089
  16 H :    0.154482
  17 H :    0.282165
Sum of atomic charges:   -0.0000000

LOEWDIN ATOMIC CHARGES
----------------------
   0 C :   -0.425433
   1 C :   -0.315631
   2 C :   -0.272066
   3 C :    0.048291
   4 H :    0.157941
   5 C :   -0.402126
   6 O :   -0.619811
   7 H :    0.149579
   8 H :    0.149040
   9 H :    0.150101
  10 H :    0.154621
  11 H :    0.153039
  12 H :    0.164238
  13 H :    0.169687
  14 H :    0.161227
  15 H :    0.151200
  16 H :    0.158832
  17 H :    0.267272

  Mayer bond orders larger than 0.100000
B(  0-C ,  1-C ) :   0.9088 B(  0-C ,  7-H ) :   0.9741 B(  0-C ,  8-H ) :   0.9734
B(  0-C ,  9-H ) :   0.9861 B(  1-C ,  2-C ) :   0.8196 B(  1-C , 10-H ) :   0.9615
B(  1-C , 11-H ) :   0.9789 B(  2-C ,  3-C ) :   0.9235 B(  2-C , 12-H ) :   0.9808
B(  2-C , 13-H ) :   0.9644 B(  3-C ,  4-H ) :   0.9859 B(  3-C ,  5-C ) :   0.8880
B(  3-C ,  6-O ) :   0.9013 B(  5-C , 14-H ) :   0.9816 B(  5-C , 15-H ) :   0.9658
B(  5-C , 16-H ) :   0.9666 B(  6-O , 17-H ) :   0.9022

Dispersion correction           -0.004331852
FINAL SINGLE POINT ENERGY      -272.899435337275

DIPOLE MOMENT
-------------

Method             : SCF
Type of density    : Electron Density
Multiplicity       :   1
Irrep              :   0
Energy             :  -272.9047130208834346 Eh
Relativity type    :
Basis              : AO
                                X                 Y                 Z
Electronic contribution:     -4.090250827       3.634056826      -0.061258442
Nuclear contribution   :      4.013649497      -4.114953411      -0.241728022
                        -----------------------------------------
Total Dipole Moment    :     -0.076601330      -0.480896585      -0.302986464
                        -----------------------------------------
Magnitude (a.u.)       :      0.573524269
Magnitude (Debye)      :      1.457782840

Rotational constants in cm-1:             0.209103             0.066500             0.056139
Rotational constants in MHz :          6268.744568          1993.614679          1683.002610

                             ****ORCA TERMINATED NORMALLY****
TOTAL RUN TIME: 0 days 0 hours 0 minutes 22 seconds 490 msec
