                         Program Version 6.0.0  -   RELEASE  -
|  1> ! pbe def2-sv(p) def2/J RI DEFGRID1 loosescf d4 GCP(DFT/SV(P)) printgap
|  2> %output
|  3>     printlevel normal
|  4> end
|  5> * xyz 0 1
|  6> C 3.2739013297 -0.9683127905 0.0530903868
|  7> C 2.0183946581 -0.2524831584 0.4529981523
|  8> C 1.5242043273 -0.3470089548 1.6774397935
|  9> C 1.3837346267 0.5641978098 -0.6501998162
| 10> H 2.1952468602 0.9452165975 -1.2791410525
| 11> C 0.4782958586 -0.3138781969 -1.5289947462
| 12> C -0.6967837501 -0.8579368835 -0.7256762671
| 13> C -1.4113750432 0.2472198447 -0.0054190562
| 14> C -0.8134158142 1.4195768656 0.262962242
| 15> C 0.5737403501 1.760566519 -0.1386697351
| 16> C -2.7781511775 0.0174763113 0.4145400098
| 17> O -3.4225488366 -0.9978872439 0.2156709198
| 18> H 3.6294468306 -1.6102787702 0.8540631017
| 19> H 3.1011196464 -1.5767812517 -0.8326793607
| 20> H 4.0541647127 -0.2472401067 -0.1877077736
| 21> H 0.6261268387 0.1592175683 1.9862648354
| 22> H 2.0031665416 -0.9518529826 2.429635498
| 23> H 0.1000132613 0.291708075 -2.3544134845
| 24> H 1.047858685 -1.1420689379 -1.9508996512
| 25> H -1.4076030798 -1.3783256205 -1.3710758441
| 26> H -0.3422373131 -1.5826929485 0.0133423366
| 27> H -1.3661039486 2.1930735363 0.780728681
| 28> H 0.5059236802 2.5152203322 -0.9290819723
| 29> H 1.0902241869 2.2350518951 0.6987382771
| 30> H -3.2429967963 0.8627451543 0.9581906326
| 31> *
| 32>
| 33>                          ****END OF INPUT****

CARTESIAN COORDINATES (ANGSTROEM)
---------------------------------
  C      3.273901   -0.968313    0.053090
  C      2.018395   -0.252483    0.452998
  C      1.524204   -0.347009    1.677440
  C      1.383735    0.564198   -0.650200
  H      2.195247    0.945217   -1.279141
  C      0.478296   -0.313878   -1.528995
  C     -0.696784   -0.857937   -0.725676
  C     -1.411375    0.247220   -0.005419
  C     -0.813416    1.419577    0.262962
  C      0.573740    1.760567   -0.138670
  C     -2.778151    0.017476    0.414540
  O     -3.422549   -0.997887    0.215671
  H      3.629447   -1.610279    0.854063
  H      3.101120   -1.576781   -0.832679
  H      4.054165   -0.247240   -0.187708
  H      0.626127    0.159218    1.986265
  H      2.003167   -0.951853    2.429635
  H      0.100013    0.291708   -2.354413
  H      1.047859   -1.142069   -1.950900
  H     -1.407603   -1.378326   -1.371076
  H     -0.342237   -1.582693    0.013342
  H     -1.366104    2.193074    0.780729
  H      0.505924    2.515220   -0.929082
  H      1.090224    2.235052    0.698738
  H     -3.242997    0.862745    0.958191

 Total Charge           Charge          ....    0
 Multiplicity           Mult            ....    1
 Number of Electrons    NEL             ....   82
 Basis Dimension        Dim             ....  182

ORBITAL ENERGIES
----------------

  NO   OCC          E(Eh)            E(eV)
   0   2.0000     -18.736657      -509.8504
   1   2.0000      -9.959595      -271.0144
   2   2.0000      -9.915576      -269.8165
   3   2.0000      -9.909379      -269.6479
   4   2.0000      -9.905561      -269.5440
   5   2.0000      -9.905156      -269.5330
   6   2.0000      -9.904982      -269.5283
   7   2.0000      -9.896797      -269.3055
   8   2.0000      -9.890184      -269.1256
   9   2.0000      -9.886510      -269.0256
  10   2.0000      -9.875711      -268.7318
  11   2.0000      -0.928077       -25.2543
  12   2.0000      -0.784433       -21.3455
  13   2.0000      -0.730311       -19.8728
  14   2.0000      -0.683794       -18.6070
  15   2.0000      -0.680348       -18.5132
  16   2.0000      -0.619246       -16.8505
  17   2.0000      -0.590658       -16.0726
  18   2.0000      -0.559929       -15.2365
  19   2.0000      -0.525324       -14.2948
  20   2.0000      -0.488294       -13.2872
  21   2.0000      -0.450869       -12.2688
  22   2.0000      -0.449027       -12.2186
  23   2.0000      -0.427310       -11.6277
  24   2.0000      -0.411977       -11.2105
  25   2.0000      -0.396555       -10.7908
  26   2.0000      -0.392311       -10.6753
  27   2.0000      -0.378272       -10.2933
  28   2.0000      -0.369916       -10.0659
  29   2.0000      -0.360048        -9.7974
  30   2.0000      -0.357607        -9.7310
  31   2.0000      -0.351342        -9.5605
  32   2.0000      -0.342371        -9.3164
  33   2.0000      -0.328605        -8.9418
  34   2.0000      -0.320221        -8.7137
  35   2.0000      -0.293584        -7.9888
  36   2.0000      -0.289149        -7.8681
  37   2.0000      -0.282248        -7.6804
  38   2.0000      -0.235602        -6.4111
  39   2.0000      -0.223155        -6.0724
  40   2.0000      -0.197115        -5.3638
  41   0.0000      -0.085576        -2.3286
  42   0.0000      -0.019654        -0.5348
  43   0.0000       0.019030         0.5178
  44   0.0000       0.030466         0.8290
  45   0.0000       0.053507         1.4560

MULLIKEN ATOMIC CHARGES
-----------------------
   0 C :   -0.212837
   1 C :   -0.073356
   2 C :   -0.231842
   3 C :   -0.125182
   4 H :    0.062134
   5 C :   -0.130711
   6 C :   -0.083569
   7 C :   -0.024819
   8 C :   -0.203157
   9 C :   -0.044385
  10 C :    0.027543
  11 O :   -0.172256
  12 H :    0.100971
  13 H :    0.109305
  14 H :    0.110324
  15 H :    0.101628
  16 H :    0.084355
  17 H :    0.091868
  18 H :    0.088075
  19 H :    0.100703
  20 H :    0.112288
  21 H :    0.068155
  22 H :    0.107962
  23 H :    0.107580
  24 H :    0.029221
Sum of atomic charges:    0.0000000

LOEWDIN ATOMIC CHARGES
----------------------
   0 C :   -0.321396
   1 C :   -0.049994
   2 C :   -0.266198
   3 C :   -0.130987
   4 H :    0.121798
   5 C :   -0.202781
   6 C :   -0.213431
   7 C :   -0.102686
   8 C :   -0.090769
   9 C :   -0.212447
  10 C :   -0.006294
  11 O :   -0.135759
  12 H :    0.125186
  13 H :    0.126918
  14 H :    0.129948
  15 H :    0.121851
  16 H :    0.119766
  17 H :    0.120830
  18 H :    0.118680
  19 H :    0.133436
  20 H :    0.137314
  21 H :    0.124556
  22 H :    0.140698
  23 H :    0.135366
  24 H :    0.076397

  Mayer bond orders larger than 0.100000
B(  0-C ,  1-C ) :   1.1219 B(  0-C , 12-H ) :   0.9404 B(  0-C , 13-H ) :   0.9294
B(  0-C , 14-H ) :   0.9268 B(  1-C ,  2-C ) :   2.0478 B(  1-C ,  3-C ) :   1.0107
B(  2-C , 15-H ) :   0.8946 B(  2-C , 16-H ) :   0.9004 B(  3-C ,  4-H ) :   0.8775
B(  3-C ,  5-C ) :   1.0498 B(  3-C ,  9-C ) :   1.0872 B(  5-C ,  6-C ) :   1.1275
B(  5-C , 17-H ) :   0.9203 B(  5-C , 18-H ) :   0.9114 B(  6-C ,  7-C ) :   1.0746
B(  6-C , 19-H ) :   0.8906 B(  6-C , 20-H ) :   0.8733 B(  7-C ,  8-C ) :   1.7407
B(  7-C , 10-C ) :   1.0214 B(  8-C ,  9-C ) :   1.0621 B(  8-C , 11-O ) :   0.1006
B(  8-C , 21-H ) :   0.9237 B(  9-C , 22-H ) :   0.8785 B(  9-C , 23-H ) :   0.8953
B( 10-C , 11-O ) :   2.1152 B( 10-C , 24-H ) :   0.9211

Dispersion correction           -0.027891692
FINAL SINGLE POINT ENERGY      -463.629510704979

DIPOLE MOMENT
-------------

Method             : SCF
Type of density    : Electron Density
Multiplicity       :   1
Irrep              :   0
Energy             :  -463.7045635121684199 Eh
Relativity type    :
Basis              : AO
                                X                 Y                 Z
Electronic contribution:     -9.995500516       0.160923817       0.899475079
Nuclear contribution   :     11.201974480       0.654113555      -1.107626905
                        -----------------------------------------
Total Dipole Moment    :      1.206473965       0.815037372      -0.208151826
                        -----------------------------------------
Magnitude (a.u.)       :      1.470779564
Magnitude (Debye)      :      3.738424555

Rotational constants in cm-1:             0.069599             0.023219             0.022346
Rotational constants in MHz :          2086.522099           696.102112           669.913923

                             ****ORCA TERMINATED NORMALLY****
TOTAL RUN TIME: 0 days 0 hours 0 minutes 16 seconds 951 msec
