                         Program Version 6.0.0  -   RELEASE  -
|  1> ! pbe def2-sv(p) def2/J RI DEFGRID1 loosescf d4 GCP(DFT/SV(P)) printgap
|  2> %output
|  3>     printlevel normal
|  4> end
|  5> * xyz 0 1
|  6> C 1.9594437143 0.1731176267 0.7710350349
|  7> C 1.4304156722 -0.68318385 -0.3757651014
|  8> C 0.2496127611 -0.071212999 -1.1352165988
|  9> C -1.0628411485 0.1390762196 -0.3551787266
| 10> H -1.858961256 0.2971730067 -1.0943567946
| 11> C -1.4424301322 -1.053445285 0.5217133405
| 12> O -1.0639859091 1.3502512149 0.382413256
| 13> H 2.916965329 -0.2144577714 1.1123672936
| 14> H 1.2819396574 0.1653395311 1.6216710268
| 15> H 2.1052862676 1.2004132267 0.4448053788
| 16> H 2.2357968042 -0.8250084117 -1.1004010467
| 17> H 1.1571470141 -1.6704090412 -0.0010417533
| 18> H 0.5453768582 0.9018938836 -1.5352914029
| 19> H 0.0233623604 -0.721117628 -1.9827424356
| 20> H -1.4808176054 -1.9567089919 -0.0797777775
| 21> H -0.7234112087 -1.1912661049 1.3249293089
| 22> H -2.4213237392 -0.8822429041 0.9630606264
| 23> H -0.4077623658 1.2859360964 1.0896206151
| 24> *
| 25>
| 26>                          ****END OF INPUT****

CARTESIAN COORDINATES (ANGSTROEM)
---------------------------------
  C      1.959444    0.173118    0.771035
  C      1.430416   -0.683184   -0.375765
  C      0.249613   -0.071213   -1.135217
  C     -1.062841    0.139076   -0.355179
  H     -1.858961    0.297173   -1.094357
  C     -1.442430   -1.053445    0.521713
  O     -1.063986    1.350251    0.382413
  H      2.916965   -0.214458    1.112367
  H      1.281940    0.165340    1.621671
  H      2.105286    1.200413    0.444805
  H      2.235797   -0.825008   -1.100401
  H      1.157147   -1.670409   -0.001042
  H      0.545377    0.901894   -1.535291
  H      0.023362   -0.721118   -1.982742
  H     -1.480818   -1.956709   -0.079778
  H     -0.723411   -1.191266    1.324929
  H     -2.421324   -0.882243    0.963061
  H     -0.407762    1.285936    1.089621

 Total Charge           Charge          ....    0
 Multiplicity           Mult            ....    1
 Number of Electrons    NEL             ....   50
 Basis Dimension        Dim             ....  108

ORBITAL ENERGIES
----------------

  NO   OCC          E(Eh)            E(eV)
   0   2.0000     -18.733601      -509.7672
   1   2.0000      -9.933060      -270.2923
   2   2.0000      -9.888322      -269.0749
   3   2.0000      -9.882882      -268.9269
   4   2.0000      -9.879609      -268.8378
   5   2.0000      -9.874935      -268.7106
   6   2.0000      -0.911897       -24.8140
   7   2.0000      -0.717887       -19.5347
   8   2.0000      -0.668542       -18.1919
   9   2.0000      -0.615315       -16.7436
  10   2.0000      -0.555320       -15.1110
  11   2.0000      -0.509000       -13.8506
  12   2.0000      -0.438286       -11.9264
  13   2.0000      -0.422794       -11.5048
  14   2.0000      -0.395419       -10.7599
  15   2.0000      -0.377712       -10.2781
  16   2.0000      -0.374061       -10.1787
  17   2.0000      -0.358812        -9.7638
  18   2.0000      -0.330652        -8.9975
  19   2.0000      -0.320137        -8.7114
  20   2.0000      -0.314764        -8.5652
  21   2.0000      -0.292350        -7.9552
  22   2.0000      -0.287723        -7.8293
  23   2.0000      -0.256209        -6.9718
  24   2.0000      -0.207356        -5.6424
  25   0.0000       0.021069         0.5733
  26   0.0000       0.050102         1.3634
  27   0.0000       0.068407         1.8614
  28   0.0000       0.070778         1.9260
  29   0.0000       0.085521         2.3271

MULLIKEN ATOMIC CHARGES
-----------------------
   0 C :   -0.309038
   1 C :   -0.193837
   2 C :   -0.152723
   3 C :    0.023034
   4 H :    0.068336
   5 C :   -0.267856
   6 O :   -0.433468
   7 H :    0.107858
   8 H :    0.100742
   9 H :    0.109270
  10 H :    0.089367
  11 H :    0.092383
  12 H :    0.088317
  13 H :    0.080044
  14 H :    0.099270
  15 H :    0.098154
  16 H :    0.111160
  17 H :    0.288988
Sum of atomic charges:   -0.0000000

LOEWDIN ATOMIC CHARGES
----------------------
   0 C :   -0.349197
   1 C :   -0.238186
   2 C :   -0.242932
   3 C :   -0.059051
   4 H :    0.112755
   5 C :   -0.353463
   6 O :   -0.331538
   7 H :    0.123137
   8 H :    0.107320
   9 H :    0.120279
  10 H :    0.119944
  11 H :    0.115329
  12 H :    0.119213
  13 H :    0.119586
  14 H :    0.123315
  15 H :    0.115509
  16 H :    0.124601
  17 H :    0.273380

  Mayer bond orders larger than 0.100000
B(  0-C ,  1-C ) :   1.1522 B(  0-C ,  7-H ) :   0.9475 B(  0-C ,  8-H ) :   0.9352
B(  0-C ,  9-H ) :   0.9511 B(  1-C ,  2-C ) :   1.1357 B(  1-C , 10-H ) :   0.9251
B(  1-C , 11-H ) :   0.9178 B(  2-C ,  3-C ) :   1.0625 B(  2-C , 12-H ) :   0.9157
B(  2-C , 13-H ) :   0.9083 B(  3-C ,  4-H ) :   0.9063 B(  3-C ,  5-C ) :   1.1160
B(  3-C ,  6-O ) :   1.0480 B(  5-C , 14-H ) :   0.9394 B(  5-C , 15-H ) :   0.9310
B(  5-C , 16-H ) :   0.9437 B(  6-O , 17-H ) :   0.8470

Dispersion correction           -0.013364881
FINAL SINGLE POINT ENERGY      -272.302768814136

DIPOLE MOMENT
-------------

Method             : SCF
Type of density    : Electron Density
Multiplicity       :   1
Irrep              :   0
Energy             :  -272.3726655493260296 Eh
Relativity type    :
Basis              : AO
                                X                 Y                 Z
Electronic contribution:     -2.715742334       2.877761891      -0.605414554
Nuclear contribution   :      3.149197017      -3.367159326       0.721346779
                        -----------------------------------------
Total Dipole Moment    :      0.433454683      -0.489397435       0.115932225
                        -----------------------------------------
Magnitude (a.u.)       :      0.663952628
Magnitude (Debye)      :      1.687633463

Rotational constants in cm-1:             0.153283             0.080928             0.074051
Rotational constants in MHz :          4595.306001          2426.147024          2220.002535

                             ****ORCA TERMINATED NORMALLY****
TOTAL RUN TIME: 0 days 0 hours 0 minutes 7 seconds 610 msec
