                         Program Version 6.0.0  -   RELEASE  -
|  1> ! pbe def2-sv(p) def2/J RI DEFGRID1 loosescf d4 GCP(DFT/SV(P)) printgap
|  2> %output
|  3>     printlevel normal
|  4> end
|  5> * xyz 0 1
|  6> C 3.447898271 -0.0996133237 -0.9761343329
|  7> C 2.5437807566 0.0800030306 0.2071497384
|  8> C 3.0143146832 0.1141508137 1.4433016991
|  9> C 1.0789299933 0.184560458 -0.1499719905
| 10> H 1.0051223332 0.7793540914 -1.0669813901
| 11> C 0.5028079932 -1.2204873752 -0.438606147
| 12> C -0.933865207 -1.4107096882 0.0820095628
| 13> C -1.7315964738 -0.1481712167 -0.032433975
| 14> C -1.1583958596 0.9862818599 0.4113513864
| 15> C 0.2337751944 0.9171380939 0.9117594404
| 16> C -3.0679101123 -0.1627451474 -0.5882519443
| 17> O -3.8081421308 0.8008345364 -0.6906688677
| 18> H 4.4786069791 -0.2374262724 -0.6623426889
| 19> H 3.1390603731 -0.9643095396 -1.5606617203
| 20> H 3.394346172 0.7745111382 -1.6237985214
| 21> H 2.3890950065 0.244549923 2.3080212799
| 22> H 4.0681413335 0.0133082183 1.640921575
| 23> H 0.5130107698 -1.3931831578 -1.5149054392
| 24> H 1.1379770814 -1.976787473 0.0250253995
| 25> H -1.4165257962 -2.2279440586 -0.4538248736
| 26> H -0.8882004546 -1.6859833194 1.1390247864
| 27> H -1.6854472438 1.9268448719 0.3588942096
| 28> H 0.6473523027 1.9043951314 1.1083071059
| 29> H 0.2503495833 0.3358738368 1.8367029541
| 30> H -3.4125975303 -1.1536921515 -0.9404404951
| 31> *
| 32>
| 33>                          ****END OF INPUT****

CARTESIAN COORDINATES (ANGSTROEM)
---------------------------------
  C      3.447898   -0.099613   -0.976134
  C      2.543781    0.080003    0.207150
  C      3.014315    0.114151    1.443302
  C      1.078930    0.184560   -0.149972
  H      1.005122    0.779354   -1.066981
  C      0.502808   -1.220487   -0.438606
  C     -0.933865   -1.410710    0.082010
  C     -1.731596   -0.148171   -0.032434
  C     -1.158396    0.986282    0.411351
  C      0.233775    0.917138    0.911759
  C     -3.067910   -0.162745   -0.588252
  O     -3.808142    0.800835   -0.690669
  H      4.478607   -0.237426   -0.662343
  H      3.139060   -0.964310   -1.560662
  H      3.394346    0.774511   -1.623799
  H      2.389095    0.244550    2.308021
  H      4.068141    0.013308    1.640922
  H      0.513011   -1.393183   -1.514905
  H      1.137977   -1.976787    0.025025
  H     -1.416526   -2.227944   -0.453825
  H     -0.888200   -1.685983    1.139025
  H     -1.685447    1.926845    0.358894
  H      0.647352    1.904395    1.108307
  H      0.250350    0.335874    1.836703
  H     -3.412598   -1.153692   -0.940440

 Total Charge           Charge          ....    0
 Multiplicity           Mult            ....    1
 Number of Electrons    NEL             ....   82
 Basis Dimension        Dim             ....  182

ORBITAL ENERGIES
----------------

  NO   OCC          E(Eh)            E(eV)
   0   2.0000     -18.739454      -509.9265
   1   2.0000      -9.961374      -271.0628
   2   2.0000      -9.911227      -269.6982
   3   2.0000      -9.910485      -269.6780
   4   2.0000      -9.906863      -269.5794
   5   2.0000      -9.902648      -269.4647
   6   2.0000      -9.901712      -269.4393
   7   2.0000      -9.900041      -269.3938
   8   2.0000      -9.899331      -269.3745
   9   2.0000      -9.887774      -269.0600
  10   2.0000      -9.878363      -268.8039
  11   2.0000      -0.928943       -25.2778
  12   2.0000      -0.785319       -21.3696
  13   2.0000      -0.734886       -19.9973
  14   2.0000      -0.683591       -18.6015
  15   2.0000      -0.674173       -18.3452
  16   2.0000      -0.620494       -16.8845
  17   2.0000      -0.589811       -16.0496
  18   2.0000      -0.567524       -15.4431
  19   2.0000      -0.524721       -14.2784
  20   2.0000      -0.482854       -13.1391
  21   2.0000      -0.466604       -12.6969
  22   2.0000      -0.447368       -12.1735
  23   2.0000      -0.432536       -11.7699
  24   2.0000      -0.411971       -11.2103
  25   2.0000      -0.400197       -10.8899
  26   2.0000      -0.387834       -10.5535
  27   2.0000      -0.372122       -10.1260
  28   2.0000      -0.369933       -10.0664
  29   2.0000      -0.362814        -9.8727
  30   2.0000      -0.356985        -9.7141
  31   2.0000      -0.351040        -9.5523
  32   2.0000      -0.339324        -9.2335
  33   2.0000      -0.335591        -9.1319
  34   2.0000      -0.325334        -8.8528
  35   2.0000      -0.295940        -8.0529
  36   2.0000      -0.292949        -7.9715
  37   2.0000      -0.282434        -7.6854
  38   2.0000      -0.232723        -6.3327
  39   2.0000      -0.223090        -6.0706
  40   2.0000      -0.198917        -5.4128
  41   0.0000      -0.093887        -2.5548
  42   0.0000      -0.017675        -0.4810
  43   0.0000       0.023701         0.6449
  44   0.0000       0.028821         0.7843
  45   0.0000       0.044465         1.2100

MULLIKEN ATOMIC CHARGES
-----------------------
   0 C :   -0.209013
   1 C :   -0.044008
   2 C :   -0.237704
   3 C :   -0.186077
   4 H :    0.072241
   5 C :   -0.113495
   6 C :   -0.064715
   7 C :   -0.058600
   8 C :   -0.161806
   9 C :   -0.015686
  10 C :    0.039854
  11 O :   -0.173444
  12 H :    0.098562
  13 H :    0.110445
  14 H :    0.110339
  15 H :    0.089597
  16 H :    0.083143
  17 H :    0.090915
  18 H :    0.089752
  19 H :    0.084665
  20 H :    0.094518
  21 H :    0.073455
  22 H :    0.098358
  23 H :    0.100817
  24 H :    0.027886
Sum of atomic charges:   -0.0000000

LOEWDIN ATOMIC CHARGES
----------------------
   0 C :   -0.320330
   1 C :   -0.048926
   2 C :   -0.271768
   3 C :   -0.125008
   4 H :    0.125118
   5 C :   -0.207436
   6 C :   -0.211959
   7 C :   -0.118467
   8 C :   -0.063128
   9 C :   -0.212453
  10 C :   -0.004562
  11 O :   -0.137867
  12 H :    0.124520
  13 H :    0.127745
  14 H :    0.130060
  15 H :    0.116830
  16 H :    0.119888
  17 H :    0.122923
  18 H :    0.125114
  19 H :    0.123859
  20 H :    0.132856
  21 H :    0.131903
  22 H :    0.129173
  23 H :    0.136837
  24 H :    0.075080

  Mayer bond orders larger than 0.100000
B(  0-C ,  1-C ) :   1.1205 B(  0-C , 12-H ) :   0.9394 B(  0-C , 13-H ) :   0.9321
B(  0-C , 14-H ) :   0.9289 B(  1-C ,  2-C ) :   2.0417 B(  1-C ,  3-C ) :   0.9946
B(  2-C , 15-H ) :   0.9039 B(  2-C , 16-H ) :   0.8989 B(  3-C ,  4-H ) :   0.8800
B(  3-C ,  5-C ) :   1.0716 B(  3-C ,  9-C ) :   1.1191 B(  5-C ,  6-C ) :   1.1487
B(  5-C , 17-H ) :   0.9136 B(  5-C , 18-H ) :   0.9048 B(  6-C ,  7-C ) :   1.1081
B(  6-C , 19-H ) :   0.8983 B(  6-C , 20-H ) :   0.8710 B(  7-C ,  8-C ) :   1.7388
B(  7-C , 10-C ) :   1.0356 B(  8-C ,  9-C ) :   1.0774 B(  8-C , 11-O ) :   0.1149
B(  8-C , 21-H ) :   0.9500 B(  9-C , 22-H ) :   0.9167 B(  9-C , 23-H ) :   0.8393
B( 10-C , 11-O ) :   2.1339 B( 10-C , 24-H ) :   0.9126

Dispersion correction           -0.026365905
FINAL SINGLE POINT ENERGY      -463.617223868503

DIPOLE MOMENT
-------------

Method             : SCF
Type of density    : Electron Density
Multiplicity       :   1
Irrep              :   0
Energy             :  -463.6931291828135500 Eh
Relativity type    :
Basis              : AO
                                X                 Y                 Z
Electronic contribution:    -11.567563039       2.880350558      -0.421744393
Nuclear contribution   :     12.721663410      -3.422280367       0.546978659
                        -----------------------------------------
Total Dipole Moment    :      1.154100371      -0.541929809       0.125234266
                        -----------------------------------------
Magnitude (a.u.)       :      1.281139807
Magnitude (Debye)      :      3.256398599

Rotational constants in cm-1:             0.094075             0.018487             0.017489
Rotational constants in MHz :          2820.289014           554.223200           524.295601

                             ****ORCA TERMINATED NORMALLY****
TOTAL RUN TIME: 0 days 0 hours 0 minutes 18 seconds 520 msec
