                         Program Version 6.0.0  -   RELEASE  -
|  1> ! r2scan-3c def2/J RI DEFGRID2 scfconv6 printgap
|  2> %output
|  3>     printlevel normal
|  4> end
|  5> * xyz 0 1
|  6> C 2.3089810046 -1.0136831281 -0.6063933553
|  7> C 1.5925611289 0.3149456713 -0.3984640106
|  8> C 0.3521706709 0.2064660083 0.501547526
|  9> H 0.6360613431 -0.3366055103 1.4119031229
| 10> C -0.8290734377 -0.5453285221 -0.1517216218
| 11> C -1.8680101136 -0.8887531293 0.9153566661
| 12> C -1.4868569955 0.251175927 -1.2786621134
| 13> O -0.0325091558 1.4862997222 0.9745338606
| 14> H 1.6878116129 -1.7141940087 -1.1579497606
| 15> H 2.5659121169 -1.4607864143 0.35102057
| 16> H 3.2251095471 -0.8562748087 -1.1698217289
| 17> H 2.2769493351 1.0167888713 0.0845586629
| 18> H 1.312967411 0.7365072241 -1.3658973448
| 19> H -0.4328033716 -1.4770971155 -0.5645095446
| 20> H -2.1924583157 0.018596678 1.4205613017
| 21> H -2.7337684911 -1.3684020496 0.465795769
| 22> H -1.4459730501 -1.5608926951 1.6588458398
| 23> H -0.7631500468 0.5474612058 -2.0337639152
| 24> H -1.9759371027 1.1389860818 -0.8839297267
| 25> H -2.2449840986 -0.3600929736 -1.7620068818
| 26> H -0.2311527037 2.0453370458 0.2108227304
| 27> *
| 28>
| 29>                          ****END OF INPUT****

CARTESIAN COORDINATES (ANGSTROEM)
---------------------------------
  C      2.308981   -1.013683   -0.606393
  C      1.592561    0.314946   -0.398464
  C      0.352171    0.206466    0.501548
  H      0.636061   -0.336606    1.411903
  C     -0.829073   -0.545329   -0.151722
  C     -1.868010   -0.888753    0.915357
  C     -1.486857    0.251176   -1.278662
  O     -0.032509    1.486300    0.974534
  H      1.687812   -1.714194   -1.157950
  H      2.565912   -1.460786    0.351021
  H      3.225110   -0.856275   -1.169822
  H      2.276949    1.016789    0.084559
  H      1.312967    0.736507   -1.365897
  H     -0.432803   -1.477097   -0.564510
  H     -2.192458    0.018597    1.420561
  H     -2.733768   -1.368402    0.465796
  H     -1.445973   -1.560893    1.658846
  H     -0.763150    0.547461   -2.033764
  H     -1.975937    1.138986   -0.883930
  H     -2.244984   -0.360093   -1.762007
  H     -0.231153    2.045337    0.210823

 Total Charge           Charge          ....    0
 Multiplicity           Mult            ....    1
 Number of Electrons    NEL             ....   58
 Basis Dimension        Dim             ....  208

ORBITAL ENERGIES
----------------

  NO   OCC          E(Eh)            E(eV)
   0   2.0000     -18.943800      -515.4870
   1   2.0000     -10.075517      -274.1687
   2   2.0000     -10.033246      -273.0185
   3   2.0000     -10.025769      -272.8150
   4   2.0000     -10.021593      -272.7014
   5   2.0000     -10.021468      -272.6980
   6   2.0000     -10.011244      -272.4198
   7   2.0000      -0.982900       -26.7461
   8   2.0000      -0.771916       -21.0049
   9   2.0000      -0.732800       -19.9405
  10   2.0000      -0.653759       -17.7897
  11   2.0000      -0.637205       -17.3392
  12   2.0000      -0.573079       -15.5943
  13   2.0000      -0.534465       -14.5435
  14   2.0000      -0.450845       -12.2681
  15   2.0000      -0.445907       -12.1338
  16   2.0000      -0.423100       -11.5131
  17   2.0000      -0.407766       -11.0959
  18   2.0000      -0.390009       -10.6127
  19   2.0000      -0.367978       -10.0132
  20   2.0000      -0.354218        -9.6388
  21   2.0000      -0.348308        -9.4779
  22   2.0000      -0.338761        -9.2182
  23   2.0000      -0.322446        -8.7742
  24   2.0000      -0.312161        -8.4943
  25   2.0000      -0.303733        -8.2650
  26   2.0000      -0.296501        -8.0682
  27   2.0000      -0.274405        -7.4669
  28   2.0000      -0.230662        -6.2766
  29   0.0000       0.056989         1.5507
  30   0.0000       0.083892         2.2828
  31   0.0000       0.106807         2.9064
  32   0.0000       0.118733         3.2309
  33   0.0000       0.123546         3.3619

MULLIKEN ATOMIC CHARGES
-----------------------
   0 C :   -0.501122
   1 C :   -0.241956
   2 C :   -0.037841
   3 H :    0.144311
   4 C :    0.057813
   5 C :   -0.527089
   6 C :   -0.572233
   7 O :   -0.430013
   8 H :    0.146351
   9 H :    0.148480
  10 H :    0.149684
  11 H :    0.164314
  12 H :    0.127312
  13 H :    0.143274
  14 H :    0.177638
  15 H :    0.142864
  16 H :    0.145190
  17 H :    0.152129
  18 H :    0.154388
  19 H :    0.155695
  20 H :    0.300811
Sum of atomic charges:    0.0000000

LOEWDIN ATOMIC CHARGES
----------------------
   0 C :   -0.420166
   1 C :   -0.292526
   2 C :    0.053641
   3 H :    0.184800
   4 C :   -0.224892
   5 C :   -0.410722
   6 C :   -0.417981
   7 O :   -0.609017
   8 H :    0.148308
   9 H :    0.152538
  10 H :    0.152755
  11 H :    0.165517
  12 H :    0.153194
  13 H :    0.160388
  14 H :    0.164978
  15 H :    0.151003
  16 H :    0.153758
  17 H :    0.152626
  18 H :    0.155520
  19 H :    0.158174
  20 H :    0.268101

  Mayer bond orders larger than 0.100000
B(  0-C ,  1-C ) :   0.8895 B(  0-C ,  8-H ) :   0.9801 B(  0-C ,  9-H ) :   0.9842
B(  0-C , 10-H ) :   0.9685 B(  1-C ,  2-C ) :   0.9356 B(  1-C , 11-H ) :   0.9780
B(  1-C , 12-H ) :   0.9600 B(  2-C ,  3-H ) :   0.9785 B(  2-C ,  4-C ) :   0.8696
B(  2-C ,  7-O ) :   0.9339 B(  4-C ,  5-C ) :   0.8965 B(  4-C ,  6-C ) :   0.8403
B(  4-C , 13-H ) :   0.9561 B(  5-C , 14-H ) :   0.9852 B(  5-C , 15-H ) :   0.9777
B(  5-C , 16-H ) :   0.9774 B(  6-C , 17-H ) :   0.9791 B(  6-C , 18-H ) :   0.9865
B(  6-C , 19-H ) :   0.9678 B(  7-O , 20-H ) :   0.8933

Dispersion correction           -0.005699383
FINAL SINGLE POINT ENERGY      -312.202332939982

DIPOLE MOMENT
-------------

Method             : SCF
Type of density    : Electron Density
Multiplicity       :   1
Irrep              :   0
Energy             :  -312.2079132737565601 Eh
Relativity type    :
Basis              : AO
                                X                 Y                 Z
Electronic contribution:      0.364091452       3.182363031       2.522541234
Nuclear contribution   :     -0.296394080      -3.384102971      -3.113722400
                        -----------------------------------------
Total Dipole Moment    :      0.067697372      -0.201739940      -0.591181166
                        -----------------------------------------
Magnitude (a.u.)       :      0.628312906
Magnitude (Debye)      :      1.597044489

Rotational constants in cm-1:             0.109417             0.058211             0.052483
Rotational constants in MHz :          3280.224772          1745.128204          1573.410243

                             ****ORCA TERMINATED NORMALLY****
TOTAL RUN TIME: 0 days 0 hours 0 minutes 28 seconds 248 msec
