                         Program Version 6.0.0  -   RELEASE  -
|  1> ! r2scan-3c def2/J RI DEFGRID2 scfconv6 printgap
|  2> %output
|  3>     printlevel normal
|  4> end
|  5> %cpcm
|  6>     smd true
|  7>     smdsolvent "water"
|  8> end
|  9> * xyz 0 1
| 10> C 2.3089810046 -1.0136831281 -0.6063933553
| 11> C 1.5925611289 0.3149456713 -0.3984640106
| 12> C 0.3521706709 0.2064660083 0.501547526
| 13> H 0.6360613431 -0.3366055103 1.4119031229
| 14> C -0.8290734377 -0.5453285221 -0.1517216218
| 15> C -1.8680101136 -0.8887531293 0.9153566661
| 16> C -1.4868569955 0.251175927 -1.2786621134
| 17> O -0.0325091558 1.4862997222 0.9745338606
| 18> H 1.6878116129 -1.7141940087 -1.1579497606
| 19> H 2.5659121169 -1.4607864143 0.35102057
| 20> H 3.2251095471 -0.8562748087 -1.1698217289
| 21> H 2.2769493351 1.0167888713 0.0845586629
| 22> H 1.312967411 0.7365072241 -1.3658973448
| 23> H -0.4328033716 -1.4770971155 -0.5645095446
| 24> H -2.1924583157 0.018596678 1.4205613017
| 25> H -2.7337684911 -1.3684020496 0.465795769
| 26> H -1.4459730501 -1.5608926951 1.6588458398
| 27> H -0.7631500468 0.5474612058 -2.0337639152
| 28> H -1.9759371027 1.1389860818 -0.8839297267
| 29> H -2.2449840986 -0.3600929736 -1.7620068818
| 30> H -0.2311527037 2.0453370458 0.2108227304
| 31> *
| 32>
| 33>                          ****END OF INPUT****

CARTESIAN COORDINATES (ANGSTROEM)
---------------------------------
  C      2.308981   -1.013683   -0.606393
  C      1.592561    0.314946   -0.398464
  C      0.352171    0.206466    0.501548
  H      0.636061   -0.336606    1.411903
  C     -0.829073   -0.545329   -0.151722
  C     -1.868010   -0.888753    0.915357
  C     -1.486857    0.251176   -1.278662
  O     -0.032509    1.486300    0.974534
  H      1.687812   -1.714194   -1.157950
  H      2.565912   -1.460786    0.351021
  H      3.225110   -0.856275   -1.169822
  H      2.276949    1.016789    0.084559
  H      1.312967    0.736507   -1.365897
  H     -0.432803   -1.477097   -0.564510
  H     -2.192458    0.018597    1.420561
  H     -2.733768   -1.368402    0.465796
  H     -1.445973   -1.560893    1.658846
  H     -0.763150    0.547461   -2.033764
  H     -1.975937    1.138986   -0.883930
  H     -2.244984   -0.360093   -1.762007
  H     -0.231153    2.045337    0.210823

 Total Charge           Charge          ....    0
 Multiplicity           Mult            ....    1
 Number of Electrons    NEL             ....   58
 Basis Dimension        Dim             ....  208

ORBITAL ENERGIES
----------------

  NO   OCC          E(Eh)            E(eV)
   0   2.0000     -18.947913      -515.5989
   1   2.0000     -10.070195      -274.0239
   2   2.0000     -10.024609      -272.7835
   3   2.0000     -10.016260      -272.5563
   4   2.0000     -10.010149      -272.3900
   5   2.0000     -10.008399      -272.3424
   6   2.0000     -10.006009      -272.2773
   7   2.0000      -0.985789       -26.8247
   8   2.0000      -0.763916       -20.7872
   9   2.0000      -0.723415       -19.6851
  10   2.0000      -0.644379       -17.5344
  11   2.0000      -0.630786       -17.1646
  12   2.0000      -0.564573       -15.3628
  13   2.0000      -0.528624       -14.3846
  14   2.0000      -0.444783       -12.1032
  15   2.0000      -0.439144       -11.9497
  16   2.0000      -0.413830       -11.2609
  17   2.0000      -0.402642       -10.9565
  18   2.0000      -0.381364       -10.3774
  19   2.0000      -0.361690        -9.8421
  20   2.0000      -0.345134        -9.3916
  21   2.0000      -0.340120        -9.2551
  22   2.0000      -0.332960        -9.0603
  23   2.0000      -0.312753        -8.5104
  24   2.0000      -0.305984        -8.3263
  25   2.0000      -0.295918        -8.0523
  26   2.0000      -0.289756        -7.8847
  27   2.0000      -0.270044        -7.3483
  28   2.0000      -0.233280        -6.3479
  29   0.0000       0.071092         1.9345
  30   0.0000       0.096019         2.6128
  31   0.0000       0.117660         3.2017
  32   0.0000       0.129526         3.5246
  33   0.0000       0.131740         3.5848

MULLIKEN ATOMIC CHARGES
-----------------------
   0 C :   -0.538029
   1 C :   -0.253646
   2 C :   -0.018079
   3 H :    0.154890
   4 C :    0.047657
   5 C :   -0.570791
   6 C :   -0.587025
   7 O :   -0.520296
   8 H :    0.160975
   9 H :    0.158551
  10 H :    0.160223
  11 H :    0.158659
  12 H :    0.150019
  13 H :    0.158979
  14 H :    0.168756
  15 H :    0.158313
  16 H :    0.160674
  17 H :    0.165563
  18 H :    0.162473
  19 H :    0.166264
  20 H :    0.355871
Sum of atomic charges:    0.0000000

LOEWDIN ATOMIC CHARGES
----------------------
   0 C :   -0.426705
   1 C :   -0.291246
   2 C :    0.052809
   3 H :    0.187737
   4 C :   -0.221971
   5 C :   -0.420117
   6 C :   -0.421417
   7 O :   -0.647600
   8 H :    0.152868
   9 H :    0.154909
  10 H :    0.155256
  11 H :    0.163516
  12 H :    0.161048
  13 H :    0.166707
  14 H :    0.159513
  15 H :    0.155519
  16 H :    0.156824
  17 H :    0.158574
  18 H :    0.158775
  19 H :    0.159636
  20 H :    0.285364

  Mayer bond orders larger than 0.100000
B(  0-C ,  1-C ) :   0.8832 B(  0-C ,  8-H ) :   0.9767 B(  0-C ,  9-H ) :   0.9809
B(  0-C , 10-H ) :   0.9663 B(  1-C ,  2-C ) :   0.9342 B(  1-C , 11-H ) :   0.9775
B(  1-C , 12-H ) :   0.9609 B(  2-C ,  3-H ) :   0.9764 B(  2-C ,  4-C ) :   0.8765
B(  2-C ,  7-O ) :   0.9099 B(  4-C ,  5-C ) :   0.8792 B(  4-C ,  6-C ) :   0.8612
B(  4-C , 13-H ) :   0.9530 B(  5-C , 14-H ) :   0.9884 B(  5-C , 15-H ) :   0.9745
B(  5-C , 16-H ) :   0.9762 B(  6-C , 17-H ) :   0.9720 B(  6-C , 18-H ) :   0.9791
B(  6-C , 19-H ) :   0.9681 B(  7-O , 20-H ) :   0.8658

Dispersion correction           -0.005699383
FINAL SINGLE POINT ENERGY      -312.207695367984

DIPOLE MOMENT
-------------

Method             : SCF
Type of density    : Electron Density
Multiplicity       :   1
Irrep              :   0
Energy             :  -312.2132757017593576 Eh
Relativity type    :
Basis              : AO
                                X                 Y                 Z
Electronic contribution:      0.391414064       3.094981102       2.220544568
Nuclear contribution   :     -0.296394080      -3.384102971      -3.113722400
                        -----------------------------------------
Total Dipole Moment    :      0.095019983      -0.289121869      -0.893177832
                        -----------------------------------------
Magnitude (a.u.)       :      0.943603143
Magnitude (Debye)      :      2.398448581

Rotational constants in cm-1:             0.109417             0.058211             0.052483
Rotational constants in MHz :          3280.224772          1745.128204          1573.410243

                             ****ORCA TERMINATED NORMALLY****
TOTAL RUN TIME: 0 days 0 hours 0 minutes 33 seconds 414 msec
