                         Program Version 6.0.0  -   RELEASE  -
|  1> ! r2scan-3c def2/J RI DEFGRID2 scfconv6 printgap
|  2> %output
|  3>     printlevel normal
|  4> end
|  5> * xyz 0 1
|  6> C 0.9757163403 -1.2298968976 0.6801298676
|  7> C 1.0765413134 0.2698805543 0.4170557938
|  8> C 1.8264697254 0.5388283473 -0.8870503831
|  9> C -0.2992152235 0.9526002297 0.4398239373
| 10> C -1.3357429493 0.4034577595 -0.5412350409
| 11> O -1.940766587 -0.7565504937 0.0005576613
| 12> H 1.9683914402 -1.6670781554 0.7615048707
| 13> H 0.4441133078 -1.7265050656 -0.1266146778
| 14> H 0.4336957712 -1.4184740856 1.6033733519
| 15> H 1.6561080888 0.7193542616 1.2326469031
| 16> H 1.885685457 1.60700508 -1.0824115742
| 17> H 1.3325601495 0.0598184925 -1.7286274472
| 18> H 2.8375755503 0.144166658 -0.8226470863
| 19> H -0.1616518153 2.0146671046 0.2293241137
| 20> H -0.7251350159 0.8569804743 1.440668101
| 21> H -2.1024564821 1.1733185141 -0.70642418
| 22> H -0.8686729673 0.1733725545 -1.5066270755
| 23> H -2.6311699325 -1.0678586151 -0.5986680351
| 24> *
| 25>
| 26>                          ****END OF INPUT****

CARTESIAN COORDINATES (ANGSTROEM)
---------------------------------
  C      0.975716   -1.229897    0.680130
  C      1.076541    0.269881    0.417056
  C      1.826470    0.538828   -0.887050
  C     -0.299215    0.952600    0.439824
  C     -1.335743    0.403458   -0.541235
  O     -1.940767   -0.756550    0.000558
  H      1.968391   -1.667078    0.761505
  H      0.444113   -1.726505   -0.126615
  H      0.433696   -1.418474    1.603373
  H      1.656108    0.719354    1.232647
  H      1.885685    1.607005   -1.082412
  H      1.332560    0.059818   -1.728627
  H      2.837576    0.144167   -0.822647
  H     -0.161652    2.014667    0.229324
  H     -0.725135    0.856980    1.440668
  H     -2.102456    1.173319   -0.706424
  H     -0.868673    0.173373   -1.506627
  H     -2.631170   -1.067859   -0.598668

 Total Charge           Charge          ....    0
 Multiplicity           Mult            ....    1
 Number of Electrons    NEL             ....   50
 Basis Dimension        Dim             ....  179

ORBITAL ENERGIES
----------------

  NO   OCC          E(Eh)            E(eV)
   0   2.0000     -18.945818      -515.5419
   1   2.0000     -10.073694      -274.1192
   2   2.0000     -10.029109      -272.9059
   3   2.0000     -10.021906      -272.7099
   4   2.0000     -10.012202      -272.4459
   5   2.0000     -10.003218      -272.2014
   6   2.0000      -0.982282       -26.7293
   7   2.0000      -0.771761       -21.0007
   8   2.0000      -0.689499       -18.7622
   9   2.0000      -0.643367       -17.5069
  10   2.0000      -0.592106       -16.1120
  11   2.0000      -0.508551       -13.8384
  12   2.0000      -0.484922       -13.1954
  13   2.0000      -0.446623       -12.1532
  14   2.0000      -0.403465       -10.9788
  15   2.0000      -0.390783       -10.6337
  16   2.0000      -0.377443       -10.2707
  17   2.0000      -0.361555        -9.8384
  18   2.0000      -0.345261        -9.3950
  19   2.0000      -0.328405        -8.9364
  20   2.0000      -0.313398        -8.5280
  21   2.0000      -0.291539        -7.9332
  22   2.0000      -0.288164        -7.8414
  23   2.0000      -0.272098        -7.4042
  24   2.0000      -0.232376        -6.3233
  25   0.0000       0.060020         1.6332
  26   0.0000       0.090941         2.4746
  27   0.0000       0.117534         3.1983
  28   0.0000       0.123203         3.3525
  29   0.0000       0.132906         3.6166

MULLIKEN ATOMIC CHARGES
-----------------------
   0 C :   -0.478033
   1 C :   -0.049920
   2 C :   -0.505829
   3 C :   -0.255398
   4 C :   -0.172740
   5 O :   -0.413476
   6 H :    0.136929
   7 H :    0.165971
   8 H :    0.151973
   9 H :    0.146722
  10 H :    0.144581
  11 H :    0.146449
  12 H :    0.146837
  13 H :    0.141194
  14 H :    0.155443
  15 H :    0.120929
  16 H :    0.127549
  17 H :    0.290817
Sum of atomic charges:    0.0000000

LOEWDIN ATOMIC CHARGES
----------------------
   0 C :   -0.412833
   1 C :   -0.245757
   2 C :   -0.420475
   3 C :   -0.282076
   4 C :    0.004563
   5 O :   -0.633374
   6 H :    0.147990
   7 H :    0.161724
   8 H :    0.158603
   9 H :    0.154890
  10 H :    0.152072
  11 H :    0.149693
  12 H :    0.154078
  13 H :    0.161609
  14 H :    0.171618
  15 H :    0.156824
  16 H :    0.155952
  17 H :    0.264900

  Mayer bond orders larger than 0.100000
B(  0-C ,  1-C ) :   0.9191 B(  0-C ,  6-H ) :   0.9689 B(  0-C ,  7-H ) :   0.9737
B(  0-C ,  8-H ) :   0.9718 B(  1-C ,  2-C ) :   0.9236 B(  1-C ,  3-C ) :   0.9169
B(  1-C ,  9-H ) :   0.9683 B(  2-C , 10-H ) :   0.9752 B(  2-C , 11-H ) :   0.9835
B(  2-C , 12-H ) :   0.9702 B(  3-C ,  4-C ) :   0.9253 B(  3-C , 13-H ) :   0.9738
B(  3-C , 14-H ) :   0.9676 B(  4-C ,  5-O ) :   0.9083 B(  4-C , 15-H ) :   0.9535
B(  4-C , 16-H ) :   0.9843 B(  5-O , 17-H ) :   0.9004

Dispersion correction           -0.004470485
FINAL SINGLE POINT ENERGY      -272.895729558934

DIPOLE MOMENT
-------------

Method             : SCF
Type of density    : Electron Density
Multiplicity       :   1
Irrep              :   0
Energy             :  -272.9011981383096668 Eh
Relativity type    :
Basis              : AO
                                X                 Y                 Z
Electronic contribution:     -3.969607691      -0.566639966       0.784736060
Nuclear contribution   :      3.788626809       0.803818255      -1.223828743
                        -----------------------------------------
Total Dipole Moment    :     -0.180980882       0.237178288      -0.439092683
                        -----------------------------------------
Magnitude (a.u.)       :      0.530857801
Magnitude (Debye)      :      1.349333296

Rotational constants in cm-1:             0.169972             0.079013             0.066904
Rotational constants in MHz :          5095.619773          2368.754631          2005.730771

                             ****ORCA TERMINATED NORMALLY****
TOTAL RUN TIME: 0 days 0 hours 0 minutes 24 seconds 103 msec
