                         Program Version 6.0.0  -   RELEASE  -
|  1> ! r2scan-3c def2/J RI DEFGRID2 scfconv6 printgap
|  2> %output
|  3>     printlevel normal
|  4> end
|  5> %cpcm
|  6>     smd true
|  7>     smdsolvent "water"
|  8> end
|  9> * xyz 0 1
| 10> C 0.9757163403 -1.2298968976 0.6801298676
| 11> C 1.0765413134 0.2698805543 0.4170557938
| 12> C 1.8264697254 0.5388283473 -0.8870503831
| 13> C -0.2992152235 0.9526002297 0.4398239373
| 14> C -1.3357429493 0.4034577595 -0.5412350409
| 15> O -1.940766587 -0.7565504937 0.0005576613
| 16> H 1.9683914402 -1.6670781554 0.7615048707
| 17> H 0.4441133078 -1.7265050656 -0.1266146778
| 18> H 0.4336957712 -1.4184740856 1.6033733519
| 19> H 1.6561080888 0.7193542616 1.2326469031
| 20> H 1.885685457 1.60700508 -1.0824115742
| 21> H 1.3325601495 0.0598184925 -1.7286274472
| 22> H 2.8375755503 0.144166658 -0.8226470863
| 23> H -0.1616518153 2.0146671046 0.2293241137
| 24> H -0.7251350159 0.8569804743 1.440668101
| 25> H -2.1024564821 1.1733185141 -0.70642418
| 26> H -0.8686729673 0.1733725545 -1.5066270755
| 27> H -2.6311699325 -1.0678586151 -0.5986680351
| 28> *
| 29>
| 30>                          ****END OF INPUT****

CARTESIAN COORDINATES (ANGSTROEM)
---------------------------------
  C      0.975716   -1.229897    0.680130
  C      1.076541    0.269881    0.417056
  C      1.826470    0.538828   -0.887050
  C     -0.299215    0.952600    0.439824
  C     -1.335743    0.403458   -0.541235
  O     -1.940767   -0.756550    0.000558
  H      1.968391   -1.667078    0.761505
  H      0.444113   -1.726505   -0.126615
  H      0.433696   -1.418474    1.603373
  H      1.656108    0.719354    1.232647
  H      1.885685    1.607005   -1.082412
  H      1.332560    0.059818   -1.728627
  H      2.837576    0.144167   -0.822647
  H     -0.161652    2.014667    0.229324
  H     -0.725135    0.856980    1.440668
  H     -2.102456    1.173319   -0.706424
  H     -0.868673    0.173373   -1.506627
  H     -2.631170   -1.067859   -0.598668

 Total Charge           Charge          ....    0
 Multiplicity           Mult            ....    1
 Number of Electrons    NEL             ....   50
 Basis Dimension        Dim             ....  179

ORBITAL ENERGIES
----------------

  NO   OCC          E(Eh)            E(eV)
   0   2.0000     -18.946982      -515.5736
   1   2.0000     -10.066288      -273.9176
   2   2.0000     -10.024794      -272.7885
   3   2.0000     -10.015845      -272.5450
   4   2.0000     -10.005355      -272.2596
   5   2.0000     -10.003878      -272.2194
   6   2.0000      -0.982372       -26.7317
   7   2.0000      -0.767413       -20.8824
   8   2.0000      -0.684645       -18.6301
   9   2.0000      -0.640976       -17.4418
  10   2.0000      -0.587155       -15.9773
  11   2.0000      -0.504670       -13.7328
  12   2.0000      -0.480575       -13.0771
  13   2.0000      -0.441870       -12.0239
  14   2.0000      -0.399890       -10.8816
  15   2.0000      -0.386823       -10.5260
  16   2.0000      -0.372758       -10.1432
  17   2.0000      -0.360921        -9.8212
  18   2.0000      -0.343082        -9.3357
  19   2.0000      -0.324733        -8.8364
  20   2.0000      -0.312906        -8.5146
  21   2.0000      -0.288295        -7.8449
  22   2.0000      -0.284873        -7.7518
  23   2.0000      -0.268672        -7.3109
  24   2.0000      -0.233878        -6.3641
  25   0.0000       0.075837         2.0636
  26   0.0000       0.098755         2.6873
  27   0.0000       0.126596         3.4448
  28   0.0000       0.132250         3.5987
  29   0.0000       0.137746         3.7483

MULLIKEN ATOMIC CHARGES
-----------------------
   0 C :   -0.536377
   1 C :   -0.017638
   2 C :   -0.548107
   3 C :   -0.278628
   4 C :   -0.180784
   5 O :   -0.495087
   6 H :    0.152643
   7 H :    0.167880
   8 H :    0.159739
   9 H :    0.155133
  10 H :    0.157550
  11 H :    0.161725
  12 H :    0.156959
  13 H :    0.159663
  14 H :    0.156240
  15 H :    0.138558
  16 H :    0.146784
  17 H :    0.343746
Sum of atomic charges:   -0.0000000

LOEWDIN ATOMIC CHARGES
----------------------
   0 C :   -0.424323
   1 C :   -0.243514
   2 C :   -0.427504
   3 C :   -0.286115
   4 C :    0.006795
   5 O :   -0.667803
   6 H :    0.152556
   7 H :    0.159709
   8 H :    0.156741
   9 H :    0.157717
  10 H :    0.156095
  11 H :    0.154071
  12 H :    0.155867
  13 H :    0.168252
  14 H :    0.169447
  15 H :    0.164470
  16 H :    0.164538
  17 H :    0.282999

  Mayer bond orders larger than 0.100000
B(  0-C ,  1-C ) :   0.8945 B(  0-C ,  6-H ) :   0.9662 B(  0-C ,  7-H ) :   0.9745
B(  0-C ,  8-H ) :   0.9755 B(  1-C ,  2-C ) :   0.9184 B(  1-C ,  3-C ) :   0.9097
B(  1-C ,  9-H ) :   0.9694 B(  2-C , 10-H ) :   0.9719 B(  2-C , 11-H ) :   0.9796
B(  2-C , 12-H ) :   0.9686 B(  3-C ,  4-C ) :   0.9107 B(  3-C , 13-H ) :   0.9702
B(  3-C , 14-H ) :   0.9710 B(  4-C ,  5-O ) :   0.8942 B(  4-C , 15-H ) :   0.9536
B(  4-C , 16-H ) :   0.9840 B(  5-O , 17-H ) :   0.8742

Dispersion correction           -0.004470485
FINAL SINGLE POINT ENERGY      -272.901294311660

DIPOLE MOMENT
-------------

Method             : SCF
Type of density    : Electron Density
Multiplicity       :   1
Irrep              :   0
Energy             :  -272.9067628910356120 Eh
Relativity type    :
Basis              : AO
                                X                 Y                 Z
Electronic contribution:     -3.980979348      -0.407463939       0.551677023
Nuclear contribution   :      3.788626809       0.803818255      -1.223828743
                        -----------------------------------------
Total Dipole Moment    :     -0.192352538       0.396354316      -0.672151721
                        -----------------------------------------
Magnitude (a.u.)       :      0.803669197
Magnitude (Debye)      :      2.042764757

Rotational constants in cm-1:             0.169972             0.079013             0.066904
Rotational constants in MHz :          5095.619773          2368.754631          2005.730771

                             ****ORCA TERMINATED NORMALLY****
TOTAL RUN TIME: 0 days 0 hours 0 minutes 27 seconds 979 msec
