                         Program Version 6.0.0  -   RELEASE  -
|  1> ! pbe def2-sv(p) def2/J RI DEFGRID1 loosescf d4 GCP(DFT/SV(P)) printgap
|  2> %output
|  3>     printlevel normal
|  4> end
|  5> * xyz 0 1
|  6> C -2.3486881682 -0.3228262891 0.6781785438
|  7> C -1.7459087145 0.0054336965 -0.6820630415
|  8> C -0.4410613978 0.7999708793 -0.5949422688
|  9> C 0.7896244225 0.0631734099 -0.0305140632
| 10> C 2.0306681802 0.9365222044 -0.272954223
| 11> C 0.9973200867 -1.3050565927 -0.6911477593
| 12> O 0.5890879957 -0.0919787382 1.3715716674
| 13> H -3.2682362737 -0.8916371129 0.5584180866
| 14> H -2.5749258655 0.5920268107 1.2211828462
| 15> H -1.6519999541 -0.9012852103 1.2772620002
| 16> H -1.5834880006 -0.9146190408 -1.244450038
| 17> H -2.4615750615 0.6088868616 -1.2464030219
| 18> H -0.1832484885 1.1473240113 -1.5969321965
| 19> H -0.6080251612 1.6763518269 0.0350991426
| 20> H 2.9130902476 0.4706391129 0.1613761603
| 21> H 1.8932753456 1.912793407 0.1860001739
| 22> H 2.1988780697 1.0680040082 -1.3376682574
| 23> H 1.9632500931 -1.7165397103 -0.4050966393
| 24> H 0.9690054746 -1.2071008848 -1.7723200734
| 25> H 0.2223679327 -1.9982998913 -0.3756671756
| 26> H 1.3772979937 -0.4983474084 1.755706464
| 27> *
| 28>
| 29>                          ****END OF INPUT****

CARTESIAN COORDINATES (ANGSTROEM)
---------------------------------
  C     -2.348688   -0.322826    0.678179
  C     -1.745909    0.005434   -0.682063
  C     -0.441061    0.799971   -0.594942
  C      0.789624    0.063173   -0.030514
  C      2.030668    0.936522   -0.272954
  C      0.997320   -1.305057   -0.691148
  O      0.589088   -0.091979    1.371572
  H     -3.268236   -0.891637    0.558418
  H     -2.574926    0.592027    1.221183
  H     -1.652000   -0.901285    1.277262
  H     -1.583488   -0.914619   -1.244450
  H     -2.461575    0.608887   -1.246403
  H     -0.183248    1.147324   -1.596932
  H     -0.608025    1.676352    0.035099
  H      2.913090    0.470639    0.161376
  H      1.893275    1.912793    0.186000
  H      2.198878    1.068004   -1.337668
  H      1.963250   -1.716540   -0.405097
  H      0.969005   -1.207101   -1.772320
  H      0.222368   -1.998300   -0.375667
  H      1.377298   -0.498347    1.755706

 Total Charge           Charge          ....    0
 Multiplicity           Mult            ....    1
 Number of Electrons    NEL             ....   58
 Basis Dimension        Dim             ....  126

ORBITAL ENERGIES
----------------

  NO   OCC          E(Eh)            E(eV)
   0   2.0000     -18.738730      -509.9068
   1   2.0000      -9.946627      -270.6615
   2   2.0000      -9.877617      -268.7836
   3   2.0000      -9.876048      -268.7409
   4   2.0000      -9.874115      -268.6883
   5   2.0000      -9.873294      -268.6660
   6   2.0000      -9.856429      -268.2071
   7   2.0000      -0.918151       -24.9842
   8   2.0000      -0.719950       -19.5908
   9   2.0000      -0.675732       -18.3876
  10   2.0000      -0.618315       -16.8252
  11   2.0000      -0.601581       -16.3699
  12   2.0000      -0.537048       -14.6138
  13   2.0000      -0.490955       -13.3596
  14   2.0000      -0.437745       -11.9116
  15   2.0000      -0.418760       -11.3950
  16   2.0000      -0.393752       -10.7145
  17   2.0000      -0.373673       -10.1682
  18   2.0000      -0.368680       -10.0323
  19   2.0000      -0.358958        -9.7677
  20   2.0000      -0.350457        -9.5364
  21   2.0000      -0.333111        -9.0644
  22   2.0000      -0.312005        -8.4901
  23   2.0000      -0.307022        -8.3545
  24   2.0000      -0.296258        -8.0616
  25   2.0000      -0.285620        -7.7721
  26   2.0000      -0.276651        -7.5280
  27   2.0000      -0.254641        -6.9291
  28   2.0000      -0.211325        -5.7504
  29   0.0000       0.018870         0.5135
  30   0.0000       0.057159         1.5554
  31   0.0000       0.072088         1.9616
  32   0.0000       0.076501         2.0817
  33   0.0000       0.079774         2.1708

MULLIKEN ATOMIC CHARGES
-----------------------
   0 C :   -0.276818
   1 C :   -0.176701
   2 C :   -0.111947
   3 C :   -0.055287
   4 C :   -0.213685
   5 C :   -0.235247
   6 O :   -0.415109
   7 H :    0.090933
   8 H :    0.091507
   9 H :    0.116993
  10 H :    0.080711
  11 H :    0.080118
  12 H :    0.076328
  13 H :    0.081107
  14 H :    0.081978
  15 H :    0.103661
  16 H :    0.092860
  17 H :    0.084393
  18 H :    0.096846
  19 H :    0.116490
  20 H :    0.290868
Sum of atomic charges:   -0.0000000

LOEWDIN ATOMIC CHARGES
----------------------
   0 C :   -0.347635
   1 C :   -0.233515
   2 C :   -0.216357
   3 C :   -0.015891
   4 C :   -0.336927
   5 C :   -0.340800
   6 O :   -0.313328
   7 H :    0.112456
   8 H :    0.116154
   9 H :    0.119208
  10 H :    0.111807
  11 H :    0.114964
  12 H :    0.117892
  13 H :    0.120627
  14 H :    0.110253
  15 H :    0.121317
  16 H :    0.120635
  17 H :    0.113517
  18 H :    0.123229
  19 H :    0.123200
  20 H :    0.279194

  Mayer bond orders larger than 0.100000
B(  0-C ,  1-C ) :   1.1610 B(  0-C ,  7-H ) :   0.9501 B(  0-C ,  8-H ) :   0.9535
B(  0-C ,  9-H ) :   0.9390 B(  1-C ,  2-C ) :   1.1389 B(  1-C , 10-H ) :   0.9170
B(  1-C , 11-H ) :   0.9248 B(  2-C ,  3-C ) :   1.0399 B(  2-C , 12-H ) :   0.9134
B(  2-C , 13-H ) :   0.9078 B(  3-C ,  4-C ) :   1.0860 B(  3-C ,  5-C ) :   1.0810
B(  3-C ,  6-O ) :   1.0061 B(  4-C , 14-H ) :   0.9389 B(  4-C , 15-H ) :   0.9435
B(  4-C , 16-H ) :   0.9382 B(  5-C , 17-H ) :   0.9392 B(  5-C , 18-H ) :   0.9382
B(  5-C , 19-H ) :   0.9352 B(  6-O , 20-H ) :   0.8524

Dispersion correction           -0.017154678
FINAL SINGLE POINT ENERGY      -311.519686932988

DIPOLE MOMENT
-------------

Method             : SCF
Type of density    : Electron Density
Multiplicity       :   1
Irrep              :   0
Energy             :  -311.5992143610869221 Eh
Relativity type    :
Basis              : AO
                                X                 Y                 Z
Electronic contribution:      1.275897980       0.448408592       2.370674160
Nuclear contribution   :     -0.736472351      -0.612863057      -2.591016039
                        -----------------------------------------
Total Dipole Moment    :      0.539425629      -0.164454465      -0.220341879
                        -----------------------------------------
Magnitude (a.u.)       :      0.605455055
Magnitude (Debye)      :      1.538944449

Rotational constants in cm-1:             0.130449             0.057378             0.055367
Rotational constants in MHz :          3910.749894          1720.147082          1659.875199

                             ****ORCA TERMINATED NORMALLY****
TOTAL RUN TIME: 0 days 0 hours 0 minutes 9 seconds 261 msec
