                         Program Version 6.0.0  -   RELEASE  -
|  1> ! r2scan-3c def2/J RI DEFGRID2 scfconv6 printgap
|  2> %output
|  3>     printlevel normal
|  4> end
|  5> * xyz 0 1
|  6> C -2.6556647528 0.4117056312 0.5792920077
|  7> C -1.7066817328 0.4565401231 -0.6222807762
|  8> C -0.4179324801 -0.232639048 -0.2559776527
|  9> O -0.1994930995 -1.4172304161 -0.4046501833
| 10> O 0.4425795225 0.6112554263 0.298157181
| 11> C 1.7111103431 0.1044651822 0.7451172972
| 12> C 2.728822258 0.0997044674 -0.3851877942
| 13> H -2.2184743044 0.9366415853 1.4248075267
| 14> H -3.597816413 0.8849123646 0.3200912553
| 15> H -2.8480985095 -0.618950824 0.8680607771
| 16> H -1.4914876526 1.4902091899 -0.8880111838
| 17> H -2.151731353 -0.0675161049 -1.4672404823
| 18> H 2.0106246962 0.7811076822 1.5460193038
| 19> H 1.5648215443 -0.9073045126 1.1354312711
| 20> H 2.4137150775 -0.5880068327 -1.1668289439
| 21> H 2.8239357939 1.0964042741 -0.8073826404
| 22> H 3.6916172503 -0.2209481165 -0.0009657698
| 23> *
| 24>
| 25>                          ****END OF INPUT****

CARTESIAN COORDINATES (ANGSTROEM)
---------------------------------
  C     -2.655665    0.411706    0.579292
  C     -1.706682    0.456540   -0.622281
  C     -0.417932   -0.232639   -0.255978
  O     -0.199493   -1.417230   -0.404650
  O      0.442580    0.611255    0.298157
  C      1.711110    0.104465    0.745117
  C      2.728822    0.099704   -0.385188
  H     -2.218474    0.936642    1.424808
  H     -3.597816    0.884912    0.320091
  H     -2.848099   -0.618951    0.868061
  H     -1.491488    1.490209   -0.888011
  H     -2.151731   -0.067516   -1.467240
  H      2.010625    0.781108    1.546019
  H      1.564822   -0.907305    1.135431
  H      2.413715   -0.588007   -1.166829
  H      2.823936    1.096404   -0.807383
  H      3.691617   -0.220948   -0.000966

 Total Charge           Charge          ....    0
 Multiplicity           Mult            ....    1
 Number of Electrons    NEL             ....   56
 Basis Dimension        Dim             ....  193

ORBITAL ENERGIES
----------------

  NO   OCC          E(Eh)            E(eV)
   0   2.0000     -18.996202      -516.9129
   1   2.0000     -18.926790      -515.0241
   2   2.0000     -10.150831      -276.2182
   3   2.0000     -10.090980      -274.5895
   4   2.0000     -10.042930      -273.2820
   5   2.0000     -10.031598      -272.9737
   6   2.0000     -10.028340      -272.8850
   7   2.0000      -1.071033       -29.1443
   8   2.0000      -0.974466       -26.5166
   9   2.0000      -0.765620       -20.8336
  10   2.0000      -0.729841       -19.8600
  11   2.0000      -0.642531       -17.4842
  12   2.0000      -0.597916       -16.2701
  13   2.0000      -0.523335       -14.2407
  14   2.0000      -0.472715       -12.8632
  15   2.0000      -0.451178       -12.2772
  16   2.0000      -0.435581       -11.8528
  17   2.0000      -0.414753       -11.2860
  18   2.0000      -0.407761       -11.0957
  19   2.0000      -0.384773       -10.4702
  20   2.0000      -0.363065        -9.8795
  21   2.0000      -0.355874        -9.6838
  22   2.0000      -0.337181        -9.1751
  23   2.0000      -0.329278        -8.9601
  24   2.0000      -0.325008        -8.8439
  25   2.0000      -0.305456        -8.3119
  26   2.0000      -0.270304        -7.3553
  27   2.0000      -0.233402        -6.3512
  28   0.0000      -0.014185        -0.3860
  29   0.0000       0.074873         2.0374
  30   0.0000       0.092432         2.5152
  31   0.0000       0.121774         3.3136
  32   0.0000       0.122284         3.3275

MULLIKEN ATOMIC CHARGES
-----------------------
   0 C :   -0.472193
   1 C :   -0.297226
   2 C :    0.419850
   3 O :   -0.433242
   4 O :   -0.181675
   5 C :   -0.137303
   6 C :   -0.467052
   7 H :    0.154465
   8 H :    0.153943
   9 H :    0.161637
  10 H :    0.153783
  11 H :    0.160396
  12 H :    0.147294
  13 H :    0.167144
  14 H :    0.172681
  15 H :    0.150956
  16 H :    0.146543
Sum of atomic charges:    0.0000000

LOEWDIN ATOMIC CHARGES
----------------------
   0 C :   -0.391809
   1 C :   -0.236516
   2 C :    0.356072
   3 O :   -0.433396
   4 O :   -0.596476
   5 C :    0.027073
   6 C :   -0.390227
   7 H :    0.157081
   8 H :    0.153008
   9 H :    0.160181
  10 H :    0.173765
  11 H :    0.174427
  12 H :    0.177345
  13 H :    0.187973
  14 H :    0.165510
  15 H :    0.156950
  16 H :    0.159038

  Mayer bond orders larger than 0.100000
B(  0-C ,  1-C ) :   0.8982 B(  0-C ,  7-H ) :   0.9771 B(  0-C ,  8-H ) :   0.9708
B(  0-C ,  9-H ) :   0.9749 B(  1-C ,  2-C ) :   0.9458 B(  1-C , 10-H ) :   0.9762
B(  1-C , 11-H ) :   0.9733 B(  2-C ,  3-O ) :   1.8339 B(  2-C ,  4-O ) :   1.0473
B(  4-O ,  5-C ) :   0.8223 B(  5-C ,  6-C ) :   0.9383 B(  5-C , 12-H ) :   0.9608
B(  5-C , 13-H ) :   0.9660 B(  6-C , 14-H ) :   0.9711 B(  6-C , 15-H ) :   0.9734
B(  6-C , 16-H ) :   0.9656

Dispersion correction           -0.003992706
FINAL SINGLE POINT ENERGY      -346.936090529888

DIPOLE MOMENT
-------------

Method             : SCF
Type of density    : Electron Density
Multiplicity       :   1
Irrep              :   0
Energy             :  -346.9424814708281701 Eh
Relativity type    :
Basis              : AO
                                X                 Y                 Z
Electronic contribution:     -0.040762988      -1.858134191      -0.672491901
Nuclear contribution   :      0.188522544       2.602299089       0.902796582
                        -----------------------------------------
Total Dipole Moment    :      0.147759556       0.744164899       0.230304681
                        -----------------------------------------
Magnitude (a.u.)       :      0.792877373
Magnitude (Debye)      :      2.015334121

Rotational constants in cm-1:             0.200765             0.048881             0.044949
Rotational constants in MHz :          6018.791920          1465.412394          1347.548501

                             ****ORCA TERMINATED NORMALLY****
TOTAL RUN TIME: 0 days 0 hours 0 minutes 22 seconds 641 msec
