                         Program Version 6.0.0  -   RELEASE  -
|  1> ! r2scan-3c def2/J RI DEFGRID2 scfconv6 printgap
|  2> %output
|  3>     printlevel normal
|  4> end
|  5> %cpcm
|  6>     smd true
|  7>     smdsolvent "water"
|  8> end
|  9> * xyz 0 1
| 10> C -2.6556647528 0.4117056312 0.5792920077
| 11> C -1.7066817328 0.4565401231 -0.6222807762
| 12> C -0.4179324801 -0.232639048 -0.2559776527
| 13> O -0.1994930995 -1.4172304161 -0.4046501833
| 14> O 0.4425795225 0.6112554263 0.298157181
| 15> C 1.7111103431 0.1044651822 0.7451172972
| 16> C 2.728822258 0.0997044674 -0.3851877942
| 17> H -2.2184743044 0.9366415853 1.4248075267
| 18> H -3.597816413 0.8849123646 0.3200912553
| 19> H -2.8480985095 -0.618950824 0.8680607771
| 20> H -1.4914876526 1.4902091899 -0.8880111838
| 21> H -2.151731353 -0.0675161049 -1.4672404823
| 22> H 2.0106246962 0.7811076822 1.5460193038
| 23> H 1.5648215443 -0.9073045126 1.1354312711
| 24> H 2.4137150775 -0.5880068327 -1.1668289439
| 25> H 2.8239357939 1.0964042741 -0.8073826404
| 26> H 3.6916172503 -0.2209481165 -0.0009657698
| 27> *
| 28>
| 29>                          ****END OF INPUT****

CARTESIAN COORDINATES (ANGSTROEM)
---------------------------------
  C     -2.655665    0.411706    0.579292
  C     -1.706682    0.456540   -0.622281
  C     -0.417932   -0.232639   -0.255978
  O     -0.199493   -1.417230   -0.404650
  O      0.442580    0.611255    0.298157
  C      1.711110    0.104465    0.745117
  C      2.728822    0.099704   -0.385188
  H     -2.218474    0.936642    1.424808
  H     -3.597816    0.884912    0.320091
  H     -2.848099   -0.618951    0.868061
  H     -1.491488    1.490209   -0.888011
  H     -2.151731   -0.067516   -1.467240
  H      2.010625    0.781108    1.546019
  H      1.564822   -0.907305    1.135431
  H      2.413715   -0.588007   -1.166829
  H      2.823936    1.096404   -0.807383
  H      3.691617   -0.220948   -0.000966

 Total Charge           Charge          ....    0
 Multiplicity           Mult            ....    1
 Number of Electrons    NEL             ....   56
 Basis Dimension        Dim             ....  193

ORBITAL ENERGIES
----------------

  NO   OCC          E(Eh)            E(eV)
   0   2.0000     -19.002226      -517.0769
   1   2.0000     -18.943162      -515.4697
   2   2.0000     -10.161853      -276.5181
   3   2.0000     -10.083326      -274.3813
   4   2.0000     -10.037313      -273.1292
   5   2.0000     -10.022474      -272.7254
   6   2.0000     -10.018283      -272.6113
   7   2.0000      -1.078740       -29.3540
   8   2.0000      -0.988675       -26.9032
   9   2.0000      -0.761724       -20.7276
  10   2.0000      -0.722604       -19.6630
  11   2.0000      -0.637628       -17.3507
  12   2.0000      -0.591846       -16.1050
  13   2.0000      -0.521477       -14.1901
  14   2.0000      -0.471885       -12.8406
  15   2.0000      -0.460670       -12.5355
  16   2.0000      -0.436642       -11.8816
  17   2.0000      -0.411891       -11.2081
  18   2.0000      -0.406651       -11.0655
  19   2.0000      -0.381366       -10.3775
  20   2.0000      -0.356023        -9.6879
  21   2.0000      -0.349836        -9.5195
  22   2.0000      -0.334181        -9.0935
  23   2.0000      -0.328035        -8.9263
  24   2.0000      -0.317298        -8.6341
  25   2.0000      -0.303766        -8.2659
  26   2.0000      -0.277717        -7.5571
  27   2.0000      -0.249702        -6.7947
  28   0.0000      -0.022705        -0.6178
  29   0.0000       0.077779         2.1165
  30   0.0000       0.099499         2.7075
  31   0.0000       0.130344         3.5469
  32   0.0000       0.133154         3.6233

MULLIKEN ATOMIC CHARGES
-----------------------
   0 C :   -0.493250
   1 C :   -0.313182
   2 C :    0.457259
   3 O :   -0.517100
   4 O :   -0.199482
   5 C :   -0.144366
   6 C :   -0.491870
   7 H :    0.165616
   8 H :    0.173559
   9 H :    0.165224
  10 H :    0.174242
  11 H :    0.174790
  12 H :    0.173843
  13 H :    0.171332
  14 H :    0.167897
  15 H :    0.165299
  16 H :    0.170189
Sum of atomic charges:    0.0000000

LOEWDIN ATOMIC CHARGES
----------------------
   0 C :   -0.393420
   1 C :   -0.233633
   2 C :    0.365301
   3 O :   -0.493601
   4 O :   -0.598057
   5 C :    0.031744
   6 C :   -0.393181
   7 H :    0.160622
   8 H :    0.160562
   9 H :    0.160676
  10 H :    0.182768
  11 H :    0.179919
  12 H :    0.188940
  13 H :    0.189284
  14 H :    0.162367
  15 H :    0.161937
  16 H :    0.167773

  Mayer bond orders larger than 0.100000
B(  0-C ,  1-C ) :   0.8884 B(  0-C ,  7-H ) :   0.9729 B(  0-C ,  8-H ) :   0.9655
B(  0-C ,  9-H ) :   0.9724 B(  1-C ,  2-C ) :   0.9467 B(  1-C , 10-H ) :   0.9670
B(  1-C , 11-H ) :   0.9688 B(  2-C ,  3-O ) :   1.7627 B(  2-C ,  4-O ) :   1.0723
B(  4-O ,  5-C ) :   0.8037 B(  5-C ,  6-C ) :   0.9368 B(  5-C , 12-H ) :   0.9513
B(  5-C , 13-H ) :   0.9626 B(  6-C , 14-H ) :   0.9689 B(  6-C , 15-H ) :   0.9695
B(  6-C , 16-H ) :   0.9605

Dispersion correction           -0.003992706
FINAL SINGLE POINT ENERGY      -346.941169128124

DIPOLE MOMENT
-------------

Method             : SCF
Type of density    : Electron Density
Multiplicity       :   1
Irrep              :   0
Energy             :  -346.9475600690643660 Eh
Relativity type    :
Basis              : AO
                                X                 Y                 Z
Electronic contribution:     -0.003240573      -1.520029560      -0.569134886
Nuclear contribution   :      0.188522544       2.602299089       0.902796582
                        -----------------------------------------
Total Dipole Moment    :      0.185281971       1.082269529       0.333661696
                        -----------------------------------------
Magnitude (a.u.)       :      1.147591770
Magnitude (Debye)      :      2.916946465

Rotational constants in cm-1:             0.200765             0.048881             0.044949
Rotational constants in MHz :          6018.791920          1465.412394          1347.548501

                             ****ORCA TERMINATED NORMALLY****
TOTAL RUN TIME: 0 days 0 hours 0 minutes 26 seconds 274 msec
