                         Program Version 6.0.0  -   RELEASE  -
|  1> ! r2scan-3c def2/J RI DEFGRID2 scfconv6 printgap
|  2> %output
|  3>     printlevel normal
|  4> end
|  5> * xyz 0 1
|  6> C -2.1254882321 -0.5394327381 0.9202304908
|  7> C -2.0749173593 0.5837477345 -0.1090994647
|  8> C -0.8420546371 0.4910003118 -1.0042885996
|  9> O 0.347740155 0.7741668806 -0.253962698
| 10> C 1.2116427479 -0.2029702691 -0.0055994272
| 11> O 1.0811260323 -1.3415148906 -0.4056411642
| 12> C 2.3614626519 0.2886223561 0.8233095591
| 13> H -1.2620940875 -0.494740523 1.5813314209
| 14> H -3.0242708825 -0.4580821984 1.5249618053
| 15> H -2.1226040564 -1.5093514186 0.4272438063
| 16> H -2.0649376133 1.5498397496 0.3973034957
| 17> H -2.9552250969 0.5372465366 -0.7499964374
| 18> H -0.7499720749 -0.5073689874 -1.4430530911
| 19> H -0.8800858941 1.2441885814 -1.7941558803
| 20> H 3.1160805798 -0.487234193 0.896839195
| 21> H 1.997281932 0.5453851647 1.8149745955
| 22> H 2.7741029849 1.1862174644 0.3723963668
| 23> *
| 24>
| 25>                          ****END OF INPUT****

CARTESIAN COORDINATES (ANGSTROEM)
---------------------------------
  C     -2.125488   -0.539433    0.920230
  C     -2.074917    0.583748   -0.109099
  C     -0.842055    0.491000   -1.004289
  O      0.347740    0.774167   -0.253963
  C      1.211643   -0.202970   -0.005599
  O      1.081126   -1.341515   -0.405641
  C      2.361463    0.288622    0.823310
  H     -1.262094   -0.494741    1.581331
  H     -3.024271   -0.458082    1.524962
  H     -2.122604   -1.509351    0.427244
  H     -2.064938    1.549840    0.397303
  H     -2.955225    0.537247   -0.749996
  H     -0.749972   -0.507369   -1.443053
  H     -0.880086    1.244189   -1.794156
  H      3.116081   -0.487234    0.896839
  H      1.997282    0.545385    1.814975
  H      2.774103    1.186217    0.372396

 Total Charge           Charge          ....    0
 Multiplicity           Mult            ....    1
 Number of Electrons    NEL             ....   56
 Basis Dimension        Dim             ....  193

ORBITAL ENERGIES
----------------

  NO   OCC          E(Eh)            E(eV)
   0   2.0000     -18.996341      -516.9167
   1   2.0000     -18.928032      -515.0579
   2   2.0000     -10.156123      -276.3622
   3   2.0000     -10.086806      -274.4760
   4   2.0000     -10.039035      -273.1760
   5   2.0000     -10.037293      -273.1286
   6   2.0000     -10.020544      -272.6729
   7   2.0000      -1.071311       -29.1518
   8   2.0000      -0.975915       -26.5560
   9   2.0000      -0.767340       -20.8804
  10   2.0000      -0.721247       -19.6261
  11   2.0000      -0.661805       -18.0086
  12   2.0000      -0.580737       -15.8026
  13   2.0000      -0.526409       -14.3243
  14   2.0000      -0.466472       -12.6934
  15   2.0000      -0.458028       -12.4636
  16   2.0000      -0.437409       -11.9025
  17   2.0000      -0.413586       -11.2543
  18   2.0000      -0.412632       -11.2283
  19   2.0000      -0.380918       -10.3653
  20   2.0000      -0.375046       -10.2055
  21   2.0000      -0.357721        -9.7341
  22   2.0000      -0.331268        -9.0143
  23   2.0000      -0.326955        -8.8969
  24   2.0000      -0.321799        -8.7566
  25   2.0000      -0.302708        -8.2371
  26   2.0000      -0.267291        -7.2734
  27   2.0000      -0.236813        -6.4440
  28   0.0000      -0.013402        -0.3647
  29   0.0000       0.075160         2.0452
  30   0.0000       0.096103         2.6151
  31   0.0000       0.112719         3.0672
  32   0.0000       0.119446         3.2503

MULLIKEN ATOMIC CHARGES
-----------------------
   0 C :   -0.459064
   1 C :   -0.245595
   2 C :   -0.190985
   3 O :   -0.169631
   4 C :    0.437834
   5 O :   -0.437246
   6 C :   -0.516703
   7 H :    0.146314
   8 H :    0.148064
   9 H :    0.154765
  10 H :    0.147653
  11 H :    0.141042
  12 H :    0.185474
  13 H :    0.146470
  14 H :    0.177348
  15 H :    0.167642
  16 H :    0.166616
Sum of atomic charges:   -0.0000000

LOEWDIN ATOMIC CHARGES
----------------------
   0 C :   -0.415928
   1 C :   -0.286518
   2 C :    0.033798
   3 O :   -0.599360
   4 C :    0.352407
   5 O :   -0.439755
   6 C :   -0.335403
   7 H :    0.155580
   8 H :    0.151041
   9 H :    0.157131
  10 H :    0.160127
  11 H :    0.159715
  12 H :    0.197633
  13 H :    0.178915
  14 H :    0.174412
  15 H :    0.178731
  16 H :    0.177475

  Mayer bond orders larger than 0.100000
B(  0-C ,  1-C ) :   0.8947 B(  0-C ,  7-H ) :   0.9760 B(  0-C ,  8-H ) :   0.9724
B(  0-C ,  9-H ) :   0.9735 B(  1-C ,  2-C ) :   0.9513 B(  1-C , 10-H ) :   0.9808
B(  1-C , 11-H ) :   0.9667 B(  2-C ,  3-O ) :   0.7857 B(  2-C , 12-H ) :   0.9701
B(  2-C , 13-H ) :   0.9586 B(  3-O ,  4-C ) :   1.0505 B(  4-C ,  5-O ) :   1.8365
B(  4-C ,  6-C ) :   0.9615 B(  6-C , 14-H ) :   0.9903 B(  6-C , 15-H ) :   0.9431
B(  6-C , 16-H ) :   0.9580

Dispersion correction           -0.004121403
FINAL SINGLE POINT ENERGY      -346.936589865507

DIPOLE MOMENT
-------------

Method             : SCF
Type of density    : Electron Density
Multiplicity       :   1
Irrep              :   0
Energy             :  -346.9429742426551684 Eh
Relativity type    :
Basis              : AO
                                X                 Y                 Z
Electronic contribution:      4.554671511      -0.725862093      -2.643056309
Nuclear contribution   :     -4.830757434       1.498378917       2.830845739
                        -----------------------------------------
Total Dipole Moment    :     -0.276085923       0.772516824       0.187789431
                        -----------------------------------------
Magnitude (a.u.)       :      0.841588112
Magnitude (Debye)      :      2.139146980

Rotational constants in cm-1:             0.156732             0.052832             0.050464
Rotational constants in MHz :          4698.696211          1583.851384          1512.867159

                             ****ORCA TERMINATED NORMALLY****
TOTAL RUN TIME: 0 days 0 hours 0 minutes 20 seconds 453 msec
