                         Program Version 6.0.0  -   RELEASE  -
|  1> ! r2scan-3c def2/J RI DEFGRID2 scfconv6 printgap
|  2> %output
|  3>     printlevel normal
|  4> end
|  5> %cpcm
|  6>     smd true
|  7>     smdsolvent "water"
|  8> end
|  9> * xyz 0 1
| 10> C -2.1254882321 -0.5394327381 0.9202304908
| 11> C -2.0749173593 0.5837477345 -0.1090994647
| 12> C -0.8420546371 0.4910003118 -1.0042885996
| 13> O 0.347740155 0.7741668806 -0.253962698
| 14> C 1.2116427479 -0.2029702691 -0.0055994272
| 15> O 1.0811260323 -1.3415148906 -0.4056411642
| 16> C 2.3614626519 0.2886223561 0.8233095591
| 17> H -1.2620940875 -0.494740523 1.5813314209
| 18> H -3.0242708825 -0.4580821984 1.5249618053
| 19> H -2.1226040564 -1.5093514186 0.4272438063
| 20> H -2.0649376133 1.5498397496 0.3973034957
| 21> H -2.9552250969 0.5372465366 -0.7499964374
| 22> H -0.7499720749 -0.5073689874 -1.4430530911
| 23> H -0.8800858941 1.2441885814 -1.7941558803
| 24> H 3.1160805798 -0.487234193 0.896839195
| 25> H 1.997281932 0.5453851647 1.8149745955
| 26> H 2.7741029849 1.1862174644 0.3723963668
| 27> *
| 28>
| 29>                          ****END OF INPUT****

CARTESIAN COORDINATES (ANGSTROEM)
---------------------------------
  C     -2.125488   -0.539433    0.920230
  C     -2.074917    0.583748   -0.109099
  C     -0.842055    0.491000   -1.004289
  O      0.347740    0.774167   -0.253963
  C      1.211643   -0.202970   -0.005599
  O      1.081126   -1.341515   -0.405641
  C      2.361463    0.288622    0.823310
  H     -1.262094   -0.494741    1.581331
  H     -3.024271   -0.458082    1.524962
  H     -2.122604   -1.509351    0.427244
  H     -2.064938    1.549840    0.397303
  H     -2.955225    0.537247   -0.749996
  H     -0.749972   -0.507369   -1.443053
  H     -0.880086    1.244189   -1.794156
  H      3.116081   -0.487234    0.896839
  H      1.997282    0.545385    1.814975
  H      2.774103    1.186217    0.372396

 Total Charge           Charge          ....    0
 Multiplicity           Mult            ....    1
 Number of Electrons    NEL             ....   56
 Basis Dimension        Dim             ....  193

ORBITAL ENERGIES
----------------

  NO   OCC          E(Eh)            E(eV)
   0   2.0000     -19.001629      -517.0606
   1   2.0000     -18.943091      -515.4677
   2   2.0000     -10.165843      -276.6267
   3   2.0000     -10.079389      -274.2741
   4   2.0000     -10.030139      -272.9340
   5   2.0000     -10.026124      -272.8247
   6   2.0000     -10.011740      -272.4333
   7   2.0000      -1.078120       -29.3371
   8   2.0000      -0.989129       -26.9156
   9   2.0000      -0.760739       -20.7008
  10   2.0000      -0.715061       -19.4578
  11   2.0000      -0.655259       -17.8305
  12   2.0000      -0.574017       -15.6198
  13   2.0000      -0.523728       -14.2514
  14   2.0000      -0.466858       -12.7039
  15   2.0000      -0.461586       -12.5604
  16   2.0000      -0.444565       -12.0972
  17   2.0000      -0.407233       -11.0814
  18   2.0000      -0.404113       -10.9965
  19   2.0000      -0.380545       -10.3552
  20   2.0000      -0.367068        -9.9884
  21   2.0000      -0.352428        -9.5900
  22   2.0000      -0.330002        -8.9798
  23   2.0000      -0.326674        -8.8892
  24   2.0000      -0.312150        -8.4940
  25   2.0000      -0.298527        -8.1233
  26   2.0000      -0.271383        -7.3847
  27   2.0000      -0.252762        -6.8780
  28   0.0000      -0.020518        -0.5583
  29   0.0000       0.079328         2.1586
  30   0.0000       0.104977         2.8566
  31   0.0000       0.123078         3.3491
  32   0.0000       0.128511         3.4970

MULLIKEN ATOMIC CHARGES
-----------------------
   0 C :   -0.516644
   1 C :   -0.244035
   2 C :   -0.191171
   3 O :   -0.187536
   4 C :    0.481552
   5 O :   -0.525515
   6 C :   -0.555593
   7 H :    0.159949
   8 H :    0.163024
   9 H :    0.162082
  10 H :    0.159825
  11 H :    0.162073
  12 H :    0.181834
  13 H :    0.171790
  14 H :    0.185449
  15 H :    0.199853
  16 H :    0.193063
Sum of atomic charges:   -0.0000000

LOEWDIN ATOMIC CHARGES
----------------------
   0 C :   -0.426108
   1 C :   -0.284236
   2 C :    0.038622
   3 O :   -0.601380
   4 C :    0.363647
   5 O :   -0.502294
   6 C :   -0.334271
   7 H :    0.157280
   8 H :    0.155876
   9 H :    0.156394
  10 H :    0.163963
  11 H :    0.167838
  12 H :    0.196764
  13 H :    0.189648
  14 H :    0.178186
  15 H :    0.191594
  16 H :    0.188476

  Mayer bond orders larger than 0.100000
B(  0-C ,  1-C ) :   0.8687 B(  0-C ,  7-H ) :   0.9740 B(  0-C ,  8-H ) :   0.9680
B(  0-C ,  9-H ) :   0.9753 B(  1-C ,  2-C ) :   0.9479 B(  1-C , 10-H ) :   0.9816
B(  1-C , 11-H ) :   0.9640 B(  2-C ,  3-O ) :   0.7734 B(  2-C , 12-H ) :   0.9658
B(  2-C , 13-H ) :   0.9504 B(  3-O ,  4-C ) :   1.0784 B(  4-C ,  5-O ) :   1.7655
B(  4-C ,  6-C ) :   0.9598 B(  6-C , 14-H ) :   0.9828 B(  6-C , 15-H ) :   0.9313
B(  6-C , 16-H ) :   0.9463

Dispersion correction           -0.004121403
FINAL SINGLE POINT ENERGY      -346.942144586672

DIPOLE MOMENT
-------------

Method             : SCF
Type of density    : Electron Density
Multiplicity       :   1
Irrep              :   0
Energy             :  -346.9485289638205927 Eh
Relativity type    :
Basis              : AO
                                X                 Y                 Z
Electronic contribution:      4.467796619      -0.364234519      -2.581065251
Nuclear contribution   :     -4.830757434       1.498378917       2.830845739
                        -----------------------------------------
Total Dipole Moment    :     -0.362960815       1.134144398       0.249780489
                        -----------------------------------------
Magnitude (a.u.)       :      1.216722795
Magnitude (Debye)      :      3.092663568

Rotational constants in cm-1:             0.156732             0.052832             0.050464
Rotational constants in MHz :          4698.696211          1583.851384          1512.867159

                             ****ORCA TERMINATED NORMALLY****
TOTAL RUN TIME: 0 days 0 hours 0 minutes 24 seconds 407 msec
