                         Program Version 6.0.0  -   RELEASE  -
|  1> ! pbe def2-sv(p) def2/J RI DEFGRID1 loosescf d4 GCP(DFT/SV(P)) printgap
|  2> %output
|  3>     printlevel normal
|  4> end
|  5> * xyz 0 1
|  6> C -1.4309588077 -0.0536425755 0.6380445704
|  7> C 0.0657126575 0.2796835545 0.5070422691
|  8> C 0.8768896958 -0.8857837991 -0.0771625518
|  9> O 2.2616793137 -0.6615872418 0.0276248373
| 10> O 0.2949672882 1.3908118903 -0.3370854522
| 11> O -2.1011381412 -0.1585215964 -0.5944661373
| 12> H -1.9354186393 0.7593192868 1.1671511459
| 13> H -1.5389545571 -0.9708579371 1.2296092707
| 14> H 0.4529310974 0.4920245566 1.5171801398
| 15> H 0.600041858 -1.0243984281 -1.130228022
| 16> H 0.6771056698 -1.8016345046 0.4818384807
| 17> H 2.4597722576 0.1875777118 -0.3939992751
| 18> H -0.3607699363 2.0774711849 -0.1587257612
| 19> H -1.7658461617 -0.9169060275 -1.089979056
| 20> *
| 21>
| 22>                          ****END OF INPUT****

CARTESIAN COORDINATES (ANGSTROEM)
---------------------------------
  C     -1.430959   -0.053643    0.638045
  C      0.065713    0.279684    0.507042
  C      0.876890   -0.885784   -0.077163
  O      2.261679   -0.661587    0.027625
  O      0.294967    1.390812   -0.337085
  O     -2.101138   -0.158522   -0.594466
  H     -1.935419    0.759319    1.167151
  H     -1.538955   -0.970858    1.229609
  H      0.452931    0.492025    1.517180
  H      0.600042   -1.024398   -1.130228
  H      0.677106   -1.801635    0.481838
  H      2.459772    0.187578   -0.393999
  H     -0.360770    2.077471   -0.158726
  H     -1.765846   -0.916906   -1.089979

 Total Charge           Charge          ....    0
 Multiplicity           Mult            ....    1
 Number of Electrons    NEL             ....   50
 Basis Dimension        Dim             ....  100

ORBITAL ENERGIES
----------------

  NO   OCC          E(Eh)            E(eV)
   0   2.0000     -18.754380      -510.3326
   1   2.0000     -18.753550      -510.3100
   2   2.0000     -18.740928      -509.9666
   3   2.0000      -9.940132      -270.4847
   4   2.0000      -9.939909      -270.4787
   5   2.0000      -9.933490      -270.3040
   6   2.0000      -0.943118       -25.6635
   7   2.0000      -0.923745       -25.1364
   8   2.0000      -0.910408       -24.7735
   9   2.0000      -0.683632       -18.6026
  10   2.0000      -0.613287       -16.6884
  11   2.0000      -0.548449       -14.9241
  12   2.0000      -0.487982       -13.2787
  13   2.0000      -0.463442       -12.6109
  14   2.0000      -0.428707       -11.6657
  15   2.0000      -0.418912       -11.3992
  16   2.0000      -0.398662       -10.8481
  17   2.0000      -0.371581       -10.1112
  18   2.0000      -0.353333        -9.6147
  19   2.0000      -0.304052        -8.2737
  20   2.0000      -0.294656        -8.0180
  21   2.0000      -0.275854        -7.5064
  22   2.0000      -0.235431        -6.4064
  23   2.0000      -0.219016        -5.9597
  24   2.0000      -0.209343        -5.6965
  25   0.0000       0.013337         0.3629
  26   0.0000       0.030462         0.8289
  27   0.0000       0.050878         1.3845
  28   0.0000       0.070147         1.9088
  29   0.0000       0.082437         2.2432

MULLIKEN ATOMIC CHARGES
-----------------------
   0 C :   -0.007802
   1 C :   -0.010701
   2 C :    0.038593
   3 O :   -0.438671
   4 O :   -0.432581
   5 O :   -0.430159
   6 H :    0.086360
   7 H :    0.078049
   8 H :    0.064075
   9 H :    0.061655
  10 H :    0.083530
  11 H :    0.302928
  12 H :    0.304333
  13 H :    0.300391
Sum of atomic charges:    0.0000000

LOEWDIN ATOMIC CHARGES
----------------------
   0 C :   -0.138256
   1 C :   -0.102404
   2 C :   -0.131638
   3 O :   -0.337995
   4 O :   -0.332707
   5 O :   -0.335508
   6 H :    0.110400
   7 H :    0.101419
   8 H :    0.102533
   9 H :    0.093993
  10 H :    0.112900
  11 H :    0.285227
  12 H :    0.288750
  13 H :    0.283285

  Mayer bond orders larger than 0.100000
B(  0-C ,  1-C ) :   1.0184 B(  0-C ,  5-O ) :   1.0851 B(  0-C ,  6-H ) :   0.9207
B(  0-C ,  7-H ) :   0.9145 B(  1-C ,  2-C ) :   1.0491 B(  1-C ,  4-O ) :   1.0544
B(  1-C ,  8-H ) :   0.8842 B(  2-C ,  3-O ) :   1.0792 B(  2-C ,  9-H ) :   0.9016
B(  2-C , 10-H ) :   0.9256 B(  3-O , 11-H ) :   0.8449 B(  4-O , 12-H ) :   0.8475
B(  5-O , 13-H ) :   0.8487

Dispersion correction           -0.009188475
FINAL SINGLE POINT ENERGY      -344.006219801292

DIPOLE MOMENT
-------------

Method             : SCF
Type of density    : Electron Density
Multiplicity       :   1
Irrep              :   0
Energy             :  -344.0794144008493163 Eh
Relativity type    :
Basis              : AO
                                X                 Y                 Z
Electronic contribution:      0.907444416       1.224605475      -1.332109950
Nuclear contribution   :     -1.317127580      -1.114896999       1.509087259
                        -----------------------------------------
Total Dipole Moment    :     -0.409683163       0.109708476       0.176977309
                        -----------------------------------------
Magnitude (a.u.)       :      0.459561978
Magnitude (Debye)      :      1.168113717

Rotational constants in cm-1:             0.208844             0.073075             0.063687
Rotational constants in MHz :          6260.971864          2190.734808          1909.276612

                             ****ORCA TERMINATED NORMALLY****
TOTAL RUN TIME: 0 days 0 hours 0 minutes 6 seconds 706 msec
