                         Program Version 6.0.0  -   RELEASE  -
|  1> ! r2scan-3c def2/J RI DEFGRID2 scfconv6 printgap
|  2> %output
|  3>     printlevel normal
|  4> end
|  5> * xyz 0 1
|  6> C 2.1548840631 1.3092930411 -0.0326997736
|  7> C 1.2412369075 0.2674276074 0.6048033599
|  8> C 0.3442435116 -0.4468042022 -0.4255449609
|  9> H 0.6509847298 -0.1142046064 -1.4243920272
| 10> C 0.5621007671 -1.9601728106 -0.3725081724
| 11> C -1.1540590737 -0.0966429254 -0.3020815135
| 12> C -1.778225776 -0.5203092513 1.0265749932
| 13> C -1.3943413385 1.3933410781 -0.5449355134
| 14> H 1.5722632081 2.0792087461 -0.5326127528
| 15> H 2.7738711121 1.7857541976 0.7246645328
| 16> H 2.8102732204 0.8445543307 -0.7662227921
| 17> H 0.632983778 0.7548324078 1.3663212009
| 18> H 1.8604089685 -0.470972411 1.1172593665
| 19> H -0.0906698546 -2.4674002218 -1.0799916937
| 20> H 1.5922621591 -2.1973728957 -0.6287919897
| 21> H 0.3624160819 -2.348993457 0.6226717353
| 22> H -1.6694364223 -0.6480713355 -1.098526045
| 23> H -1.706816361 -1.5949580403 1.1665135469
| 24> H -2.8311635874 -0.2475421237 1.040102952
| 25> H -1.2930261243 -0.0297204507 1.8663804417
| 26> H -0.9735622441 1.698021049 -1.5006736395
| 27> H -0.9415143894 1.9943280781 0.2392916062
| 28> H -2.4613518243 1.6044675767 -0.5591526187
| 29> *
| 30>
| 31>                          ****END OF INPUT****

CARTESIAN COORDINATES (ANGSTROEM)
---------------------------------
  C      2.154884    1.309293   -0.032700
  C      1.241237    0.267428    0.604803
  C      0.344244   -0.446804   -0.425545
  H      0.650985   -0.114205   -1.424392
  C      0.562101   -1.960173   -0.372508
  C     -1.154059   -0.096643   -0.302082
  C     -1.778226   -0.520309    1.026575
  C     -1.394341    1.393341   -0.544936
  H      1.572263    2.079209   -0.532613
  H      2.773871    1.785754    0.724665
  H      2.810273    0.844554   -0.766223
  H      0.632984    0.754832    1.366321
  H      1.860409   -0.470972    1.117259
  H     -0.090670   -2.467400   -1.079992
  H      1.592262   -2.197373   -0.628792
  H      0.362416   -2.348993    0.622672
  H     -1.669436   -0.648071   -1.098526
  H     -1.706816   -1.594958    1.166514
  H     -2.831164   -0.247542    1.040103
  H     -1.293026   -0.029720    1.866380
  H     -0.973562    1.698021   -1.500674
  H     -0.941514    1.994328    0.239292
  H     -2.461352    1.604468   -0.559153

 Total Charge           Charge          ....    0
 Multiplicity           Mult            ....    1
 Number of Electrons    NEL             ....   58
 Basis Dimension        Dim             ....  213

ORBITAL ENERGIES
----------------

  NO   OCC          E(Eh)            E(eV)
   0   2.0000     -10.029121      -272.9063
   1   2.0000     -10.026513      -272.8353
   2   2.0000     -10.019247      -272.6376
   3   2.0000     -10.013704      -272.4867
   4   2.0000     -10.012162      -272.4448
   5   2.0000     -10.011987      -272.4400
   6   2.0000     -10.011788      -272.4346
   7   2.0000      -0.787956       -21.4414
   8   2.0000      -0.726398       -19.7663
   9   2.0000      -0.686633       -18.6842
  10   2.0000      -0.647142       -17.6096
  11   2.0000      -0.597030       -16.2460
  12   2.0000      -0.566994       -15.4287
  13   2.0000      -0.501145       -13.6368
  14   2.0000      -0.442245       -12.0341
  15   2.0000      -0.413865       -11.2619
  16   2.0000      -0.411620       -11.2007
  17   2.0000      -0.387035       -10.5317
  18   2.0000      -0.380410       -10.3515
  19   2.0000      -0.366631        -9.9765
  20   2.0000      -0.352614        -9.5951
  21   2.0000      -0.345937        -9.4134
  22   2.0000      -0.333605        -9.0779
  23   2.0000      -0.317866        -8.6496
  24   2.0000      -0.311672        -8.4810
  25   2.0000      -0.301100        -8.1933
  26   2.0000      -0.278885        -7.5889
  27   2.0000      -0.274058        -7.4575
  28   2.0000      -0.269081        -7.3221
  29   0.0000       0.081138         2.2079
  30   0.0000       0.100451         2.7334
  31   0.0000       0.115127         3.1328
  32   0.0000       0.120927         3.2906
  33   0.0000       0.125629         3.4185

MULLIKEN ATOMIC CHARGES
-----------------------
   0 C :   -0.495740
   1 C :   -0.294271
   2 C :    0.000793
   3 H :    0.163758
   4 C :   -0.543082
   5 C :   -0.066181
   6 C :   -0.496384
   7 C :   -0.513491
   8 H :    0.152543
   9 H :    0.143437
  10 H :    0.146160
  11 H :    0.145621
  12 H :    0.152444
  13 H :    0.145107
  14 H :    0.149745
  15 H :    0.159795
  16 H :    0.147698
  17 H :    0.153149
  18 H :    0.144029
  19 H :    0.148871
  20 H :    0.152257
  21 H :    0.156170
  22 H :    0.147572
Sum of atomic charges:    0.0000000

LOEWDIN ATOMIC CHARGES
----------------------
   0 C :   -0.421443
   1 C :   -0.309598
   2 C :   -0.234959
   3 H :    0.159877
   4 C :   -0.415748
   5 C :   -0.239601
   6 C :   -0.415928
   7 C :   -0.416543
   8 H :    0.150193
   9 H :    0.148533
  10 H :    0.148798
  11 H :    0.154234
  12 H :    0.157002
  13 H :    0.152668
  14 H :    0.152869
  15 H :    0.152931
  16 H :    0.156820
  17 H :    0.154402
  18 H :    0.153901
  19 H :    0.152110
  20 H :    0.153539
  21 H :    0.153438
  22 H :    0.152506

  Mayer bond orders larger than 0.100000
B(  0-C ,  1-C ) :   0.8848 B(  0-C ,  8-H ) :   0.9793 B(  0-C ,  9-H ) :   0.9746
B(  0-C , 10-H ) :   0.9857 B(  1-C ,  2-C ) :   0.7951 B(  1-C , 11-H ) :   0.9807
B(  1-C , 12-H ) :   0.9741 B(  2-C ,  3-H ) :   0.9923 B(  2-C ,  4-C ) :   0.8901
B(  2-C ,  5-C ) :   0.8803 B(  4-C , 13-H ) :   0.9786 B(  4-C , 14-H ) :   0.9749
B(  4-C , 15-H ) :   0.9870 B(  5-C ,  6-C ) :   0.9106 B(  5-C ,  7-C ) :   0.8917
B(  5-C , 16-H ) :   0.9822 B(  6-C , 17-H ) :   0.9771 B(  6-C , 18-H ) :   0.9716
B(  6-C , 19-H ) :   0.9765 B(  7-C , 20-H ) :   0.9792 B(  7-C , 21-H ) :   0.9777
B(  7-C , 22-H ) :   0.9745

Dispersion correction           -0.006606835
FINAL SINGLE POINT ENERGY      -276.283291810587

DIPOLE MOMENT
-------------

Method             : SCF
Type of density    : Electron Density
Multiplicity       :   1
Irrep              :   0
Energy             :  -276.2879117800537188 Eh
Relativity type    :
Basis              : AO
                                X                 Y                 Z
Electronic contribution:     -0.282341944      -0.613603109      -0.549443726
Nuclear contribution   :      0.270117740       0.602234762       0.518654879
                        -----------------------------------------
Total Dipole Moment    :     -0.012224205      -0.011368347      -0.030788847
                        -----------------------------------------
Magnitude (a.u.)       :      0.035023186
Magnitude (Debye)      :      0.089021865

Rotational constants in cm-1:             0.096096             0.066779             0.049450
Rotational constants in MHz :          2880.898920          2001.992282          1482.483789

                             ****ORCA TERMINATED NORMALLY****
TOTAL RUN TIME: 0 days 0 hours 0 minutes 24 seconds 464 msec
