                         Program Version 6.0.0  -   RELEASE  -
|  1> ! r2scan-3c def2/J RI DEFGRID2 scfconv6 printgap
|  2> %output
|  3>     printlevel normal
|  4> end
|  5> %cpcm
|  6>     smd true
|  7>     smdsolvent "water"
|  8> end
|  9> * xyz 0 1
| 10> C 2.1548840631 1.3092930411 -0.0326997736
| 11> C 1.2412369075 0.2674276074 0.6048033599
| 12> C 0.3442435116 -0.4468042022 -0.4255449609
| 13> H 0.6509847298 -0.1142046064 -1.4243920272
| 14> C 0.5621007671 -1.9601728106 -0.3725081724
| 15> C -1.1540590737 -0.0966429254 -0.3020815135
| 16> C -1.778225776 -0.5203092513 1.0265749932
| 17> C -1.3943413385 1.3933410781 -0.5449355134
| 18> H 1.5722632081 2.0792087461 -0.5326127528
| 19> H 2.7738711121 1.7857541976 0.7246645328
| 20> H 2.8102732204 0.8445543307 -0.7662227921
| 21> H 0.632983778 0.7548324078 1.3663212009
| 22> H 1.8604089685 -0.470972411 1.1172593665
| 23> H -0.0906698546 -2.4674002218 -1.0799916937
| 24> H 1.5922621591 -2.1973728957 -0.6287919897
| 25> H 0.3624160819 -2.348993457 0.6226717353
| 26> H -1.6694364223 -0.6480713355 -1.098526045
| 27> H -1.706816361 -1.5949580403 1.1665135469
| 28> H -2.8311635874 -0.2475421237 1.040102952
| 29> H -1.2930261243 -0.0297204507 1.8663804417
| 30> H -0.9735622441 1.698021049 -1.5006736395
| 31> H -0.9415143894 1.9943280781 0.2392916062
| 32> H -2.4613518243 1.6044675767 -0.5591526187
| 33> *
| 34>
| 35>                          ****END OF INPUT****

CARTESIAN COORDINATES (ANGSTROEM)
---------------------------------
  C      2.154884    1.309293   -0.032700
  C      1.241237    0.267428    0.604803
  C      0.344244   -0.446804   -0.425545
  H      0.650985   -0.114205   -1.424392
  C      0.562101   -1.960173   -0.372508
  C     -1.154059   -0.096643   -0.302082
  C     -1.778226   -0.520309    1.026575
  C     -1.394341    1.393341   -0.544936
  H      1.572263    2.079209   -0.532613
  H      2.773871    1.785754    0.724665
  H      2.810273    0.844554   -0.766223
  H      0.632984    0.754832    1.366321
  H      1.860409   -0.470972    1.117259
  H     -0.090670   -2.467400   -1.079992
  H      1.592262   -2.197373   -0.628792
  H      0.362416   -2.348993    0.622672
  H     -1.669436   -0.648071   -1.098526
  H     -1.706816   -1.594958    1.166514
  H     -2.831164   -0.247542    1.040103
  H     -1.293026   -0.029720    1.866380
  H     -0.973562    1.698021   -1.500674
  H     -0.941514    1.994328    0.239292
  H     -2.461352    1.604468   -0.559153

 Total Charge           Charge          ....    0
 Multiplicity           Mult            ....    1
 Number of Electrons    NEL             ....   58
 Basis Dimension        Dim             ....  213

ORBITAL ENERGIES
----------------

  NO   OCC          E(Eh)            E(eV)
   0   2.0000     -10.021315      -272.6938
   1   2.0000     -10.018663      -272.6217
   2   2.0000     -10.011212      -272.4189
   3   2.0000     -10.006602      -272.2935
   4   2.0000     -10.004193      -272.2279
   5   2.0000     -10.004052      -272.2241
   6   2.0000     -10.003952      -272.2214
   7   2.0000      -0.780162       -21.2293
   8   2.0000      -0.718979       -19.5644
   9   2.0000      -0.679421       -18.4880
  10   2.0000      -0.639887       -17.4122
  11   2.0000      -0.589966       -16.0538
  12   2.0000      -0.559589       -15.2272
  13   2.0000      -0.493584       -13.4311
  14   2.0000      -0.434285       -11.8175
  15   2.0000      -0.406296       -11.0559
  16   2.0000      -0.404169       -10.9980
  17   2.0000      -0.379740       -10.3333
  18   2.0000      -0.372901       -10.1472
  19   2.0000      -0.359329        -9.7778
  20   2.0000      -0.344933        -9.3861
  21   2.0000      -0.338357        -9.2072
  22   2.0000      -0.326218        -8.8768
  23   2.0000      -0.310375        -8.4457
  24   2.0000      -0.303931        -8.2704
  25   2.0000      -0.293449        -7.9852
  26   2.0000      -0.271268        -7.3816
  27   2.0000      -0.266252        -7.2451
  28   2.0000      -0.261204        -7.1077
  29   0.0000       0.089332         2.4308
  30   0.0000       0.107713         2.9310
  31   0.0000       0.123139         3.3508
  32   0.0000       0.128470         3.4958
  33   0.0000       0.132886         3.6160

MULLIKEN ATOMIC CHARGES
-----------------------
   0 C :   -0.532581
   1 C :   -0.306572
   2 C :    0.005350
   3 H :    0.168802
   4 C :   -0.578852
   5 C :   -0.048244
   6 C :   -0.542924
   7 C :   -0.554820
   8 H :    0.159915
   9 H :    0.152379
  10 H :    0.156417
  11 H :    0.159490
  12 H :    0.158047
  13 H :    0.154727
  14 H :    0.159081
  15 H :    0.168950
  16 H :    0.154504
  17 H :    0.162724
  18 H :    0.155112
  19 H :    0.161774
  20 H :    0.161371
  21 H :    0.167153
  22 H :    0.158197
Sum of atomic charges:    0.0000000

LOEWDIN ATOMIC CHARGES
----------------------
   0 C :   -0.429502
   1 C :   -0.312265
   2 C :   -0.234004
   3 H :    0.161385
   4 C :   -0.423579
   5 C :   -0.237977
   6 C :   -0.424945
   7 C :   -0.424736
   8 H :    0.151676
   9 H :    0.150256
  10 H :    0.151057
  11 H :    0.158120
  12 H :    0.157875
  13 H :    0.154507
  14 H :    0.154730
  15 H :    0.155225
  16 H :    0.158623
  17 H :    0.156307
  18 H :    0.156045
  19 H :    0.155036
  20 H :    0.155622
  21 H :    0.156160
  22 H :    0.154384

  Mayer bond orders larger than 0.100000
B(  0-C ,  1-C ) :   0.8782 B(  0-C ,  8-H ) :   0.9777 B(  0-C ,  9-H ) :   0.9729
B(  0-C , 10-H ) :   0.9828 B(  1-C ,  2-C ) :   0.7922 B(  1-C , 11-H ) :   0.9793
B(  1-C , 12-H ) :   0.9743 B(  2-C ,  3-H ) :   0.9920 B(  2-C ,  4-C ) :   0.8854
B(  2-C ,  5-C ) :   0.8798 B(  4-C , 13-H ) :   0.9775 B(  4-C , 14-H ) :   0.9727
B(  4-C , 15-H ) :   0.9831 B(  5-C ,  6-C ) :   0.9014 B(  5-C ,  7-C ) :   0.8835
B(  5-C , 16-H ) :   0.9830 B(  6-C , 17-H ) :   0.9740 B(  6-C , 18-H ) :   0.9701
B(  6-C , 19-H ) :   0.9751 B(  7-C , 20-H ) :   0.9762 B(  7-C , 21-H ) :   0.9764
B(  7-C , 22-H ) :   0.9731

Dispersion correction           -0.006606835
FINAL SINGLE POINT ENERGY      -276.279445094060

DIPOLE MOMENT
-------------

Method             : SCF
Type of density    : Electron Density
Multiplicity       :   1
Irrep              :   0
Energy             :  -276.2840650635268389 Eh
Relativity type    :
Basis              : AO
                                X                 Y                 Z
Electronic contribution:     -0.286414754      -0.610866734      -0.551968980
Nuclear contribution   :      0.270117740       0.602234762       0.518654879
                        -----------------------------------------
Total Dipole Moment    :     -0.016297014      -0.008631972      -0.033314101
                        -----------------------------------------
Magnitude (a.u.)       :      0.038077985
Magnitude (Debye)      :      0.096786546

Rotational constants in cm-1:             0.096096             0.066779             0.049450
Rotational constants in MHz :          2880.898920          2001.992282          1482.483789

                             ****ORCA TERMINATED NORMALLY****
TOTAL RUN TIME: 0 days 0 hours 0 minutes 25 seconds 686 msec
