                         Program Version 6.0.0  -   RELEASE  -
|  1> ! r2scan-3c def2/J RI DEFGRID2 scfconv6 printgap
|  2> %output
|  3>     printlevel normal
|  4> end
|  5> * xyz 0 1
|  6> C 0.0419227224 -3.1283254087 0.0548737689
|  7> C 0.67062644 -1.7734277257 -0.0133467484
|  8> C 2.0554347754 -1.5745543251 0.0749852598
|  9> N 2.6014116967 -0.3705700256 0.0309880969
| 10> C 1.7907939042 0.6865849079 -0.1229134604
| 11> N 0.4531018322 0.6010528249 -0.2444158902
| 12> C -0.0692269212 -0.604457008 -0.1659667786
| 13> O -1.4401497496 -0.6917881536 -0.3093520952
| 14> C -2.2153726637 0.2024312845 0.3840977362
| 15> O -1.8231154271 0.7636723868 1.3935097921
| 16> N -3.4358162464 0.3294020572 -0.1382640757
| 17> C -4.4290814981 1.1350939695 0.5403136657
| 18> C -3.8870455921 -0.3534630455 -1.3312182627
| 19> N 2.3265771761 1.9101104449 -0.186866761
| 20> C 3.7371039892 2.1346454217 0.0191314561
| 21> C 1.4586635652 3.0618612958 -0.2872849978
| 22> C 2.9884460939 -2.72915832 0.2369918699
| 23> H 0.3286987797 -3.6336701529 0.9757243434
| 24> H -1.0402155516 -3.0370899902 0.0233100893
| 25> H 0.3683202359 -3.7410614892 -0.7841569123
| 26> H -4.7646868065 1.9360296565 -0.1181268385
| 27> H -3.9780423141 1.561823258 1.4327370525
| 28> H -5.280250851 0.51376377 0.8195816942
| 29> H -4.4065674751 0.3611033695 -1.9685633393
| 30> H -4.5723397556 -1.1600626165 -1.0651605595
| 31> H -3.0372316577 -0.7661401458 -1.8660111332
| 32> H 3.9012797485 2.6839615843 0.9481807673
| 33> H 4.1428497664 2.7078643768 -0.8149212717
| 34> H 4.2320110011 1.1699641781 0.0763151459
| 35> H 0.8201415524 3.1420522362 0.5954561966
| 36> H 0.8104255467 2.9625423221 -1.1574263376
| 37> H 2.0713454086 3.9527166761 -0.3829621809
| 38> H 2.8710547178 -3.4214612543 -0.5935144538
| 39> H 4.0101708633 -2.3662359145 0.2703858639
| 40> H 2.7617176266 -3.2639467614 1.1568332949
| 41> *
| 42>
| 43>                          ****END OF INPUT****

CARTESIAN COORDINATES (ANGSTROEM)
---------------------------------
  C      0.041923   -3.128325    0.054874
  C      0.670626   -1.773428   -0.013347
  C      2.055435   -1.574554    0.074985
  N      2.601412   -0.370570    0.030988
  C      1.790794    0.686585   -0.122913
  N      0.453102    0.601053   -0.244416
  C     -0.069227   -0.604457   -0.165967
  O     -1.440150   -0.691788   -0.309352
  C     -2.215373    0.202431    0.384098
  O     -1.823115    0.763672    1.393510
  N     -3.435816    0.329402   -0.138264
  C     -4.429081    1.135094    0.540314
  C     -3.887046   -0.353463   -1.331218
  N      2.326577    1.910110   -0.186867
  C      3.737104    2.134645    0.019131
  C      1.458664    3.061861   -0.287285
  C      2.988446   -2.729158    0.236992
  H      0.328699   -3.633670    0.975724
  H     -1.040216   -3.037090    0.023310
  H      0.368320   -3.741061   -0.784157
  H     -4.764687    1.936030   -0.118127
  H     -3.978042    1.561823    1.432737
  H     -5.280251    0.513764    0.819582
  H     -4.406567    0.361103   -1.968563
  H     -4.572340   -1.160063   -1.065161
  H     -3.037232   -0.766140   -1.866011
  H      3.901280    2.683962    0.948181
  H      4.142850    2.707864   -0.814921
  H      4.232011    1.169964    0.076315
  H      0.820142    3.142052    0.595456
  H      0.810426    2.962542   -1.157426
  H      2.071345    3.952717   -0.382962
  H      2.871055   -3.421461   -0.593514
  H      4.010171   -2.366236    0.270386
  H      2.761718   -3.263947    1.156833

 Total Charge           Charge          ....    0
 Multiplicity           Mult            ....    1
 Number of Electrons    NEL             ....  128
 Basis Dimension        Dim             ....  443

ORBITAL ENERGIES
----------------

  NO   OCC          E(Eh)            E(eV)
   0   2.0000     -18.997463      -516.9472
   1   2.0000     -18.904087      -514.4064
   2   2.0000     -14.198044      -386.3484
   3   2.0000     -14.180163      -385.8618
   4   2.0000     -14.135542      -384.6477
   5   2.0000     -14.133053      -384.5799
   6   2.0000     -10.166360      -276.6407
   7   2.0000     -10.123399      -275.4717
   8   2.0000     -10.114290      -275.2238
   9   2.0000     -10.073679      -274.1187
  10   2.0000     -10.067826      -273.9595
  11   2.0000     -10.062724      -273.8206
  12   2.0000     -10.050348      -273.4839
  13   2.0000     -10.049698      -273.4662
  14   2.0000     -10.030177      -272.9350
  15   2.0000     -10.025233      -272.8004
  16   2.0000     -10.023538      -272.7543
  17   2.0000      -1.076342       -29.2888
  18   2.0000      -0.978257       -26.6197
  19   2.0000      -0.960183       -26.1279
  20   2.0000      -0.914479       -24.8842
  21   2.0000      -0.890586       -24.2341
  22   2.0000      -0.842225       -22.9181
  23   2.0000      -0.769642       -20.9430
  24   2.0000      -0.707502       -19.2521
  25   2.0000      -0.697777       -18.9875
  26   2.0000      -0.691283       -18.8108
  27   2.0000      -0.682357       -18.5679
  28   2.0000      -0.670435       -18.2435
  29   2.0000      -0.625544       -17.0219
  30   2.0000      -0.600254       -16.3337
  31   2.0000      -0.551123       -14.9968
  32   2.0000      -0.534152       -14.5350
  33   2.0000      -0.509253       -13.8575
  34   2.0000      -0.493052       -13.4166
  35   2.0000      -0.470313       -12.7979
  36   2.0000      -0.456546       -12.4232
  37   2.0000      -0.450875       -12.2689
  38   2.0000      -0.439591       -11.9619
  39   2.0000      -0.420880       -11.4527
  40   2.0000      -0.414842       -11.2884
  41   2.0000      -0.408842       -11.1252
  42   2.0000      -0.393609       -10.7106
  43   2.0000      -0.389021       -10.5858
  44   2.0000      -0.380283       -10.3480
  45   2.0000      -0.378848       -10.3090
  46   2.0000      -0.373560       -10.1651
  47   2.0000      -0.372127       -10.1261
  48   2.0000      -0.371486       -10.1086
  49   2.0000      -0.366252        -9.9662
  50   2.0000      -0.360367        -9.8061
  51   2.0000      -0.357222        -9.7205
  52   2.0000      -0.351238        -9.5577
  53   2.0000      -0.347602        -9.4587
  54   2.0000      -0.342128        -9.3098
  55   2.0000      -0.338974        -9.2239
  56   2.0000      -0.298514        -8.1230
  57   2.0000      -0.269028        -7.3206
  58   2.0000      -0.259229        -7.0540
  59   2.0000      -0.245737        -6.6869
  60   2.0000      -0.231303        -6.2941
  61   2.0000      -0.218442        -5.9441
  62   2.0000      -0.202197        -5.5021
  63   2.0000      -0.175454        -4.7744
  64   0.0000      -0.038111        -1.0370
  65   0.0000      -0.006844        -0.1862
  66   0.0000       0.031480         0.8566
  67   0.0000       0.061586         1.6758
  68   0.0000       0.078944         2.1482

MULLIKEN ATOMIC CHARGES
-----------------------
   0 C :   -0.607042
   1 C :   -0.053054
   2 C :    0.244517
   3 N :   -0.243443
   4 C :    0.064427
   5 N :   -0.236959
   6 C :    0.230194
   7 O :   -0.132834
   8 C :    0.236918
   9 O :   -0.454351
  10 N :    0.066554
  11 C :   -0.388337
  12 C :   -0.382195
  13 N :    0.167289
  14 C :   -0.402408
  15 C :   -0.389373
  16 C :   -0.627031
  17 H :    0.154745
  18 H :    0.173646
  19 H :    0.160462
  20 H :    0.145422
  21 H :    0.201893
  22 H :    0.140540
  23 H :    0.140995
  24 H :    0.151241
  25 H :    0.181767
  26 H :    0.144056
  27 H :    0.141122
  28 H :    0.196447
  29 H :    0.175377
  30 H :    0.166479
  31 H :    0.139325
  32 H :    0.155275
  33 H :    0.177152
  34 H :    0.161185
Sum of atomic charges:    0.0000000

LOEWDIN ATOMIC CHARGES
----------------------
   0 C :   -0.373945
   1 C :   -0.070886
   2 C :    0.174917
   3 N :   -0.569221
   4 C :    0.432228
   5 N :   -0.467194
   6 C :    0.401576
   7 O :   -0.469894
   8 C :    0.475498
   9 O :   -0.404428
  10 N :   -0.783899
  11 C :   -0.098110
  12 C :   -0.097841
  13 N :   -0.793306
  14 C :   -0.106590
  15 C :   -0.102517
  16 C :   -0.354261
  17 H :    0.162298
  18 H :    0.174922
  19 H :    0.161221
  20 H :    0.173022
  21 H :    0.209921
  22 H :    0.172115
  23 H :    0.174736
  24 H :    0.170884
  25 H :    0.202448
  26 H :    0.169684
  27 H :    0.169909
  28 H :    0.209782
  29 H :    0.184125
  30 H :    0.185538
  31 H :    0.175630
  32 H :    0.167397
  33 H :    0.175524
  34 H :    0.168715

  Mayer bond orders larger than 0.100000
B(  0-C ,  1-C ) :   0.6956 B(  0-C , 17-H ) :   0.9768 B(  0-C , 18-H ) :   0.9960
B(  0-C , 19-H ) :   0.9888 B(  1-C ,  2-C ) :   1.3347 B(  1-C ,  6-C ) :   1.4236
B(  2-C ,  3-N ) :   1.3759 B(  2-C , 16-C ) :   0.7711 B(  3-N ,  4-C ) :   1.3328
B(  4-C ,  5-N ) :   1.3382 B(  4-C , 13-N ) :   1.3429 B(  5-N ,  6-C ) :   1.4219
B(  6-C ,  7-O ) :   1.0092 B(  7-O ,  8-C ) :   0.9838 B(  8-C ,  9-O ) :   1.8448
B(  8-C , 10-N ) :   1.3098 B( 10-N , 11-C ) :   0.9217 B( 10-N , 12-C ) :   0.9049
B( 11-C , 20-H ) :   0.9591 B( 11-C , 21-H ) :   0.9548 B( 11-C , 22-H ) :   0.9517
B( 12-C , 23-H ) :   0.9569 B( 12-C , 24-H ) :   0.9578 B( 12-C , 25-H ) :   0.9581
B( 13-N , 14-C ) :   0.8972 B( 13-N , 15-C ) :   0.9061 B( 14-C , 26-H ) :   0.9537
B( 14-C , 27-H ) :   0.9635 B( 14-C , 28-H ) :   0.9542 B( 15-C , 29-H ) :   0.9507
B( 15-C , 30-H ) :   0.9588 B( 15-C , 31-H ) :   0.9575 B( 16-C , 32-H ) :   0.9703
B( 16-C , 33-H ) :   1.0123 B( 16-C , 34-H ) :   0.9730

Dispersion correction           -0.013536847
FINAL SINGLE POINT ENERGY      -799.294654077199

DIPOLE MOMENT
-------------

Method             : SCF
Type of density    : Electron Density
Multiplicity       :   1
Irrep              :   0
Energy             :  -799.3186367105904537 Eh
Relativity type    :
Basis              : AO
                                X                 Y                 Z
Electronic contribution:      0.184271993       0.223913485       1.504360089
Nuclear contribution   :     -0.751929993      -0.358633852      -2.287579437
                        -----------------------------------------
Total Dipole Moment    :     -0.567657999      -0.134720367      -0.783219348
                        -----------------------------------------
Magnitude (a.u.)       :      0.976635924
Magnitude (Debye)      :      2.482411239

Rotational constants in cm-1:             0.022442             0.010639             0.007756
Rotational constants in MHz :           672.795681           318.945247           232.523602

                             ****ORCA TERMINATED NORMALLY****
TOTAL RUN TIME: 0 days 0 hours 1 minutes 25 seconds 247 msec
