                         Program Version 6.0.0  -   RELEASE  -
|  1> ! r2scan-3c def2/J RI DEFGRID2 scfconv6 printgap
|  2> %output
|  3>     printlevel normal
|  4> end
|  5> %cpcm
|  6>     smd true
|  7>     smdsolvent "water"
|  8> end
|  9> * xyz 0 1
| 10> C 0.0419227224 -3.1283254087 0.0548737689
| 11> C 0.67062644 -1.7734277257 -0.0133467484
| 12> C 2.0554347754 -1.5745543251 0.0749852598
| 13> N 2.6014116967 -0.3705700256 0.0309880969
| 14> C 1.7907939042 0.6865849079 -0.1229134604
| 15> N 0.4531018322 0.6010528249 -0.2444158902
| 16> C -0.0692269212 -0.604457008 -0.1659667786
| 17> O -1.4401497496 -0.6917881536 -0.3093520952
| 18> C -2.2153726637 0.2024312845 0.3840977362
| 19> O -1.8231154271 0.7636723868 1.3935097921
| 20> N -3.4358162464 0.3294020572 -0.1382640757
| 21> C -4.4290814981 1.1350939695 0.5403136657
| 22> C -3.8870455921 -0.3534630455 -1.3312182627
| 23> N 2.3265771761 1.9101104449 -0.186866761
| 24> C 3.7371039892 2.1346454217 0.0191314561
| 25> C 1.4586635652 3.0618612958 -0.2872849978
| 26> C 2.9884460939 -2.72915832 0.2369918699
| 27> H 0.3286987797 -3.6336701529 0.9757243434
| 28> H -1.0402155516 -3.0370899902 0.0233100893
| 29> H 0.3683202359 -3.7410614892 -0.7841569123
| 30> H -4.7646868065 1.9360296565 -0.1181268385
| 31> H -3.9780423141 1.561823258 1.4327370525
| 32> H -5.280250851 0.51376377 0.8195816942
| 33> H -4.4065674751 0.3611033695 -1.9685633393
| 34> H -4.5723397556 -1.1600626165 -1.0651605595
| 35> H -3.0372316577 -0.7661401458 -1.8660111332
| 36> H 3.9012797485 2.6839615843 0.9481807673
| 37> H 4.1428497664 2.7078643768 -0.8149212717
| 38> H 4.2320110011 1.1699641781 0.0763151459
| 39> H 0.8201415524 3.1420522362 0.5954561966
| 40> H 0.8104255467 2.9625423221 -1.1574263376
| 41> H 2.0713454086 3.9527166761 -0.3829621809
| 42> H 2.8710547178 -3.4214612543 -0.5935144538
| 43> H 4.0101708633 -2.3662359145 0.2703858639
| 44> H 2.7617176266 -3.2639467614 1.1568332949
| 45> *
| 46>
| 47>                          ****END OF INPUT****

CARTESIAN COORDINATES (ANGSTROEM)
---------------------------------
  C      0.041923   -3.128325    0.054874
  C      0.670626   -1.773428   -0.013347
  C      2.055435   -1.574554    0.074985
  N      2.601412   -0.370570    0.030988
  C      1.790794    0.686585   -0.122913
  N      0.453102    0.601053   -0.244416
  C     -0.069227   -0.604457   -0.165967
  O     -1.440150   -0.691788   -0.309352
  C     -2.215373    0.202431    0.384098
  O     -1.823115    0.763672    1.393510
  N     -3.435816    0.329402   -0.138264
  C     -4.429081    1.135094    0.540314
  C     -3.887046   -0.353463   -1.331218
  N      2.326577    1.910110   -0.186867
  C      3.737104    2.134645    0.019131
  C      1.458664    3.061861   -0.287285
  C      2.988446   -2.729158    0.236992
  H      0.328699   -3.633670    0.975724
  H     -1.040216   -3.037090    0.023310
  H      0.368320   -3.741061   -0.784157
  H     -4.764687    1.936030   -0.118127
  H     -3.978042    1.561823    1.432737
  H     -5.280251    0.513764    0.819582
  H     -4.406567    0.361103   -1.968563
  H     -4.572340   -1.160063   -1.065161
  H     -3.037232   -0.766140   -1.866011
  H      3.901280    2.683962    0.948181
  H      4.142850    2.707864   -0.814921
  H      4.232011    1.169964    0.076315
  H      0.820142    3.142052    0.595456
  H      0.810426    2.962542   -1.157426
  H      2.071345    3.952717   -0.382962
  H      2.871055   -3.421461   -0.593514
  H      4.010171   -2.366236    0.270386
  H      2.761718   -3.263947    1.156833

 Total Charge           Charge          ....    0
 Multiplicity           Mult            ....    1
 Number of Electrons    NEL             ....  128
 Basis Dimension        Dim             ....  443

ORBITAL ENERGIES
----------------

  NO   OCC          E(Eh)            E(eV)
   0   2.0000     -19.010268      -517.2957
   1   2.0000     -18.928997      -515.0842
   2   2.0000     -14.202903      -386.4806
   3   2.0000     -14.185775      -386.0146
   4   2.0000     -14.148836      -385.0094
   5   2.0000     -14.143909      -384.8753
   6   2.0000     -10.183682      -277.1121
   7   2.0000     -10.134393      -275.7708
   8   2.0000     -10.124364      -275.4980
   9   2.0000     -10.081813      -274.3401
  10   2.0000     -10.054826      -273.6057
  11   2.0000     -10.053979      -273.5827
  12   2.0000     -10.048729      -273.4398
  13   2.0000     -10.046784      -273.3869
  14   2.0000     -10.037389      -273.1312
  15   2.0000     -10.021321      -272.6940
  16   2.0000     -10.019855      -272.6541
  17   2.0000      -1.091321       -29.6964
  18   2.0000      -0.998023       -27.1576
  19   2.0000      -0.971134       -26.4259
  20   2.0000      -0.920132       -25.0381
  21   2.0000      -0.897325       -24.4175
  22   2.0000      -0.854269       -23.2458
  23   2.0000      -0.774879       -21.0855
  24   2.0000      -0.709893       -19.3172
  25   2.0000      -0.696572       -18.9547
  26   2.0000      -0.687294       -18.7022
  27   2.0000      -0.682039       -18.5592
  28   2.0000      -0.671426       -18.2704
  29   2.0000      -0.627290       -17.0694
  30   2.0000      -0.605129       -16.4664
  31   2.0000      -0.556036       -15.1305
  32   2.0000      -0.542257       -14.7556
  33   2.0000      -0.508425       -13.8350
  34   2.0000      -0.497735       -13.5441
  35   2.0000      -0.477229       -12.9861
  36   2.0000      -0.461226       -12.5506
  37   2.0000      -0.454701       -12.3730
  38   2.0000      -0.444835       -12.1046
  39   2.0000      -0.421311       -11.4645
  40   2.0000      -0.415999       -11.3199
  41   2.0000      -0.413054       -11.2398
  42   2.0000      -0.399206       -10.8629
  43   2.0000      -0.393650       -10.7118
  44   2.0000      -0.386278       -10.5112
  45   2.0000      -0.371634       -10.1127
  46   2.0000      -0.370107       -10.0711
  47   2.0000      -0.369030       -10.0418
  48   2.0000      -0.366078        -9.9615
  49   2.0000      -0.364965        -9.9312
  50   2.0000      -0.361540        -9.8380
  51   2.0000      -0.356168        -9.6918
  52   2.0000      -0.349698        -9.5158
  53   2.0000      -0.349321        -9.5055
  54   2.0000      -0.343889        -9.3577
  55   2.0000      -0.340560        -9.2671
  56   2.0000      -0.314157        -8.5486
  57   2.0000      -0.282604        -7.6901
  58   2.0000      -0.269258        -7.3269
  59   2.0000      -0.259716        -7.0672
  60   2.0000      -0.253580        -6.9003
  61   2.0000      -0.225847        -6.1456
  62   2.0000      -0.216018        -5.8782
  63   2.0000      -0.182431        -4.9642
  64   0.0000      -0.049512        -1.3473
  65   0.0000      -0.016036        -0.4364
  66   0.0000       0.015879         0.4321
  67   0.0000       0.056162         1.5282
  68   0.0000       0.075768         2.0617

MULLIKEN ATOMIC CHARGES
-----------------------
   0 C :   -0.635042
   1 C :   -0.052122
   2 C :    0.243179
   3 N :   -0.279347
   4 C :    0.066886
   5 N :   -0.271343
   6 C :    0.216392
   7 O :   -0.128053
   8 C :    0.243779
   9 O :   -0.548556
  10 N :    0.076105
  11 C :   -0.408839
  12 C :   -0.407070
  13 N :    0.164603
  14 C :   -0.421101
  15 C :   -0.425969
  16 C :   -0.653613
  17 H :    0.177787
  18 H :    0.182513
  19 H :    0.184381
  20 H :    0.176228
  21 H :    0.189950
  22 H :    0.172201
  23 H :    0.170435
  24 H :    0.177261
  25 H :    0.188313
  26 H :    0.166649
  27 H :    0.166442
  28 H :    0.192005
  29 H :    0.174213
  30 H :    0.174979
  31 H :    0.172608
  32 H :    0.183924
  33 H :    0.181568
  34 H :    0.188653
Sum of atomic charges:    0.0000000

LOEWDIN ATOMIC CHARGES
----------------------
   0 C :   -0.375958
   1 C :   -0.067910
   2 C :    0.179009
   3 N :   -0.591200
   4 C :    0.424735
   5 N :   -0.500252
   6 C :    0.391299
   7 O :   -0.467298
   8 C :    0.472107
   9 O :   -0.482676
  10 N :   -0.768185
  11 C :   -0.094207
  12 C :   -0.091612
  13 N :   -0.792072
  14 C :   -0.105221
  15 C :   -0.102580
  16 C :   -0.356459
  17 H :    0.170966
  18 H :    0.177024
  19 H :    0.171322
  20 H :    0.186380
  21 H :    0.204049
  22 H :    0.185785
  23 H :    0.187859
  24 H :    0.183424
  25 H :    0.204394
  26 H :    0.179185
  27 H :    0.180860
  28 H :    0.206247
  29 H :    0.181083
  30 H :    0.186318
  31 H :    0.189251
  32 H :    0.178878
  33 H :    0.175783
  34 H :    0.179675

  Mayer bond orders larger than 0.100000
B(  0-C ,  1-C ) :   0.7118 B(  0-C , 17-H ) :   0.9687 B(  0-C , 18-H ) :   0.9930
B(  0-C , 19-H ) :   0.9764 B(  1-C ,  2-C ) :   1.3253 B(  1-C ,  6-C ) :   1.4273
B(  2-C ,  3-N ) :   1.3762 B(  2-C , 16-C ) :   0.7894 B(  3-N ,  4-C ) :   1.3368
B(  4-C ,  5-N ) :   1.3354 B(  4-C , 13-N ) :   1.3619 B(  5-N ,  6-C ) :   1.4062
B(  6-C ,  7-O ) :   0.9898 B(  7-O ,  8-C ) :   0.9943 B(  8-C ,  9-O ) :   1.7678
B(  8-C , 10-N ) :   1.3680 B( 10-N , 11-C ) :   0.9113 B( 10-N , 12-C ) :   0.8964
B( 11-C , 20-H ) :   0.9483 B( 11-C , 21-H ) :   0.9559 B( 11-C , 22-H ) :   0.9439
B( 12-C , 23-H ) :   0.9482 B( 12-C , 24-H ) :   0.9475 B( 12-C , 25-H ) :   0.9534
B( 13-N , 14-C ) :   0.8880 B( 13-N , 15-C ) :   0.8936 B( 14-C , 26-H ) :   0.9469
B( 14-C , 27-H ) :   0.9548 B( 14-C , 28-H ) :   0.9553 B( 15-C , 29-H ) :   0.9525
B( 15-C , 30-H ) :   0.9565 B( 15-C , 31-H ) :   0.9499 B( 16-C , 32-H ) :   0.9575
B( 16-C , 33-H ) :   1.0073 B( 16-C , 34-H ) :   0.9594

Dispersion correction           -0.013536847
FINAL SINGLE POINT ENERGY      -799.308718077797

DIPOLE MOMENT
-------------

Method             : SCF
Type of density    : Electron Density
Multiplicity       :   1
Irrep              :   0
Energy             :  -799.3327007111879539 Eh
Relativity type    :
Basis              : AO
                                X                 Y                 Z
Electronic contribution:     -0.083593635      -0.047544855       1.046109467
Nuclear contribution   :     -0.751929993      -0.358633852      -2.287579437
                        -----------------------------------------
Total Dipole Moment    :     -0.835523628      -0.406178707      -1.241469969
                        -----------------------------------------
Magnitude (a.u.)       :      1.550589746
Magnitude (Debye)      :      3.941285915

Rotational constants in cm-1:             0.022442             0.010639             0.007756
Rotational constants in MHz :           672.795681           318.945247           232.523602

                             ****ORCA TERMINATED NORMALLY****
TOTAL RUN TIME: 0 days 0 hours 2 minutes 2 seconds 93 msec
