                         Program Version 6.0.0  -   RELEASE  -
|  1> ! pbe def2-sv(p) def2/J RI DEFGRID1 loosescf d4 GCP(DFT/SV(P)) printgap
|  2> %output
|  3>     printlevel normal
|  4> end
|  5> * xyz 0 1
|  6> C -1.1870128092 0.1793063597 -0.5130869103
|  7> C -0.0614191893 0.4989712083 0.4793889592
|  8> C 0.9064821872 -0.6963636446 0.587499664
|  9> O 1.6894554408 -0.8496435469 -0.5767449004
| 10> O 0.6136154948 1.6843680888 0.1249823006
| 11> O -2.0156872913 -0.8051728661 0.0634666432
| 12> H -0.7402195883 -0.1852935082 -1.4483208664
| 13> H -1.752079875 1.0995245299 -0.7126063619
| 14> H -0.5037924794 0.6813544194 1.4629504983
| 15> H 0.3133423434 -1.6061311126 0.6945282749
| 16> H 1.5421912664 -0.577935476 1.4702857538
| 17> H 2.406761316 -0.2009185374 -0.5569017033
| 18> H 0.9530371452 1.585832309 -0.7777285708
| 19> H -2.7062711563 -1.0500012359 -0.5678098878
| 20> *
| 21>
| 22>                          ****END OF INPUT****

CARTESIAN COORDINATES (ANGSTROEM)
---------------------------------
  C     -1.187013    0.179306   -0.513087
  C     -0.061419    0.498971    0.479389
  C      0.906482   -0.696364    0.587500
  O      1.689455   -0.849644   -0.576745
  O      0.613615    1.684368    0.124982
  O     -2.015687   -0.805173    0.063467
  H     -0.740220   -0.185294   -1.448321
  H     -1.752080    1.099525   -0.712606
  H     -0.503792    0.681354    1.462950
  H      0.313342   -1.606131    0.694528
  H      1.542191   -0.577935    1.470286
  H      2.406761   -0.200919   -0.556902
  H      0.953037    1.585832   -0.777729
  H     -2.706271   -1.050001   -0.567810

 Total Charge           Charge          ....    0
 Multiplicity           Mult            ....    1
 Number of Electrons    NEL             ....   50
 Basis Dimension        Dim             ....  100

ORBITAL ENERGIES
----------------

  NO   OCC          E(Eh)            E(eV)
   0   2.0000     -18.753671      -510.3133
   1   2.0000     -18.752307      -510.2762
   2   2.0000     -18.749864      -510.2098
   3   2.0000      -9.933543      -270.3055
   4   2.0000      -9.927993      -270.1544
   5   2.0000      -9.924247      -270.0525
   6   2.0000      -0.941524       -25.6202
   7   2.0000      -0.922816       -25.1111
   8   2.0000      -0.914611       -24.8878
   9   2.0000      -0.677367       -18.4321
  10   2.0000      -0.602890       -16.4055
  11   2.0000      -0.544217       -14.8089
  12   2.0000      -0.476173       -12.9573
  13   2.0000      -0.456429       -12.4201
  14   2.0000      -0.445336       -12.1182
  15   2.0000      -0.414407       -11.2766
  16   2.0000      -0.387328       -10.5397
  17   2.0000      -0.365039        -9.9332
  18   2.0000      -0.342967        -9.3326
  19   2.0000      -0.302562        -8.2331
  20   2.0000      -0.291962        -7.9447
  21   2.0000      -0.265402        -7.2219
  22   2.0000      -0.245969        -6.6932
  23   2.0000      -0.218288        -5.9399
  24   2.0000      -0.208310        -5.6684
  25   0.0000       0.008407         0.2288
  26   0.0000       0.025421         0.6917
  27   0.0000       0.063467         1.7270
  28   0.0000       0.077599         2.1116
  29   0.0000       0.100665         2.7392

MULLIKEN ATOMIC CHARGES
-----------------------
   0 C :   -0.008515
   1 C :    0.018722
   2 C :    0.016228
   3 O :   -0.441980
   4 O :   -0.431670
   5 O :   -0.435916
   6 H :    0.066287
   7 H :    0.080134
   8 H :    0.078672
   9 H :    0.098377
  10 H :    0.081901
  11 H :    0.290415
  12 H :    0.284101
  13 H :    0.303243
Sum of atomic charges:   -0.0000000

LOEWDIN ATOMIC CHARGES
----------------------
   0 C :   -0.142368
   1 C :   -0.089517
   2 C :   -0.138426
   3 O :   -0.337474
   4 O :   -0.319463
   5 O :   -0.343760
   6 H :    0.094483
   7 H :    0.096754
   8 H :    0.119151
   9 H :    0.119400
  10 H :    0.101034
  11 H :    0.278468
  12 H :    0.273080
  13 H :    0.288638

  Mayer bond orders larger than 0.100000
B(  0-C ,  1-C ) :   1.0586 B(  0-C ,  5-O ) :   1.0727 B(  0-C ,  6-H ) :   0.9044
B(  0-C ,  7-H ) :   0.9205 B(  1-C ,  2-C ) :   1.0189 B(  1-C ,  4-O ) :   1.0384
B(  1-C ,  8-H ) :   0.8912 B(  2-C ,  3-O ) :   1.0483 B(  2-C ,  9-H ) :   0.9148
B(  2-C , 10-H ) :   0.9253 B(  3-O , 11-H ) :   0.8470 B(  4-O , 12-H ) :   0.8426
B(  5-O , 13-H ) :   0.8496

Dispersion correction           -0.009238811
FINAL SINGLE POINT ENERGY      -344.006468764763

DIPOLE MOMENT
-------------

Method             : SCF
Type of density    : Electron Density
Multiplicity       :   1
Irrep              :   0
Energy             :  -344.0801919897687071 Eh
Relativity type    :
Basis              : AO
                                X                 Y                 Z
Electronic contribution:      0.416756857       0.339775979      -0.140212908
Nuclear contribution   :     -0.452651513      -0.237452439      -0.414437721
                        -----------------------------------------
Total Dipole Moment    :     -0.035894656       0.102323540      -0.554650630
                        -----------------------------------------
Magnitude (a.u.)       :      0.565151178
Magnitude (Debye)      :      1.436500135

Rotational constants in cm-1:             0.155864             0.089136             0.067600
Rotational constants in MHz :          4672.698246          2672.230063          2026.593699

                             ****ORCA TERMINATED NORMALLY****
TOTAL RUN TIME: 0 days 0 hours 0 minutes 6 seconds 549 msec
