                         Program Version 6.0.0  -   RELEASE  -
|  1> ! pbe def2-sv(p) def2/J RI DEFGRID1 loosescf d4 GCP(DFT/SV(P)) printgap
|  2> %output
|  3>     printlevel normal
|  4> end
|  5> * xyz 0 1
|  6> C 2.5387736448 -0.1164293526 -0.7606782251
|  7> C 1.3249098134 -0.1774693606 0.1627130095
|  8> H 1.4118534144 -1.0683898433 0.8059705043
|  9> C 0.0281247654 -0.2882157727 -0.6540304922
| 10> C -1.2498788293 -0.3436465132 0.1997356658
| 11> C -1.8442125535 1.0521054173 0.3932532367
| 12> C -2.2893067363 -1.2589823783 -0.4469368231
| 13> O 1.3660555647 0.9839797844 0.9792524855
| 14> H 2.4711837758 0.7651377909 -1.3924069529
| 15> H 3.4464265142 -0.0450513414 -0.167671007
| 16> H 2.584371656 -1.0044691085 -1.382901132
| 17> H -0.0282885664 0.5598013062 -1.3384651791
| 18> H 0.107412465 -1.1972098879 -1.2518297577
| 19> H -0.9983374289 -0.7638420388 1.1813805643
| 20> H -2.2460182202 1.4161909114 -0.5503129884
| 21> H -1.0910353593 1.7583813569 0.7319103276
| 22> H -2.6524824391 1.0275750968 1.1208919016
| 23> H -1.9148695599 -2.277334246 -0.5204733884
| 24> H -3.202687903 -1.2709230147 0.1433392391
| 25> H -2.5314622121 -0.9066159271 -1.4471044192
| 26> H 0.734237299 0.8845427497 1.7023946853
| 27> *
| 28>
| 29>                          ****END OF INPUT****

CARTESIAN COORDINATES (ANGSTROEM)
---------------------------------
  C      2.538774   -0.116429   -0.760678
  C      1.324910   -0.177469    0.162713
  H      1.411853   -1.068390    0.805971
  C      0.028125   -0.288216   -0.654030
  C     -1.249879   -0.343647    0.199736
  C     -1.844213    1.052105    0.393253
  C     -2.289307   -1.258982   -0.446937
  O      1.366056    0.983980    0.979252
  H      2.471184    0.765138   -1.392407
  H      3.446427   -0.045051   -0.167671
  H      2.584372   -1.004469   -1.382901
  H     -0.028289    0.559801   -1.338465
  H      0.107412   -1.197210   -1.251830
  H     -0.998337   -0.763842    1.181381
  H     -2.246018    1.416191   -0.550313
  H     -1.091035    1.758381    0.731910
  H     -2.652482    1.027575    1.120892
  H     -1.914870   -2.277334   -0.520473
  H     -3.202688   -1.270923    0.143339
  H     -2.531462   -0.906616   -1.447104
  H      0.734237    0.884543    1.702395

 Total Charge           Charge          ....    0
 Multiplicity           Mult            ....    1
 Number of Electrons    NEL             ....   58
 Basis Dimension        Dim             ....  126

ORBITAL ENERGIES
----------------

  NO   OCC          E(Eh)            E(eV)
   0   2.0000     -18.739618      -509.9309
   1   2.0000      -9.935596      -270.3613
   2   2.0000      -9.898093      -269.3408
   3   2.0000      -9.877807      -268.7888
   4   2.0000      -9.874212      -268.6910
   5   2.0000      -9.872638      -268.6481
   6   2.0000      -9.868994      -268.5490
   7   2.0000      -0.916549       -24.9406
   8   2.0000      -0.731340       -19.9008
   9   2.0000      -0.680324       -18.5126
  10   2.0000      -0.611044       -16.6274
  11   2.0000      -0.606735       -16.5101
  12   2.0000      -0.524409       -14.2699
  13   2.0000      -0.502666       -13.6782
  14   2.0000      -0.467099       -12.7104
  15   2.0000      -0.416623       -11.3369
  16   2.0000      -0.394579       -10.7370
  17   2.0000      -0.394342       -10.7306
  18   2.0000      -0.357448        -9.7267
  19   2.0000      -0.350946        -9.5497
  20   2.0000      -0.341922        -9.3042
  21   2.0000      -0.337889        -9.1944
  22   2.0000      -0.323009        -8.7895
  23   2.0000      -0.315158        -8.5759
  24   2.0000      -0.295204        -8.0329
  25   2.0000      -0.287196        -7.8150
  26   2.0000      -0.282604        -7.6901
  27   2.0000      -0.262794        -7.1510
  28   2.0000      -0.211383        -5.7520
  29   0.0000       0.020106         0.5471
  30   0.0000       0.051028         1.3885
  31   0.0000       0.057285         1.5588
  32   0.0000       0.069473         1.8905
  33   0.0000       0.087167         2.3719

MULLIKEN ATOMIC CHARGES
-----------------------
   0 C :   -0.226780
   1 C :   -0.024789
   2 H :    0.059242
   3 C :   -0.096905
   4 C :   -0.188338
   5 C :   -0.253146
   6 C :   -0.247415
   7 O :   -0.421787
   8 H :    0.101317
   9 H :    0.105274
  10 H :    0.095673
  11 H :    0.076136
  12 H :    0.072258
  13 H :    0.061636
  14 H :    0.097444
  15 H :    0.092820
  16 H :    0.097075
  17 H :    0.100412
  18 H :    0.096830
  19 H :    0.097842
  20 H :    0.305201
Sum of atomic charges:   -0.0000000

LOEWDIN ATOMIC CHARGES
----------------------
   0 C :   -0.339809
   1 C :   -0.055485
   2 H :    0.094464
   3 C :   -0.229422
   4 C :   -0.162733
   5 C :   -0.335510
   6 C :   -0.328364
   7 O :   -0.331681
   8 H :    0.122998
   9 H :    0.122950
  10 H :    0.121415
  11 H :    0.119978
  12 H :    0.117924
  13 H :    0.105531
  14 H :    0.118547
  15 H :    0.111868
  16 H :    0.115743
  17 H :    0.115838
  18 H :    0.116029
  19 H :    0.117857
  20 H :    0.281863

  Mayer bond orders larger than 0.100000
B(  0-C ,  1-C ) :   1.1223 B(  0-C ,  8-H ) :   0.9435 B(  0-C ,  9-H ) :   0.9446
B(  0-C , 10-H ) :   0.9468 B(  1-C ,  2-H ) :   0.9099 B(  1-C ,  3-C ) :   1.0635
B(  1-C ,  7-O ) :   1.0681 B(  3-C ,  4-C ) :   1.0446 B(  3-C , 11-H ) :   0.9006
B(  3-C , 12-H ) :   0.9122 B(  4-C ,  5-C ) :   1.1107 B(  4-C ,  6-C ) :   1.1184
B(  4-C , 13-H ) :   0.9064 B(  5-C , 14-H ) :   0.9465 B(  5-C , 15-H ) :   0.9352
B(  5-C , 16-H ) :   0.9496 B(  6-C , 17-H ) :   0.9487 B(  6-C , 18-H ) :   0.9524
B(  6-C , 19-H ) :   0.9484 B(  7-O , 20-H ) :   0.8387

Dispersion correction           -0.016167933
FINAL SINGLE POINT ENERGY      -311.517099321758

DIPOLE MOMENT
-------------

Method             : SCF
Type of density    : Electron Density
Multiplicity       :   1
Irrep              :   0
Energy             :  -311.5971754628820349 Eh
Relativity type    :
Basis              : AO
                                X                 Y                 Z
Electronic contribution:      3.299603853       1.543202041       2.338677847
Nuclear contribution   :     -3.647661475      -1.976373471      -2.204484361
                        -----------------------------------------
Total Dipole Moment    :     -0.348057622      -0.433171430       0.134193486
                        -----------------------------------------
Magnitude (a.u.)       :      0.571655043
Magnitude (Debye)      :      1.453031644

Rotational constants in cm-1:             0.146145             0.049572             0.041042
Rotational constants in MHz :          4381.313164          1486.136891          1230.421933

                             ****ORCA TERMINATED NORMALLY****
TOTAL RUN TIME: 0 days 0 hours 0 minutes 10 seconds 92 msec
