                         Program Version 6.0.0  -   RELEASE  -
|  1> ! pbe def2-sv(p) def2/J RI DEFGRID1 loosescf d4 GCP(DFT/SV(P)) printgap
|  2> %output
|  3>     printlevel normal
|  4> end
|  5> * xyz 0 1
|  6> C -3.0756733803 0.7862331181 0.0730138583
|  7> C -1.5708445394 0.7963207107 -0.1674039298
|  8> C -0.9471453457 -0.5468169378 0.2112889495
|  9> C 0.5422177487 -0.6124925184 0.002554258
| 10> O 1.151311831 -1.6336361697 -0.248623703
| 11> O 1.138217087 0.5646502828 0.1423226713
| 12> C 2.5590204204 0.6062079975 -0.0097528759
| 13> H -3.5084963896 1.7423016784 -0.2081679773
| 14> H -3.5515502807 0.006320295 -0.5164762497
| 15> H -3.2933776867 0.6047364292 1.1225057025
| 16> H -1.1074532898 1.5877672619 0.4219923317
| 17> H -1.3690481815 1.0025562232 -1.21994789
| 18> H -1.3965671422 -1.3642045205 -0.3550214081
| 19> H -1.1244861398 -0.7471037927 1.2715898515
| 20> H 3.033100544 -0.0314610829 0.7373328196
| 21> H 2.8372928804 1.6459080722 0.1298211171
| 22> H 2.838487126 0.2544200189 -1.0034884992
| 23> *
| 24>
| 25>                          ****END OF INPUT****

CARTESIAN COORDINATES (ANGSTROEM)
---------------------------------
  C     -3.075673    0.786233    0.073014
  C     -1.570845    0.796321   -0.167404
  C     -0.947145   -0.546817    0.211289
  C      0.542218   -0.612493    0.002554
  O      1.151312   -1.633636   -0.248624
  O      1.138217    0.564650    0.142323
  C      2.559020    0.606208   -0.009753
  H     -3.508496    1.742302   -0.208168
  H     -3.551550    0.006320   -0.516476
  H     -3.293378    0.604736    1.122506
  H     -1.107453    1.587767    0.421992
  H     -1.369048    1.002556   -1.219948
  H     -1.396567   -1.364205   -0.355021
  H     -1.124486   -0.747104    1.271590
  H      3.033101   -0.031461    0.737333
  H      2.837293    1.645908    0.129821
  H      2.838487    0.254420   -1.003488

 Total Charge           Charge          ....    0
 Multiplicity           Mult            ....    1
 Number of Electrons    NEL             ....   56
 Basis Dimension        Dim             ....  118

ORBITAL ENERGIES
----------------

  NO   OCC          E(Eh)            E(eV)
   0   2.0000     -18.799812      -511.5689
   1   2.0000     -18.730021      -509.6698
   2   2.0000     -10.001830      -272.1636
   3   2.0000      -9.940990      -270.5081
   4   2.0000      -9.896629      -269.3010
   5   2.0000      -9.890548      -269.1355
   6   2.0000      -9.878505      -268.8078
   7   2.0000      -1.005351       -27.3570
   8   2.0000      -0.905541       -24.6410
   9   2.0000      -0.726557       -19.7706
  10   2.0000      -0.669591       -18.2205
  11   2.0000      -0.621697       -16.9172
  12   2.0000      -0.536346       -14.5947
  13   2.0000      -0.508730       -13.8433
  14   2.0000      -0.448703       -12.2098
  15   2.0000      -0.442705       -12.0466
  16   2.0000      -0.419265       -11.4088
  17   2.0000      -0.404163       -10.9978
  18   2.0000      -0.376054       -10.2329
  19   2.0000      -0.369297       -10.0491
  20   2.0000      -0.355371        -9.6701
  21   2.0000      -0.331193        -9.0122
  22   2.0000      -0.320634        -8.7249
  23   2.0000      -0.308709        -8.4004
  24   2.0000      -0.298746        -8.1293
  25   2.0000      -0.290354        -7.9009
  26   2.0000      -0.256988        -6.9930
  27   2.0000      -0.213018        -5.7965
  28   0.0000      -0.017656        -0.4804
  29   0.0000       0.036387         0.9901
  30   0.0000       0.058217         1.5842
  31   0.0000       0.077457         2.1077
  32   0.0000       0.079247         2.1564

MULLIKEN ATOMIC CHARGES
-----------------------
   0 C :   -0.256173
   1 C :   -0.205084
   2 C :   -0.171710
   3 C :    0.117464
   4 O :   -0.210543
   5 O :   -0.240368
   6 C :   -0.107641
   7 H :    0.105177
   8 H :    0.098970
   9 H :    0.096696
  10 H :    0.100830
  11 H :    0.092924
  12 H :    0.105816
  13 H :    0.114289
  14 H :    0.119322
  15 H :    0.120291
  16 H :    0.119739
Sum of atomic charges:    0.0000000

LOEWDIN ATOMIC CHARGES
----------------------
   0 C :   -0.339970
   1 C :   -0.235319
   2 C :   -0.245495
   3 C :    0.033007
   4 O :   -0.172412
   5 O :   -0.070190
   6 C :   -0.202834
   7 H :    0.120615
   8 H :    0.117674
   9 H :    0.117318
  10 H :    0.120237
  11 H :    0.118251
  12 H :    0.136519
  13 H :    0.142692
  14 H :    0.119773
  15 H :    0.119921
  16 H :    0.120214

  Mayer bond orders larger than 0.100000
B(  0-C ,  1-C ) :   1.1546 B(  0-C ,  7-H ) :   0.9533 B(  0-C ,  8-H ) :   0.9533
B(  0-C ,  9-H ) :   0.9539 B(  1-C ,  2-C ) :   1.1215 B(  1-C , 10-H ) :   0.9176
B(  1-C , 11-H ) :   0.9345 B(  2-C ,  3-C ) :   1.0375 B(  2-C , 12-H ) :   0.9109
B(  2-C , 13-H ) :   0.8895 B(  3-C ,  4-O ) :   2.0650 B(  3-C ,  5-O ) :   1.2092
B(  5-O ,  6-C ) :   0.9401 B(  6-C , 14-H ) :   0.9526 B(  6-C , 15-H ) :   0.9586
B(  6-C , 16-H ) :   0.9517

Dispersion correction           -0.011856750
FINAL SINGLE POINT ENERGY      -346.238992654936

DIPOLE MOMENT
-------------

Method             : SCF
Type of density    : Electron Density
Multiplicity       :   1
Irrep              :   0
Energy             :  -346.3038446418188983 Eh
Relativity type    :
Basis              : AO
                                X                 Y                 Z
Electronic contribution:      6.139455609      -3.635845984      -0.198889292
Nuclear contribution   :     -6.197454103       4.394700768       0.355058655
                        -----------------------------------------
Total Dipole Moment    :     -0.057998494       0.758854784       0.156169363
                        -----------------------------------------
Magnitude (a.u.)       :      0.776925530
Magnitude (Debye)      :      1.974787758

Rotational constants in cm-1:             0.190941             0.046468             0.038847
Rotational constants in MHz :          5724.277541          1393.087167          1164.610823

                             ****ORCA TERMINATED NORMALLY****
TOTAL RUN TIME: 0 days 0 hours 0 minutes 9 seconds 188 msec
