                         Program Version 6.0.0  -   RELEASE  -
|  1> ! r2scan-3c def2/J RI DEFGRID2 scfconv6 printgap
|  2> %output
|  3>     printlevel normal
|  4> end
|  5> * xyz 0 1
|  6> C 2.7132071568 0.2226747494 0.0929689023
|  7> C 1.2498181338 0.0426457801 0.4819494014
|  8> C 0.3401549124 0.1323255799 -0.7421389512
|  9> C -1.1606221454 -0.037097224 -0.4630722239
| 10> C -1.7032054494 1.0603648992 0.4507424471
| 11> C -1.486839192 -1.415321637 0.1096803256
| 12> H 3.3529965868 0.1574498478 0.9698772172
| 13> H 3.0178730387 -0.547346134 -0.6126852153
| 14> H 2.8676635253 1.1932777506 -0.3737174839
| 15> H 1.1275254652 -0.9287581398 0.9630390401
| 16> H 0.9768849799 0.8144845214 1.2028979915
| 17> H 0.4942538862 1.1038408928 -1.2193882863
| 18> H 0.6457748194 -0.6342168702 -1.4593477728
| 19> H -1.6693415203 0.0518240102 -1.4312241807
| 20> H -1.4408376895 2.0434710882 0.0667684824
| 21> H -1.3012624242 0.9610414325 1.4557586414
| 22> H -2.7870918196 0.9943665926 0.5129288044
| 23> H -1.0860236592 -1.5215528685 1.1144902375
| 24> H -2.5643940666 -1.5547917557 0.1598499895
| 25> H -1.0681303015 -2.1997311908 -0.5166155001
| 26> *
| 27>
| 28>                          ****END OF INPUT****

CARTESIAN COORDINATES (ANGSTROEM)
---------------------------------
  C      2.713207    0.222675    0.092969
  C      1.249818    0.042646    0.481949
  C      0.340155    0.132326   -0.742139
  C     -1.160622   -0.037097   -0.463072
  C     -1.703205    1.060365    0.450742
  C     -1.486839   -1.415322    0.109680
  H      3.352997    0.157450    0.969877
  H      3.017873   -0.547346   -0.612685
  H      2.867664    1.193278   -0.373717
  H      1.127525   -0.928758    0.963039
  H      0.976885    0.814485    1.202898
  H      0.494254    1.103841   -1.219388
  H      0.645775   -0.634217   -1.459348
  H     -1.669342    0.051824   -1.431224
  H     -1.440838    2.043471    0.066768
  H     -1.301262    0.961041    1.455759
  H     -2.787092    0.994367    0.512929
  H     -1.086024   -1.521553    1.114490
  H     -2.564394   -1.554792    0.159850
  H     -1.068130   -2.199731   -0.516616

 Total Charge           Charge          ....    0
 Multiplicity           Mult            ....    1
 Number of Electrons    NEL             ....   50
 Basis Dimension        Dim             ....  184

ORBITAL ENERGIES
----------------

  NO   OCC          E(Eh)            E(eV)
   0   2.0000     -10.029492      -272.9164
   1   2.0000     -10.020325      -272.6669
   2   2.0000     -10.017941      -272.6020
   3   2.0000     -10.013485      -272.4808
   4   2.0000     -10.011736      -272.4332
   5   2.0000     -10.011734      -272.4331
   6   2.0000      -0.778604       -21.1869
   7   2.0000      -0.726062       -19.7571
   8   2.0000      -0.646954       -17.6045
   9   2.0000      -0.639832       -17.4107
  10   2.0000      -0.566720       -15.4212
  11   2.0000      -0.507630       -13.8133
  12   2.0000      -0.432942       -11.7810
  13   2.0000      -0.428169       -11.6511
  14   2.0000      -0.406613       -11.0645
  15   2.0000      -0.381389       -10.3781
  16   2.0000      -0.373261       -10.1570
  17   2.0000      -0.350867        -9.5476
  18   2.0000      -0.335764        -9.1366
  19   2.0000      -0.330189        -8.9849
  20   2.0000      -0.321178        -8.7397
  21   2.0000      -0.302636        -8.2351
  22   2.0000      -0.284990        -7.7550
  23   2.0000      -0.281854        -7.6696
  24   2.0000      -0.273090        -7.4312
  25   0.0000       0.080630         2.1940
  26   0.0000       0.106499         2.8980
  27   0.0000       0.124202         3.3797
  28   0.0000       0.128752         3.5035
  29   0.0000       0.134410         3.6575

MULLIKEN ATOMIC CHARGES
-----------------------
   0 C :   -0.471746
   1 C :   -0.269341
   2 C :   -0.289885
   3 C :    0.013799
   4 C :   -0.510106
   5 C :   -0.510350
   6 H :    0.144930
   7 H :    0.141480
   8 H :    0.141484
   9 H :    0.145010
  10 H :    0.144964
  11 H :    0.141289
  12 H :    0.141293
  13 H :    0.147112
  14 H :    0.146218
  15 H :    0.153173
  16 H :    0.145594
  17 H :    0.153175
  18 H :    0.145644
  19 H :    0.146262
Sum of atomic charges:   -0.0000000

LOEWDIN ATOMIC CHARGES
----------------------
   0 C :   -0.423893
   1 C :   -0.316430
   2 C :   -0.308490
   3 C :   -0.248533
   4 C :   -0.419642
   5 C :   -0.419704
   6 H :    0.149135
   7 H :    0.149418
   8 H :    0.149430
   9 H :    0.152419
  10 H :    0.152391
  11 H :    0.156092
  12 H :    0.156088
  13 H :    0.154736
  14 H :    0.153550
  15 H :    0.151938
  16 H :    0.152992
  17 H :    0.151947
  18 H :    0.152993
  19 H :    0.153564

  Mayer bond orders larger than 0.100000
B(  0-C ,  1-C ) :   0.9061 B(  0-C ,  6-H ) :   0.9745 B(  0-C ,  7-H ) :   0.9843
B(  0-C ,  8-H ) :   0.9842 B(  1-C ,  2-C ) :   0.8967 B(  1-C ,  9-H ) :   0.9699
B(  1-C , 10-H ) :   0.9699 B(  2-C ,  3-C ) :   0.9050 B(  2-C , 11-H ) :   0.9809
B(  2-C , 12-H ) :   0.9810 B(  3-C ,  4-C ) :   0.9056 B(  3-C ,  5-C ) :   0.9051
B(  3-C , 13-H ) :   0.9692 B(  4-C , 14-H ) :   0.9746 B(  4-C , 15-H ) :   0.9843
B(  4-C , 16-H ) :   0.9707 B(  5-C , 17-H ) :   0.9843 B(  5-C , 18-H ) :   0.9707
B(  5-C , 19-H ) :   0.9746

Dispersion correction           -0.005005521
FINAL SINGLE POINT ENERGY      -236.987637164364

DIPOLE MOMENT
-------------

Method             : SCF
Type of density    : Electron Density
Multiplicity       :   1
Irrep              :   0
Energy             :  -236.9921134913955711 Eh
Relativity type    :
Basis              : AO
                                X                 Y                 Z
Electronic contribution:     -0.550321106       0.064585815      -0.807564057
Nuclear contribution   :      0.530896797      -0.062519833       0.781142982
                        -----------------------------------------
Total Dipole Moment    :     -0.019424308       0.002065983      -0.026421075
                        -----------------------------------------
Magnitude (a.u.)       :      0.032857955
Magnitude (Debye)      :      0.083518285

Rotational constants in cm-1:             0.196092             0.062383             0.056010
Rotational constants in MHz :          5878.703500          1870.183980          1679.134906

                             ****ORCA TERMINATED NORMALLY****
TOTAL RUN TIME: 0 days 0 hours 0 minutes 16 seconds 896 msec
