                         Program Version 6.0.0  -   RELEASE  -
|  1> ! r2scan-3c def2/J RI DEFGRID2 scfconv6 printgap
|  2> %output
|  3>     printlevel normal
|  4> end
|  5> %cpcm
|  6>     smd true
|  7>     smdsolvent "water"
|  8> end
|  9> * xyz 0 1
| 10> C 2.7132071568 0.2226747494 0.0929689023
| 11> C 1.2498181338 0.0426457801 0.4819494014
| 12> C 0.3401549124 0.1323255799 -0.7421389512
| 13> C -1.1606221454 -0.037097224 -0.4630722239
| 14> C -1.7032054494 1.0603648992 0.4507424471
| 15> C -1.486839192 -1.415321637 0.1096803256
| 16> H 3.3529965868 0.1574498478 0.9698772172
| 17> H 3.0178730387 -0.547346134 -0.6126852153
| 18> H 2.8676635253 1.1932777506 -0.3737174839
| 19> H 1.1275254652 -0.9287581398 0.9630390401
| 20> H 0.9768849799 0.8144845214 1.2028979915
| 21> H 0.4942538862 1.1038408928 -1.2193882863
| 22> H 0.6457748194 -0.6342168702 -1.4593477728
| 23> H -1.6693415203 0.0518240102 -1.4312241807
| 24> H -1.4408376895 2.0434710882 0.0667684824
| 25> H -1.3012624242 0.9610414325 1.4557586414
| 26> H -2.7870918196 0.9943665926 0.5129288044
| 27> H -1.0860236592 -1.5215528685 1.1144902375
| 28> H -2.5643940666 -1.5547917557 0.1598499895
| 29> H -1.0681303015 -2.1997311908 -0.5166155001
| 30> *
| 31>
| 32>                          ****END OF INPUT****

CARTESIAN COORDINATES (ANGSTROEM)
---------------------------------
  C      2.713207    0.222675    0.092969
  C      1.249818    0.042646    0.481949
  C      0.340155    0.132326   -0.742139
  C     -1.160622   -0.037097   -0.463072
  C     -1.703205    1.060365    0.450742
  C     -1.486839   -1.415322    0.109680
  H      3.352997    0.157450    0.969877
  H      3.017873   -0.547346   -0.612685
  H      2.867664    1.193278   -0.373717
  H      1.127525   -0.928758    0.963039
  H      0.976885    0.814485    1.202898
  H      0.494254    1.103841   -1.219388
  H      0.645775   -0.634217   -1.459348
  H     -1.669342    0.051824   -1.431224
  H     -1.440838    2.043471    0.066768
  H     -1.301262    0.961041    1.455759
  H     -2.787092    0.994367    0.512929
  H     -1.086024   -1.521553    1.114490
  H     -2.564394   -1.554792    0.159850
  H     -1.068130   -2.199731   -0.516616

 Total Charge           Charge          ....    0
 Multiplicity           Mult            ....    1
 Number of Electrons    NEL             ....   50
 Basis Dimension        Dim             ....  184

ORBITAL ENERGIES
----------------

  NO   OCC          E(Eh)            E(eV)
   0   2.0000     -10.022471      -272.7253
   1   2.0000     -10.012892      -272.4646
   2   2.0000     -10.010294      -272.3940
   3   2.0000     -10.006793      -272.2987
   4   2.0000     -10.004385      -272.2332
   5   2.0000     -10.004380      -272.2330
   6   2.0000      -0.771445       -20.9921
   7   2.0000      -0.719292       -19.5729
   8   2.0000      -0.640282       -17.4229
   9   2.0000      -0.633186       -17.2299
  10   2.0000      -0.559967       -15.2375
  11   2.0000      -0.500765       -13.6265
  12   2.0000      -0.425584       -11.5807
  13   2.0000      -0.421066       -11.4578
  14   2.0000      -0.399739       -10.8775
  15   2.0000      -0.374443       -10.1891
  16   2.0000      -0.366603        -9.9758
  17   2.0000      -0.343806        -9.3554
  18   2.0000      -0.328993        -8.9524
  19   2.0000      -0.323067        -8.7911
  20   2.0000      -0.314196        -8.5497
  21   2.0000      -0.295586        -8.0433
  22   2.0000      -0.277495        -7.5510
  23   2.0000      -0.274860        -7.4793
  24   2.0000      -0.265820        -7.2333
  25   0.0000       0.088594         2.4108
  26   0.0000       0.113060         3.0765
  27   0.0000       0.131629         3.5818
  28   0.0000       0.135330         3.6825
  29   0.0000       0.140535         3.8242

MULLIKEN ATOMIC CHARGES
-----------------------
   0 C :   -0.512433
   1 C :   -0.275282
   2 C :   -0.307064
   3 C :    0.024842
   4 C :   -0.550229
   5 C :   -0.550560
   6 H :    0.154423
   7 H :    0.152526
   8 H :    0.152565
   9 H :    0.153068
  10 H :    0.153014
  11 H :    0.149802
  12 H :    0.149789
  13 H :    0.152765
  14 H :    0.156386
  15 H :    0.163808
  16 H :    0.156148
  17 H :    0.163797
  18 H :    0.156227
  19 H :    0.156410
Sum of atomic charges:   -0.0000000

LOEWDIN ATOMIC CHARGES
----------------------
   0 C :   -0.433141
   1 C :   -0.318130
   2 C :   -0.311739
   3 C :   -0.247080
   4 C :   -0.428079
   5 C :   -0.428155
   6 H :    0.151214
   7 H :    0.151653
   8 H :    0.151684
   9 H :    0.154466
  10 H :    0.154431
  11 H :    0.157944
  12 H :    0.157933
  13 H :    0.156318
  14 H :    0.155863
  15 H :    0.154499
  16 H :    0.154962
  17 H :    0.154520
  18 H :    0.154957
  19 H :    0.155880

  Mayer bond orders larger than 0.100000
B(  0-C ,  1-C ) :   0.8944 B(  0-C ,  6-H ) :   0.9719 B(  0-C ,  7-H ) :   0.9821
B(  0-C ,  8-H ) :   0.9821 B(  1-C ,  2-C ) :   0.8952 B(  1-C ,  9-H ) :   0.9692
B(  1-C , 10-H ) :   0.9692 B(  2-C ,  3-C ) :   0.9040 B(  2-C , 11-H ) :   0.9796
B(  2-C , 12-H ) :   0.9797 B(  3-C ,  4-C ) :   0.8996 B(  3-C ,  5-C ) :   0.8994
B(  3-C , 13-H ) :   0.9705 B(  4-C , 14-H ) :   0.9723 B(  4-C , 15-H ) :   0.9812
B(  4-C , 16-H ) :   0.9693 B(  5-C , 17-H ) :   0.9812 B(  5-C , 18-H ) :   0.9693
B(  5-C , 19-H ) :   0.9722

Dispersion correction           -0.005005521
FINAL SINGLE POINT ENERGY      -236.984244417882

DIPOLE MOMENT
-------------

Method             : SCF
Type of density    : Electron Density
Multiplicity       :   1
Irrep              :   0
Energy             :  -236.9887207449131665 Eh
Relativity type    :
Basis              : AO
                                X                 Y                 Z
Electronic contribution:     -0.555049324       0.064672157      -0.810515312
Nuclear contribution   :      0.530896797      -0.062519833       0.781142982
                        -----------------------------------------
Total Dipole Moment    :     -0.024152527       0.002152324      -0.029372330
                        -----------------------------------------
Magnitude (a.u.)       :      0.038088198
Magnitude (Debye)      :      0.096812505

Rotational constants in cm-1:             0.196092             0.062383             0.056010
Rotational constants in MHz :          5878.703500          1870.183980          1679.134906

                             ****ORCA TERMINATED NORMALLY****
TOTAL RUN TIME: 0 days 0 hours 0 minutes 20 seconds 278 msec
