                         Program Version 6.0.0  -   RELEASE  -
|  1> ! r2scan-3c def2/J RI DEFGRID2 scfconv6 printgap
|  2> %output
|  3>     printlevel normal
|  4> end
|  5> * xyz 0 1
|  6> C -2.1435171527 -0.5013723194 0.9408007434
|  7> C -2.0888429078 0.5795481401 -0.1324815742
|  8> C -0.8429668415 0.4606954847 -1.0058790035
|  9> O 0.3340793939 0.7576597883 -0.2405580007
| 10> C 1.2197900415 -0.2017207926 -0.004426698
| 11> O 1.1170104355 -1.3370191766 -0.4233640973
| 12> C 2.3598460736 0.2995340296 0.8316555106
| 13> H -1.2920547482 -0.4170396023 1.6132480162
| 14> H -3.0533934836 -0.4067268755 1.52658678
| 15> H -2.1208755563 -1.4904783701 0.4880669214
| 16> H -2.0939577333 1.5649812973 0.3351012105
| 17> H -2.9593072099 0.4997173846 -0.7835062632
| 18> H -0.7459812905 -0.5487231029 -1.4176280131
| 19> H -0.8665726765 1.1929624499 -1.8159600722
| 20> H 2.1989616029 1.3396673414 1.0926944203
| 21> H 3.2839091818 0.1874609592 0.2702909299
| 22> H 2.4386115563 -0.3123517333 1.7265273604
| 23> *
| 24>
| 25>                          ****END OF INPUT****

CARTESIAN COORDINATES (ANGSTROEM)
---------------------------------
  C     -2.143517   -0.501372    0.940801
  C     -2.088843    0.579548   -0.132482
  C     -0.842967    0.460695   -1.005879
  O      0.334079    0.757660   -0.240558
  C      1.219790   -0.201721   -0.004427
  O      1.117010   -1.337019   -0.423364
  C      2.359846    0.299534    0.831656
  H     -1.292055   -0.417040    1.613248
  H     -3.053393   -0.406727    1.526587
  H     -2.120876   -1.490478    0.488067
  H     -2.093958    1.564981    0.335101
  H     -2.959307    0.499717   -0.783506
  H     -0.745981   -0.548723   -1.417628
  H     -0.866573    1.192962   -1.815960
  H      2.198962    1.339667    1.092694
  H      3.283909    0.187461    0.270291
  H      2.438612   -0.312352    1.726527

 Total Charge           Charge          ....    0
 Multiplicity           Mult            ....    1
 Number of Electrons    NEL             ....   56
 Basis Dimension        Dim             ....  193

ORBITAL ENERGIES
----------------

  NO   OCC          E(Eh)            E(eV)
   0   2.0000     -18.997696      -516.9536
   1   2.0000     -18.926707      -515.0219
   2   2.0000     -10.155997      -276.3587
   3   2.0000     -10.086715      -274.4735
   4   2.0000     -10.038694      -273.1668
   5   2.0000     -10.037685      -273.1393
   6   2.0000     -10.020850      -272.6812
   7   2.0000      -1.071863       -29.1669
   8   2.0000      -0.975304       -26.5394
   9   2.0000      -0.767661       -20.8891
  10   2.0000      -0.721032       -19.6203
  11   2.0000      -0.662236       -18.0204
  12   2.0000      -0.581169       -15.8144
  13   2.0000      -0.527042       -14.3416
  14   2.0000      -0.465862       -12.6767
  15   2.0000      -0.457352       -12.4452
  16   2.0000      -0.438879       -11.9425
  17   2.0000      -0.413795       -11.2599
  18   2.0000      -0.412781       -11.2323
  19   2.0000      -0.380009       -10.3406
  20   2.0000      -0.375117       -10.2075
  21   2.0000      -0.358697        -9.7607
  22   2.0000      -0.330809        -9.0018
  23   2.0000      -0.325404        -8.8547
  24   2.0000      -0.322381        -8.7724
  25   2.0000      -0.302639        -8.2352
  26   2.0000      -0.267398        -7.2763
  27   2.0000      -0.237070        -6.4510
  28   0.0000      -0.013912        -0.3786
  29   0.0000       0.073705         2.0056
  30   0.0000       0.099047         2.6952
  31   0.0000       0.115505         3.1431
  32   0.0000       0.119467         3.2509

MULLIKEN ATOMIC CHARGES
-----------------------
   0 C :   -0.461789
   1 C :   -0.241909
   2 C :   -0.198607
   3 O :   -0.175738
   4 C :    0.437871
   5 O :   -0.433391
   6 C :   -0.517182
   7 H :    0.147375
   8 H :    0.148403
   9 H :    0.154696
  10 H :    0.147470
  11 H :    0.140877
  12 H :    0.186969
  13 H :    0.146482
  14 H :    0.171946
  15 H :    0.173847
  16 H :    0.172681
Sum of atomic charges:    0.0000000

LOEWDIN ATOMIC CHARGES
----------------------
   0 C :   -0.416205
   1 C :   -0.285923
   2 C :    0.033888
   3 O :   -0.602065
   4 C :    0.353524
   5 O :   -0.442585
   6 C :   -0.335729
   7 H :    0.155893
   8 H :    0.151341
   9 H :    0.156931
  10 H :    0.159947
  11 H :    0.159881
  12 H :    0.198284
  13 H :    0.179097
  14 H :    0.173845
  15 H :    0.180388
  16 H :    0.179487

  Mayer bond orders larger than 0.100000
B(  0-C ,  1-C ) :   0.8923 B(  0-C ,  7-H ) :   0.9767 B(  0-C ,  8-H ) :   0.9721
B(  0-C ,  9-H ) :   0.9738 B(  1-C ,  2-C ) :   0.9537 B(  1-C , 10-H ) :   0.9796
B(  1-C , 11-H ) :   0.9661 B(  2-C ,  3-O ) :   0.7898 B(  2-C , 12-H ) :   0.9686
B(  2-C , 13-H ) :   0.9576 B(  3-O ,  4-C ) :   1.0546 B(  4-C ,  5-O ) :   1.8322
B(  4-C ,  6-C ) :   0.9481 B(  6-C , 14-H ) :   0.9862 B(  6-C , 15-H ) :   0.9519
B(  6-C , 16-H ) :   0.9512

Dispersion correction           -0.004106891
FINAL SINGLE POINT ENERGY      -346.936210838456

DIPOLE MOMENT
-------------

Method             : SCF
Type of density    : Electron Density
Multiplicity       :   1
Irrep              :   0
Energy             :  -346.9426524025049616 Eh
Relativity type    :
Basis              : AO
                                X                 Y                 Z
Electronic contribution:      4.581530620      -0.744022296      -2.648910682
Nuclear contribution   :     -4.866956560       1.501362056       2.837889284
                        -----------------------------------------
Total Dipole Moment    :     -0.285425940       0.757339760       0.188978602
                        -----------------------------------------
Magnitude (a.u.)       :      0.831110337
Magnitude (Debye)      :      2.112514592

Rotational constants in cm-1:             0.157879             0.051993             0.050273
Rotational constants in MHz :          4733.101073          1558.713596          1507.157165

                             ****ORCA TERMINATED NORMALLY****
TOTAL RUN TIME: 0 days 0 hours 0 minutes 20 seconds 122 msec
