                         Program Version 6.0.0  -   RELEASE  -
|  1> ! r2scan-3c def2/J RI DEFGRID2 scfconv6 printgap
|  2> %output
|  3>     printlevel normal
|  4> end
|  5> %cpcm
|  6>     smd true
|  7>     smdsolvent "water"
|  8> end
|  9> * xyz 0 1
| 10> C -2.1435171527 -0.5013723194 0.9408007434
| 11> C -2.0888429078 0.5795481401 -0.1324815742
| 12> C -0.8429668415 0.4606954847 -1.0058790035
| 13> O 0.3340793939 0.7576597883 -0.2405580007
| 14> C 1.2197900415 -0.2017207926 -0.004426698
| 15> O 1.1170104355 -1.3370191766 -0.4233640973
| 16> C 2.3598460736 0.2995340296 0.8316555106
| 17> H -1.2920547482 -0.4170396023 1.6132480162
| 18> H -3.0533934836 -0.4067268755 1.52658678
| 19> H -2.1208755563 -1.4904783701 0.4880669214
| 20> H -2.0939577333 1.5649812973 0.3351012105
| 21> H -2.9593072099 0.4997173846 -0.7835062632
| 22> H -0.7459812905 -0.5487231029 -1.4176280131
| 23> H -0.8665726765 1.1929624499 -1.8159600722
| 24> H 2.1989616029 1.3396673414 1.0926944203
| 25> H 3.2839091818 0.1874609592 0.2702909299
| 26> H 2.4386115563 -0.3123517333 1.7265273604
| 27> *
| 28>
| 29>                          ****END OF INPUT****

CARTESIAN COORDINATES (ANGSTROEM)
---------------------------------
  C     -2.143517   -0.501372    0.940801
  C     -2.088843    0.579548   -0.132482
  C     -0.842967    0.460695   -1.005879
  O      0.334079    0.757660   -0.240558
  C      1.219790   -0.201721   -0.004427
  O      1.117010   -1.337019   -0.423364
  C      2.359846    0.299534    0.831656
  H     -1.292055   -0.417040    1.613248
  H     -3.053393   -0.406727    1.526587
  H     -2.120876   -1.490478    0.488067
  H     -2.093958    1.564981    0.335101
  H     -2.959307    0.499717   -0.783506
  H     -0.745981   -0.548723   -1.417628
  H     -0.866573    1.192962   -1.815960
  H      2.198962    1.339667    1.092694
  H      3.283909    0.187461    0.270291
  H      2.438612   -0.312352    1.726527

 Total Charge           Charge          ....    0
 Multiplicity           Mult            ....    1
 Number of Electrons    NEL             ....   56
 Basis Dimension        Dim             ....  193

ORBITAL ENERGIES
----------------

  NO   OCC          E(Eh)            E(eV)
   0   2.0000     -19.003116      -517.1011
   1   2.0000     -18.942006      -515.4382
   2   2.0000     -10.165869      -276.6274
   3   2.0000     -10.079298      -274.2716
   4   2.0000     -10.029966      -272.9293
   5   2.0000     -10.026355      -272.8310
   6   2.0000     -10.011759      -272.4338
   7   2.0000      -1.078694       -29.3528
   8   2.0000      -0.988800       -26.9066
   9   2.0000      -0.760988       -20.7075
  10   2.0000      -0.714937       -19.4544
  11   2.0000      -0.655604       -17.8399
  12   2.0000      -0.574302       -15.6275
  13   2.0000      -0.524316       -14.2674
  14   2.0000      -0.466033       -12.6814
  15   2.0000      -0.461452       -12.5568
  16   2.0000      -0.445406       -12.1201
  17   2.0000      -0.407764       -11.0958
  18   2.0000      -0.404241       -10.9999
  19   2.0000      -0.380475       -10.3532
  20   2.0000      -0.366870        -9.9830
  21   2.0000      -0.353202        -9.6111
  22   2.0000      -0.328872        -8.9491
  23   2.0000      -0.324646        -8.8341
  24   2.0000      -0.312689        -8.5087
  25   2.0000      -0.298327        -8.1179
  26   2.0000      -0.272248        -7.4082
  27   2.0000      -0.253402        -6.8954
  28   0.0000      -0.020855        -0.5675
  29   0.0000       0.078015         2.1229
  30   0.0000       0.108896         2.9632
  31   0.0000       0.124032         3.3751
  32   0.0000       0.128676         3.5015

MULLIKEN ATOMIC CHARGES
-----------------------
   0 C :   -0.515841
   1 C :   -0.243543
   2 C :   -0.196758
   3 O :   -0.195135
   4 C :    0.484196
   5 O :   -0.522490
   6 C :   -0.555103
   7 H :    0.159719
   8 H :    0.163236
   9 H :    0.161786
  10 H :    0.160124
  11 H :    0.161907
  12 H :    0.182334
  13 H :    0.172107
  14 H :    0.187795
  15 H :    0.198651
  16 H :    0.197014
Sum of atomic charges:    0.0000000

LOEWDIN ATOMIC CHARGES
----------------------
   0 C :   -0.425963
   1 C :   -0.283710
   2 C :    0.038824
   3 O :   -0.603610
   4 C :    0.364746
   5 O :   -0.505680
   6 C :   -0.333933
   7 H :    0.157369
   8 H :    0.156053
   9 H :    0.156425
  10 H :    0.163838
  11 H :    0.168013
  12 H :    0.197134
  13 H :    0.189935
  14 H :    0.181705
  15 H :    0.189843
  16 H :    0.189011

  Mayer bond orders larger than 0.100000
B(  0-C ,  1-C ) :   0.8681 B(  0-C ,  7-H ) :   0.9744 B(  0-C ,  8-H ) :   0.9680
B(  0-C ,  9-H ) :   0.9753 B(  1-C ,  2-C ) :   0.9499 B(  1-C , 10-H ) :   0.9806
B(  1-C , 11-H ) :   0.9633 B(  2-C ,  3-O ) :   0.7773 B(  2-C , 12-H ) :   0.9646
B(  2-C , 13-H ) :   0.9492 B(  3-O ,  4-C ) :   1.0827 B(  4-C ,  5-O ) :   1.7584
B(  4-C ,  6-C ) :   0.9486 B(  6-C , 14-H ) :   0.9761 B(  6-C , 15-H ) :   0.9408
B(  6-C , 16-H ) :   0.9412

Dispersion correction           -0.004106891
FINAL SINGLE POINT ENERGY      -346.941742057643

DIPOLE MOMENT
-------------

Method             : SCF
Type of density    : Electron Density
Multiplicity       :   1
Irrep              :   0
Energy             :  -346.9481836216920669 Eh
Relativity type    :
Basis              : AO
                                X                 Y                 Z
Electronic contribution:      4.498465314      -0.403205595      -2.592844908
Nuclear contribution   :     -4.866956560       1.501362056       2.837889284
                        -----------------------------------------
Total Dipole Moment    :     -0.368491246       1.098156461       0.245044376
                        -----------------------------------------
Magnitude (a.u.)       :      1.183967972
Magnitude (Debye)      :      3.009407422

Rotational constants in cm-1:             0.157879             0.051993             0.050273
Rotational constants in MHz :          4733.101073          1558.713596          1507.157165

                             ****ORCA TERMINATED NORMALLY****
TOTAL RUN TIME: 0 days 0 hours 0 minutes 25 seconds 789 msec
