                         Program Version 6.0.0  -   RELEASE  -
|  1> ! pbe def2-sv(p) def2/J RI DEFGRID1 loosescf d4 GCP(DFT/SV(P)) printgap
|  2> %output
|  3>     printlevel normal
|  4> end
|  5> * xyz 0 1
|  6> C 1.8229002707 1.3257986564 0.0041614085
|  7> C 0.9925421918 0.3320895137 0.8100685243
|  8> C -6.55882e-05 -0.5225042377 1.47575e-05
|  9> C 0.7574306576 -1.4240179468 -0.9822618464
| 10> C -0.7586089176 -1.4230572938 0.9823557421
| 11> C -0.9916513634 0.3330987697 -0.8102091256
| 12> C -1.8225038029 1.3262573653 -0.0041444916
| 13> H 2.5004778938 1.8571419922 0.6692643192
| 14> H 1.191516113 2.0598409022 -0.488953328
| 15> H 2.4201570851 0.8194244372 -0.7490891564
| 16> H 1.6729451667 -0.3482653129 1.3287733869
| 17> H 0.4403417746 0.8777631166 1.5777031309
| 18> H 1.2444187938 -0.8383820966 -1.7574719684
| 19> H 0.0692324358 -2.1142371555 -1.4653942321
| 20> H 1.5146771808 -2.0054068856 -0.4610160504
| 21> H -1.2445104786 -0.8368367473 1.7577854131
| 22> H -1.5168527985 -2.0033121157 0.4613001387
| 23> H -0.0712822585 -2.1143028123 1.4652278887
| 24> H -0.4385299048 0.8793059688 -1.5767920034
| 25> H -1.6717882979 -0.3465365052 -1.3302023675
| 26> H -2.4981130935 1.8597096068 -0.6695471275
| 27> H -2.421904441 0.8191727162 0.7468789765
| 28> H -1.1913029338 2.0585916563 0.4917121032
| 29> *
| 30>
| 31>                          ****END OF INPUT****

CARTESIAN COORDINATES (ANGSTROEM)
---------------------------------
  C      1.822900    1.325799    0.004161
  C      0.992542    0.332090    0.810069
  C     -0.000066   -0.522504    0.000015
  C      0.757431   -1.424018   -0.982262
  C     -0.758609   -1.423057    0.982356
  C     -0.991651    0.333099   -0.810209
  C     -1.822504    1.326257   -0.004144
  H      2.500478    1.857142    0.669264
  H      1.191516    2.059841   -0.488953
  H      2.420157    0.819424   -0.749089
  H      1.672945   -0.348265    1.328773
  H      0.440342    0.877763    1.577703
  H      1.244419   -0.838382   -1.757472
  H      0.069232   -2.114237   -1.465394
  H      1.514677   -2.005407   -0.461016
  H     -1.244510   -0.836837    1.757785
  H     -1.516853   -2.003312    0.461300
  H     -0.071282   -2.114303    1.465228
  H     -0.438530    0.879306   -1.576792
  H     -1.671788   -0.346537   -1.330202
  H     -2.498113    1.859710   -0.669547
  H     -2.421904    0.819173    0.746879
  H     -1.191303    2.058592    0.491712

 Total Charge           Charge          ....    0
 Multiplicity           Mult            ....    1
 Number of Electrons    NEL             ....   58
 Basis Dimension        Dim             ....  130

ORBITAL ENERGIES
----------------

  NO   OCC          E(Eh)            E(eV)
   0   2.0000      -9.899091      -269.3679
   1   2.0000      -9.877661      -268.7848
   2   2.0000      -9.877622      -268.7838
   3   2.0000      -9.869525      -268.5634
   4   2.0000      -9.869513      -268.5631
   5   2.0000      -9.866779      -268.4887
   6   2.0000      -9.866762      -268.4882
   7   2.0000      -0.746485       -20.3129
   8   2.0000      -0.667198       -18.1554
   9   2.0000      -0.651313       -17.7231
  10   2.0000      -0.608434       -16.5563
  11   2.0000      -0.555371       -15.1124
  12   2.0000      -0.548097       -14.9145
  13   2.0000      -0.458909       -12.4875
  14   2.0000      -0.416575       -11.3356
  15   2.0000      -0.416135       -11.3236
  16   2.0000      -0.388089       -10.5604
  17   2.0000      -0.379338       -10.3223
  18   2.0000      -0.357516        -9.7285
  19   2.0000      -0.350865        -9.5475
  20   2.0000      -0.336324        -9.1518
  21   2.0000      -0.331492        -9.0204
  22   2.0000      -0.315311        -8.5801
  23   2.0000      -0.313540        -8.5319
  24   2.0000      -0.299188        -8.1413
  25   2.0000      -0.293157        -7.9772
  26   2.0000      -0.267680        -7.2840
  27   2.0000      -0.266319        -7.2469
  28   2.0000      -0.261359        -7.1119
  29   0.0000       0.029469         0.8019
  30   0.0000       0.061492         1.6733
  31   0.0000       0.065761         1.7894
  32   0.0000       0.073159         1.9908
  33   0.0000       0.089116         2.4250

MULLIKEN ATOMIC CHARGES
-----------------------
   0 C :   -0.271845
   1 C :   -0.143141
   2 C :   -0.237669
   3 C :   -0.210984
   4 C :   -0.211008
   5 C :   -0.143149
   6 C :   -0.271812
   7 H :    0.099930
   8 H :    0.105293
   9 H :    0.101403
  10 H :    0.074691
  11 H :    0.083097
  12 H :    0.098893
  13 H :    0.090465
  14 H :    0.091052
  15 H :    0.098910
  16 H :    0.091059
  17 H :    0.090458
  18 H :    0.083092
  19 H :    0.074686
  20 H :    0.099922
  21 H :    0.101414
  22 H :    0.105242
Sum of atomic charges:   -0.0000000

LOEWDIN ATOMIC CHARGES
----------------------
   0 C :   -0.342550
   1 C :   -0.216826
   2 C :   -0.102291
   3 C :   -0.316712
   4 C :   -0.316722
   5 C :   -0.216827
   6 C :   -0.342553
   7 H :    0.120729
   8 H :    0.116855
   9 H :    0.117475
  10 H :    0.113820
  11 H :    0.112551
  12 H :    0.114585
  13 H :    0.116225
  14 H :    0.114993
  15 H :    0.114592
  16 H :    0.115003
  17 H :    0.116227
  18 H :    0.112556
  19 H :    0.113814
  20 H :    0.120724
  21 H :    0.117485
  22 H :    0.116847

  Mayer bond orders larger than 0.100000
B(  0-C ,  1-C ) :   1.1628 B(  0-C ,  7-H ) :   0.9489 B(  0-C ,  8-H ) :   0.9431
B(  0-C ,  9-H ) :   0.9472 B(  1-C ,  2-C ) :   1.0465 B(  1-C , 10-H ) :   0.9186
B(  1-C , 11-H ) :   0.9162 B(  2-C ,  3-C ) :   1.0754 B(  2-C ,  4-C ) :   1.0754
B(  2-C ,  5-C ) :   1.0466 B(  3-C , 12-H ) :   0.9406 B(  3-C , 13-H ) :   0.9456
B(  3-C , 14-H ) :   0.9471 B(  4-C , 15-H ) :   0.9406 B(  4-C , 16-H ) :   0.9471
B(  4-C , 17-H ) :   0.9457 B(  5-C ,  6-C ) :   1.1628 B(  5-C , 18-H ) :   0.9162
B(  5-C , 19-H ) :   0.9186 B(  6-C , 20-H ) :   0.9489 B(  6-C , 21-H ) :   0.9472
B(  6-C , 22-H ) :   0.9431

Dispersion correction           -0.020056754
FINAL SINGLE POINT ENERGY      -275.661357736891

DIPOLE MOMENT
-------------

Method             : SCF
Type of density    : Electron Density
Multiplicity       :   1
Irrep              :   0
Energy             :  -275.7381817453256758 Eh
Relativity type    :
Basis              : AO
                                X                 Y                 Z
Electronic contribution:      0.000511877      -0.556558390      -0.000121428
Nuclear contribution   :     -0.000485745       0.585103861       0.000168047
                        -----------------------------------------
Total Dipole Moment    :      0.000026132       0.028545471       0.000046619
                        -----------------------------------------
Magnitude (a.u.)       :      0.028545521
Magnitude (Debye)      :      0.072556949

Rotational constants in cm-1:             0.086418             0.076855             0.057660
Rotational constants in MHz :          2590.752776          2304.065992          1728.615929

                             ****ORCA TERMINATED NORMALLY****
TOTAL RUN TIME: 0 days 0 hours 0 minutes 10 seconds 216 msec
