                         Program Version 6.0.0  -   RELEASE  -
|  1> ! pbe def2-sv(p) def2/J RI DEFGRID1 loosescf d4 GCP(DFT/SV(P)) printgap
|  2> %output
|  3>     printlevel normal
|  4> end
|  5> * xyz 0 1
|  6> C -1.74484813 1.4697467143 0.3083836617
|  7> C -1.2082994058 0.2690657285 -0.4643900103
|  8> C -0.2447018595 -0.607115998 0.346676738
|  9> H -0.7317170564 -0.8709798544 1.2916630968
| 10> C 0.0812603284 -1.8889163609 -0.4189284347
| 11> C 1.0596094249 0.120939912 0.713193835
| 12> O 1.844542835 0.4984938798 -0.3976086993
| 13> H -2.4752994641 2.0043946807 -0.2939853059
| 14> H -2.2303502199 1.1425910688 1.2251212027
| 15> H -0.9519434295 2.1645990947 0.5723966631
| 16> H -0.7161837967 0.6052969168 -1.3797402352
| 17> H -2.0527768326 -0.3538737074 -0.7672142006
| 18> H 0.6437637934 -1.651940231 -1.3192051838
| 19> H -0.8293484234 -2.4105250857 -0.702024286
| 20> H 0.6858744016 -2.5530762779 0.1937969111
| 21> H 1.695030687 -0.5541429491 1.2923291848
| 22> H 0.8410031785 0.9972326348 1.3367686218
| 23> H 1.3544145162 1.14979185 -0.91717817
| 24> *
| 25>
| 26>                          ****END OF INPUT****

CARTESIAN COORDINATES (ANGSTROEM)
---------------------------------
  C     -1.744848    1.469747    0.308384
  C     -1.208299    0.269066   -0.464390
  C     -0.244702   -0.607116    0.346677
  H     -0.731717   -0.870980    1.291663
  C      0.081260   -1.888916   -0.418928
  C      1.059609    0.120940    0.713194
  O      1.844543    0.498494   -0.397609
  H     -2.475299    2.004395   -0.293985
  H     -2.230350    1.142591    1.225121
  H     -0.951943    2.164599    0.572397
  H     -0.716184    0.605297   -1.379740
  H     -2.052777   -0.353874   -0.767214
  H      0.643764   -1.651940   -1.319205
  H     -0.829348   -2.410525   -0.702024
  H      0.685874   -2.553076    0.193797
  H      1.695031   -0.554143    1.292329
  H      0.841003    0.997233    1.336769
  H      1.354415    1.149792   -0.917178

 Total Charge           Charge          ....    0
 Multiplicity           Mult            ....    1
 Number of Electrons    NEL             ....   50
 Basis Dimension        Dim             ....  108

ORBITAL ENERGIES
----------------

  NO   OCC          E(Eh)            E(eV)
   0   2.0000     -18.741545      -509.9834
   1   2.0000      -9.924459      -270.0583
   2   2.0000      -9.892441      -269.1870
   3   2.0000      -9.889119      -269.0966
   4   2.0000      -9.879238      -268.8277
   5   2.0000      -9.867719      -268.5143
   6   2.0000      -0.917681       -24.9714
   7   2.0000      -0.728141       -19.8137
   8   2.0000      -0.659834       -17.9550
   9   2.0000      -0.602488       -16.3945
  10   2.0000      -0.561346       -15.2750
  11   2.0000      -0.504708       -13.7338
  12   2.0000      -0.444015       -12.0822
  13   2.0000      -0.426457       -11.6045
  14   2.0000      -0.406724       -11.0675
  15   2.0000      -0.373875       -10.1736
  16   2.0000      -0.370768       -10.0891
  17   2.0000      -0.356554        -9.7023
  18   2.0000      -0.327661        -8.9161
  19   2.0000      -0.316598        -8.6151
  20   2.0000      -0.301277        -8.1982
  21   2.0000      -0.293790        -7.9944
  22   2.0000      -0.281945        -7.6721
  23   2.0000      -0.265274        -7.2185
  24   2.0000      -0.212261        -5.7759
  25   0.0000       0.014723         0.4006
  26   0.0000       0.047891         1.3032
  27   0.0000       0.064086         1.7439
  28   0.0000       0.074678         2.0321
  29   0.0000       0.094181         2.5628

MULLIKEN ATOMIC CHARGES
-----------------------
   0 C :   -0.266272
   1 C :   -0.192945
   2 C :   -0.189121
   3 H :    0.066000
   4 C :   -0.223914
   5 C :    0.031287
   6 O :   -0.435996
   7 H :    0.104939
   8 H :    0.101035
   9 H :    0.100849
  10 H :    0.070045
  11 H :    0.089092
  12 H :    0.098510
  13 H :    0.094874
  14 H :    0.094436
  15 H :    0.082388
  16 H :    0.077666
  17 H :    0.297129
Sum of atomic charges:   -0.0000000

LOEWDIN ATOMIC CHARGES
----------------------
   0 C :   -0.343166
   1 C :   -0.232229
   2 C :   -0.176386
   3 H :    0.116442
   4 C :   -0.330830
   5 C :   -0.114708
   6 O :   -0.335758
   7 H :    0.121358
   8 H :    0.119727
   9 H :    0.113935
  10 H :    0.105525
  11 H :    0.119174
  12 H :    0.118975
  13 H :    0.114871
  14 H :    0.117636
  15 H :    0.112188
  16 H :    0.093095
  17 H :    0.280150

  Mayer bond orders larger than 0.100000
B(  0-C ,  1-C ) :   1.1533 B(  0-C ,  7-H ) :   0.9505 B(  0-C ,  8-H ) :   0.9525
B(  0-C ,  9-H ) :   0.9485 B(  1-C ,  2-C ) :   1.0791 B(  1-C , 10-H ) :   0.9150
B(  1-C , 11-H ) :   0.9254 B(  2-C ,  3-H ) :   0.8886 B(  2-C ,  4-C ) :   1.1046
B(  2-C ,  5-C ) :   1.0378 B(  4-C , 12-H ) :   0.9428 B(  4-C , 13-H ) :   0.9503
B(  4-C , 14-H ) :   0.9515 B(  5-C ,  6-O ) :   1.0706 B(  5-C , 15-H ) :   0.9280
B(  5-C , 16-H ) :   0.9232 B(  6-O , 17-H ) :   0.8481

Dispersion correction           -0.013194797
FINAL SINGLE POINT ENERGY      -272.301304660338

DIPOLE MOMENT
-------------

Method             : SCF
Type of density    : Electron Density
Multiplicity       :   1
Irrep              :   0
Energy             :  -272.3712771024236190 Eh
Relativity type    :
Basis              : AO
                                X                 Y                 Z
Electronic contribution:      3.859031178       0.545989603      -0.432905650
Nuclear contribution   :     -4.445351876      -0.302788911       0.493885621
                        -----------------------------------------
Total Dipole Moment    :     -0.586320698       0.243200692       0.060979971
                        -----------------------------------------
Magnitude (a.u.)       :      0.637681028
Magnitude (Debye)      :      1.620856362

Rotational constants in cm-1:             0.137818             0.089726             0.065715
Rotational constants in MHz :          4131.678206          2689.914312          1970.084923

                             ****ORCA TERMINATED NORMALLY****
TOTAL RUN TIME: 0 days 0 hours 0 minutes 7 seconds 998 msec
