                         Program Version 6.0.0  -   RELEASE  -
|  1> ! pbe def2-sv(p) def2/J RI DEFGRID1 loosescf d4 GCP(DFT/SV(P)) printgap
|  2> %output
|  3>     printlevel normal
|  4> end
|  5> * xyz 0 1
|  6> C 2.1198455501 -0.3159027497 -0.5799035823
|  7> C 1.3641728858 0.4930455366 0.4686796646
|  8> C -0.0504066988 -0.0270560342 0.7281925947
|  9> C -0.9960570725 0.1635390544 -0.4562563205
| 10> C -2.4165613089 -0.2725301938 -0.1159683016
| 11> H 3.1418991546 0.0447560663 -0.6689049893
| 12> H 1.6454800313 -0.2320883016 -1.5539853521
| 13> H 2.149680559 -1.3664675982 -0.2993878123
| 14> H 1.9231849857 0.4612137141 1.4069125306
| 15> H 1.3105978551 1.537193062 0.1519111916
| 16> H -0.4634332177 0.5008730655 1.5915806453
| 17> H -0.0021941724 -1.0883711706 0.983487952
| 18> H -0.999710872 1.2168252475 -0.7466460027
| 19> H -0.6406993401 -0.4166537588 -1.3091500012
| 20> H -2.8060098599 0.3105549686 0.7158145774
| 21> H -2.434366698 -1.3231154363 0.1656355968
| 22> H -3.07460324 -0.1344503975 -0.9704768314
| 23> *
| 24>
| 25>                          ****END OF INPUT****

CARTESIAN COORDINATES (ANGSTROEM)
---------------------------------
  C      2.119846   -0.315903   -0.579904
  C      1.364173    0.493046    0.468680
  C     -0.050407   -0.027056    0.728193
  C     -0.996057    0.163539   -0.456256
  C     -2.416561   -0.272530   -0.115968
  H      3.141899    0.044756   -0.668905
  H      1.645480   -0.232088   -1.553985
  H      2.149681   -1.366468   -0.299388
  H      1.923185    0.461214    1.406913
  H      1.310598    1.537193    0.151911
  H     -0.463433    0.500873    1.591581
  H     -0.002194   -1.088371    0.983488
  H     -0.999711    1.216825   -0.746646
  H     -0.640699   -0.416654   -1.309150
  H     -2.806010    0.310555    0.715815
  H     -2.434367   -1.323115    0.165636
  H     -3.074603   -0.134450   -0.970477

 Total Charge           Charge          ....    0
 Multiplicity           Mult            ....    1
 Number of Electrons    NEL             ....   42
 Basis Dimension        Dim             ....   94

ORBITAL ENERGIES
----------------

  NO   OCC          E(Eh)            E(eV)
   0   2.0000      -9.878603      -268.8104
   1   2.0000      -9.878570      -268.8095
   2   2.0000      -9.876796      -268.7613
   3   2.0000      -9.869316      -268.5577
   4   2.0000      -9.869066      -268.5509
   5   2.0000      -0.721007       -19.6196
   6   2.0000      -0.669997       -18.2315
   7   2.0000      -0.600435       -16.3387
   8   2.0000      -0.538108       -14.6427
   9   2.0000      -0.499282       -13.5861
  10   2.0000      -0.418354       -11.3840
  11   2.0000      -0.397805       -10.8248
  12   2.0000      -0.385630       -10.4935
  13   2.0000      -0.362975        -9.8770
  14   2.0000      -0.340232        -9.2582
  15   2.0000      -0.325946        -8.8694
  16   2.0000      -0.311627        -8.4798
  17   2.0000      -0.297449        -8.0940
  18   2.0000      -0.280083        -7.6215
  19   2.0000      -0.276691        -7.5291
  20   2.0000      -0.268344        -7.3020
  21   0.0000       0.039038         1.0623
  22   0.0000       0.060447         1.6448
  23   0.0000       0.068723         1.8700
  24   0.0000       0.071429         1.9437
  25   0.0000       0.106092         2.8869

MULLIKEN ATOMIC CHARGES
-----------------------
   0 C :   -0.292831
   1 C :   -0.155947
   2 C :   -0.175638
   3 C :   -0.208479
   4 C :   -0.258210
   5 H :    0.101692
   6 H :    0.107755
   7 H :    0.096349
   8 H :    0.082522
   9 H :    0.080446
  10 H :    0.078936
  11 H :    0.077513
  12 H :    0.081924
  13 H :    0.091794
  14 H :    0.095962
  15 H :    0.095941
  16 H :    0.100270
Sum of atomic charges:    0.0000000

LOEWDIN ATOMIC CHARGES
----------------------
   0 C :   -0.343222
   1 C :   -0.233751
   2 C :   -0.228181
   3 C :   -0.236537
   4 C :   -0.339176
   5 H :    0.118805
   6 H :    0.116365
   7 H :    0.116263
   8 H :    0.114340
   9 H :    0.113119
  10 H :    0.113005
  11 H :    0.111902
  12 H :    0.113323
  13 H :    0.114104
  14 H :    0.115673
  15 H :    0.116428
  16 H :    0.117541

  Mayer bond orders larger than 0.100000
B(  0-C ,  1-C ) :   1.1513 B(  0-C ,  5-H ) :   0.9522 B(  0-C ,  6-H ) :   0.9521
B(  0-C ,  7-H ) :   0.9553 B(  1-C ,  2-C ) :   1.1242 B(  1-C ,  8-H ) :   0.9278
B(  1-C ,  9-H ) :   0.9254 B(  2-C ,  3-C ) :   1.1310 B(  2-C , 10-H ) :   0.9239
B(  2-C , 11-H ) :   0.9235 B(  3-C ,  4-C ) :   1.1552 B(  3-C , 12-H ) :   0.9274
B(  3-C , 13-H ) :   0.9231 B(  4-C , 14-H ) :   0.9548 B(  4-C , 15-H ) :   0.9548
B(  4-C , 16-H ) :   0.9535

Dispersion correction           -0.010930749
FINAL SINGLE POINT ENERGY      -197.236502397198

DIPOLE MOMENT
-------------

Method             : SCF
Type of density    : Electron Density
Multiplicity       :   1
Irrep              :   0
Energy             :  -197.2947366032280456 Eh
Relativity type    :
Basis              : AO
                                X                 Y                 Z
Electronic contribution:      0.246446230       0.473017487       0.497725835
Nuclear contribution   :     -0.234704207      -0.459446001      -0.500235315
                        -----------------------------------------
Total Dipole Moment    :      0.011742023       0.013571486      -0.002509481
                        -----------------------------------------
Magnitude (a.u.)       :      0.018120646
Magnitude (Debye)      :      0.046059022

Rotational constants in cm-1:             0.395697             0.076871             0.071296
Rotational constants in MHz :         11862.683178          2304.532741          2137.407659

                             ****ORCA TERMINATED NORMALLY****
TOTAL RUN TIME: 0 days 0 hours 0 minutes 6 seconds 407 msec
