                         Program Version 6.0.0  -   RELEASE  -
|  1> ! pbe def2-sv(p) def2/J RI DEFGRID1 loosescf d4 GCP(DFT/SV(P)) printgap
|  2> %output
|  3>     printlevel normal
|  4> end
|  5> * xyz 0 1
|  6> C -4.2776652522 -1.9569408422 -1.3456861451
|  7> C -3.2971748811 -0.8026383989 -1.1792301796
|  8> C -2.4873357041 -0.9194380105 0.1159441473
|  9> H -2.06163651 -1.9270568154 0.1755653059
| 10> C -3.3088476484 -0.6483244694 1.3710037037
| 11> N -1.3121278523 -0.0275405883 0.0696954069
| 12> C -0.0544632264 -0.6306333013 0.120650025
| 13> O 0.0678187883 -1.8415832203 0.2006146793
| 14> C 1.0594472837 0.2872398703 0.0706532591
| 15> C 0.9020315002 1.6327313208 -0.0225392237
| 16> N -0.3739138156 2.1026874906 -0.0633129495
| 17> C -1.5097989755 1.3283638451 -0.0238210263
| 18> O -2.6042895424 1.8576439574 -0.0722459719
| 19> C 2.0110620118 2.6169429705 -0.0684093071
| 20> Br 2.7820725792 -0.5109235541 0.1493579797
| 21> H -5.0368097283 -1.9378744286 -0.5696853429
| 22> H -4.7736750768 -1.8810171988 -2.3092895773
| 23> H -3.7552370952 -2.9097435061 -1.2999980563
| 24> H -2.5985698394 -0.8045672367 -2.0203339297
| 25> H -3.8335059938 0.1466429561 -1.1865715257
| 26> H -3.7699624615 0.334091697 1.3197011848
| 27> H -4.0843391244 -1.401091497 1.4628264797
| 28> H -2.6734548988 -0.6993696352 2.2524978982
| 29> H -0.5370896635 3.1030879502 -0.1272557619
| 30> H 2.426558201 2.74784435 0.9302710849
| 31> H 1.6634019158 3.5775502003 -0.4334069133
| 32> H 2.8141511537 2.2510638826 -0.7042193721
| 33> *
| 34>
| 35>                          ****END OF INPUT****

CARTESIAN COORDINATES (ANGSTROEM)
---------------------------------
  C     -4.277665   -1.956941   -1.345686
  C     -3.297175   -0.802638   -1.179230
  C     -2.487336   -0.919438    0.115944
  H     -2.061637   -1.927057    0.175565
  C     -3.308848   -0.648324    1.371004
  N     -1.312128   -0.027541    0.069695
  C     -0.054463   -0.630633    0.120650
  O      0.067819   -1.841583    0.200615
  C      1.059447    0.287240    0.070653
  C      0.902032    1.632731   -0.022539
  N     -0.373914    2.102687   -0.063313
  C     -1.509799    1.328364   -0.023821
  O     -2.604290    1.857644   -0.072246
  C      2.011062    2.616943   -0.068409
  Br     2.782073   -0.510924    0.149358
  H     -5.036810   -1.937874   -0.569685
  H     -4.773675   -1.881017   -2.309290
  H     -3.755237   -2.909744   -1.299998
  H     -2.598570   -0.804567   -2.020334
  H     -3.833506    0.146643   -1.186572
  H     -3.769962    0.334092    1.319701
  H     -4.084339   -1.401091    1.462826
  H     -2.673455   -0.699370    2.252498
  H     -0.537090    3.103088   -0.127256
  H      2.426558    2.747844    0.930271
  H      1.663402    3.577550   -0.433407
  H      2.814151    2.251064   -0.704219

 Total Charge           Charge          ....    0
 Multiplicity           Mult            ....    1
 Number of Electrons    NEL             ....  132
 Basis Dimension        Dim             ....  240

ORBITAL ENERGIES
----------------

  NO   OCC          E(Eh)            E(eV)
   0   2.0000    -480.942407    -13087.1082
   1   2.0000     -61.784137     -1681.2318
   2   2.0000     -55.714818     -1516.0773
   3   2.0000     -55.711737     -1515.9934
   4   2.0000     -55.711468     -1515.9861
   5   2.0000     -18.732317      -509.7323
   6   2.0000     -18.729167      -509.6465
   7   2.0000     -14.061976      -382.6458
   8   2.0000     -14.056449      -382.4954
   9   2.0000     -10.029876      -272.9268
  10   2.0000     -10.000915      -272.1387
  11   2.0000      -9.979179      -271.5473
  12   2.0000      -9.950360      -270.7631
  13   2.0000      -9.930781      -270.2303
  14   2.0000      -9.919610      -269.9263
  15   2.0000      -9.882213      -268.9087
  16   2.0000      -9.873929      -268.6833
  17   2.0000      -9.873246      -268.6647
  18   2.0000      -8.409495      -228.8340
  19   2.0000      -6.291845      -171.2098
  20   2.0000      -6.277189      -170.8110
  21   2.0000      -6.276412      -170.7899
  22   2.0000      -2.492909       -67.8355
  23   2.0000      -2.489364       -67.7390
  24   2.0000      -2.488822       -67.7243
  25   2.0000      -2.477800       -67.4244
  26   2.0000      -2.477771       -67.4236
  27   2.0000      -0.985912       -26.8280
  28   2.0000      -0.945886       -25.7389
  29   2.0000      -0.895895       -24.3785
  30   2.0000      -0.858776       -23.3685
  31   2.0000      -0.767605       -20.8876
  32   2.0000      -0.728600       -19.8262
  33   2.0000      -0.707493       -19.2519
  34   2.0000      -0.668652       -18.1949
  35   2.0000      -0.648193       -17.6382
  36   2.0000      -0.612481       -16.6664
  37   2.0000      -0.597190       -16.2504
  38   2.0000      -0.568311       -15.4645
  39   2.0000      -0.538318       -14.6484
  40   2.0000      -0.522539       -14.2190
  41   2.0000      -0.491175       -13.3655
  42   2.0000      -0.449780       -12.2391
  43   2.0000      -0.438155       -11.9228
  44   2.0000      -0.414842       -11.2884
  45   2.0000      -0.410397       -11.1675
  46   2.0000      -0.408952       -11.1281
  47   2.0000      -0.390380       -10.6228
  48   2.0000      -0.384153       -10.4533
  49   2.0000      -0.383024       -10.4226
  50   2.0000      -0.373658       -10.1678
  51   2.0000      -0.365768        -9.9530
  52   2.0000      -0.358306        -9.7500
  53   2.0000      -0.351409        -9.5623
  54   2.0000      -0.343419        -9.3449
  55   2.0000      -0.324346        -8.8259
  56   2.0000      -0.320934        -8.7331
  57   2.0000      -0.311437        -8.4746
  58   2.0000      -0.292678        -7.9642
  59   2.0000      -0.288416        -7.8482
  60   2.0000      -0.275071        -7.4851
  61   2.0000      -0.253644        -6.9020
  62   2.0000      -0.237071        -6.4510
  63   2.0000      -0.233533        -6.3547
  64   2.0000      -0.215229        -5.8567
  65   2.0000      -0.204857        -5.5744
  66   0.0000      -0.071563        -1.9473
  67   0.0000      -0.031695        -0.8625
  68   0.0000      -0.023600        -0.6422
  69   0.0000       0.015021         0.4087
  70   0.0000       0.043318         1.1787

MULLIKEN ATOMIC CHARGES
-----------------------
   0 C :   -0.272147
   1 C :   -0.160615
   2 C :   -0.081455
   3 H :    0.109574
   4 C :   -0.249850
   5 N :   -0.238739
   6 C :    0.185792
   7 O :   -0.176376
   8 C :   -0.192993
   9 C :    0.002376
  10 N :   -0.195993
  11 C :    0.168686
  12 O :   -0.201744
  13 C :   -0.207047
  14 Br:    0.008753
  15 H :    0.106356
  16 H :    0.106177
  17 H :    0.102251
  18 H :    0.083973
  19 H :    0.114002
  20 H :    0.128732
  21 H :    0.109345
  22 H :    0.103489
  23 H :    0.248156
  24 H :    0.147350
  25 H :    0.106585
  26 H :    0.145363
Sum of atomic charges:    0.0000000

LOEWDIN ATOMIC CHARGES
----------------------
   0 C :   -0.339165
   1 C :   -0.235285
   2 C :   -0.077688
   3 H :    0.134349
   4 C :   -0.340836
   5 N :   -0.002210
   6 C :    0.019073
   7 O :   -0.171138
   8 C :   -0.220047
   9 C :   -0.005379
  10 N :   -0.085144
  11 C :    0.041866
  12 O :   -0.192215
  13 C :   -0.331603
  14 Br:    0.137354
  15 H :    0.117976
  16 H :    0.123316
  17 H :    0.119741
  18 H :    0.117620
  19 H :    0.125953
  20 H :    0.129411
  21 H :    0.125503
  22 H :    0.122939
  23 H :    0.254256
  24 H :    0.153118
  25 H :    0.130730
  26 H :    0.147508

  Mayer bond orders larger than 0.100000
B(  0-C ,  1-C ) :   1.1646 B(  0-C , 15-H ) :   0.9499 B(  0-C , 16-H ) :   0.9494
B(  0-C , 17-H ) :   0.9496 B(  1-C ,  2-C ) :   1.0877 B(  1-C , 18-H ) :   0.9201
B(  1-C , 19-H ) :   0.9046 B(  2-C ,  3-H ) :   0.8715 B(  2-C ,  4-C ) :   1.1164
B(  2-C ,  5-N ) :   0.9125 B(  4-C , 20-H ) :   0.9298 B(  4-C , 21-H ) :   0.9425
B(  4-C , 22-H ) :   0.9449 B(  5-N ,  6-C ) :   1.0289 B(  5-N , 11-C ) :   1.0817
B(  6-C ,  7-O ) :   2.1003 B(  6-C ,  8-C ) :   1.0435 B(  8-C ,  9-C ) :   1.6063
B(  8-C , 14-Br) :   1.0860 B(  9-C , 10-N ) :   1.2066 B(  9-C , 13-C ) :   1.1624
B( 10-N , 11-C ) :   1.0853 B( 10-N , 23-H ) :   0.8305 B( 11-C , 12-O ) :   2.0316
B( 13-C , 24-H ) :   0.9155 B( 13-C , 25-H ) :   0.9220 B( 13-C , 26-H ) :   0.9112

Dispersion correction           -0.033449042
FINAL SINGLE POINT ENERGY     -3182.943117087538

DIPOLE MOMENT
-------------

Method             : SCF
Type of density    : Electron Density
Multiplicity       :   1
Irrep              :   0
Energy             : -3183.0350059441479971 Eh
Relativity type    :
Basis              : AO
                                X                 Y                 Z
Electronic contribution:     50.889387148      -3.831968611       3.647862279
Nuclear contribution   :    -50.477347802       5.318055067      -3.739573323
                        -----------------------------------------
Total Dipole Moment    :      0.412039346       1.486086456      -0.091711044
                        -----------------------------------------
Magnitude (a.u.)       :      1.544875494
Magnitude (Debye)      :      3.926761441

Rotational constants in cm-1:             0.031720             0.010220             0.008342
Rotational constants in MHz :           950.944880           306.378811           250.095709

                             ****ORCA TERMINATED NORMALLY****
TOTAL RUN TIME: 0 days 0 hours 0 minutes 18 seconds 514 msec
