                         Program Version 6.0.0  -   RELEASE  -
|  1> ! r2scan-3c def2/J RI DEFGRID2 scfconv6 printgap
|  2> %output
|  3>     printlevel normal
|  4> end
|  5> * xyz 0 1
|  6> C -2.0489641543 0.0951753162 -0.6481563177
|  7> O -1.3210468771 -0.2819417839 0.5055451283
|  8> C -0.0404576992 0.3011353692 0.6138587883
|  9> C 0.9862583542 -0.2792270365 -0.3742424171
| 10> O 2.3049271953 0.0849368031 -0.0402665637
| 11> H -2.0942070701 1.1853022078 -0.7390748194
| 12> H -3.0511746597 -0.302538465 -0.5084286376
| 13> H -1.6126491531 -0.3284426313 -1.5565891927
| 14> H -0.1125866774 1.3916882373 0.487081398
| 15> H 0.290270176 0.0802454712 1.6318137599
| 16> H 0.753055955 0.0307544514 -1.4007588206
| 17> H 0.9515531584 -1.3701683152 -0.3211526725
| 18> H 2.4036741552 1.0451077466 -0.1102163184
| 19> *
| 20>
| 21>                          ****END OF INPUT****

CARTESIAN COORDINATES (ANGSTROEM)
---------------------------------
  C     -2.048964    0.095175   -0.648156
  O     -1.321047   -0.281942    0.505545
  C     -0.040458    0.301135    0.613859
  C      0.986258   -0.279227   -0.374242
  O      2.304927    0.084937   -0.040267
  H     -2.094207    1.185302   -0.739075
  H     -3.051175   -0.302538   -0.508429
  H     -1.612649   -0.328443   -1.556589
  H     -0.112587    1.391688    0.487081
  H      0.290270    0.080245    1.631814
  H      0.753056    0.030754   -1.400759
  H      0.951553   -1.370168   -0.321153
  H      2.403674    1.045108   -0.110216

 Total Charge           Charge          ....    0
 Multiplicity           Mult            ....    1
 Number of Electrons    NEL             ....   42
 Basis Dimension        Dim             ....  145

ORBITAL ENERGIES
----------------

  NO   OCC          E(Eh)            E(eV)
   0   2.0000     -18.956517      -515.8331
   1   2.0000     -18.956331      -515.8280
   2   2.0000     -10.078123      -274.2397
   3   2.0000     -10.077936      -274.2346
   4   2.0000     -10.074783      -274.1488
   5   2.0000      -1.003008       -27.2932
   6   2.0000      -0.990456       -26.9517
   7   2.0000      -0.715237       -19.4626
   8   2.0000      -0.651193       -17.7199
   9   2.0000      -0.579289       -15.7633
  10   2.0000      -0.486838       -13.2475
  11   2.0000      -0.460445       -12.5293
  12   2.0000      -0.449432       -12.2297
  13   2.0000      -0.416683       -11.3385
  14   2.0000      -0.398002       -10.8302
  15   2.0000      -0.375370       -10.2143
  16   2.0000      -0.347716        -9.4618
  17   2.0000      -0.301992        -8.2176
  18   2.0000      -0.290797        -7.9130
  19   2.0000      -0.257861        -7.0167
  20   2.0000      -0.216750        -5.8981
  21   0.0000       0.040218         1.0944
  22   0.0000       0.075314         2.0494
  23   0.0000       0.102631         2.7927
  24   0.0000       0.124553         3.3893
  25   0.0000       0.142439         3.8760

MULLIKEN ATOMIC CHARGES
-----------------------
   0 C :   -0.286712
   1 O :   -0.246115
   2 C :   -0.162588
   3 C :   -0.153725
   4 O :   -0.417859
   5 H :    0.130515
   6 H :    0.149871
   7 H :    0.135301
   8 H :    0.118420
   9 H :    0.158277
  10 H :    0.126941
  11 H :    0.150701
  12 H :    0.296972
Sum of atomic charges:   -0.0000000

LOEWDIN ATOMIC CHARGES
----------------------
   0 C :   -0.074434
   1 O :   -0.782124
   2 C :    0.014577
   3 C :    0.017030
   4 O :   -0.609468
   5 H :    0.155925
   6 H :    0.175968
   7 H :    0.153630
   8 H :    0.157712
   9 H :    0.187475
  10 H :    0.154726
  11 H :    0.182495
  12 H :    0.266486

  Mayer bond orders larger than 0.100000
B(  0-C ,  1-O ) :   0.8903 B(  0-C ,  5-H ) :   0.9669 B(  0-C ,  6-H ) :   0.9742
B(  0-C ,  7-H ) :   0.9618 B(  1-O ,  2-C ) :   0.9102 B(  2-C ,  3-C ) :   0.8915
B(  2-C ,  8-H ) :   0.9698 B(  2-C ,  9-H ) :   0.9657 B(  3-C ,  4-O ) :   0.9585
B(  3-C , 10-H ) :   0.9750 B(  3-C , 11-H ) :   0.9685 B(  4-O , 12-H ) :   0.8943

Dispersion correction           -0.002456598
FINAL SINGLE POINT ENERGY      -269.487946066311

DIPOLE MOMENT
-------------

Method             : SCF
Type of density    : Electron Density
Multiplicity       :   1
Irrep              :   0
Energy             :  -269.4959087839105223 Eh
Relativity type    :
Basis              : AO
                                X                 Y                 Z
Electronic contribution:      2.038226935      -0.929983026       1.851905189
Nuclear contribution   :     -2.304598552       1.621938740      -2.354769980
                        -----------------------------------------
Total Dipole Moment    :     -0.266371617       0.691955714      -0.502864791
                        -----------------------------------------
Magnitude (a.u.)       :      0.895895946
Magnitude (Debye)      :      2.277186525

Rotational constants in cm-1:             0.501691             0.080685             0.075701
Rotational constants in MHz :         15040.330428          2418.876780          2269.446657

                             ****ORCA TERMINATED NORMALLY****
TOTAL RUN TIME: 0 days 0 hours 0 minutes 15 seconds 327 msec
