                         Program Version 6.0.0  -   RELEASE  -
|  1> ! r2scan-3c def2/J RI DEFGRID2 scfconv6 printgap
|  2> %output
|  3>     printlevel normal
|  4> end
|  5> %cpcm
|  6>     smd true
|  7>     smdsolvent "water"
|  8> end
|  9> * xyz 0 1
| 10> C -2.0489641543 0.0951753162 -0.6481563177
| 11> O -1.3210468771 -0.2819417839 0.5055451283
| 12> C -0.0404576992 0.3011353692 0.6138587883
| 13> C 0.9862583542 -0.2792270365 -0.3742424171
| 14> O 2.3049271953 0.0849368031 -0.0402665637
| 15> H -2.0942070701 1.1853022078 -0.7390748194
| 16> H -3.0511746597 -0.302538465 -0.5084286376
| 17> H -1.6126491531 -0.3284426313 -1.5565891927
| 18> H -0.1125866774 1.3916882373 0.487081398
| 19> H 0.290270176 0.0802454712 1.6318137599
| 20> H 0.753055955 0.0307544514 -1.4007588206
| 21> H 0.9515531584 -1.3701683152 -0.3211526725
| 22> H 2.4036741552 1.0451077466 -0.1102163184
| 23> *
| 24>
| 25>                          ****END OF INPUT****

CARTESIAN COORDINATES (ANGSTROEM)
---------------------------------
  C     -2.048964    0.095175   -0.648156
  O     -1.321047   -0.281942    0.505545
  C     -0.040458    0.301135    0.613859
  C      0.986258   -0.279227   -0.374242
  O      2.304927    0.084937   -0.040267
  H     -2.094207    1.185302   -0.739075
  H     -3.051175   -0.302538   -0.508429
  H     -1.612649   -0.328443   -1.556589
  H     -0.112587    1.391688    0.487081
  H      0.290270    0.080245    1.631814
  H      0.753056    0.030754   -1.400759
  H      0.951553   -1.370168   -0.321153
  H      2.403674    1.045108   -0.110216

 Total Charge           Charge          ....    0
 Multiplicity           Mult            ....    1
 Number of Electrons    NEL             ....   42
 Basis Dimension        Dim             ....  145

ORBITAL ENERGIES
----------------

  NO   OCC          E(Eh)            E(eV)
   0   2.0000     -18.959183      -515.9056
   1   2.0000     -18.955683      -515.8104
   2   2.0000     -10.070437      -274.0305
   3   2.0000     -10.070145      -274.0226
   4   2.0000     -10.063232      -273.8345
   5   2.0000      -1.003357       -27.3027
   6   2.0000      -0.989228       -26.9183
   7   2.0000      -0.708918       -19.2906
   8   2.0000      -0.643565       -17.5123
   9   2.0000      -0.571501       -15.5513
  10   2.0000      -0.480308       -13.0698
  11   2.0000      -0.454462       -12.3666
  12   2.0000      -0.444497       -12.0954
  13   2.0000      -0.412243       -11.2177
  14   2.0000      -0.392061       -10.6685
  15   2.0000      -0.370248       -10.0749
  16   2.0000      -0.339607        -9.2412
  17   2.0000      -0.299542        -8.1509
  18   2.0000      -0.291889        -7.9427
  19   2.0000      -0.258463        -7.0331
  20   2.0000      -0.217350        -5.9144
  21   0.0000       0.050932         1.3859
  22   0.0000       0.091874         2.5000
  23   0.0000       0.117397         3.1945
  24   0.0000       0.134618         3.6631
  25   0.0000       0.149932         4.0799

MULLIKEN ATOMIC CHARGES
-----------------------
   0 C :   -0.304928
   1 O :   -0.317291
   2 C :   -0.163613
   3 C :   -0.151721
   4 O :   -0.502070
   5 H :    0.153555
   6 H :    0.162280
   7 H :    0.155013
   8 H :    0.149481
   9 H :    0.160579
  10 H :    0.148836
  11 H :    0.155878
  12 H :    0.354000
Sum of atomic charges:   -0.0000000

LOEWDIN ATOMIC CHARGES
----------------------
   0 C :   -0.074219
   1 O :   -0.822465
   2 C :    0.016416
   3 C :    0.017614
   4 O :   -0.642353
   5 H :    0.166515
   6 H :    0.179807
   7 H :    0.163146
   8 H :    0.172207
   9 H :    0.187730
  10 H :    0.166438
  11 H :    0.182501
  12 H :    0.286664

  Mayer bond orders larger than 0.100000
B(  0-C ,  1-O ) :   0.8819 B(  0-C ,  5-H ) :   0.9618 B(  0-C ,  6-H ) :   0.9679
B(  0-C ,  7-H ) :   0.9558 B(  1-O ,  2-C ) :   0.9073 B(  2-C ,  3-C ) :   0.9015
B(  2-C ,  8-H ) :   0.9601 B(  2-C ,  9-H ) :   0.9634 B(  3-C ,  4-O ) :   0.9527
B(  3-C , 10-H ) :   0.9637 B(  3-C , 11-H ) :   0.9681 B(  4-O , 12-H ) :   0.8653

Dispersion correction           -0.002456598
FINAL SINGLE POINT ENERGY      -269.499077631698

DIPOLE MOMENT
-------------

Method             : SCF
Type of density    : Electron Density
Multiplicity       :   1
Irrep              :   0
Energy             :  -269.5070403492974265 Eh
Relativity type    :
Basis              : AO
                                X                 Y                 Z
Electronic contribution:      1.972563686      -0.595371148       1.609818393
Nuclear contribution   :     -2.304598552       1.621938740      -2.354769980
                        -----------------------------------------
Total Dipole Moment    :     -0.332034866       1.026567592      -0.744951587
                        -----------------------------------------
Magnitude (a.u.)       :      1.311122054
Magnitude (Debye)      :      3.332607414

Rotational constants in cm-1:             0.501691             0.080685             0.075701
Rotational constants in MHz :         15040.330428          2418.876780          2269.446657

                             ****ORCA TERMINATED NORMALLY****
TOTAL RUN TIME: 0 days 0 hours 0 minutes 18 seconds 68 msec
