                         Program Version 6.0.0  -   RELEASE  -
|  1> ! pbe def2-sv(p) def2/J RI DEFGRID1 loosescf d4 GCP(DFT/SV(P)) printgap
|  2> %output
|  3>     printlevel normal
|  4> end
|  5> * xyz 0 1
|  6> C 2.2294160954 0.970410537 0.8415904541
|  7> C 1.4345318562 -0.3159486662 0.640520241
|  8> C 0.3371740805 -0.1879770016 -0.4381001766
|  9> H 0.4863263697 0.7567211414 -0.9730003681
| 10> C 0.4775712646 -1.3257004749 -1.4518054386
| 11> C -1.0733345068 -0.1542809496 0.1839376448
| 12> C -1.2397703892 1.0480075601 1.1141667081
| 13> C -2.169317151 -0.1019792689 -0.8820459356
| 14> H 2.984219292 0.8324252323 1.612933475
| 15> H 2.7324733208 1.2514486681 -0.0811708627
| 16> H 1.580806546 1.7898917288 1.1396888613
| 17> H 0.990089269 -0.6209482616 1.5895589718
| 18> H 2.1320098096 -1.105015534 0.3527928886
| 19> H -0.1811225659 -1.182748619 -2.303273614
| 20> H 1.4983736256 -1.3657950679 -1.8256999144
| 21> H 0.2437592107 -2.2807545004 -0.9854677451
| 22> H -1.2086378352 -1.0706148188 0.7711280403
| 23> H -0.5285696716 1.0216916919 1.934252571
| 24> H -2.241175297 1.056188944 1.5393583141
| 25> H -1.0973072392 1.9734683446 0.5598360947
| 26> H -3.1374821576 0.052124881 -0.4105451794
| 27> H -2.2191364742 -1.0263632778 -1.4495091822
| 28> H -1.9901912206 0.7222890911 -1.5693572637
| 29> *
| 30>
| 31>                          ****END OF INPUT****

CARTESIAN COORDINATES (ANGSTROEM)
---------------------------------
  C      2.229416    0.970411    0.841590
  C      1.434532   -0.315949    0.640520
  C      0.337174   -0.187977   -0.438100
  H      0.486326    0.756721   -0.973000
  C      0.477571   -1.325700   -1.451805
  C     -1.073335   -0.154281    0.183938
  C     -1.239770    1.048008    1.114167
  C     -2.169317   -0.101979   -0.882046
  H      2.984219    0.832425    1.612933
  H      2.732473    1.251449   -0.081171
  H      1.580807    1.789892    1.139689
  H      0.990089   -0.620948    1.589559
  H      2.132010   -1.105016    0.352793
  H     -0.181123   -1.182749   -2.303274
  H      1.498374   -1.365795   -1.825700
  H      0.243759   -2.280755   -0.985468
  H     -1.208638   -1.070615    0.771128
  H     -0.528570    1.021692    1.934253
  H     -2.241175    1.056189    1.539358
  H     -1.097307    1.973468    0.559836
  H     -3.137482    0.052125   -0.410545
  H     -2.219136   -1.026363   -1.449509
  H     -1.990191    0.722289   -1.569357

 Total Charge           Charge          ....    0
 Multiplicity           Mult            ....    1
 Number of Electrons    NEL             ....   58
 Basis Dimension        Dim             ....  130

ORBITAL ENERGIES
----------------

  NO   OCC          E(Eh)            E(eV)
   0   2.0000      -9.889614      -269.1101
   1   2.0000      -9.887081      -269.0411
   2   2.0000      -9.876764      -268.7604
   3   2.0000      -9.869433      -268.5609
   4   2.0000      -9.868133      -268.5256
   5   2.0000      -9.867674      -268.5131
   6   2.0000      -9.867633      -268.5119
   7   2.0000      -0.741338       -20.1728
   8   2.0000      -0.682676       -18.5766
   9   2.0000      -0.644192       -17.5294
  10   2.0000      -0.604552       -16.4507
  11   2.0000      -0.561538       -15.2802
  12   2.0000      -0.523457       -14.2440
  13   2.0000      -0.489837       -13.3291
  14   2.0000      -0.415850       -11.3158
  15   2.0000      -0.403710       -10.9855
  16   2.0000      -0.388505       -10.5718
  17   2.0000      -0.374912       -10.2019
  18   2.0000      -0.362089        -9.8529
  19   2.0000      -0.352600        -9.5947
  20   2.0000      -0.338455        -9.2098
  21   2.0000      -0.331380        -9.0173
  22   2.0000      -0.318157        -8.6575
  23   2.0000      -0.309138        -8.4121
  24   2.0000      -0.294307        -8.0085
  25   2.0000      -0.291398        -7.9293
  26   2.0000      -0.273204        -7.4343
  27   2.0000      -0.263766        -7.1774
  28   2.0000      -0.259421        -7.0592
  29   0.0000       0.037280         1.0144
  30   0.0000       0.057253         1.5579
  31   0.0000       0.060398         1.6435
  32   0.0000       0.065550         1.7837
  33   0.0000       0.089703         2.4409

MULLIKEN ATOMIC CHARGES
-----------------------
   0 C :   -0.291395
   1 C :   -0.142057
   2 C :   -0.133482
   3 H :    0.062519
   4 C :   -0.251070
   5 C :   -0.173702
   6 C :   -0.242764
   7 C :   -0.245344
   8 H :    0.098747
   9 H :    0.100942
  10 H :    0.103698
  11 H :    0.085446
  12 H :    0.076628
  13 H :    0.102330
  14 H :    0.099561
  15 H :    0.095237
  16 H :    0.066940
  17 H :    0.107046
  18 H :    0.096297
  19 H :    0.092336
  20 H :    0.094392
  21 H :    0.105509
  22 H :    0.092186
Sum of atomic charges:   -0.0000000

LOEWDIN ATOMIC CHARGES
----------------------
   0 C :   -0.340352
   1 C :   -0.224877
   2 C :   -0.142391
   3 H :    0.110859
   4 C :   -0.330506
   5 C :   -0.148657
   6 C :   -0.330241
   7 C :   -0.331221
   8 H :    0.117067
   9 H :    0.116154
  10 H :    0.115313
  11 H :    0.114039
  12 H :    0.114606
  13 H :    0.115645
  14 H :    0.116329
  15 H :    0.116965
  16 H :    0.111603
  17 H :    0.116436
  18 H :    0.116715
  19 H :    0.116055
  20 H :    0.116681
  21 H :    0.117049
  22 H :    0.116729

  Mayer bond orders larger than 0.100000
B(  0-C ,  1-C ) :   1.1577 B(  0-C ,  8-H ) :   0.9505 B(  0-C ,  9-H ) :   0.9532
B(  0-C , 10-H ) :   0.9484 B(  1-C ,  2-C ) :   1.0408 B(  1-C , 11-H ) :   0.9189
B(  1-C , 12-H ) :   0.9257 B(  2-C ,  3-H ) :   0.9025 B(  2-C ,  4-C ) :   1.1213
B(  2-C ,  5-C ) :   1.0587 B(  4-C , 13-H ) :   0.9411 B(  4-C , 14-H ) :   0.9458
B(  4-C , 15-H ) :   0.9471 B(  5-C ,  6-C ) :   1.1177 B(  5-C ,  7-C ) :   1.1136
B(  5-C , 16-H ) :   0.8929 B(  6-C , 17-H ) :   0.9390 B(  6-C , 18-H ) :   0.9473
B(  6-C , 19-H ) :   0.9461 B(  7-C , 20-H ) :   0.9485 B(  7-C , 21-H ) :   0.9422
B(  7-C , 22-H ) :   0.9479

Dispersion correction           -0.019074011
FINAL SINGLE POINT ENERGY      -275.657112009914

DIPOLE MOMENT
-------------

Method             : SCF
Type of density    : Electron Density
Multiplicity       :   1
Irrep              :   0
Energy             :  -275.7346920218244577 Eh
Relativity type    :
Basis              : AO
                                X                 Y                 Z
Electronic contribution:     -0.042384269      -0.774587256       0.104276782
Nuclear contribution   :      0.041687187       0.754290842      -0.092385366
                        -----------------------------------------
Total Dipole Moment    :     -0.000697082      -0.020296414       0.011891417
                        -----------------------------------------
Magnitude (a.u.)       :      0.023533723
Magnitude (Debye)      :      0.059817970

Rotational constants in cm-1:             0.107023             0.064124             0.044649
Rotational constants in MHz :          3208.461787          1922.401832          1338.532603

                             ****ORCA TERMINATED NORMALLY****
TOTAL RUN TIME: 0 days 0 hours 0 minutes 10 seconds 92 msec
