                         Program Version 6.0.0  -   RELEASE  -
|  1> ! pbe def2-sv(p) def2/J RI DEFGRID1 loosescf d4 GCP(DFT/SV(P)) printgap
|  2> %output
|  3>     printlevel normal
|  4> end
|  5> * xyz 0 1
|  6> C 1.7928362563 -0.8115294422 1.5908113343
|  7> C 2.3282364893 -0.1427531368 0.359161729
|  8> C 3.6293476813 -0.0161872983 0.146061007
|  9> C 1.3199363896 0.4018908922 -0.6237891983
| 10> H 1.8733362762 0.8438380507 -1.4564477969
| 11> C 0.4040919696 -0.706749581 -1.173251256
| 12> C -1.0361044966 -0.2220657027 -1.3726661281
| 13> C -1.5474146417 0.2660086897 -0.0520197087
| 14> C -0.7570430332 1.0975832978 0.6510564883
| 15> C 0.5200406033 1.550533857 0.0534217842
| 16> C -2.8142268025 -0.1988670444 0.463542247
| 17> O -3.5736760088 -0.9694976536 -0.0986537996
| 18> H 0.8349584596 -0.3850571577 1.8801267405
| 19> H 1.6446611357 -1.8760718874 1.4104566533
| 20> H 2.4937411457 -0.7116706312 2.4153419212
| 21> H 4.0212439633 0.4532582271 -0.7400525543
| 22> H 4.3577179917 -0.3870919563 0.8472843758
| 23> H 0.8032187947 -1.0746804504 -2.1181244034
| 24> H 0.3773320062 -1.5462449011 -0.4785512925
| 25> H -1.0550372263 0.5898018546 -2.1035747455
| 26> H -1.6705894306 -1.0301943443 -1.738671569
| 27> H -1.0495869652 1.4634257561 1.624562932
| 28> H 0.2720613629 2.2775925136 -0.7252349985
| 29> H 1.1505934432 2.052171737 0.7866936775
| 30> H -3.0822944271 0.2076072577 1.4578007498
| 31> *
| 32>
| 33>                          ****END OF INPUT****

CARTESIAN COORDINATES (ANGSTROEM)
---------------------------------
  C      1.792836   -0.811529    1.590811
  C      2.328236   -0.142753    0.359162
  C      3.629348   -0.016187    0.146061
  C      1.319936    0.401891   -0.623789
  H      1.873336    0.843838   -1.456448
  C      0.404092   -0.706750   -1.173251
  C     -1.036104   -0.222066   -1.372666
  C     -1.547415    0.266009   -0.052020
  C     -0.757043    1.097583    0.651056
  C      0.520041    1.550534    0.053422
  C     -2.814227   -0.198867    0.463542
  O     -3.573676   -0.969498   -0.098654
  H      0.834958   -0.385057    1.880127
  H      1.644661   -1.876072    1.410457
  H      2.493741   -0.711671    2.415342
  H      4.021244    0.453258   -0.740053
  H      4.357718   -0.387092    0.847284
  H      0.803219   -1.074680   -2.118124
  H      0.377332   -1.546245   -0.478551
  H     -1.055037    0.589802   -2.103575
  H     -1.670589   -1.030194   -1.738672
  H     -1.049587    1.463426    1.624563
  H      0.272061    2.277593   -0.725235
  H      1.150593    2.052172    0.786694
  H     -3.082294    0.207607    1.457801

 Total Charge           Charge          ....    0
 Multiplicity           Mult            ....    1
 Number of Electrons    NEL             ....   82
 Basis Dimension        Dim             ....  182

ORBITAL ENERGIES
----------------

  NO   OCC          E(Eh)            E(eV)
   0   2.0000     -18.741802      -509.9904
   1   2.0000      -9.961902      -271.0771
   2   2.0000      -9.919439      -269.9217
   3   2.0000      -9.910015      -269.6652
   4   2.0000      -9.907773      -269.6042
   5   2.0000      -9.905151      -269.5329
   6   2.0000      -9.903323      -269.4831
   7   2.0000      -9.894825      -269.2519
   8   2.0000      -9.893321      -269.2109
   9   2.0000      -9.886988      -269.0386
  10   2.0000      -9.876966      -268.7659
  11   2.0000      -0.930965       -25.3328
  12   2.0000      -0.786340       -21.3974
  13   2.0000      -0.734032       -19.9740
  14   2.0000      -0.683599       -18.6017
  15   2.0000      -0.675843       -18.3906
  16   2.0000      -0.621786       -16.9197
  17   2.0000      -0.592498       -16.1227
  18   2.0000      -0.560768       -15.2593
  19   2.0000      -0.521177       -14.1820
  20   2.0000      -0.484782       -13.1916
  21   2.0000      -0.466601       -12.6969
  22   2.0000      -0.450872       -12.2688
  23   2.0000      -0.437374       -11.9015
  24   2.0000      -0.406124       -11.0512
  25   2.0000      -0.403108       -10.9691
  26   2.0000      -0.387655       -10.5486
  27   2.0000      -0.381715       -10.3870
  28   2.0000      -0.360644        -9.8136
  29   2.0000      -0.355352        -9.6696
  30   2.0000      -0.355045        -9.6613
  31   2.0000      -0.353559        -9.6208
  32   2.0000      -0.346311        -9.4236
  33   2.0000      -0.333900        -9.0859
  34   2.0000      -0.322901        -8.7866
  35   2.0000      -0.299320        -8.1449
  36   2.0000      -0.287996        -7.8368
  37   2.0000      -0.280832        -7.6418
  38   2.0000      -0.241321        -6.5667
  39   2.0000      -0.219382        -5.9697
  40   2.0000      -0.200669        -5.4605
  41   0.0000      -0.091502        -2.4899
  42   0.0000      -0.018001        -0.4898
  43   0.0000       0.021155         0.5757
  44   0.0000       0.026251         0.7143
  45   0.0000       0.043426         1.1817

MULLIKEN ATOMIC CHARGES
-----------------------
   0 C :   -0.229926
   1 C :   -0.068308
   2 C :   -0.227661
   3 C :   -0.124409
   4 H :    0.052746
   5 C :   -0.120854
   6 C :   -0.059258
   7 C :   -0.056108
   8 C :   -0.182452
   9 C :   -0.040727
  10 C :    0.034264
  11 O :   -0.174626
  12 H :    0.112986
  13 H :    0.128034
  14 H :    0.106634
  15 H :    0.085446
  16 H :    0.081944
  17 H :    0.091142
  18 H :    0.091962
  19 H :    0.088993
  20 H :    0.095548
  21 H :    0.069885
  22 H :    0.110770
  23 H :    0.103121
  24 H :    0.030856
Sum of atomic charges:   -0.0000000

LOEWDIN ATOMIC CHARGES
----------------------
   0 C :   -0.328189
   1 C :   -0.051270
   2 C :   -0.265790
   3 C :   -0.121361
   4 H :    0.121981
   5 C :   -0.206632
   6 C :   -0.210246
   7 C :   -0.103644
   8 C :   -0.092556
   9 C :   -0.211735
  10 C :   -0.007647
  11 O :   -0.135943
  12 H :    0.126075
  13 H :    0.136558
  14 H :    0.130005
  15 H :    0.117026
  16 H :    0.116806
  17 H :    0.125121
  18 H :    0.123429
  19 H :    0.128800
  20 H :    0.130549
  21 H :    0.125139
  22 H :    0.145100
  23 H :    0.130690
  24 H :    0.077733

  Mayer bond orders larger than 0.100000
B(  0-C ,  1-C ) :   1.1074 B(  0-C , 12-H ) :   0.9221 B(  0-C , 13-H ) :   0.9207
B(  0-C , 14-H ) :   0.9342 B(  1-C ,  2-C ) :   2.0324 B(  1-C ,  3-C ) :   1.0301
B(  2-C , 15-H ) :   0.9092 B(  2-C , 16-H ) :   0.9119 B(  3-C ,  4-H ) :   0.8705
B(  3-C ,  5-C ) :   1.0815 B(  3-C ,  9-C ) :   1.0628 B(  5-C ,  6-C ) :   1.1439
B(  5-C , 17-H ) :   0.9127 B(  5-C , 18-H ) :   0.9076 B(  6-C ,  7-C ) :   1.1065
B(  6-C , 19-H ) :   0.8771 B(  6-C , 20-H ) :   0.8908 B(  7-C ,  8-C ) :   1.6954
B(  7-C , 10-C ) :   1.0421 B(  8-C ,  9-C ) :   1.1055 B(  8-C , 11-O ) :   0.1039
B(  8-C , 21-H ) :   0.9368 B(  9-C , 22-H ) :   0.8676 B(  9-C , 23-H ) :   0.9123
B( 10-C , 11-O ) :   2.0963 B( 10-C , 24-H ) :   0.9176

Dispersion correction           -0.027290458
FINAL SINGLE POINT ENERGY      -463.621062578338

DIPOLE MOMENT
-------------

Method             : SCF
Type of density    : Electron Density
Multiplicity       :   1
Irrep              :   0
Energy             :  -463.6966397565778379 Eh
Relativity type    :
Basis              : AO
                                X                 Y                 Z
Electronic contribution:     -9.223448728      -0.133215886      -0.802222102
Nuclear contribution   :     10.239994632       0.808104509       0.994505407
                        -----------------------------------------
Total Dipole Moment    :      1.016545903       0.674888623       0.192283306
                        -----------------------------------------
Magnitude (a.u.)       :      1.235238073
Magnitude (Debye)      :      3.139725664

Rotational constants in cm-1:             0.080324             0.020992             0.020535
Rotational constants in MHz :          2408.050253           629.325144           615.627396

                             ****ORCA TERMINATED NORMALLY****
TOTAL RUN TIME: 0 days 0 hours 0 minutes 18 seconds 662 msec
