                         Program Version 6.0.0  -   RELEASE  -
|  1> ! pbe def2-sv(p) def2/J RI DEFGRID1 loosescf d4 GCP(DFT/SV(P)) printgap
|  2> %output
|  3>     printlevel normal
|  4> end
|  5> * xyz 0 1
|  6> C 2.1715615319 0.6928399348 0.3402369859
|  7> C 1.0801383858 0.3548647393 -0.6820938813
|  8> C -5.45044e-05 -0.4452849451 -0.0001025866
|  9> O 0.000249082 -1.6611743664 -0.0003904534
| 10> C -1.0805436982 0.3540375191 0.682387983
| 11> C -2.1713909114 0.693549786 -0.3400396574
| 12> H 1.7721987399 1.3031482269 1.1458966219
| 13> H 2.5801625428 -0.2200793345 0.767401035
| 14> H 2.9738157066 1.2392900507 -0.1469255763
| 15> H 0.6641906906 1.2747528224 -1.0905650153
| 16> H 1.5128559784 -0.2437198479 -1.4845772944
| 17> H -0.6646859894 1.2733220235 1.0923287139
| 18> H -1.5137302876 -0.2455756431 1.4838501595
| 19> H -1.7716044966 1.3050032005 -1.1446165441
| 20> H -2.9738701922 1.2393126572 0.1475086196
| 21> H -2.5798403636 -0.2187081369 -0.7687364171
| 22> *
| 23>
| 24>                          ****END OF INPUT****

CARTESIAN COORDINATES (ANGSTROEM)
---------------------------------
  C      2.171562    0.692840    0.340237
  C      1.080138    0.354865   -0.682094
  C     -0.000055   -0.445285   -0.000103
  O      0.000249   -1.661174   -0.000390
  C     -1.080544    0.354038    0.682388
  C     -2.171391    0.693550   -0.340040
  H      1.772199    1.303148    1.145897
  H      2.580163   -0.220079    0.767401
  H      2.973816    1.239290   -0.146926
  H      0.664191    1.274753   -1.090565
  H      1.512856   -0.243720   -1.484577
  H     -0.664686    1.273322    1.092329
  H     -1.513730   -0.245576    1.483850
  H     -1.771604    1.305003   -1.144617
  H     -2.973870    1.239313    0.147509
  H     -2.579840   -0.218708   -0.768736

 Total Charge           Charge          ....    0
 Multiplicity           Mult            ....    1
 Number of Electrons    NEL             ....   48
 Basis Dimension        Dim             ....  104

ORBITAL ENERGIES
----------------

  NO   OCC          E(Eh)            E(eV)
   0   2.0000     -18.733765      -509.7717
   1   2.0000      -9.967214      -271.2217
   2   2.0000      -9.892969      -269.2014
   3   2.0000      -9.892937      -269.2005
   4   2.0000      -9.890638      -269.1379
   5   2.0000      -9.890634      -269.1378
   6   2.0000      -0.930708       -25.3259
   7   2.0000      -0.722830       -19.6692
   8   2.0000      -0.691279       -18.8107
   9   2.0000      -0.591902       -16.1065
  10   2.0000      -0.565494       -15.3879
  11   2.0000      -0.465841       -12.6762
  12   2.0000      -0.431449       -11.7403
  13   2.0000      -0.424380       -11.5480
  14   2.0000      -0.394846       -10.7443
  15   2.0000      -0.372424       -10.1342
  16   2.0000      -0.370735       -10.0882
  17   2.0000      -0.338196        -9.2028
  18   2.0000      -0.335723        -9.1355
  19   2.0000      -0.334552        -9.1036
  20   2.0000      -0.309812        -8.4304
  21   2.0000      -0.308472        -8.3940
  22   2.0000      -0.296895        -8.0789
  23   2.0000      -0.189887        -5.1671
  24   0.0000      -0.048717        -1.3256
  25   0.0000       0.028232         0.7682
  26   0.0000       0.062038         1.6882
  27   0.0000       0.079160         2.1540
  28   0.0000       0.080341         2.1862

MULLIKEN ATOMIC CHARGES
-----------------------
   0 C :   -0.301387
   1 C :   -0.149427
   2 C :   -0.005407
   3 O :   -0.173828
   4 C :   -0.149419
   5 C :   -0.301419
   6 H :    0.109032
   7 H :    0.120309
   8 H :    0.118728
   9 H :    0.093178
  10 H :    0.099183
  11 H :    0.093207
  12 H :    0.099162
  13 H :    0.109056
  14 H :    0.118731
  15 H :    0.120302
Sum of atomic charges:   -0.0000000

LOEWDIN ATOMIC CHARGES
----------------------
   0 C :   -0.329155
   1 C :   -0.254063
   2 C :    0.049734
   3 O :   -0.136164
   4 C :   -0.254061
   5 C :   -0.329169
   6 H :    0.118848
   7 H :    0.127152
   8 H :    0.125941
   9 H :    0.123311
  10 H :    0.131182
  11 H :    0.123333
  12 H :    0.131168
  13 H :    0.118850
  14 H :    0.125946
  15 H :    0.127148

  Mayer bond orders larger than 0.100000
B(  0-C ,  1-C ) :   1.1321 B(  0-C ,  6-H ) :   0.9515 B(  0-C ,  7-H ) :   0.9503
B(  0-C ,  8-H ) :   0.9499 B(  1-C ,  2-C ) :   1.0155 B(  1-C ,  9-H ) :   0.9050
B(  1-C , 10-H ) :   0.9026 B(  2-C ,  3-O ) :   2.1779 B(  2-C ,  4-C ) :   1.0156
B(  4-C ,  5-C ) :   1.1321 B(  4-C , 11-H ) :   0.9050 B(  4-C , 12-H ) :   0.9026
B(  5-C , 13-H ) :   0.9515 B(  5-C , 14-H ) :   0.9499 B(  5-C , 15-H ) :   0.9503

Dispersion correction           -0.011360506
FINAL SINGLE POINT ENERGY      -271.140647958097

DIPOLE MOMENT
-------------

Method             : SCF
Type of density    : Electron Density
Multiplicity       :   1
Irrep              :   0
Energy             :  -271.1947548289225551 Eh
Relativity type    :
Basis              : AO
                                X                 Y                 Z
Electronic contribution:      0.000264195      -5.228175447      -0.001212272
Nuclear contribution   :     -0.000472579       6.267379073       0.001461779
                        -----------------------------------------
Total Dipole Moment    :     -0.000208384       1.039203626       0.000249507
                        -----------------------------------------
Magnitude (a.u.)       :      1.039203677
Magnitude (Debye)      :      2.641445828

Rotational constants in cm-1:             0.176009             0.080630             0.065977
Rotational constants in MHz :          5276.631522          2417.241503          1977.931612

                             ****ORCA TERMINATED NORMALLY****
TOTAL RUN TIME: 0 days 0 hours 0 minutes 5 seconds 721 msec
