                         Program Version 6.0.0  -   RELEASE  -
|  1> ! wb97x-v def2-tzvp def2/J RIJCOSX DEFGRID2 scfconv7 GCP(DFT/TZ) printgap
|  2> %output
|  3>     printlevel normal
|  4> end
|  5> * xyz 0 1
|  6> C -2.5419817099980766 0.08092247264149 -0.5470057016232103
|  7> C -1.971768424073927 -1.1625705833653923 -0.2781459671251446
|  8> C -0.6935378999277733 -1.2426035544403509 0.26744579682429687
|  9> C 0.03651876568857865 -0.08446360886696754 0.555424579314413
| 10> C -0.5445688431579423 1.1563837758872149 0.27957155395854744
| 11> C -1.823491427936143 1.2407427414414685 -0.2674498156901831
| 12> C 1.4354342704509722 -0.17993805498297766 1.1010690169954864
| 13> C 2.4735821572788566 -0.4738039235549433 0.017162437955506676
| 14> O 2.5143474873114333 0.5371659874876156 -1.00274805672029
| 15> H -3.540237739618861 0.14448162635709036 -0.9686534433648967
| 16> H -2.5266981441633116 -2.0717185129912985 -0.48958723551675676
| 17> H -0.2549291819512609 -2.215194854647533 0.47640921985783335
| 18> H 0.01083418879708286 2.0643242739175256 0.49944318102624574
| 19> H -2.259617576378013 2.2139254851012615 -0.4722913826535058
| 20> H 1.7069988684855524 0.7547133127976896 1.6060048959108377
| 21> H 1.4982509405732212 -0.9867531501138963 1.8410826212494789
| 22> H 3.4632001347788797 -0.5866722623179986 0.48065995497216846
| 23> H 2.2278262874596173 -1.4080859089330624 -0.4978855852250675
| 24> H 2.745099998996773 1.3717308745758559 -0.5731700551923558
| 25> *
| 26>
| 27>                          ****END OF INPUT****

CARTESIAN COORDINATES (ANGSTROEM)
---------------------------------
  C     -2.541982    0.080922   -0.547006
  C     -1.971768   -1.162571   -0.278146
  C     -0.693538   -1.242604    0.267446
  C      0.036519   -0.084464    0.555425
  C     -0.544569    1.156384    0.279572
  C     -1.823491    1.240743   -0.267450
  C      1.435434   -0.179938    1.101069
  C      2.473582   -0.473804    0.017162
  O      2.514347    0.537166   -1.002748
  H     -3.540238    0.144482   -0.968653
  H     -2.526698   -2.071719   -0.489587
  H     -0.254929   -2.215195    0.476409
  H      0.010834    2.064324    0.499443
  H     -2.259618    2.213925   -0.472291
  H      1.706999    0.754713    1.606005
  H      1.498251   -0.986753    1.841083
  H      3.463200   -0.586672    0.480660
  H      2.227826   -1.408086   -0.497886
  H      2.745100    1.371731   -0.573170

 Total Charge           Charge          ....    0
 Multiplicity           Mult            ....    1
 Number of Electrons    NEL             ....   66
 Basis Dimension        Dim             ....  339

ORBITAL ENERGIES
----------------

  NO   OCC          E(Eh)            E(eV)
   0   2.0000     -21.670721      -589.6903
   1   2.0000     -12.096175      -329.1537
   2   2.0000     -12.058156      -328.1191
   3   2.0000     -12.054207      -328.0116
   4   2.0000     -12.050616      -327.9139
   5   2.0000     -12.050220      -327.9032
   6   2.0000     -12.047950      -327.8414
   7   2.0000     -12.047581      -327.8313
   8   2.0000     -12.046497      -327.8018
   9   2.0000      -1.669833       -45.4385
  10   2.0000      -1.383338       -37.6426
  11   2.0000      -1.307470       -35.5781
  12   2.0000      -1.269801       -34.5530
  13   2.0000      -1.245500       -33.8918
  14   2.0000      -1.153327       -31.3836
  15   2.0000      -1.104622       -30.0583
  16   2.0000      -1.084728       -29.5170
  17   2.0000      -1.017531       -27.6884
  18   2.0000      -0.962141       -26.1812
  19   2.0000      -0.956782       -26.0354
  20   2.0000      -0.945857       -25.7381
  21   2.0000      -0.932311       -25.3695
  22   2.0000      -0.912476       -24.8297
  23   2.0000      -0.877894       -23.8887
  24   2.0000      -0.871434       -23.7129
  25   2.0000      -0.840035       -22.8585
  26   2.0000      -0.825264       -22.4566
  27   2.0000      -0.814251       -22.1569
  28   2.0000      -0.798707       -21.7339
  29   2.0000      -0.785423       -21.3724
  30   2.0000      -0.761613       -20.7245
  31   2.0000      -0.635505       -17.2930
  32   2.0000      -0.633428       -17.2365
  33   0.0000      -0.239752        -6.5240
  34   0.0000      -0.234047        -6.3687
  35   0.0000      -0.139427        -3.7940
  36   0.0000      -0.073984        -2.0132
  37   0.0000      -0.054707        -1.4886

MULLIKEN ATOMIC CHARGES
-----------------------
   0 C :   -0.137513
   1 C :   -0.104486
   2 C :   -0.231374
   3 C :    0.337874
   4 C :   -0.253122
   5 C :   -0.102465
   6 C :   -0.330739
   7 C :   -0.018955
   8 O :   -0.442950
   9 H :    0.116066
  10 H :    0.115353
  11 H :    0.115269
  12 H :    0.100454
  13 H :    0.114391
  14 H :    0.122740
  15 H :    0.111212
  16 H :    0.095457
  17 H :    0.098551
  18 H :    0.294237
Sum of atomic charges:   -0.0000000

LOEWDIN ATOMIC CHARGES
----------------------
   0 C :   -0.144478
   1 C :   -0.138523
   2 C :   -0.112817
   3 C :   -0.142136
   4 C :   -0.113669
   5 C :   -0.137354
   6 C :   -0.232598
   7 C :   -0.324912
   8 O :   -0.049936
   9 H :    0.140358
  10 H :    0.141085
  11 H :    0.143245
  12 H :    0.140283
  13 H :    0.141063
  14 H :    0.138661
  15 H :    0.146500
  16 H :    0.112608
  17 H :    0.126923
  18 H :    0.165698

  Mayer bond orders larger than 0.100000
B(  0-C ,  1-C ) :   1.4197 B(  0-C ,  5-C ) :   1.4270 B(  0-C ,  9-H ) :   0.9714
B(  1-C ,  2-C ) :   1.4544 B(  1-C , 10-H ) :   0.9735 B(  2-C ,  3-C ) :   1.3631
B(  2-C , 11-H ) :   0.9716 B(  3-C ,  4-C ) :   1.3822 B(  3-C ,  6-C ) :   0.8579
B(  3-C ,  8-O ) :  -0.1009 B(  4-C ,  5-C ) :   1.4550 B(  4-C , 12-H ) :   0.9695
B(  5-C , 13-H ) :   0.9737 B(  6-C ,  7-C ) :   0.9946 B(  6-C , 14-H ) :   0.9999
B(  6-C , 15-H ) :   0.9756 B(  7-C ,  8-O ) :   1.0229 B(  7-C , 16-H ) :   0.9779
B(  7-C , 17-H ) :   0.9647 B(  8-O , 18-H ) :   0.9056

FINAL SINGLE POINT ENERGY      -386.107897895583

DIPOLE MOMENT
-------------

Method             : SCF
Type of density    : Electron Density
Multiplicity       :   1
Irrep              :   0
Energy             :  -386.1187913153833051 Eh
Relativity type    :
Basis              : AO
                                X                 Y                 Z
Electronic contribution:     -2.750661253       0.737549322      -1.175007005
Nuclear contribution   :      2.939248248      -0.657441317       1.813932299
                        -----------------------------------------
Total Dipole Moment    :      0.188586996       0.080108005       0.638925294
                        -----------------------------------------
Magnitude (a.u.)       :      0.670975319
Magnitude (Debye)      :      1.705483723

Rotational constants in cm-1:             0.111507             0.035562             0.031648
Rotational constants in MHz :          3342.888530          1066.115697           948.793098

                             ****ORCA TERMINATED NORMALLY****
TOTAL RUN TIME: 0 days 0 hours 2 minutes 52 seconds 96 msec
