                         Program Version 6.0.0  -   RELEASE  -
|  1> ! wb97x-v def2-tzvp def2/J RIJCOSX DEFGRID2 scfconv7 GCP(DFT/TZ) printgap
|  2> %output
|  3>     printlevel normal
|  4> end
|  5> %cpcm
|  6>     smd true
|  7>     smdsolvent "water"
|  8> end
|  9> * xyz 0 1
| 10> C -2.5419817099980766 0.08092247264149 -0.5470057016232103
| 11> C -1.971768424073927 -1.1625705833653923 -0.2781459671251446
| 12> C -0.6935378999277733 -1.2426035544403509 0.26744579682429687
| 13> C 0.03651876568857865 -0.08446360886696754 0.555424579314413
| 14> C -0.5445688431579423 1.1563837758872149 0.27957155395854744
| 15> C -1.823491427936143 1.2407427414414685 -0.2674498156901831
| 16> C 1.4354342704509722 -0.17993805498297766 1.1010690169954864
| 17> C 2.4735821572788566 -0.4738039235549433 0.017162437955506676
| 18> O 2.5143474873114333 0.5371659874876156 -1.00274805672029
| 19> H -3.540237739618861 0.14448162635709036 -0.9686534433648967
| 20> H -2.5266981441633116 -2.0717185129912985 -0.48958723551675676
| 21> H -0.2549291819512609 -2.215194854647533 0.47640921985783335
| 22> H 0.01083418879708286 2.0643242739175256 0.49944318102624574
| 23> H -2.259617576378013 2.2139254851012615 -0.4722913826535058
| 24> H 1.7069988684855524 0.7547133127976896 1.6060048959108377
| 25> H 1.4982509405732212 -0.9867531501138963 1.8410826212494789
| 26> H 3.4632001347788797 -0.5866722623179986 0.48065995497216846
| 27> H 2.2278262874596173 -1.4080859089330624 -0.4978855852250675
| 28> H 2.745099998996773 1.3717308745758559 -0.5731700551923558
| 29> *
| 30>
| 31>                          ****END OF INPUT****

CARTESIAN COORDINATES (ANGSTROEM)
---------------------------------
  C     -2.541982    0.080922   -0.547006
  C     -1.971768   -1.162571   -0.278146
  C     -0.693538   -1.242604    0.267446
  C      0.036519   -0.084464    0.555425
  C     -0.544569    1.156384    0.279572
  C     -1.823491    1.240743   -0.267450
  C      1.435434   -0.179938    1.101069
  C      2.473582   -0.473804    0.017162
  O      2.514347    0.537166   -1.002748
  H     -3.540238    0.144482   -0.968653
  H     -2.526698   -2.071719   -0.489587
  H     -0.254929   -2.215195    0.476409
  H      0.010834    2.064324    0.499443
  H     -2.259618    2.213925   -0.472291
  H      1.706999    0.754713    1.606005
  H      1.498251   -0.986753    1.841083
  H      3.463200   -0.586672    0.480660
  H      2.227826   -1.408086   -0.497886
  H      2.745100    1.371731   -0.573170

 Total Charge           Charge          ....    0
 Multiplicity           Mult            ....    1
 Number of Electrons    NEL             ....   66
 Basis Dimension        Dim             ....  339

ORBITAL ENERGIES
----------------

  NO   OCC          E(Eh)            E(eV)
   0   2.0000     -21.673154      -589.7565
   1   2.0000     -12.087728      -328.9238
   2   2.0000     -12.055962      -328.0594
   3   2.0000     -12.048729      -327.8626
   4   2.0000     -12.048453      -327.8551
   5   2.0000     -12.045669      -327.7793
   6   2.0000     -12.045053      -327.7625
   7   2.0000     -12.044409      -327.7450
   8   2.0000     -12.041075      -327.6543
   9   2.0000      -1.672445       -45.5095
  10   2.0000      -1.382881       -37.6301
  11   2.0000      -1.302546       -35.4441
  12   2.0000      -1.269043       -34.5324
  13   2.0000      -1.240938       -33.7676
  14   2.0000      -1.149355       -31.2755
  15   2.0000      -1.102448       -29.9991
  16   2.0000      -1.082110       -29.4457
  17   2.0000      -1.017183       -27.6790
  18   2.0000      -0.962470       -26.1901
  19   2.0000      -0.953258       -25.9395
  20   2.0000      -0.945390       -25.7254
  21   2.0000      -0.932801       -25.3828
  22   2.0000      -0.906792       -24.6751
  23   2.0000      -0.873028       -23.7563
  24   2.0000      -0.868106       -23.6224
  25   2.0000      -0.830884       -22.6095
  26   2.0000      -0.821608       -22.3571
  27   2.0000      -0.808167       -21.9913
  28   2.0000      -0.793437       -21.5905
  29   2.0000      -0.776232       -21.1223
  30   2.0000      -0.762492       -20.7485
  31   2.0000      -0.636740       -17.3266
  32   2.0000      -0.634093       -17.2545
  33   0.0000      -0.240043        -6.5319
  34   0.0000      -0.234752        -6.3879
  35   0.0000      -0.132856        -3.6152
  36   0.0000      -0.072287        -1.9670
  37   0.0000      -0.037008        -1.0070

MULLIKEN ATOMIC CHARGES
-----------------------
   0 C :   -0.188310
   1 C :   -0.145962
   2 C :   -0.262988
   3 C :    0.230054
   4 C :   -0.309152
   5 C :   -0.137909
   6 C :   -0.252632
   7 C :   -0.041415
   8 O :   -0.562523
   9 H :    0.159919
  10 H :    0.159223
  11 H :    0.159039
  12 H :    0.156142
  13 H :    0.159155
  14 H :    0.143051
  15 H :    0.130426
  16 H :    0.120861
  17 H :    0.122587
  18 H :    0.360434
Sum of atomic charges:   -0.0000000

LOEWDIN ATOMIC CHARGES
----------------------
   0 C :   -0.158091
   1 C :   -0.150379
   2 C :   -0.119054
   3 C :   -0.153837
   4 C :   -0.126810
   5 C :   -0.150639
   6 C :   -0.223816
   7 C :   -0.321273
   8 O :   -0.095804
   9 H :    0.149258
  10 H :    0.150291
  11 H :    0.154384
  12 H :    0.152615
  13 H :    0.150283
  14 H :    0.148445
  15 H :    0.153895
  16 H :    0.121522
  17 H :    0.129391
  18 H :    0.189620

  Mayer bond orders larger than 0.100000
B(  0-C ,  1-C ) :   1.3938 B(  0-C ,  5-C ) :   1.4041 B(  0-C ,  9-H ) :   0.9751
B(  1-C ,  2-C ) :   1.4278 B(  1-C , 10-H ) :   0.9775 B(  2-C ,  3-C ) :   1.3481
B(  2-C , 11-H ) :   0.9788 B(  3-C ,  4-C ) :   1.3710 B(  3-C ,  6-C ) :   0.8963
B(  4-C ,  5-C ) :   1.4212 B(  4-C , 12-H ) :   0.9764 B(  5-C , 13-H ) :   0.9775
B(  6-C ,  7-C ) :   0.9890 B(  6-C , 14-H ) :   0.9863 B(  6-C , 15-H ) :   0.9628
B(  7-C ,  8-O ) :   0.9801 B(  7-C , 16-H ) :   0.9807 B(  7-C , 17-H ) :   0.9688
B(  8-O , 18-H ) :   0.8670

FINAL SINGLE POINT ENERGY      -386.120650369659

DIPOLE MOMENT
-------------

Method             : SCF
Type of density    : Electron Density
Multiplicity       :   1
Irrep              :   0
Energy             :  -386.1315437894588172 Eh
Relativity type    :
Basis              : AO
                                X                 Y                 Z
Electronic contribution:     -2.592621188       0.750250771      -0.840873412
Nuclear contribution   :      2.939248248      -0.657441317       1.813932299
                        -----------------------------------------
Total Dipole Moment    :      0.346627060       0.092809453       0.973058887
                        -----------------------------------------
Magnitude (a.u.)       :      1.037114994
Magnitude (Debye)      :      2.636136817

Rotational constants in cm-1:             0.111507             0.035562             0.031648
Rotational constants in MHz :          3342.888530          1066.115697           948.793098

                             ****ORCA TERMINATED NORMALLY****
TOTAL RUN TIME: 0 days 0 hours 2 minutes 57 seconds 159 msec
