                         Program Version 6.0.0  -   RELEASE  -
|  1> ! r2scan-3c def2/J RI DEFGRID2 scfconv6 printgap
|  2> %output
|  3>     printlevel normal
|  4> end
|  5> * xyz 0 1
|  6> C -3.1447056765 -0.1910834434 0.4239824777
|  7> C -2.1602101735 0.4439004489 -0.5521121782
|  8> C -0.8509390589 -0.3386792901 -0.6777082453
|  9> C 0.0686062168 -0.2109484192 0.5411134385
| 10> C 1.227360546 -1.2107638994 0.4869443755
| 11> C 2.2438883818 -0.5724398324 -0.46315408
| 12> C 2.0370593496 0.9469120941 -0.325726716
| 13> C 0.8073455358 1.1308185577 0.5776043192
| 14> H -4.0741896555 0.3731384715 0.4428093442
| 15> H -3.3691264998 -1.2130086413 0.1260607761
| 16> H -2.7404834258 -0.2094827537 1.4328257085
| 17> H -2.6299363188 0.4940781008 -1.5372590581
| 18> H -1.9499277403 1.467826174 -0.2373135652
| 19> H -1.0929530397 -1.3932196118 -0.8314157819
| 20> H -0.3146443674 0.0091164277 -1.5616492777
| 21> H -0.5229856658 -0.3586277621 1.4474754352
| 22> H 1.6624465521 -1.3113937741 1.4827126213
| 23> H 0.9127902334 -2.1982526539 0.1519994723
| 24> H 3.2622883213 -0.8676264648 -0.2141815411
| 25> H 2.0488502618 -0.8917726273 -1.4869417675
| 26> H 2.9112711959 1.4292259115 0.1100144713
| 27> H 1.868406119 1.3998132672 -1.3025455609
| 28> H 1.1241324097 1.3392423597 1.6005366605
| 29> H 0.1821904939 1.9581591022 0.2464612344
| 30> *
| 31>
| 32>                          ****END OF INPUT****

CARTESIAN COORDINATES (ANGSTROEM)
---------------------------------
  C     -3.144706   -0.191083    0.423982
  C     -2.160210    0.443900   -0.552112
  C     -0.850939   -0.338679   -0.677708
  C      0.068606   -0.210948    0.541113
  C      1.227361   -1.210764    0.486944
  C      2.243888   -0.572440   -0.463154
  C      2.037059    0.946912   -0.325727
  C      0.807346    1.130819    0.577604
  H     -4.074190    0.373138    0.442809
  H     -3.369126   -1.213009    0.126061
  H     -2.740483   -0.209483    1.432826
  H     -2.629936    0.494078   -1.537259
  H     -1.949928    1.467826   -0.237314
  H     -1.092953   -1.393220   -0.831416
  H     -0.314644    0.009116   -1.561649
  H     -0.522986   -0.358628    1.447475
  H      1.662447   -1.311394    1.482713
  H      0.912790   -2.198253    0.151999
  H      3.262288   -0.867626   -0.214182
  H      2.048850   -0.891773   -1.486942
  H      2.911271    1.429226    0.110014
  H      1.868406    1.399813   -1.302546
  H      1.124132    1.339242    1.600537
  H      0.182190    1.958159    0.246461

 Total Charge           Charge          ....    0
 Multiplicity           Mult            ....    1
 Number of Electrons    NEL             ....   64
 Basis Dimension        Dim             ....  232

ORBITAL ENERGIES
----------------

  NO   OCC          E(Eh)            E(eV)
   0   2.0000     -10.023661      -272.7577
   1   2.0000     -10.021660      -272.7032
   2   2.0000     -10.018182      -272.6086
   3   2.0000     -10.017849      -272.5995
   4   2.0000     -10.017340      -272.5857
   5   2.0000     -10.016835      -272.5719
   6   2.0000     -10.016325      -272.5581
   7   2.0000     -10.013220      -272.4736
   8   2.0000      -0.806247       -21.9391
   9   2.0000      -0.747128       -20.3304
  10   2.0000      -0.682459       -18.5707
  11   2.0000      -0.671163       -18.2633
  12   2.0000      -0.628690       -17.1075
  13   2.0000      -0.556537       -15.1441
  14   2.0000      -0.524853       -14.2820
  15   2.0000      -0.502701       -13.6792
  16   2.0000      -0.455610       -12.3978
  17   2.0000      -0.443052       -12.0561
  18   2.0000      -0.414453       -11.2778
  19   2.0000      -0.397000       -10.8029
  20   2.0000      -0.388955       -10.5840
  21   2.0000      -0.368742       -10.0340
  22   2.0000      -0.353583        -9.6215
  23   2.0000      -0.322092        -8.7646
  24   2.0000      -0.315502        -8.5852
  25   2.0000      -0.312001        -8.4900
  26   2.0000      -0.301879        -8.2145
  27   2.0000      -0.298915        -8.1339
  28   2.0000      -0.284856        -7.7513
  29   2.0000      -0.280474        -7.6321
  30   2.0000      -0.273728        -7.4485
  31   2.0000      -0.268012        -7.2930
  32   0.0000       0.075865         2.0644
  33   0.0000       0.094794         2.5795
  34   0.0000       0.103187         2.8079
  35   0.0000       0.114047         3.1034
  36   0.0000       0.123018         3.3475

MULLIKEN ATOMIC CHARGES
-----------------------
   0 C :   -0.490839
   1 C :   -0.221695
   2 C :   -0.315540
   3 C :    0.023061
   4 C :   -0.354581
   5 C :   -0.317485
   6 C :   -0.340698
   7 C :   -0.374721
   8 H :    0.146796
   9 H :    0.142789
  10 H :    0.144665
  11 H :    0.143119
  12 H :    0.128137
  13 H :    0.141683
  14 H :    0.149517
  15 H :    0.153725
  16 H :    0.158374
  17 H :    0.151629
  18 H :    0.151649
  19 H :    0.159831
  20 H :    0.152060
  21 H :    0.160807
  22 H :    0.157217
  23 H :    0.150502
Sum of atomic charges:    0.0000000

LOEWDIN ATOMIC CHARGES
----------------------
   0 C :   -0.426273
   1 C :   -0.314281
   2 C :   -0.295632
   3 C :   -0.229011
   4 C :   -0.297355
   5 C :   -0.308553
   6 C :   -0.310500
   7 C :   -0.299428
   8 H :    0.150241
   9 H :    0.149536
  10 H :    0.147574
  11 H :    0.151537
  12 H :    0.151686
  13 H :    0.157540
  14 H :    0.160876
  15 H :    0.159947
  16 H :    0.157105
  17 H :    0.158037
  18 H :    0.155346
  19 H :    0.154867
  20 H :    0.156336
  21 H :    0.155071
  22 H :    0.157483
  23 H :    0.157850

  Mayer bond orders larger than 0.100000
B(  0-C ,  1-C ) :   0.9063 B(  0-C ,  8-H ) :   0.9727 B(  0-C ,  9-H ) :   0.9807
B(  0-C , 10-H ) :   0.9843 B(  1-C ,  2-C ) :   0.9063 B(  1-C , 11-H ) :   0.9672
B(  1-C , 12-H ) :   0.9797 B(  2-C ,  3-C ) :   0.9510 B(  2-C , 13-H ) :   0.9796
B(  2-C , 14-H ) :   0.9600 B(  3-C ,  4-C ) :   0.8702 B(  3-C ,  7-C ) :   0.8710
B(  3-C , 15-H ) :   0.9516 B(  4-C ,  5-C ) :   0.9022 B(  4-C , 16-H ) :   0.9917
B(  4-C , 17-H ) :   0.9761 B(  5-C ,  6-C ) :   0.9194 B(  5-C , 18-H ) :   0.9654
B(  5-C , 19-H ) :   0.9923 B(  6-C ,  7-C ) :   0.9154 B(  6-C , 20-H ) :   0.9723
B(  6-C , 21-H ) :   0.9947 B(  7-C , 22-H ) :   0.9730 B(  7-C , 23-H ) :   0.9724

Dispersion correction           -0.007143374
FINAL SINGLE POINT ENERGY      -314.380401642679

DIPOLE MOMENT
-------------

Method             : SCF
Type of density    : Electron Density
Multiplicity       :   1
Irrep              :   0
Energy             :  -314.3835938020959588 Eh
Relativity type    :
Basis              : AO
                                X                 Y                 Z
Electronic contribution:      2.542216838      -0.017021756       0.121554063
Nuclear contribution   :     -2.553558889       0.025532600      -0.122346619
                        -----------------------------------------
Total Dipole Moment    :     -0.011342051       0.008510845      -0.000792556
                        -----------------------------------------
Magnitude (a.u.)       :      0.014202279
Magnitude (Debye)      :      0.036099325

Rotational constants in cm-1:             0.139542             0.037961             0.035367
Rotational constants in MHz :          4183.372943          1138.040760          1060.282806

                             ****ORCA TERMINATED NORMALLY****
TOTAL RUN TIME: 0 days 0 hours 0 minutes 25 seconds 114 msec
