                         Program Version 6.0.0  -   RELEASE  -
|  1> ! r2scan-3c def2/J RI DEFGRID2 scfconv6 printgap
|  2> %output
|  3>     printlevel normal
|  4> end
|  5> %cpcm
|  6>     smd true
|  7>     smdsolvent "water"
|  8> end
|  9> * xyz 0 1
| 10> C -3.1447056765 -0.1910834434 0.4239824777
| 11> C -2.1602101735 0.4439004489 -0.5521121782
| 12> C -0.8509390589 -0.3386792901 -0.6777082453
| 13> C 0.0686062168 -0.2109484192 0.5411134385
| 14> C 1.227360546 -1.2107638994 0.4869443755
| 15> C 2.2438883818 -0.5724398324 -0.46315408
| 16> C 2.0370593496 0.9469120941 -0.325726716
| 17> C 0.8073455358 1.1308185577 0.5776043192
| 18> H -4.0741896555 0.3731384715 0.4428093442
| 19> H -3.3691264998 -1.2130086413 0.1260607761
| 20> H -2.7404834258 -0.2094827537 1.4328257085
| 21> H -2.6299363188 0.4940781008 -1.5372590581
| 22> H -1.9499277403 1.467826174 -0.2373135652
| 23> H -1.0929530397 -1.3932196118 -0.8314157819
| 24> H -0.3146443674 0.0091164277 -1.5616492777
| 25> H -0.5229856658 -0.3586277621 1.4474754352
| 26> H 1.6624465521 -1.3113937741 1.4827126213
| 27> H 0.9127902334 -2.1982526539 0.1519994723
| 28> H 3.2622883213 -0.8676264648 -0.2141815411
| 29> H 2.0488502618 -0.8917726273 -1.4869417675
| 30> H 2.9112711959 1.4292259115 0.1100144713
| 31> H 1.868406119 1.3998132672 -1.3025455609
| 32> H 1.1241324097 1.3392423597 1.6005366605
| 33> H 0.1821904939 1.9581591022 0.2464612344
| 34> *
| 35>
| 36>                          ****END OF INPUT****

CARTESIAN COORDINATES (ANGSTROEM)
---------------------------------
  C     -3.144706   -0.191083    0.423982
  C     -2.160210    0.443900   -0.552112
  C     -0.850939   -0.338679   -0.677708
  C      0.068606   -0.210948    0.541113
  C      1.227361   -1.210764    0.486944
  C      2.243888   -0.572440   -0.463154
  C      2.037059    0.946912   -0.325727
  C      0.807346    1.130819    0.577604
  H     -4.074190    0.373138    0.442809
  H     -3.369126   -1.213009    0.126061
  H     -2.740483   -0.209483    1.432826
  H     -2.629936    0.494078   -1.537259
  H     -1.949928    1.467826   -0.237314
  H     -1.092953   -1.393220   -0.831416
  H     -0.314644    0.009116   -1.561649
  H     -0.522986   -0.358628    1.447475
  H      1.662447   -1.311394    1.482713
  H      0.912790   -2.198253    0.151999
  H      3.262288   -0.867626   -0.214182
  H      2.048850   -0.891773   -1.486942
  H      2.911271    1.429226    0.110014
  H      1.868406    1.399813   -1.302546
  H      1.124132    1.339242    1.600537
  H      0.182190    1.958159    0.246461

 Total Charge           Charge          ....    0
 Multiplicity           Mult            ....    1
 Number of Electrons    NEL             ....   64
 Basis Dimension        Dim             ....  232

ORBITAL ENERGIES
----------------

  NO   OCC          E(Eh)            E(eV)
   0   2.0000     -10.016463      -272.5618
   1   2.0000     -10.014236      -272.5012
   2   2.0000     -10.011081      -272.4154
   3   2.0000     -10.010893      -272.4102
   4   2.0000     -10.010272      -272.3934
   5   2.0000     -10.009573      -272.3743
   6   2.0000     -10.009557      -272.3739
   7   2.0000     -10.006033      -272.2780
   8   2.0000      -0.799369       -21.7519
   9   2.0000      -0.740109       -20.1394
  10   2.0000      -0.675794       -18.3893
  11   2.0000      -0.664713       -18.0878
  12   2.0000      -0.621883       -16.9223
  13   2.0000      -0.549668       -14.9572
  14   2.0000      -0.518628       -14.1126
  15   2.0000      -0.495777       -13.4908
  16   2.0000      -0.448715       -12.2101
  17   2.0000      -0.436090       -11.8666
  18   2.0000      -0.407314       -11.0836
  19   2.0000      -0.390050       -10.6138
  20   2.0000      -0.381857       -10.3909
  21   2.0000      -0.361584        -9.8392
  22   2.0000      -0.346495        -9.4286
  23   2.0000      -0.314992        -8.5714
  24   2.0000      -0.308580        -8.3969
  25   2.0000      -0.304898        -8.2967
  26   2.0000      -0.295535        -8.0419
  27   2.0000      -0.292436        -7.9576
  28   2.0000      -0.277736        -7.5576
  29   2.0000      -0.273312        -7.4372
  30   2.0000      -0.266442        -7.2503
  31   2.0000      -0.260784        -7.0963
  32   0.0000       0.084088         2.2882
  33   0.0000       0.102337         2.7847
  34   0.0000       0.110213         2.9990
  35   0.0000       0.120136         3.2691
  36   0.0000       0.129742         3.5305

MULLIKEN ATOMIC CHARGES
-----------------------
   0 C :   -0.530372
   1 C :   -0.239326
   2 C :   -0.324099
   3 C :    0.016608
   4 C :   -0.374637
   5 C :   -0.336407
   6 C :   -0.352970
   7 C :   -0.398412
   8 H :    0.156282
   9 H :    0.153544
  10 H :    0.156882
  11 H :    0.150514
  12 H :    0.139495
  13 H :    0.150613
  14 H :    0.157906
  15 H :    0.164297
  16 H :    0.167194
  17 H :    0.160163
  18 H :    0.159550
  19 H :    0.167510
  20 H :    0.160196
  21 H :    0.168445
  22 H :    0.165191
  23 H :    0.161834
Sum of atomic charges:    0.0000000

LOEWDIN ATOMIC CHARGES
----------------------
   0 C :   -0.435249
   1 C :   -0.317355
   2 C :   -0.298557
   3 C :   -0.229447
   4 C :   -0.302144
   5 C :   -0.312938
   6 C :   -0.314642
   7 C :   -0.303556
   8 H :    0.152116
   9 H :    0.151890
  10 H :    0.150480
  11 H :    0.153126
  12 H :    0.154144
  13 H :    0.159527
  14 H :    0.163068
  15 H :    0.162469
  16 H :    0.159018
  17 H :    0.159803
  18 H :    0.156874
  19 H :    0.156567
  20 H :    0.157929
  21 H :    0.157173
  22 H :    0.159170
  23 H :    0.160535

  Mayer bond orders larger than 0.100000
B(  0-C ,  1-C ) :   0.8968 B(  0-C ,  8-H ) :   0.9705 B(  0-C ,  9-H ) :   0.9782
B(  0-C , 10-H ) :   0.9815 B(  1-C ,  2-C ) :   0.8986 B(  1-C , 11-H ) :   0.9672
B(  1-C , 12-H ) :   0.9815 B(  2-C ,  3-C ) :   0.9457 B(  2-C , 13-H ) :   0.9785
B(  2-C , 14-H ) :   0.9586 B(  3-C ,  4-C ) :   0.8669 B(  3-C ,  7-C ) :   0.8683
B(  3-C , 15-H ) :   0.9528 B(  4-C ,  5-C ) :   0.9001 B(  4-C , 16-H ) :   0.9906
B(  4-C , 17-H ) :   0.9743 B(  5-C ,  6-C ) :   0.9150 B(  5-C , 18-H ) :   0.9646
B(  5-C , 19-H ) :   0.9906 B(  6-C ,  7-C ) :   0.9127 B(  6-C , 20-H ) :   0.9718
B(  6-C , 21-H ) :   0.9924 B(  7-C , 22-H ) :   0.9719 B(  7-C , 23-H ) :   0.9716

Dispersion correction           -0.007143374
FINAL SINGLE POINT ENERGY      -314.377804793197

DIPOLE MOMENT
-------------

Method             : SCF
Type of density    : Electron Density
Multiplicity       :   1
Irrep              :   0
Energy             :  -314.3809969526138843 Eh
Relativity type    :
Basis              : AO
                                X                 Y                 Z
Electronic contribution:      2.533609374      -0.009070806       0.121921440
Nuclear contribution   :     -2.553558889       0.025532600      -0.122346619
                        -----------------------------------------
Total Dipole Moment    :     -0.019949515       0.016461794      -0.000425179
                        -----------------------------------------
Magnitude (a.u.)       :      0.025868023
Magnitude (Debye)      :      0.065751289

Rotational constants in cm-1:             0.139542             0.037961             0.035367
Rotational constants in MHz :          4183.372943          1138.040760          1060.282806

                             ****ORCA TERMINATED NORMALLY****
TOTAL RUN TIME: 0 days 0 hours 0 minutes 30 seconds 602 msec
