                         Program Version 6.0.0  -   RELEASE  -
|  1> ! pbe def2-sv(p) def2/J RI DEFGRID1 loosescf d4 GCP(DFT/SV(P)) printgap
|  2> %output
|  3>     printlevel normal
|  4> end
|  5> * xyz 0 1
|  6> C 1.4763216538 0.912547425 -0.9472134427
|  7> C 1.3839191124 0.1205344081 0.3550750862
|  8> C 1.6598687391 -1.3593517762 0.108375911
|  9> C 0.0129102363 0.330824356 1.0354375056
| 10> C -1.1428945658 -0.0004937753 0.121310341
| 11> O -1.3939144047 -1.1377704813 -0.2304210599
| 12> C -1.9713070772 1.1708964627 -0.3162998027
| 13> H 1.2652645602 1.965435693 -0.775788865
| 14> H 2.4767376916 0.8295721824 -1.364890388
| 15> H 0.7697086701 0.5246816776 -1.6784920991
| 16> H 2.1428772467 0.5024880062 1.0468437663
| 17> H 1.6897120064 -1.9065810054 1.0477865018
| 18> H 2.6146465793 -1.4866942461 -0.3958958234
| 19> H 0.8800906571 -1.7944934899 -0.5128872615
| 20> H -0.0671603231 1.364332451 1.3689574644
| 21> H -0.0392655353 -0.3320600461 1.9012375809
| 22> H -1.3321207827 1.9301993814 -0.7587895806
| 23> H -2.7295059703 0.856901802 -1.0286852272
| 24> H -2.4518460512 1.6053854756 0.5577355751
| 25> *
| 26>
| 27>                          ****END OF INPUT****

CARTESIAN COORDINATES (ANGSTROEM)
---------------------------------
  C      1.476322    0.912547   -0.947213
  C      1.383919    0.120534    0.355075
  C      1.659869   -1.359352    0.108376
  C      0.012910    0.330824    1.035438
  C     -1.142895   -0.000494    0.121310
  O     -1.393914   -1.137770   -0.230421
  C     -1.971307    1.170896   -0.316300
  H      1.265265    1.965436   -0.775789
  H      2.476738    0.829572   -1.364890
  H      0.769709    0.524682   -1.678492
  H      2.142877    0.502488    1.046844
  H      1.689712   -1.906581    1.047787
  H      2.614647   -1.486694   -0.395896
  H      0.880091   -1.794493   -0.512887
  H     -0.067160    1.364332    1.368957
  H     -0.039266   -0.332060    1.901238
  H     -1.332121    1.930199   -0.758790
  H     -2.729506    0.856902   -1.028685
  H     -2.451846    1.605385    0.557736

 Total Charge           Charge          ....    0
 Multiplicity           Mult            ....    1
 Number of Electrons    NEL             ....   56
 Basis Dimension        Dim             ....  122

ORBITAL ENERGIES
----------------

  NO   OCC          E(Eh)            E(eV)
   0   2.0000     -18.736565      -509.8479
   1   2.0000      -9.973172      -271.3838
   2   2.0000      -9.907403      -269.5942
   3   2.0000      -9.890406      -269.1316
   4   2.0000      -9.885394      -268.9952
   5   2.0000      -9.879593      -268.8374
   6   2.0000      -9.867338      -268.5039
   7   2.0000      -0.933895       -25.4126
   8   2.0000      -0.738507       -20.0958
   9   2.0000      -0.679644       -18.4941
  10   2.0000      -0.626522       -17.0485
  11   2.0000      -0.611306       -16.6345
  12   2.0000      -0.517646       -14.0859
  13   2.0000      -0.458000       -12.4628
  14   2.0000      -0.434562       -11.8250
  15   2.0000      -0.414782       -11.2868
  16   2.0000      -0.402866       -10.9625
  17   2.0000      -0.386537       -10.5182
  18   2.0000      -0.378547       -10.3008
  19   2.0000      -0.364163        -9.9094
  20   2.0000      -0.344838        -9.3835
  21   2.0000      -0.333314        -9.0699
  22   2.0000      -0.327751        -8.9186
  23   2.0000      -0.311289        -8.4706
  24   2.0000      -0.294813        -8.0223
  25   2.0000      -0.291017        -7.9190
  26   2.0000      -0.287456        -7.8221
  27   2.0000      -0.192352        -5.2342
  28   0.0000      -0.051642        -1.4052
  29   0.0000       0.026626         0.7245
  30   0.0000       0.060041         1.6338
  31   0.0000       0.078486         2.1357
  32   0.0000       0.082256         2.2383

MULLIKEN ATOMIC CHARGES
-----------------------
   0 C :   -0.264106
   1 C :   -0.197409
   2 C :   -0.249513
   3 C :   -0.099141
   4 C :   -0.026873
   5 O :   -0.170094
   6 C :   -0.257810
   7 H :    0.100818
   8 H :    0.105385
   9 H :    0.116438
  10 H :    0.080004
  11 H :    0.096331
  12 H :    0.094919
  13 H :    0.124127
  14 H :    0.079648
  15 H :    0.103180
  16 H :    0.121857
  17 H :    0.115284
  18 H :    0.126954
Sum of atomic charges:   -0.0000000

LOEWDIN ATOMIC CHARGES
----------------------
   0 C :   -0.334401
   1 C :   -0.143400
   2 C :   -0.336468
   3 C :   -0.241393
   4 C :    0.043846
   5 O :   -0.132590
   6 C :   -0.362464
   7 H :    0.115119
   8 H :    0.122201
   9 H :    0.121238
  10 H :    0.116950
  11 H :    0.117772
  12 H :    0.115853
  13 H :    0.126592
  14 H :    0.119349
  15 H :    0.138036
  16 H :    0.137939
  17 H :    0.132117
  18 H :    0.143702

  Mayer bond orders larger than 0.100000
B(  0-C ,  1-C ) :   1.1136 B(  0-C ,  7-H ) :   0.9454 B(  0-C ,  8-H ) :   0.9473
B(  0-C ,  9-H ) :   0.9390 B(  1-C ,  2-C ) :   1.1164 B(  1-C ,  3-C ) :   1.0719
B(  1-C , 10-H ) :   0.9067 B(  2-C , 11-H ) :   0.9495 B(  2-C , 12-H ) :   0.9476
B(  2-C , 13-H ) :   0.9332 B(  3-C ,  4-C ) :   0.9752 B(  3-C , 14-H ) :   0.9086
B(  3-C , 15-H ) :   0.8916 B(  4-C ,  5-O ) :   2.1511 B(  4-C ,  6-C ) :   1.0798
B(  6-C , 16-H ) :   0.9232 B(  6-C , 17-H ) :   0.9351 B(  6-C , 18-H ) :   0.9195

Dispersion correction           -0.015615762
FINAL SINGLE POINT ENERGY      -310.354651911460

DIPOLE MOMENT
-------------

Method             : SCF
Type of density    : Electron Density
Multiplicity       :   1
Irrep              :   0
Energy             :  -310.4192143344761803 Eh
Relativity type    :
Basis              : AO
                                X                 Y                 Z
Electronic contribution:     -4.576783895      -2.892480221       0.837056028
Nuclear contribution   :      4.875736379       3.791291843      -0.559626576
                        -----------------------------------------
Total Dipole Moment    :      0.298952484       0.898811622       0.277429452
                        -----------------------------------------
Magnitude (a.u.)       :      0.987016728
Magnitude (Debye)      :      2.508797144

Rotational constants in cm-1:             0.126831             0.064989             0.054134
Rotational constants in MHz :          3802.309443          1948.328618          1622.903382

                             ****ORCA TERMINATED NORMALLY****
TOTAL RUN TIME: 0 days 0 hours 0 minutes 9 seconds 615 msec
