                         Program Version 6.0.0  -   RELEASE  -
|  1> ! pbe def2-sv(p) def2/J RI DEFGRID1 loosescf d4 GCP(DFT/SV(P)) printgap
|  2> %output
|  3>     printlevel normal
|  4> end
|  5> * xyz 0 1
|  6> C -2.655768131 -0.3337006864 -0.7443117088
|  7> C -1.9979081748 0.5817045774 0.281114015
|  8> C -0.7708057485 -0.0590411393 0.9396802876
|  9> C 0.4310685624 -0.1091387601 0.0316360814
| 10> O 0.4240224395 -0.3745904252 -1.151451454
| 11> O 1.5401863525 0.1730225973 0.7108441478
| 12> C 2.8000831408 0.1478994404 0.0324194945
| 13> H -3.5049034399 0.1645052619 -1.204667416
| 14> H -1.944764997 -0.5976568418 -1.5227275124
| 15> H -3.0061139995 -1.247704228 -0.2703315212
| 16> H -2.7175763316 0.8233857861 1.064600758
| 17> H -1.7003190576 1.5142495025 -0.2021623188
| 18> H -1.0086467644 -1.0878822485 1.2200761214
| 19> H -0.4803903372 0.4838096218 1.8389606966
| 20> H 3.4670005632 -0.4858164452 0.6127339724
| 21> H 3.1837748806 1.1661073183 -0.008040409
| 22> H 2.6697018604 -0.2470584826 -0.975759985
| 23> *
| 24>
| 25>                          ****END OF INPUT****

CARTESIAN COORDINATES (ANGSTROEM)
---------------------------------
  C     -2.655768   -0.333701   -0.744312
  C     -1.997908    0.581705    0.281114
  C     -0.770806   -0.059041    0.939680
  C      0.431069   -0.109139    0.031636
  O      0.424022   -0.374590   -1.151451
  O      1.540186    0.173023    0.710844
  C      2.800083    0.147899    0.032419
  H     -3.504903    0.164505   -1.204667
  H     -1.944765   -0.597657   -1.522728
  H     -3.006114   -1.247704   -0.270332
  H     -2.717576    0.823386    1.064601
  H     -1.700319    1.514250   -0.202162
  H     -1.008647   -1.087882    1.220076
  H     -0.480390    0.483810    1.838961
  H      3.467001   -0.485816    0.612734
  H      3.183775    1.166107   -0.008040
  H      2.669702   -0.247058   -0.975760

 Total Charge           Charge          ....    0
 Multiplicity           Mult            ....    1
 Number of Electrons    NEL             ....   56
 Basis Dimension        Dim             ....  118

ORBITAL ENERGIES
----------------

  NO   OCC          E(Eh)            E(eV)
   0   2.0000     -18.799749      -511.5672
   1   2.0000     -18.734441      -509.7900
   2   2.0000     -10.007889      -272.3285
   3   2.0000      -9.940195      -270.4865
   4   2.0000      -9.897877      -269.3349
   5   2.0000      -9.890306      -269.1289
   6   2.0000      -9.866207      -268.4732
   7   2.0000      -1.005199       -27.3529
   8   2.0000      -0.911385       -24.8001
   9   2.0000      -0.722664       -19.6647
  10   2.0000      -0.672745       -18.3063
  11   2.0000      -0.615578       -16.7507
  12   2.0000      -0.536606       -14.6018
  13   2.0000      -0.502006       -13.6603
  14   2.0000      -0.452668       -12.3177
  15   2.0000      -0.434191       -11.8149
  16   2.0000      -0.420450       -11.4410
  17   2.0000      -0.398113       -10.8332
  18   2.0000      -0.385963       -10.5026
  19   2.0000      -0.374981       -10.2038
  20   2.0000      -0.350990        -9.5509
  21   2.0000      -0.335984        -9.1426
  22   2.0000      -0.304360        -8.2821
  23   2.0000      -0.299952        -8.1621
  24   2.0000      -0.296022        -8.0552
  25   2.0000      -0.291226        -7.9247
  26   2.0000      -0.256964        -6.9923
  27   2.0000      -0.219487        -5.9725
  28   0.0000      -0.020176        -0.5490
  29   0.0000       0.044762         1.2180
  30   0.0000       0.060929         1.6580
  31   0.0000       0.078940         2.1481
  32   0.0000       0.084230         2.2920

MULLIKEN ATOMIC CHARGES
-----------------------
   0 C :   -0.293865
   1 C :   -0.183518
   2 C :   -0.155224
   3 C :    0.102945
   4 O :   -0.197105
   5 O :   -0.241659
   6 C :   -0.132611
   7 H :    0.099386
   8 H :    0.130665
   9 H :    0.091263
  10 H :    0.089987
  11 H :    0.095942
  12 H :    0.114738
  13 H :    0.100902
  14 H :    0.122378
  15 H :    0.122220
  16 H :    0.133557
Sum of atomic charges:   -0.0000000

LOEWDIN ATOMIC CHARGES
----------------------
   0 C :   -0.349760
   1 C :   -0.225220
   2 C :   -0.248783
   3 C :    0.041731
   4 O :   -0.166431
   5 O :   -0.075746
   6 C :   -0.210173
   7 H :    0.117611
   8 H :    0.127064
   9 H :    0.113730
  10 H :    0.117952
  11 H :    0.119868
  12 H :    0.142348
  13 H :    0.130871
  14 H :    0.120652
  15 H :    0.120264
  16 H :    0.124022

  Mayer bond orders larger than 0.100000
B(  0-C ,  1-C ) :   1.1479 B(  0-C ,  7-H ) :   0.9501 B(  0-C ,  8-H ) :   0.9423
B(  0-C ,  9-H ) :   0.9537 B(  1-C ,  2-C ) :   1.0994 B(  1-C , 10-H ) :   0.9290
B(  1-C , 11-H ) :   0.9326 B(  2-C ,  3-C ) :   1.0181 B(  2-C , 12-H ) :   0.8932
B(  2-C , 13-H ) :   0.9099 B(  3-C ,  4-O ) :   2.0488 B(  3-C ,  5-O ) :   1.2177
B(  5-O ,  6-C ) :   0.9367 B(  6-C , 14-H ) :   0.9608 B(  6-C , 15-H ) :   0.9607
B(  6-C , 16-H ) :   0.9289

Dispersion correction           -0.012148603
FINAL SINGLE POINT ENERGY      -346.238343244454

DIPOLE MOMENT
-------------

Method             : SCF
Type of density    : Electron Density
Multiplicity       :   1
Irrep              :   0
Energy             :  -346.3036196264924342 Eh
Relativity type    :
Basis              : AO
                                X                 Y                 Z
Electronic contribution:      5.053290168      -0.289723779       0.064072379
Nuclear contribution   :     -4.701340292       0.452903785       0.511975974
                        -----------------------------------------
Total Dipole Moment    :      0.351949876       0.163180006       0.576048353
                        -----------------------------------------
Magnitude (a.u.)       :      0.694498477
Magnitude (Debye)      :      1.765274840

Rotational constants in cm-1:             0.228938             0.047151             0.041451
Rotational constants in MHz :          6863.385719          1413.556293          1242.660069

                             ****ORCA TERMINATED NORMALLY****
TOTAL RUN TIME: 0 days 0 hours 0 minutes 10 seconds 30 msec
