                         Program Version 6.0.0  -   RELEASE  -
|  1> ! pbe def2-sv(p) def2/J RI DEFGRID1 loosescf d4 GCP(DFT/SV(P)) printgap
|  2> %output
|  3>     printlevel normal
|  4> end
|  5> * xyz 0 1
|  6> C -2.7619080324 0.3089986123 0.0063718975
|  7> C -1.342988091 0.0683446222 -0.4918426059
|  8> C -0.3392768684 0.0764507381 0.6715215005
|  9> C 1.043714907 -0.1748582026 0.1410588488
| 10> O 1.6252152733 -1.2387632453 0.1925265262
| 11> O 1.569784015 0.8952784214 -0.4325665326
| 12> H -3.0564686668 -0.4670049607 0.7083076847
| 13> H -3.4575513883 0.3009772779 -0.8282884044
| 14> H -2.8320628962 1.2716655287 0.5060532027
| 15> H -1.2895230747 -0.8958600383 -1.0018526032
| 16> H -1.0646094381 0.8459051576 -1.2052550982
| 17> H -0.3586476154 1.0512183763 1.1583322925
| 18> H -0.5901930935 -0.7056875503 1.3872110537
| 19> H 2.4539297858 0.7272138119 -0.8121424932
| 20> *
| 21>
| 22>                          ****END OF INPUT****

CARTESIAN COORDINATES (ANGSTROEM)
---------------------------------
  C     -2.761908    0.308999    0.006372
  C     -1.342988    0.068345   -0.491843
  C     -0.339277    0.076451    0.671522
  C      1.043715   -0.174858    0.141059
  O      1.625215   -1.238763    0.192527
  O      1.569784    0.895278   -0.432567
  H     -3.056469   -0.467005    0.708308
  H     -3.457551    0.300977   -0.828288
  H     -2.832063    1.271666    0.506053
  H     -1.289523   -0.895860   -1.001853
  H     -1.064609    0.845905   -1.205255
  H     -0.358648    1.051218    1.158332
  H     -0.590193   -0.705688    1.387211
  H      2.453930    0.727214   -0.812142

 Total Charge           Charge          ....    0
 Multiplicity           Mult            ....    1
 Number of Electrons    NEL             ....   48
 Basis Dimension        Dim             ....  100

ORBITAL ENERGIES
----------------

  NO   OCC          E(Eh)            E(eV)
   0   2.0000     -18.799501      -511.5604
   1   2.0000     -18.732334      -509.7327
   2   2.0000     -10.010818      -272.4082
   3   2.0000      -9.900441      -269.4047
   4   2.0000      -9.898520      -269.3524
   5   2.0000      -9.882777      -268.9240
   6   2.0000      -1.007549       -27.4168
   7   2.0000      -0.906977       -24.6801
   8   2.0000      -0.728461       -19.8224
   9   2.0000      -0.650556       -17.7025
  10   2.0000      -0.570850       -15.5336
  11   2.0000      -0.534012       -14.5312
  12   2.0000      -0.442433       -12.0392
  13   2.0000      -0.425689       -11.5836
  14   2.0000      -0.407185       -11.0801
  15   2.0000      -0.403453       -10.9785
  16   2.0000      -0.365697        -9.9511
  17   2.0000      -0.351864        -9.5747
  18   2.0000      -0.339908        -9.2494
  19   2.0000      -0.313886        -8.5413
  20   2.0000      -0.306648        -8.3443
  21   2.0000      -0.301077        -8.1927
  22   2.0000      -0.269566        -7.3353
  23   2.0000      -0.215859        -5.8738
  24   0.0000      -0.019701        -0.5361
  25   0.0000       0.022805         0.6206
  26   0.0000       0.047183         1.2839
  27   0.0000       0.076480         2.0811
  28   0.0000       0.080981         2.2036

MULLIKEN ATOMIC CHARGES
-----------------------
   0 C :   -0.246708
   1 C :   -0.239192
   2 C :   -0.140209
   3 C :    0.080611
   4 O :   -0.196328
   5 O :   -0.292959
   6 H :    0.102196
   7 H :    0.108294
   8 H :    0.099916
   9 H :    0.103203
  10 H :    0.103107
  11 H :    0.100890
  12 H :    0.103114
  13 H :    0.314065
Sum of atomic charges:   -0.0000000

LOEWDIN ATOMIC CHARGES
----------------------
   0 C :   -0.338825
   1 C :   -0.225801
   2 C :   -0.242531
   3 C :    0.023040
   4 O :   -0.175959
   5 O :   -0.207974
   6 H :    0.119487
   7 H :    0.122453
   8 H :    0.118656
   9 H :    0.122090
  10 H :    0.120379
  11 H :    0.133159
  12 H :    0.134497
  13 H :    0.297331

  Mayer bond orders larger than 0.100000
B(  0-C ,  1-C ) :   1.1576 B(  0-C ,  6-H ) :   0.9533 B(  0-C ,  7-H ) :   0.9517
B(  0-C ,  8-H ) :   0.9537 B(  1-C ,  2-C ) :   1.1203 B(  1-C ,  9-H ) :   0.9282
B(  1-C , 10-H ) :   0.9264 B(  2-C ,  3-C ) :   1.0179 B(  2-C , 11-H ) :   0.8978
B(  2-C , 12-H ) :   0.9121 B(  3-C ,  4-O ) :   2.1115 B(  3-C ,  5-O ) :   1.2600
B(  5-O , 13-H ) :   0.8212

Dispersion correction           -0.009176543
FINAL SINGLE POINT ENERGY      -307.032021287013

DIPOLE MOMENT
-------------

Method             : SCF
Type of density    : Electron Density
Multiplicity       :   1
Irrep              :   0
Energy             :  -307.0869004773857114 Eh
Relativity type    :
Basis              : AO
                                X                 Y                 Z
Electronic contribution:      9.274115754      -1.349566885      -0.134349140
Nuclear contribution   :     -9.517336236       1.991731702      -0.085781775
                        -----------------------------------------
Total Dipole Moment    :     -0.243220482       0.642164817      -0.220130914
                        -----------------------------------------
Magnitude (a.u.)       :      0.721102957
Magnitude (Debye)      :      1.832898054

Rotational constants in cm-1:             0.273170             0.063110             0.056716
Rotational constants in MHz :          8189.441229          1891.993230          1700.297238

                             ****ORCA TERMINATED NORMALLY****
TOTAL RUN TIME: 0 days 0 hours 0 minutes 7 seconds 374 msec
