                         Program Version 6.0.0  -   RELEASE  -
|  1> ! pbe def2-sv(p) def2/J RI DEFGRID1 loosescf d4 GCP(DFT/SV(P)) printgap
|  2> %output
|  3>     printlevel normal
|  4> end
|  5> * xyz 0 1
|  6> C 2.5479941014 -0.1685220421 0.6933321394
|  7> C 1.1278955092 -0.63369585 0.3920153589
|  8> C 0.2332934554 0.5360397666 -0.0253915267
|  9> H 0.3838661867 1.3596739046 0.6933746933
| 10> C -1.2739694555 0.1992369839 -0.0508125705
| 11> C -1.5676413443 -1.0249586199 -0.9154105922
| 12> C -1.8418046044 0.0274714991 1.355707416
| 13> O 0.6776804794 0.9553096542 -1.3073866234
| 14> H 3.1816040208 -1.0182880217 0.9334666049
| 15> H 2.5544144885 0.519235772 1.5362978776
| 16> H 2.9609101799 0.3413727439 -0.1734560017
| 17> H 1.1522362263 -1.352496425 -0.4269857635
| 18> H 0.7054651732 -1.1152778964 1.272972979
| 19> H -1.7733555338 1.063231414 -0.5088979217
| 20> H -2.636448536 -1.1090747924 -1.0962648723
| 21> H -1.057786525 -0.9370823077 -1.8720831553
| 22> H -1.2303702391 -1.933180169 -0.4232545044
| 23> H -2.9206913143 -0.0955686621 1.3050872929
| 24> H -1.6219790349 0.8983799573 1.9689644567
| 25> H -1.4235608436 -0.8506244455 1.8405226619
| 26> H 0.1946148433 1.7497570441 -1.5690667008
| 27> *
| 28>
| 29>                          ****END OF INPUT****

CARTESIAN COORDINATES (ANGSTROEM)
---------------------------------
  C      2.547994   -0.168522    0.693332
  C      1.127896   -0.633696    0.392015
  C      0.233293    0.536040   -0.025392
  H      0.383866    1.359674    0.693375
  C     -1.273969    0.199237   -0.050813
  C     -1.567641   -1.024959   -0.915411
  C     -1.841805    0.027471    1.355707
  O      0.677680    0.955310   -1.307387
  H      3.181604   -1.018288    0.933467
  H      2.554414    0.519236    1.536298
  H      2.960910    0.341373   -0.173456
  H      1.152236   -1.352496   -0.426986
  H      0.705465   -1.115278    1.272973
  H     -1.773356    1.063231   -0.508898
  H     -2.636449   -1.109075   -1.096265
  H     -1.057787   -0.937082   -1.872083
  H     -1.230370   -1.933180   -0.423255
  H     -2.920691   -0.095569    1.305087
  H     -1.621979    0.898380    1.968964
  H     -1.423561   -0.850624    1.840523
  H      0.194615    1.749757   -1.569067

 Total Charge           Charge          ....    0
 Multiplicity           Mult            ....    1
 Number of Electrons    NEL             ....   58
 Basis Dimension        Dim             ....  126

ORBITAL ENERGIES
----------------

  NO   OCC          E(Eh)            E(eV)
   0   2.0000     -18.739415      -509.9254
   1   2.0000      -9.931737      -270.2563
   2   2.0000      -9.893007      -269.2024
   3   2.0000      -9.878365      -268.8040
   4   2.0000      -9.874864      -268.7087
   5   2.0000      -9.867870      -268.5184
   6   2.0000      -9.865363      -268.4502
   7   2.0000      -0.916652       -24.9434
   8   2.0000      -0.725270       -19.7356
   9   2.0000      -0.682598       -18.5744
  10   2.0000      -0.610061       -16.6006
  11   2.0000      -0.594390       -16.1742
  12   2.0000      -0.534638       -14.5482
  13   2.0000      -0.496224       -13.5029
  14   2.0000      -0.456521       -12.4226
  15   2.0000      -0.417402       -11.3581
  16   2.0000      -0.398893       -10.8544
  17   2.0000      -0.377692       -10.2775
  18   2.0000      -0.368883       -10.0378
  19   2.0000      -0.353112        -9.6087
  20   2.0000      -0.340075        -9.2539
  21   2.0000      -0.326187        -8.8760
  22   2.0000      -0.317426        -8.6376
  23   2.0000      -0.302189        -8.2230
  24   2.0000      -0.293802        -7.9948
  25   2.0000      -0.291280        -7.9261
  26   2.0000      -0.281618        -7.6632
  27   2.0000      -0.258577        -7.0362
  28   2.0000      -0.210768        -5.7353
  29   0.0000       0.023282         0.6335
  30   0.0000       0.049373         1.3435
  31   0.0000       0.062578         1.7028
  32   0.0000       0.070992         1.9318
  33   0.0000       0.081828         2.2267

MULLIKEN ATOMIC CHARGES
-----------------------
   0 C :   -0.260140
   1 C :   -0.180863
   2 C :    0.043884
   3 H :    0.047572
   4 C :   -0.155602
   5 C :   -0.251326
   6 C :   -0.255250
   7 O :   -0.420956
   8 H :    0.098545
   9 H :    0.089529
  10 H :    0.110538
  11 H :    0.094833
  12 H :    0.088881
  13 H :    0.051344
  14 H :    0.095831
  15 H :    0.105868
  16 H :    0.101070
  17 H :    0.099953
  18 H :    0.096453
  19 H :    0.104875
  20 H :    0.294963
Sum of atomic charges:   -0.0000000

LOEWDIN ATOMIC CHARGES
----------------------
   0 C :   -0.339679
   1 C :   -0.236488
   2 C :   -0.045026
   3 H :    0.091916
   4 C :   -0.169891
   5 C :   -0.333640
   6 C :   -0.330817
   7 O :   -0.327443
   8 H :    0.117092
   9 H :    0.113686
  10 H :    0.122771
  11 H :    0.123941
  12 H :    0.117555
  13 H :    0.106688
  14 H :    0.117222
  15 H :    0.119610
  16 H :    0.117189
  17 H :    0.120587
  18 H :    0.116003
  19 H :    0.117111
  20 H :    0.281613

  Mayer bond orders larger than 0.100000
B(  0-C ,  1-C ) :   1.1580 B(  0-C ,  8-H ) :   0.9534 B(  0-C ,  9-H ) :   0.9533
B(  0-C , 10-H ) :   0.9493 B(  1-C ,  2-C ) :   1.0724 B(  1-C , 11-H ) :   0.9045
B(  1-C , 12-H ) :   0.9213 B(  2-C ,  3-H ) :   0.9063 B(  2-C ,  4-C ) :   1.0190
B(  2-C ,  7-O ) :   1.0378 B(  4-C ,  5-C ) :   1.1015 B(  4-C ,  6-C ) :   1.0999
B(  4-C , 13-H ) :   0.8956 B(  5-C , 14-H ) :   0.9498 B(  5-C , 15-H ) :   0.9410
B(  5-C , 16-H ) :   0.9457 B(  6-C , 17-H ) :   0.9469 B(  6-C , 18-H ) :   0.9481
B(  6-C , 19-H ) :   0.9433 B(  7-O , 20-H ) :   0.8498

Dispersion correction           -0.016681633
FINAL SINGLE POINT ENERGY      -311.518815093642

DIPOLE MOMENT
-------------

Method             : SCF
Type of density    : Electron Density
Multiplicity       :   1
Irrep              :   0
Energy             :  -311.5985081866675728 Eh
Relativity type    :
Basis              : AO
                                X                 Y                 Z
Electronic contribution:      1.008344233       2.623434330      -3.047182693
Nuclear contribution   :     -1.426346993      -2.312413539       3.246042258
                        -----------------------------------------
Total Dipole Moment    :     -0.418002760       0.311020791       0.198859565
                        -----------------------------------------
Magnitude (a.u.)       :      0.557678551
Magnitude (Debye)      :      1.417506225

Rotational constants in cm-1:             0.118322             0.057106             0.049647
Rotational constants in MHz :          3547.198437          1711.999715          1488.381610

                             ****ORCA TERMINATED NORMALLY****
TOTAL RUN TIME: 0 days 0 hours 0 minutes 9 seconds 339 msec
