                         Program Version 6.0.0  -   RELEASE  -
|  1> ! r2scan-3c def2/J RI DEFGRID2 scfconv6 printgap
|  2> %output
|  3>     printlevel normal
|  4> end
|  5> * xyz 0 1
|  6> C -2.2270918507 0.6906286418 -0.8481871295
|  7> C -1.7830029515 0.5351093864 0.6011869258
|  8> C -0.8898719743 -0.6975938315 0.7936578611
|  9> C 0.4059621002 -0.5527254375 0.0384519284
| 10> O 0.7526682484 -1.2571266162 -0.8875556624
| 11> O 1.1314531568 0.4523944797 0.512066193
| 12> C 2.3920453695 0.7509455423 -0.0938926152
| 13> H -2.8514586156 1.5728059257 -0.9614806654
| 14> H -1.366126161 0.7898885593 -1.5067660942
| 15> H -2.7955632985 -0.1794349678 -1.1681835715
| 16> H -2.6601536946 0.4295092921 1.2403023265
| 17> H -1.2333893823 1.4223482497 0.9185960906
| 18> H -1.393712952 -1.5947846744 0.4346418727
| 19> H -0.6512412579 -0.8093261236 1.8516301058
| 20> H 2.5621545763 0.0871638605 -0.9423274486
| 21> H 3.1656182764 0.6109300688 0.6590305631
| 22> H 2.3640860458 1.7892346832 -0.4186873654
| 23> *
| 24>
| 25>                          ****END OF INPUT****

CARTESIAN COORDINATES (ANGSTROEM)
---------------------------------
  C     -2.227092    0.690629   -0.848187
  C     -1.783003    0.535109    0.601187
  C     -0.889872   -0.697594    0.793658
  C      0.405962   -0.552725    0.038452
  O      0.752668   -1.257127   -0.887556
  O      1.131453    0.452394    0.512066
  C      2.392045    0.750946   -0.093893
  H     -2.851459    1.572806   -0.961481
  H     -1.366126    0.789889   -1.506766
  H     -2.795563   -0.179435   -1.168184
  H     -2.660154    0.429509    1.240302
  H     -1.233389    1.422348    0.918596
  H     -1.393713   -1.594785    0.434642
  H     -0.651241   -0.809326    1.851630
  H      2.562155    0.087164   -0.942327
  H      3.165618    0.610930    0.659031
  H      2.364086    1.789235   -0.418687

 Total Charge           Charge          ....    0
 Multiplicity           Mult            ....    1
 Number of Electrons    NEL             ....   56
 Basis Dimension        Dim             ....  193

ORBITAL ENERGIES
----------------

  NO   OCC          E(Eh)            E(eV)
   0   2.0000     -18.999594      -517.0052
   1   2.0000     -18.928516      -515.0711
   2   2.0000     -10.153197      -276.2825
   3   2.0000     -10.085706      -274.4460
   4   2.0000     -10.041954      -273.2555
   5   2.0000     -10.037730      -273.1405
   6   2.0000     -10.020041      -272.6592
   7   2.0000      -1.073217       -29.2037
   8   2.0000      -0.976125       -26.5617
   9   2.0000      -0.774553       -21.0766
  10   2.0000      -0.710042       -19.3212
  11   2.0000      -0.661089       -17.9892
  12   2.0000      -0.575102       -15.6493
  13   2.0000      -0.533226       -14.5098
  14   2.0000      -0.471166       -12.8211
  15   2.0000      -0.456635       -12.4257
  16   2.0000      -0.440651       -11.9907
  17   2.0000      -0.418646       -11.3919
  18   2.0000      -0.416784       -11.3413
  19   2.0000      -0.382633       -10.4120
  20   2.0000      -0.363380        -9.8881
  21   2.0000      -0.362010        -9.8508
  22   2.0000      -0.328388        -8.9359
  23   2.0000      -0.314065        -8.5461
  24   2.0000      -0.313457        -8.5296
  25   2.0000      -0.310540        -8.4502
  26   2.0000      -0.272013        -7.4018
  27   2.0000      -0.234815        -6.3896
  28   0.0000      -0.015529        -0.4226
  29   0.0000       0.063844         1.7373
  30   0.0000       0.094395         2.5686
  31   0.0000       0.113985         3.1017
  32   0.0000       0.122805         3.3417

MULLIKEN ATOMIC CHARGES
-----------------------
   0 C :   -0.479266
   1 C :   -0.231473
   2 C :   -0.305031
   3 C :    0.375842
   4 O :   -0.430406
   5 O :   -0.192263
   6 C :   -0.299884
   7 H :    0.147339
   8 H :    0.155282
   9 H :    0.149049
  10 H :    0.146093
  11 H :    0.152592
  12 H :    0.167458
  13 H :    0.157667
  14 H :    0.190970
  15 H :    0.148346
  16 H :    0.147684
Sum of atomic charges:   -0.0000000

LOEWDIN ATOMIC CHARGES
----------------------
   0 C :   -0.414752
   1 C :   -0.292640
   2 C :   -0.229829
   3 C :    0.351321
   4 O :   -0.437131
   5 O :   -0.606084
   6 C :   -0.046016
   7 H :    0.151677
   8 H :    0.156482
   9 H :    0.153425
  10 H :    0.153409
  11 H :    0.163381
  12 H :    0.177351
  13 H :    0.179394
  14 H :    0.193911
  15 H :    0.173205
  16 H :    0.172898

  Mayer bond orders larger than 0.100000
B(  0-C ,  1-C ) :   0.9140 B(  0-C ,  7-H ) :   0.9704 B(  0-C ,  8-H ) :   0.9702
B(  0-C ,  9-H ) :   0.9781 B(  1-C ,  2-C ) :   0.8813 B(  1-C , 10-H ) :   0.9643
B(  1-C , 11-H ) :   0.9742 B(  2-C ,  3-C ) :   0.9714 B(  2-C , 12-H ) :   0.9995
B(  2-C , 13-H ) :   0.9454 B(  3-C ,  4-O ) :   1.8577 B(  3-C ,  5-O ) :   1.0379
B(  5-O ,  6-C ) :   0.8400 B(  6-C , 14-H ) :   0.9680 B(  6-C , 15-H ) :   0.9647
B(  6-C , 16-H ) :   0.9644

Dispersion correction           -0.004161779
FINAL SINGLE POINT ENERGY      -346.929850808611

DIPOLE MOMENT
-------------

Method             : SCF
Type of density    : Electron Density
Multiplicity       :   1
Irrep              :   0
Energy             :  -346.9364916610977616 Eh
Relativity type    :
Basis              : AO
                                X                 Y                 Z
Electronic contribution:      4.507315863      -3.187459767       0.436012657
Nuclear contribution   :     -4.531357987       3.851755618       0.094587737
                        -----------------------------------------
Total Dipole Moment    :     -0.024042124       0.664295851       0.530600394
                        -----------------------------------------
Magnitude (a.u.)       :      0.850531469
Magnitude (Debye)      :      2.161879186

Rotational constants in cm-1:             0.146118             0.055054             0.051412
Rotational constants in MHz :          4380.506546          1650.490859          1541.302201

                             ****ORCA TERMINATED NORMALLY****
TOTAL RUN TIME: 0 days 0 hours 0 minutes 22 seconds 926 msec
