                         Program Version 6.0.0  -   RELEASE  -
|  1> ! r2scan-3c def2/J RI DEFGRID2 scfconv6 printgap
|  2> %output
|  3>     printlevel normal
|  4> end
|  5> %cpcm
|  6>     smd true
|  7>     smdsolvent "water"
|  8> end
|  9> * xyz 0 1
| 10> C -2.2270918507 0.6906286418 -0.8481871295
| 11> C -1.7830029515 0.5351093864 0.6011869258
| 12> C -0.8898719743 -0.6975938315 0.7936578611
| 13> C 0.4059621002 -0.5527254375 0.0384519284
| 14> O 0.7526682484 -1.2571266162 -0.8875556624
| 15> O 1.1314531568 0.4523944797 0.512066193
| 16> C 2.3920453695 0.7509455423 -0.0938926152
| 17> H -2.8514586156 1.5728059257 -0.9614806654
| 18> H -1.366126161 0.7898885593 -1.5067660942
| 19> H -2.7955632985 -0.1794349678 -1.1681835715
| 20> H -2.6601536946 0.4295092921 1.2403023265
| 21> H -1.2333893823 1.4223482497 0.9185960906
| 22> H -1.393712952 -1.5947846744 0.4346418727
| 23> H -0.6512412579 -0.8093261236 1.8516301058
| 24> H 2.5621545763 0.0871638605 -0.9423274486
| 25> H 3.1656182764 0.6109300688 0.6590305631
| 26> H 2.3640860458 1.7892346832 -0.4186873654
| 27> *
| 28>
| 29>                          ****END OF INPUT****

CARTESIAN COORDINATES (ANGSTROEM)
---------------------------------
  C     -2.227092    0.690629   -0.848187
  C     -1.783003    0.535109    0.601187
  C     -0.889872   -0.697594    0.793658
  C      0.405962   -0.552725    0.038452
  O      0.752668   -1.257127   -0.887556
  O      1.131453    0.452394    0.512066
  C      2.392045    0.750946   -0.093893
  H     -2.851459    1.572806   -0.961481
  H     -1.366126    0.789889   -1.506766
  H     -2.795563   -0.179435   -1.168184
  H     -2.660154    0.429509    1.240302
  H     -1.233389    1.422348    0.918596
  H     -1.393713   -1.594785    0.434642
  H     -0.651241   -0.809326    1.851630
  H      2.562155    0.087164   -0.942327
  H      3.165618    0.610930    0.659031
  H      2.364086    1.789235   -0.418687

 Total Charge           Charge          ....    0
 Multiplicity           Mult            ....    1
 Number of Electrons    NEL             ....   56
 Basis Dimension        Dim             ....  193

ORBITAL ENERGIES
----------------

  NO   OCC          E(Eh)            E(eV)
   0   2.0000     -19.003987      -517.1248
   1   2.0000     -18.943348      -515.4747
   2   2.0000     -10.162787      -276.5435
   3   2.0000     -10.075015      -274.1551
   4   2.0000     -10.035712      -273.0856
   5   2.0000     -10.028968      -272.9021
   6   2.0000     -10.011729      -272.4330
   7   2.0000      -1.079113       -29.3642
   8   2.0000      -0.988962       -26.9110
   9   2.0000      -0.768789       -20.9198
  10   2.0000      -0.704493       -19.1702
  11   2.0000      -0.654138       -17.8000
  12   2.0000      -0.568568       -15.4715
  13   2.0000      -0.530367       -14.4320
  14   2.0000      -0.469246       -12.7688
  15   2.0000      -0.457688       -12.4543
  16   2.0000      -0.451014       -12.2727
  17   2.0000      -0.412530       -11.2255
  18   2.0000      -0.408636       -11.1196
  19   2.0000      -0.381580       -10.3833
  20   2.0000      -0.362210        -9.8562
  21   2.0000      -0.356285        -9.6950
  22   2.0000      -0.323826        -8.8118
  23   2.0000      -0.313857        -8.5405
  24   2.0000      -0.307484        -8.3671
  25   2.0000      -0.302664        -8.2359
  26   2.0000      -0.277539        -7.5522
  27   2.0000      -0.249434        -6.7874
  28   0.0000      -0.022828        -0.6212
  29   0.0000       0.070092         1.9073
  30   0.0000       0.102578         2.7913
  31   0.0000       0.123327         3.3559
  32   0.0000       0.130576         3.5532

MULLIKEN ATOMIC CHARGES
-----------------------
   0 C :   -0.527206
   1 C :   -0.223681
   2 C :   -0.326438
   3 C :    0.408120
   4 O :   -0.515502
   5 O :   -0.206750
   6 C :   -0.313698
   7 H :    0.161805
   8 H :    0.161067
   9 H :    0.163147
  10 H :    0.163729
  11 H :    0.156424
  12 H :    0.177072
  13 H :    0.186349
  14 H :    0.185087
  15 H :    0.175331
  16 H :    0.175144
Sum of atomic charges:   -0.0000000

LOEWDIN ATOMIC CHARGES
----------------------
   0 C :   -0.423169
   1 C :   -0.289289
   2 C :   -0.228293
   3 C :    0.360022
   4 O :   -0.498875
   5 O :   -0.606502
   6 C :   -0.040242
   7 H :    0.156401
   8 H :    0.156010
   9 H :    0.156174
  10 H :    0.160422
  11 H :    0.164515
  12 H :    0.181208
  13 H :    0.190564
  14 H :    0.192259
  15 H :    0.184263
  16 H :    0.184533

  Mayer bond orders larger than 0.100000
B(  0-C ,  1-C ) :   0.8976 B(  0-C ,  7-H ) :   0.9663 B(  0-C ,  8-H ) :   0.9694
B(  0-C ,  9-H ) :   0.9771 B(  1-C ,  2-C ) :   0.8736 B(  1-C , 10-H ) :   0.9614
B(  1-C , 11-H ) :   0.9732 B(  2-C ,  3-C ) :   0.9711 B(  2-C , 12-H ) :   0.9945
B(  2-C , 13-H ) :   0.9364 B(  3-C ,  4-O ) :   1.7868 B(  3-C ,  5-O ) :   1.0674
B(  5-O ,  6-C ) :   0.8276 B(  6-C , 14-H ) :   0.9647 B(  6-C , 15-H ) :   0.9555
B(  6-C , 16-H ) :   0.9552

Dispersion correction           -0.004161779
FINAL SINGLE POINT ENERGY      -346.934345665660

DIPOLE MOMENT
-------------

Method             : SCF
Type of density    : Electron Density
Multiplicity       :   1
Irrep              :   0
Energy             :  -346.9409865181473265 Eh
Relativity type    :
Basis              : AO
                                X                 Y                 Z
Electronic contribution:      4.477719730      -2.931111377       0.701127580
Nuclear contribution   :     -4.531357987       3.851755618       0.094587737
                        -----------------------------------------
Total Dipole Moment    :     -0.053638257       0.920644241       0.795715317
                        -----------------------------------------
Magnitude (a.u.)       :      1.218041767
Magnitude (Debye)      :      3.096016127

Rotational constants in cm-1:             0.146118             0.055054             0.051412
Rotational constants in MHz :          4380.506546          1650.490859          1541.302201

                             ****ORCA TERMINATED NORMALLY****
TOTAL RUN TIME: 0 days 0 hours 0 minutes 33 seconds 783 msec
