                         Program Version 6.0.0  -   RELEASE  -
|  1> ! pbe def2-sv(p) def2/J RI DEFGRID1 loosescf d4 GCP(DFT/SV(P)) printgap
|  2> %output
|  3>     printlevel normal
|  4> end
|  5> * xyz 0 1
|  6> C -1.5577642512 -0.8441954726 0.1289911385
|  7> O -1.2516953391 0.444745753 -0.3707459199
|  8> C -0.0709777506 1.0107562233 0.1622478348
|  9> C 1.221721753 0.3530609725 -0.3482249096
| 10> O 1.5702635361 -0.8372268725 0.3250237848
| 11> H -2.4774002825 -1.1453512381 -0.3662183941
| 12> H -1.7157618731 -0.8080397394 1.212663849
| 13> H -0.763238534 -1.5595811748 -0.0963807808
| 14> H -0.0928607444 2.0515154772 -0.1654988602
| 15> H -0.1025673181 0.9743198759 1.2608299961
| 16> H 2.0387375239 1.0806693564 -0.2808356653
| 17> H 1.0851446057 0.0745586349 -1.3957758497
| 18> H 1.8212986983 -0.6299688426 1.2360304065
| 19> *
| 20>
| 21>                          ****END OF INPUT****

CARTESIAN COORDINATES (ANGSTROEM)
---------------------------------
  C     -1.557764   -0.844195    0.128991
  O     -1.251695    0.444746   -0.370746
  C     -0.070978    1.010756    0.162248
  C      1.221722    0.353061   -0.348225
  O      1.570264   -0.837227    0.325024
  H     -2.477400   -1.145351   -0.366218
  H     -1.715762   -0.808040    1.212664
  H     -0.763239   -1.559581   -0.096381
  H     -0.092861    2.051515   -0.165499
  H     -0.102567    0.974320    1.260830
  H      2.038738    1.080669   -0.280836
  H      1.085145    0.074559   -1.395776
  H      1.821299   -0.629969    1.236030

 Total Charge           Charge          ....    0
 Multiplicity           Mult            ....    1
 Number of Electrons    NEL             ....   42
 Basis Dimension        Dim             ....   86

ORBITAL ENERGIES
----------------

  NO   OCC          E(Eh)            E(eV)
   0   2.0000     -18.750779      -510.2346
   1   2.0000     -18.747406      -510.1429
   2   2.0000      -9.932230      -270.2697
   3   2.0000      -9.930738      -270.2291
   4   2.0000      -9.915092      -269.8034
   5   2.0000      -0.933797       -25.4099
   6   2.0000      -0.918265       -24.9873
   7   2.0000      -0.672410       -18.2972
   8   2.0000      -0.605380       -16.4732
   9   2.0000      -0.543250       -14.7826
  10   2.0000      -0.464029       -12.6269
  11   2.0000      -0.438121       -11.9219
  12   2.0000      -0.419867       -11.4252
  13   2.0000      -0.401291       -10.9197
  14   2.0000      -0.370158       -10.0725
  15   2.0000      -0.354722        -9.6525
  16   2.0000      -0.330702        -8.9989
  17   2.0000      -0.280073        -7.6212
  18   2.0000      -0.268327        -7.3016
  19   2.0000      -0.234118        -6.3707
  20   2.0000      -0.190624        -5.1871
  21   0.0000       0.022480         0.6117
  22   0.0000       0.064202         1.7470
  23   0.0000       0.069913         1.9024
  24   0.0000       0.084257         2.2928
  25   0.0000       0.098260         2.6738

MULLIKEN ATOMIC CHARGES
-----------------------
   0 C :   -0.115535
   1 O :   -0.342309
   2 C :    0.004664
   3 C :   -0.017656
   4 O :   -0.435083
   5 H :    0.108801
   6 H :    0.074794
   7 H :    0.111539
   8 H :    0.086978
   9 H :    0.052661
  10 H :    0.075898
  11 H :    0.100627
  12 H :    0.294621
Sum of atomic charges:   -0.0000000

LOEWDIN ATOMIC CHARGES
----------------------
   0 C :   -0.214112
   1 O :   -0.183721
   2 C :   -0.135837
   3 C :   -0.147093
   4 O :   -0.337606
   5 H :    0.112535
   6 H :    0.093296
   7 H :    0.103997
   8 H :    0.115372
   9 H :    0.090895
  10 H :    0.099985
  11 H :    0.120982
  12 H :    0.281307

  Mayer bond orders larger than 0.100000
B(  0-C ,  1-O ) :   1.0110 B(  0-C ,  5-H ) :   0.9617 B(  0-C ,  6-H ) :   0.9416
B(  0-C ,  7-H ) :   0.9373 B(  1-O ,  2-C ) :   1.0535 B(  2-C ,  3-C ) :   1.0693
B(  2-C ,  8-H ) :   0.9216 B(  2-C ,  9-H ) :   0.9106 B(  3-C ,  4-O ) :   1.0517
B(  3-C , 10-H ) :   0.9210 B(  3-C , 11-H ) :   0.9198 B(  4-O , 12-H ) :   0.8529

Dispersion correction           -0.007718566
FINAL SINGLE POINT ENERGY      -268.932265191421

DIPOLE MOMENT
-------------

Method             : SCF
Type of density    : Electron Density
Multiplicity       :   1
Irrep              :   0
Energy             :  -268.9930702000254996 Eh
Relativity type    :
Basis              : AO
                                X                 Y                 Z
Electronic contribution:      0.537153899       0.207362713      -0.721902365
Nuclear contribution   :     -0.189136179       0.029931420       1.317279239
                        -----------------------------------------
Total Dipole Moment    :      0.348017720       0.237294133       0.595376874
                        -----------------------------------------
Magnitude (a.u.)       :      0.729313692
Magnitude (Debye)      :      1.853768083

Rotational constants in cm-1:             0.280832             0.119404             0.093499
Rotational constants in MHz :          8419.137216          3579.629597          2803.021949

                             ****ORCA TERMINATED NORMALLY****
TOTAL RUN TIME: 0 days 0 hours 0 minutes 6 seconds 281 msec
