                         Program Version 6.0.0  -   RELEASE  -
|  1> ! pbe def2-sv(p) def2/J RI DEFGRID1 loosescf d4 GCP(DFT/SV(P)) printgap
|  2> %output
|  3>     printlevel normal
|  4> end
|  5> * xyz 0 1
|  6> C -1.8236489735 0.9059348221 -0.5719905541
|  7> C -0.9438134709 0.6227827621 0.6411193059
|  8> C 0.0483787822 -0.5376973694 0.4724838578
|  9> H 0.5166960646 -0.6980371159 1.4505414533
| 10> C -0.6294714285 -1.8327270819 0.0334309362
| 11> C 1.180580607 -0.177067659 -0.4940204338
| 12> O 1.9261327329 0.8980767425 0.0445651172
| 13> H -2.4529688706 1.7695819874 -0.3705246856
| 14> H -1.2236482338 1.1256610134 -1.4510575396
| 15> H -2.4691615861 0.0602679119 -0.792288512
| 16> H -1.5862695637 0.4011685302 1.4962052695
| 17> H -0.3653011198 1.5167311485 0.8834589593
| 18> H -0.9819885041 -1.7552224344 -0.9915436873
| 19> H -1.4756669979 -2.0483987773 0.6801353578
| 20> H 0.0692080663 -2.6638919086 0.0912482218
| 21> H 0.7671211386 0.0960681552 -1.4730236477
| 22> H 1.8286640806 -1.0546908066 -0.6271009946
| 23> H 2.6333348491 1.1352863534 -0.5690174872
| 24> *
| 25>
| 26>                          ****END OF INPUT****

CARTESIAN COORDINATES (ANGSTROEM)
---------------------------------
  C     -1.823649    0.905935   -0.571991
  C     -0.943813    0.622783    0.641119
  C      0.048379   -0.537697    0.472484
  H      0.516696   -0.698037    1.450541
  C     -0.629471   -1.832727    0.033431
  C      1.180581   -0.177068   -0.494020
  O      1.926133    0.898077    0.044565
  H     -2.452969    1.769582   -0.370525
  H     -1.223648    1.125661   -1.451058
  H     -2.469162    0.060268   -0.792289
  H     -1.586270    0.401169    1.496205
  H     -0.365301    1.516731    0.883459
  H     -0.981989   -1.755222   -0.991544
  H     -1.475667   -2.048399    0.680135
  H      0.069208   -2.663892    0.091248
  H      0.767121    0.096068   -1.473024
  H      1.828664   -1.054691   -0.627101
  H      2.633335    1.135286   -0.569017

 Total Charge           Charge          ....    0
 Multiplicity           Mult            ....    1
 Number of Electrons    NEL             ....   50
 Basis Dimension        Dim             ....  108

ORBITAL ENERGIES
----------------

  NO   OCC          E(Eh)            E(eV)
   0   2.0000     -18.738792      -509.9085
   1   2.0000      -9.924605      -270.0622
   2   2.0000      -9.887527      -269.0533
   3   2.0000      -9.872892      -268.6550
   4   2.0000      -9.872454      -268.6431
   5   2.0000      -9.867803      -268.5166
   6   2.0000      -0.914500       -24.8848
   7   2.0000      -0.724044       -19.7022
   8   2.0000      -0.649763       -17.6809
   9   2.0000      -0.600378       -16.3371
  10   2.0000      -0.559618       -15.2280
  11   2.0000      -0.477135       -12.9835
  12   2.0000      -0.458934       -12.4882
  13   2.0000      -0.425587       -11.5808
  14   2.0000      -0.401828       -10.9343
  15   2.0000      -0.375805       -10.2262
  16   2.0000      -0.355281        -9.6677
  17   2.0000      -0.336706        -9.1622
  18   2.0000      -0.334809        -9.1106
  19   2.0000      -0.318217        -8.6591
  20   2.0000      -0.299007        -8.1364
  21   2.0000      -0.277264        -7.5447
  22   2.0000      -0.273443        -7.4408
  23   2.0000      -0.258957        -7.0466
  24   2.0000      -0.210170        -5.7190
  25   0.0000       0.027084         0.7370
  26   0.0000       0.042723         1.1625
  27   0.0000       0.067377         1.8334
  28   0.0000       0.083451         2.2708
  29   0.0000       0.093461         2.5432

MULLIKEN ATOMIC CHARGES
-----------------------
   0 C :   -0.299551
   1 C :   -0.153711
   2 C :   -0.166123
   3 H :    0.075665
   4 C :   -0.261477
   5 C :    0.019286
   6 O :   -0.431414
   7 H :    0.101993
   8 H :    0.102430
   9 H :    0.101263
  10 H :    0.079958
  11 H :    0.097799
  12 H :    0.102545
  13 H :    0.103203
  14 H :    0.099380
  15 H :    0.065247
  16 H :    0.066140
  17 H :    0.297368
Sum of atomic charges:   -0.0000000

LOEWDIN ATOMIC CHARGES
----------------------
   0 C :   -0.344551
   1 C :   -0.229193
   2 C :   -0.164186
   3 H :    0.119957
   4 C :   -0.330752
   5 C :   -0.115619
   6 O :   -0.346642
   7 H :    0.120845
   8 H :    0.114832
   9 H :    0.115623
  10 H :    0.113176
  11 H :    0.120736
  12 H :    0.117048
  13 H :    0.120826
  14 H :    0.118291
  15 H :    0.091685
  16 H :    0.093014
  17 H :    0.284912

  Mayer bond orders larger than 0.100000
B(  0-C ,  1-C ) :   1.1520 B(  0-C ,  7-H ) :   0.9503 B(  0-C ,  8-H ) :   0.9519
B(  0-C ,  9-H ) :   0.9475 B(  1-C ,  2-C ) :   1.0858 B(  1-C , 10-H ) :   0.9245
B(  1-C , 11-H ) :   0.9179 B(  2-C ,  3-H ) :   0.8940 B(  2-C ,  4-C ) :   1.0999
B(  2-C ,  5-C ) :   1.0756 B(  4-C , 12-H ) :   0.9438 B(  4-C , 13-H ) :   0.9512
B(  4-C , 14-H ) :   0.9476 B(  5-C ,  6-O ) :   1.0836 B(  5-C , 15-H ) :   0.9100
B(  5-C , 16-H ) :   0.9244 B(  6-O , 17-H ) :   0.8523

Dispersion correction           -0.013206048
FINAL SINGLE POINT ENERGY      -272.299844604242

DIPOLE MOMENT
-------------

Method             : SCF
Type of density    : Electron Density
Multiplicity       :   1
Irrep              :   0
Energy             :  -272.3693816967547150 Eh
Relativity type    :
Basis              : AO
                                X                 Y                 Z
Electronic contribution:      4.639884673       1.806335724       1.093062256
Nuclear contribution   :     -4.418292790      -1.971334721      -1.568855698
                        -----------------------------------------
Total Dipole Moment    :      0.221591884      -0.164998998      -0.475793442
                        -----------------------------------------
Magnitude (a.u.)       :      0.550188178
Magnitude (Debye)      :      1.398467211

Rotational constants in cm-1:             0.138895             0.088519             0.065185
Rotational constants in MHz :          4163.978169          2653.738099          1954.184146

                             ****ORCA TERMINATED NORMALLY****
TOTAL RUN TIME: 0 days 0 hours 0 minutes 7 seconds 878 msec
