                         Program Version 6.0.0  -   RELEASE  -
|  1> ! pbe def2-sv(p) def2/J RI DEFGRID1 loosescf d4 GCP(DFT/SV(P)) printgap
|  2> %output
|  3>     printlevel normal
|  4> end
|  5> * xyz 0 1
|  6> C 1.548571657 0.3648545151 1.5862776321
|  7> C 1.4018734579 -0.2702601893 0.2087046967
|  8> C 2.3475773744 0.4062686289 -0.7940406449
|  9> C 0.0075845724 -0.2718566216 -0.4010180946
| 10> O -0.1714269374 -0.8083910157 -1.4784929328
| 11> C -1.1457340097 0.3558666965 0.3559280298
| 12> C -1.8105047911 -0.7659487418 1.1664893987
| 13> C -2.1489647043 0.9773856317 -0.614148848
| 14> H 0.8835445255 -0.0921812319 2.3128806034
| 15> H 1.3540821779 1.4336951365 1.5465383025
| 16> H 2.5707271828 0.225363699 1.93049278
| 17> H 1.6880328898 -1.327613205 0.2706058148
| 18> H 2.2382884997 -0.0470989291 -1.776370234
| 19> H 2.1140700051 1.4659269947 -0.8733038214
| 20> H 3.3781909273 0.2990155437 -0.4679485988
| 21> H -0.777197686 1.1218839417 1.0378852583
| 22> H -2.1804617388 -1.5366135374 0.4935975608
| 23> H -1.1071507491 -1.22182313 1.8582574981
| 24> H -2.6468474286 -0.3635380636 1.7313289566
| 25> H -3.0167098878 1.3441662168 -0.0732085895
| 26> H -1.693753481 1.8056630853 -1.1525492039
| 27> H -2.4717653081 0.2360374691 -1.3415264208
| 28> *
| 29>
| 30>                          ****END OF INPUT****

CARTESIAN COORDINATES (ANGSTROEM)
---------------------------------
  C      1.548572    0.364855    1.586278
  C      1.401873   -0.270260    0.208705
  C      2.347577    0.406269   -0.794041
  C      0.007585   -0.271857   -0.401018
  O     -0.171427   -0.808391   -1.478493
  C     -1.145734    0.355867    0.355928
  C     -1.810505   -0.765949    1.166489
  C     -2.148965    0.977386   -0.614149
  H      0.883545   -0.092181    2.312881
  H      1.354082    1.433695    1.546538
  H      2.570727    0.225364    1.930493
  H      1.688033   -1.327613    0.270606
  H      2.238288   -0.047099   -1.776370
  H      2.114070    1.465927   -0.873304
  H      3.378191    0.299016   -0.467949
  H     -0.777198    1.121884    1.037885
  H     -2.180462   -1.536614    0.493598
  H     -1.107151   -1.221823    1.858257
  H     -2.646847   -0.363538    1.731329
  H     -3.016710    1.344166   -0.073209
  H     -1.693753    1.805663   -1.152549
  H     -2.471765    0.236037   -1.341526

 Total Charge           Charge          ....    0
 Multiplicity           Mult            ....    1
 Number of Electrons    NEL             ....   64
 Basis Dimension        Dim             ....  140

ORBITAL ENERGIES
----------------

  NO   OCC          E(Eh)            E(eV)
   0   2.0000     -18.734075      -509.7801
   1   2.0000      -9.965417      -271.1728
   2   2.0000      -9.902394      -269.4578
   3   2.0000      -9.900897      -269.4171
   4   2.0000      -9.886689      -269.0305
   5   2.0000      -9.884099      -268.9600
   6   2.0000      -9.879858      -268.8446
   7   2.0000      -9.873527      -268.6723
   8   2.0000      -0.932991       -25.3880
   9   2.0000      -0.735185       -20.0054
  10   2.0000      -0.714056       -19.4304
  11   2.0000      -0.619890       -16.8681
  12   2.0000      -0.615409       -16.7461
  13   2.0000      -0.578851       -15.7513
  14   2.0000      -0.532960       -14.5026
  15   2.0000      -0.453976       -12.3533
  16   2.0000      -0.444477       -12.0948
  17   2.0000      -0.412820       -11.2334
  18   2.0000      -0.399375       -10.8675
  19   2.0000      -0.386545       -10.5184
  20   2.0000      -0.372222       -10.1287
  21   2.0000      -0.361094        -9.8259
  22   2.0000      -0.349707        -9.5160
  23   2.0000      -0.346387        -9.4257
  24   2.0000      -0.333590        -9.0775
  25   2.0000      -0.329078        -8.9547
  26   2.0000      -0.315630        -8.5887
  27   2.0000      -0.303546        -8.2599
  28   2.0000      -0.297262        -8.0889
  29   2.0000      -0.294563        -8.0155
  30   2.0000      -0.284216        -7.7339
  31   2.0000      -0.191380        -5.2077
  32   0.0000      -0.052112        -1.4180
  33   0.0000       0.025628         0.6974
  34   0.0000       0.058459         1.5908
  35   0.0000       0.061184         1.6649
  36   0.0000       0.078684         2.1411

MULLIKEN ATOMIC CHARGES
-----------------------
   0 C :   -0.240944
   1 C :   -0.167961
   2 C :   -0.257132
   3 C :    0.044224
   4 O :   -0.177839
   5 C :   -0.172953
   6 C :   -0.261949
   7 C :   -0.228113
   8 H :    0.110000
   9 H :    0.106372
  10 H :    0.104165
  11 H :    0.097129
  12 H :    0.122731
  13 H :    0.096840
  14 H :    0.103381
  15 H :    0.076323
  16 H :    0.114084
  17 H :    0.109346
  18 H :    0.112611
  19 H :    0.093983
  20 H :    0.101220
  21 H :    0.114480
Sum of atomic charges:    0.0000000

LOEWDIN ATOMIC CHARGES
----------------------
   0 C :   -0.335369
   1 C :   -0.181288
   2 C :   -0.320411
   3 C :    0.070959
   4 O :   -0.130797
   5 C :   -0.183166
   6 C :   -0.316430
   7 C :   -0.324764
   8 H :    0.119017
   9 H :    0.120035
  10 H :    0.124683
  11 H :    0.138915
  12 H :    0.127191
  13 H :    0.117780
  14 H :    0.119691
  15 H :    0.122379
  16 H :    0.126755
  17 H :    0.117887
  18 H :    0.123882
  19 H :    0.117369
  20 H :    0.119945
  21 H :    0.125738

  Mayer bond orders larger than 0.100000
B(  0-C ,  1-C ) :   1.1277 B(  0-C ,  8-H ) :   0.9346 B(  0-C ,  9-H ) :   0.9379
B(  0-C , 10-H ) :   0.9390 B(  1-C ,  2-C ) :   1.1041 B(  1-C ,  3-C ) :   0.9536
B(  1-C , 11-H ) :   0.8701 B(  2-C , 12-H ) :   0.9412 B(  2-C , 13-H ) :   0.9513
B(  2-C , 14-H ) :   0.9509 B(  3-C ,  4-O ) :   2.1455 B(  3-C ,  5-C ) :   0.9819
B(  5-C ,  6-C ) :   1.0846 B(  5-C ,  7-C ) :   1.1027 B(  5-C , 15-H ) :   0.8767
B(  6-C , 16-H ) :   0.9441 B(  6-C , 17-H ) :   0.9445 B(  6-C , 18-H ) :   0.9481
B(  7-C , 19-H ) :   0.9480 B(  7-C , 20-H ) :   0.9547 B(  7-C , 21-H ) :   0.9390

Dispersion correction           -0.018983848
FINAL SINGLE POINT ENERGY      -349.566588661388

DIPOLE MOMENT
-------------

Method             : SCF
Type of density    : Electron Density
Multiplicity       :   1
Irrep              :   0
Energy             :  -349.6405287474410102 Eh
Relativity type    :
Basis              : AO
                                X                 Y                 Z
Electronic contribution:     -0.148574038      -2.773955322      -4.273332588
Nuclear contribution   :      0.309912573       3.124183656       5.134858185
                        -----------------------------------------
Total Dipole Moment    :      0.161338535       0.350228333       0.861525596
                        -----------------------------------------
Magnitude (a.u.)       :      0.943883659
Magnitude (Debye)      :      2.399161597

Rotational constants in cm-1:             0.095340             0.048549             0.040198
Rotational constants in MHz :          2858.223663          1455.471072          1205.110860

                             ****ORCA TERMINATED NORMALLY****
TOTAL RUN TIME: 0 days 0 hours 0 minutes 10 seconds 908 msec
