                         Program Version 6.0.0  -   RELEASE  -
|  1> ! r2scan-3c def2/J RI DEFGRID2 scfconv6 printgap
|  2> %output
|  3>     printlevel normal
|  4> end
|  5> * xyz 0 1
|  6> C 2.5511284574 -0.3819049844 -0.5681365801
|  7> C 1.2826103525 -0.0845187813 0.2340398712
|  8> H 1.2407835103 -0.7643535577 1.1024472748
|  9> C 0.0334890618 -0.3045446038 -0.627635808
| 10> C -1.2687095696 -0.4698642838 0.1654593327
| 11> C -1.7496094906 0.8581044508 0.7441334812
| 12> C -2.3510914618 -1.0714441135 -0.7304419505
| 13> O 1.2838865613 1.2561538171 0.6994059604
| 14> H 2.5516549261 -1.4165647288 -0.8975520893
| 15> H 2.5966588017 0.2678653436 -1.4388544517
| 16> H 3.4369085143 -0.2137587125 0.0408723499
| 17> H -0.0611473373 0.5432461681 -1.3083392291
| 18> H 0.1951615855 -1.2052225703 -1.2217536309
| 19> H -1.0800155601 -1.1639305867 0.9931479538
| 20> H -2.0206557981 1.5399541303 -0.0591267437
| 21> H -0.964787788 1.3238311276 1.3324104806
| 22> H -2.6210434831 0.7051771195 1.3768285545
| 23> H -2.5344632264 -0.4244370406 -1.5853729212
| 24> H -2.0509814076 -2.0504534488 -1.0967430752
| 25> H -3.2809761162 -1.1814724915 -0.1777982656
| 26> H 2.1137895417 1.4291025845 1.1633802936
| 27> *
| 28>
| 29>                          ****END OF INPUT****

CARTESIAN COORDINATES (ANGSTROEM)
---------------------------------
  C      2.551128   -0.381905   -0.568137
  C      1.282610   -0.084519    0.234040
  H      1.240784   -0.764354    1.102447
  C      0.033489   -0.304545   -0.627636
  C     -1.268710   -0.469864    0.165459
  C     -1.749609    0.858104    0.744133
  C     -2.351091   -1.071444   -0.730442
  O      1.283887    1.256154    0.699406
  H      2.551655   -1.416565   -0.897552
  H      2.596659    0.267865   -1.438854
  H      3.436909   -0.213759    0.040872
  H     -0.061147    0.543246   -1.308339
  H      0.195162   -1.205223   -1.221754
  H     -1.080016   -1.163931    0.993148
  H     -2.020656    1.539954   -0.059127
  H     -0.964788    1.323831    1.332410
  H     -2.621043    0.705177    1.376829
  H     -2.534463   -0.424437   -1.585373
  H     -2.050981   -2.050453   -1.096743
  H     -3.280976   -1.181472   -0.177798
  H      2.113790    1.429103    1.163380

 Total Charge           Charge          ....    0
 Multiplicity           Mult            ....    1
 Number of Electrons    NEL             ....   58
 Basis Dimension        Dim             ....  208

ORBITAL ENERGIES
----------------

  NO   OCC          E(Eh)            E(eV)
   0   2.0000     -18.946138      -515.5506
   1   2.0000     -10.081398      -274.3288
   2   2.0000     -10.027287      -272.8564
   3   2.0000     -10.021048      -272.6866
   4   2.0000     -10.019924      -272.6560
   5   2.0000     -10.010129      -272.3895
   6   2.0000      -9.999804      -272.1085
   7   2.0000      -0.984675       -26.7944
   8   2.0000      -0.773004       -21.0345
   9   2.0000      -0.721720       -19.6390
  10   2.0000      -0.648377       -17.6432
  11   2.0000      -0.639665       -17.4062
  12   2.0000      -0.562094       -15.2954
  13   2.0000      -0.522948       -14.2301
  14   2.0000      -0.478323       -13.0158
  15   2.0000      -0.429278       -11.6812
  16   2.0000      -0.417940       -11.3727
  17   2.0000      -0.397578       -10.8186
  18   2.0000      -0.379786       -10.3345
  19   2.0000      -0.372491       -10.1360
  20   2.0000      -0.352518        -9.5925
  21   2.0000      -0.344715        -9.3802
  22   2.0000      -0.335477        -9.1288
  23   2.0000      -0.324079        -8.8186
  24   2.0000      -0.310633        -8.4528
  25   2.0000      -0.288138        -7.8406
  26   2.0000      -0.285673        -7.7736
  27   2.0000      -0.269958        -7.3459
  28   2.0000      -0.233880        -6.3642
  29   0.0000       0.060573         1.6483
  30   0.0000       0.099142         2.6978
  31   0.0000       0.112154         3.0519
  32   0.0000       0.121083         3.2948
  33   0.0000       0.130473         3.5503

MULLIKEN ATOMIC CHARGES
-----------------------
   0 C :   -0.492138
   1 C :    0.039275
   2 H :    0.125445
   3 C :   -0.279620
   4 C :   -0.037659
   5 C :   -0.515836
   6 C :   -0.479287
   7 O :   -0.422104
   8 H :    0.147398
   9 H :    0.159661
  10 H :    0.135295
  11 H :    0.157990
  12 H :    0.138804
  13 H :    0.137971
  14 H :    0.143450
  15 H :    0.179892
  16 H :    0.140539
  17 H :    0.147136
  18 H :    0.142076
  19 H :    0.147044
  20 H :    0.284669
Sum of atomic charges:    0.0000000

LOEWDIN ATOMIC CHARGES
----------------------
   0 C :   -0.400938
   1 C :    0.049787
   2 H :    0.160021
   3 C :   -0.268736
   4 C :   -0.242357
   5 C :   -0.415550
   6 C :   -0.418658
   7 O :   -0.625063
   8 H :    0.157478
   9 H :    0.162229
  10 H :    0.149977
  11 H :    0.173769
  12 H :    0.164271
  13 H :    0.154260
  14 H :    0.152938
  15 H :    0.173568
  16 H :    0.148242
  17 H :    0.153915
  18 H :    0.149924
  19 H :    0.153075
  20 H :    0.267848

  Mayer bond orders larger than 0.100000
B(  0-C ,  1-C ) :   0.9119 B(  0-C ,  8-H ) :   0.9737 B(  0-C ,  9-H ) :   0.9812
B(  0-C , 10-H ) :   0.9730 B(  1-C ,  2-H ) :   0.9705 B(  1-C ,  3-C ) :   0.9479
B(  1-C ,  7-O ) :   0.8794 B(  3-C ,  4-C ) :   0.8965 B(  3-C , 11-H ) :   0.9613
B(  3-C , 12-H ) :   0.9801 B(  4-C ,  5-C ) :   0.9121 B(  4-C ,  6-C ) :   0.8986
B(  4-C , 13-H ) :   0.9689 B(  5-C , 14-H ) :   0.9851 B(  5-C , 15-H ) :   0.9638
B(  5-C , 16-H ) :   0.9768 B(  6-C , 17-H ) :   0.9841 B(  6-C , 18-H ) :   0.9805
B(  6-C , 19-H ) :   0.9782 B(  7-O , 20-H ) :   0.9025

Dispersion correction           -0.005466824
FINAL SINGLE POINT ENERGY      -312.201822317927

DIPOLE MOMENT
-------------

Method             : SCF
Type of density    : Electron Density
Multiplicity       :   1
Irrep              :   0
Energy             :  -312.2074840653833689 Eh
Relativity type    :
Basis              : AO
                                X                 Y                 Z
Electronic contribution:      2.823129372       2.071034849       1.741008593
Nuclear contribution   :     -2.306760361      -2.430918359      -1.656224191
                        -----------------------------------------
Total Dipole Moment    :      0.516369011      -0.359883511       0.084784402
                        -----------------------------------------
Magnitude (a.u.)       :      0.635091719
Magnitude (Debye)      :      1.614274861

Rotational constants in cm-1:             0.147180             0.050672             0.040360
Rotational constants in MHz :          4412.349370          1519.094767          1209.963630

                             ****ORCA TERMINATED NORMALLY****
TOTAL RUN TIME: 0 days 0 hours 0 minutes 30 seconds 441 msec
