                         Program Version 6.0.0  -   RELEASE  -
|  1> ! r2scan-3c def2/J RI DEFGRID2 scfconv6 printgap
|  2> %output
|  3>     printlevel normal
|  4> end
|  5> %cpcm
|  6>     smd true
|  7>     smdsolvent "water"
|  8> end
|  9> * xyz 0 1
| 10> C 2.5511284574 -0.3819049844 -0.5681365801
| 11> C 1.2826103525 -0.0845187813 0.2340398712
| 12> H 1.2407835103 -0.7643535577 1.1024472748
| 13> C 0.0334890618 -0.3045446038 -0.627635808
| 14> C -1.2687095696 -0.4698642838 0.1654593327
| 15> C -1.7496094906 0.8581044508 0.7441334812
| 16> C -2.3510914618 -1.0714441135 -0.7304419505
| 17> O 1.2838865613 1.2561538171 0.6994059604
| 18> H 2.5516549261 -1.4165647288 -0.8975520893
| 19> H 2.5966588017 0.2678653436 -1.4388544517
| 20> H 3.4369085143 -0.2137587125 0.0408723499
| 21> H -0.0611473373 0.5432461681 -1.3083392291
| 22> H 0.1951615855 -1.2052225703 -1.2217536309
| 23> H -1.0800155601 -1.1639305867 0.9931479538
| 24> H -2.0206557981 1.5399541303 -0.0591267437
| 25> H -0.964787788 1.3238311276 1.3324104806
| 26> H -2.6210434831 0.7051771195 1.3768285545
| 27> H -2.5344632264 -0.4244370406 -1.5853729212
| 28> H -2.0509814076 -2.0504534488 -1.0967430752
| 29> H -3.2809761162 -1.1814724915 -0.1777982656
| 30> H 2.1137895417 1.4291025845 1.1633802936
| 31> *
| 32>
| 33>                          ****END OF INPUT****

CARTESIAN COORDINATES (ANGSTROEM)
---------------------------------
  C      2.551128   -0.381905   -0.568137
  C      1.282610   -0.084519    0.234040
  H      1.240784   -0.764354    1.102447
  C      0.033489   -0.304545   -0.627636
  C     -1.268710   -0.469864    0.165459
  C     -1.749609    0.858104    0.744133
  C     -2.351091   -1.071444   -0.730442
  O      1.283887    1.256154    0.699406
  H      2.551655   -1.416565   -0.897552
  H      2.596659    0.267865   -1.438854
  H      3.436909   -0.213759    0.040872
  H     -0.061147    0.543246   -1.308339
  H      0.195162   -1.205223   -1.221754
  H     -1.080016   -1.163931    0.993148
  H     -2.020656    1.539954   -0.059127
  H     -0.964788    1.323831    1.332410
  H     -2.621043    0.705177    1.376829
  H     -2.534463   -0.424437   -1.585373
  H     -2.050981   -2.050453   -1.096743
  H     -3.280976   -1.181472   -0.177798
  H      2.113790    1.429103    1.163380

 Total Charge           Charge          ....    0
 Multiplicity           Mult            ....    1
 Number of Electrons    NEL             ....   58
 Basis Dimension        Dim             ....  208

ORBITAL ENERGIES
----------------

  NO   OCC          E(Eh)            E(eV)
   0   2.0000     -18.946374      -515.5570
   1   2.0000     -10.074599      -274.1438
   2   2.0000     -10.023795      -272.7613
   3   2.0000     -10.013705      -272.4868
   4   2.0000     -10.009148      -272.3628
   5   2.0000     -10.005417      -272.2612
   6   2.0000     -10.001929      -272.1663
   7   2.0000      -0.984017       -26.7765
   8   2.0000      -0.769138       -20.9293
   9   2.0000      -0.714899       -19.4534
  10   2.0000      -0.641380       -17.4528
  11   2.0000      -0.639175       -17.3928
  12   2.0000      -0.556663       -15.1476
  13   2.0000      -0.519446       -14.1349
  14   2.0000      -0.472954       -12.8697
  15   2.0000      -0.424701       -11.5567
  16   2.0000      -0.414804       -11.2874
  17   2.0000      -0.392809       -10.6889
  18   2.0000      -0.375470       -10.2171
  19   2.0000      -0.365750        -9.9526
  20   2.0000      -0.345955        -9.4139
  21   2.0000      -0.342770        -9.3272
  22   2.0000      -0.330780        -9.0010
  23   2.0000      -0.321760        -8.7555
  24   2.0000      -0.309431        -8.4200
  25   2.0000      -0.285479        -7.7683
  26   2.0000      -0.282107        -7.6765
  27   2.0000      -0.266559        -7.2534
  28   2.0000      -0.234607        -6.3840
  29   0.0000       0.077588         2.1113
  30   0.0000       0.105145         2.8611
  31   0.0000       0.120882         3.2894
  32   0.0000       0.126943         3.4543
  33   0.0000       0.136424         3.7123

MULLIKEN ATOMIC CHARGES
-----------------------
   0 C :   -0.535885
   1 C :    0.048588
   2 H :    0.139799
   3 C :   -0.302247
   4 C :   -0.006494
   5 C :   -0.568853
   6 C :   -0.525653
   7 O :   -0.501497
   8 H :    0.164080
   9 H :    0.161430
  10 H :    0.160787
  11 H :    0.161561
  12 H :    0.157676
  13 H :    0.151286
  14 H :    0.159764
  15 H :    0.168812
  16 H :    0.155566
  17 H :    0.158240
  18 H :    0.157009
  19 H :    0.157181
  20 H :    0.338853
Sum of atomic charges:    0.0000000

LOEWDIN ATOMIC CHARGES
----------------------
   0 C :   -0.405525
   1 C :    0.052348
   2 H :    0.166833
   3 C :   -0.272389
   4 C :   -0.240870
   5 C :   -0.426656
   6 C :   -0.426375
   7 O :   -0.657846
   8 H :    0.163132
   9 H :    0.161678
  10 H :    0.158477
  11 H :    0.172421
  12 H :    0.171152
  13 H :    0.158321
  14 H :    0.155578
  15 H :    0.166365
  16 H :    0.152374
  17 H :    0.156178
  18 H :    0.154467
  19 H :    0.154964
  20 H :    0.285373

  Mayer bond orders larger than 0.100000
B(  0-C ,  1-C ) :   0.9153 B(  0-C ,  8-H ) :   0.9696 B(  0-C ,  9-H ) :   0.9772
B(  0-C , 10-H ) :   0.9693 B(  1-C ,  2-H ) :   0.9678 B(  1-C ,  3-C ) :   0.9388
B(  1-C ,  7-O ) :   0.8676 B(  3-C ,  4-C ) :   0.8867 B(  3-C , 11-H ) :   0.9671
B(  3-C , 12-H ) :   0.9736 B(  4-C ,  5-C ) :   0.8900 B(  4-C ,  6-C ) :   0.8918
B(  4-C , 13-H ) :   0.9670 B(  5-C , 14-H ) :   0.9850 B(  5-C , 15-H ) :   0.9690
B(  5-C , 16-H ) :   0.9739 B(  6-C , 17-H ) :   0.9828 B(  6-C , 18-H ) :   0.9768
B(  6-C , 19-H ) :   0.9761 B(  7-O , 20-H ) :   0.8777

Dispersion correction           -0.005466824
FINAL SINGLE POINT ENERGY      -312.206323028285

DIPOLE MOMENT
-------------

Method             : SCF
Type of density    : Electron Density
Multiplicity       :   1
Irrep              :   0
Energy             :  -312.2119847757410867 Eh
Relativity type    :
Basis              : AO
                                X                 Y                 Z
Electronic contribution:      2.992222824       1.826084821       1.772396285
Nuclear contribution   :     -2.306760361      -2.430918359      -1.656224191
                        -----------------------------------------
Total Dipole Moment    :      0.685462463      -0.604833538       0.116172094
                        -----------------------------------------
Magnitude (a.u.)       :      0.921508737
Magnitude (Debye)      :      2.342289065

Rotational constants in cm-1:             0.147180             0.050672             0.040360
Rotational constants in MHz :          4412.349370          1519.094767          1209.963630

                             ****ORCA TERMINATED NORMALLY****
TOTAL RUN TIME: 0 days 0 hours 0 minutes 36 seconds 459 msec
