                         Program Version 6.0.0  -   RELEASE  -
|  1> ! r2scan-3c def2/J RI DEFGRID2 scfconv6 printgap
|  2> %output
|  3>     printlevel normal
|  4> end
|  5> * xyz 0 1
|  6> C -3.3277088148 0.0013165278 -0.0524559817
|  7> C -1.9791219089 0.7064131889 0.0165233455
|  8> C -0.8477017688 -0.2951107794 0.2052797334
|  9> O 0.3900505872 0.4238690663 0.3007242566
| 10> C 1.5110440422 -0.1850059731 -0.0685932314
| 11> O 1.5473571422 -1.3282073001 -0.476136146
| 12> C 2.6994589195 0.7159538776 0.081863192
| 13> H -3.519171139 -0.5468747594 0.8662433517
| 14> H -4.1215738696 0.7284639505 -0.1938778633
| 15> H -3.3488927238 -0.7009528092 -0.8820311168
| 16> H -1.9632843374 1.408828046 0.8504614323
| 17> H -1.8023257497 1.2684596536 -0.9015106427
| 18> H -0.9804534534 -0.8691372425 1.12829818
| 19> H -0.7838008688 -0.9973569614 -0.6327885438
| 20> H 2.80765515 0.9883655402 1.1283720051
| 21> H 2.5334620282 1.625972289 -0.4877759232
| 22> H 3.5907051037 0.2053423244 -0.2671246799
| 23> *
| 24>
| 25>                          ****END OF INPUT****

CARTESIAN COORDINATES (ANGSTROEM)
---------------------------------
  C     -3.327709    0.001317   -0.052456
  C     -1.979122    0.706413    0.016523
  C     -0.847702   -0.295111    0.205280
  O      0.390051    0.423869    0.300724
  C      1.511044   -0.185006   -0.068593
  O      1.547357   -1.328207   -0.476136
  C      2.699459    0.715954    0.081863
  H     -3.519171   -0.546875    0.866243
  H     -4.121574    0.728464   -0.193878
  H     -3.348893   -0.700953   -0.882031
  H     -1.963284    1.408828    0.850461
  H     -1.802326    1.268460   -0.901511
  H     -0.980453   -0.869137    1.128298
  H     -0.783801   -0.997357   -0.632789
  H      2.807655    0.988366    1.128372
  H      2.533462    1.625972   -0.487776
  H      3.590705    0.205342   -0.267125

 Total Charge           Charge          ....    0
 Multiplicity           Mult            ....    1
 Number of Electrons    NEL             ....   56
 Basis Dimension        Dim             ....  193

ORBITAL ENERGIES
----------------

  NO   OCC          E(Eh)            E(eV)
   0   2.0000     -18.995669      -516.8984
   1   2.0000     -18.927394      -515.0406
   2   2.0000     -10.154859      -276.3278
   3   2.0000     -10.087907      -274.5059
   4   2.0000     -10.038609      -273.1644
   5   2.0000     -10.037904      -273.1452
   6   2.0000     -10.028568      -272.8912
   7   2.0000      -1.070938       -29.1417
   8   2.0000      -0.974487       -26.5172
   9   2.0000      -0.770650       -20.9704
  10   2.0000      -0.723277       -19.6814
  11   2.0000      -0.661433       -17.9985
  12   2.0000      -0.574229       -15.6256
  13   2.0000      -0.536327       -14.5942
  14   2.0000      -0.470883       -12.8134
  15   2.0000      -0.453958       -12.3528
  16   2.0000      -0.439089       -11.9482
  17   2.0000      -0.426867       -11.6156
  18   2.0000      -0.396966       -10.8020
  19   2.0000      -0.385205       -10.4820
  20   2.0000      -0.379754       -10.3336
  21   2.0000      -0.344625        -9.3777
  22   2.0000      -0.344174        -9.3654
  23   2.0000      -0.333038        -9.0624
  24   2.0000      -0.316559        -8.6140
  25   2.0000      -0.305761        -8.3202
  26   2.0000      -0.270434        -7.3589
  27   2.0000      -0.234881        -6.3914
  28   0.0000      -0.012651        -0.3443
  29   0.0000       0.072372         1.9694
  30   0.0000       0.086131         2.3437
  31   0.0000       0.118215         3.2168
  32   0.0000       0.131870         3.5884

MULLIKEN ATOMIC CHARGES
-----------------------
   0 C :   -0.462213
   1 C :   -0.207848
   2 C :   -0.188876
   3 O :   -0.160462
   4 C :    0.421580
   5 O :   -0.431947
   6 C :   -0.522299
   7 H :    0.142138
   8 H :    0.151122
   9 H :    0.145782
  10 H :    0.143712
  11 H :    0.141677
  12 H :    0.142935
  13 H :    0.173329
  14 H :    0.167128
  15 H :    0.166650
  16 H :    0.177593
Sum of atomic charges:   -0.0000000

LOEWDIN ATOMIC CHARGES
----------------------
   0 C :   -0.417810
   1 C :   -0.282268
   2 C :    0.039135
   3 O :   -0.598771
   4 C :    0.353630
   5 O :   -0.433421
   6 C :   -0.336204
   7 H :    0.151951
   8 H :    0.154663
   9 H :    0.152942
  10 H :    0.159068
  11 H :    0.158830
  12 H :    0.176484
  13 H :    0.191190
  14 H :    0.178473
  15 H :    0.177744
  16 H :    0.174363

  Mayer bond orders larger than 0.100000
B(  0-C ,  1-C ) :   0.9074 B(  0-C ,  7-H ) :   0.9768 B(  0-C ,  8-H ) :   0.9690
B(  0-C ,  9-H ) :   0.9782 B(  1-C ,  2-C ) :   0.9399 B(  1-C , 10-H ) :   0.9584
B(  1-C , 11-H ) :   0.9665 B(  2-C ,  3-O ) :   0.8042 B(  2-C , 12-H ) :   0.9491
B(  2-C , 13-H ) :   0.9712 B(  3-O ,  4-C ) :   1.0569 B(  4-C ,  5-O ) :   1.8361
B(  4-C ,  6-C ) :   0.9547 B(  6-C , 14-H ) :   0.9501 B(  6-C , 15-H ) :   0.9531
B(  6-C , 16-H ) :   0.9904

Dispersion correction           -0.003800239
FINAL SINGLE POINT ENERGY      -346.936307444984

DIPOLE MOMENT
-------------

Method             : SCF
Type of density    : Electron Density
Multiplicity       :   1
Irrep              :   0
Energy             :  -346.9428949230534158 Eh
Relativity type    :
Basis              : AO
                                X                 Y                 Z
Electronic contribution:      6.657203348      -2.143554176      -0.302002835
Nuclear contribution   :     -7.089788069       2.905333531       0.568054714
                        -----------------------------------------
Total Dipole Moment    :     -0.432584721       0.761779356       0.266051879
                        -----------------------------------------
Magnitude (a.u.)       :      0.915544062
Magnitude (Debye)      :      2.327128066

Rotational constants in cm-1:             0.254831             0.039077             0.035127
Rotational constants in MHz :          7639.631125          1171.509418          1053.086525

                             ****ORCA TERMINATED NORMALLY****
TOTAL RUN TIME: 0 days 0 hours 0 minutes 21 seconds 445 msec
