                         Program Version 6.0.0  -   RELEASE  -
|  1> ! r2scan-3c def2/J RI DEFGRID2 scfconv6 printgap
|  2> %output
|  3>     printlevel normal
|  4> end
|  5> %cpcm
|  6>     smd true
|  7>     smdsolvent "water"
|  8> end
|  9> * xyz 0 1
| 10> C -3.3277088148 0.0013165278 -0.0524559817
| 11> C -1.9791219089 0.7064131889 0.0165233455
| 12> C -0.8477017688 -0.2951107794 0.2052797334
| 13> O 0.3900505872 0.4238690663 0.3007242566
| 14> C 1.5110440422 -0.1850059731 -0.0685932314
| 15> O 1.5473571422 -1.3282073001 -0.476136146
| 16> C 2.6994589195 0.7159538776 0.081863192
| 17> H -3.519171139 -0.5468747594 0.8662433517
| 18> H -4.1215738696 0.7284639505 -0.1938778633
| 19> H -3.3488927238 -0.7009528092 -0.8820311168
| 20> H -1.9632843374 1.408828046 0.8504614323
| 21> H -1.8023257497 1.2684596536 -0.9015106427
| 22> H -0.9804534534 -0.8691372425 1.12829818
| 23> H -0.7838008688 -0.9973569614 -0.6327885438
| 24> H 2.80765515 0.9883655402 1.1283720051
| 25> H 2.5334620282 1.625972289 -0.4877759232
| 26> H 3.5907051037 0.2053423244 -0.2671246799
| 27> *
| 28>
| 29>                          ****END OF INPUT****

CARTESIAN COORDINATES (ANGSTROEM)
---------------------------------
  C     -3.327709    0.001317   -0.052456
  C     -1.979122    0.706413    0.016523
  C     -0.847702   -0.295111    0.205280
  O      0.390051    0.423869    0.300724
  C      1.511044   -0.185006   -0.068593
  O      1.547357   -1.328207   -0.476136
  C      2.699459    0.715954    0.081863
  H     -3.519171   -0.546875    0.866243
  H     -4.121574    0.728464   -0.193878
  H     -3.348893   -0.700953   -0.882031
  H     -1.963284    1.408828    0.850461
  H     -1.802326    1.268460   -0.901511
  H     -0.980453   -0.869137    1.128298
  H     -0.783801   -0.997357   -0.632789
  H      2.807655    0.988366    1.128372
  H      2.533462    1.625972   -0.487776
  H      3.590705    0.205342   -0.267125

 Total Charge           Charge          ....    0
 Multiplicity           Mult            ....    1
 Number of Electrons    NEL             ....   56
 Basis Dimension        Dim             ....  193

ORBITAL ENERGIES
----------------

  NO   OCC          E(Eh)            E(eV)
   0   2.0000     -19.001734      -517.0635
   1   2.0000     -18.943638      -515.4826
   2   2.0000     -10.165507      -276.6175
   3   2.0000     -10.080507      -274.3045
   4   2.0000     -10.030353      -272.9398
   5   2.0000     -10.026101      -272.8241
   6   2.0000     -10.013992      -272.4946
   7   2.0000      -1.078583       -29.3497
   8   2.0000      -0.988682       -26.9034
   9   2.0000      -0.762581       -20.7509
  10   2.0000      -0.716764       -19.5042
  11   2.0000      -0.653428       -17.7807
  12   2.0000      -0.564362       -15.3571
  13   2.0000      -0.534825       -14.5533
  14   2.0000      -0.468235       -12.7413
  15   2.0000      -0.461218       -12.5504
  16   2.0000      -0.445514       -12.1230
  17   2.0000      -0.420754       -11.4493
  18   2.0000      -0.390065       -10.6142
  19   2.0000      -0.376146       -10.2354
  20   2.0000      -0.374069       -10.1789
  21   2.0000      -0.342387        -9.3168
  22   2.0000      -0.333877        -9.0853
  23   2.0000      -0.331515        -9.0210
  24   2.0000      -0.309533        -8.4228
  25   2.0000      -0.298860        -8.1324
  26   2.0000      -0.275975        -7.5097
  27   2.0000      -0.252107        -6.8602
  28   0.0000      -0.020803        -0.5661
  29   0.0000       0.077718         2.1148
  30   0.0000       0.095376         2.5953
  31   0.0000       0.127538         3.4705
  32   0.0000       0.140932         3.8350

MULLIKEN ATOMIC CHARGES
-----------------------
   0 C :   -0.505230
   1 C :   -0.220546
   2 C :   -0.191489
   3 O :   -0.177230
   4 C :    0.468271
   5 O :   -0.521196
   6 C :   -0.559227
   7 H :    0.156360
   8 H :    0.163073
   9 H :    0.157698
  10 H :    0.153747
  11 H :    0.153538
  12 H :    0.169290
  13 H :    0.174093
  14 H :    0.197430
  15 H :    0.195659
  16 H :    0.185756
Sum of atomic charges:    0.0000000

LOEWDIN ATOMIC CHARGES
----------------------
   0 C :   -0.422930
   1 C :   -0.281508
   2 C :    0.041160
   3 O :   -0.600710
   4 C :    0.364964
   5 O :   -0.496759
   6 C :   -0.334765
   7 H :    0.155938
   8 H :    0.157980
   9 H :    0.156007
  10 H :    0.162306
  11 H :    0.161996
  12 H :    0.185719
  13 H :    0.191940
  14 H :    0.190802
  15 H :    0.189652
  16 H :    0.178210

  Mayer bond orders larger than 0.100000
B(  0-C ,  1-C ) :   0.9042 B(  0-C ,  7-H ) :   0.9744 B(  0-C ,  8-H ) :   0.9658
B(  0-C ,  9-H ) :   0.9765 B(  1-C ,  2-C ) :   0.9429 B(  1-C , 10-H ) :   0.9563
B(  1-C , 11-H ) :   0.9673 B(  2-C ,  3-O ) :   0.7904 B(  2-C , 12-H ) :   0.9387
B(  2-C , 13-H ) :   0.9655 B(  3-O ,  4-C ) :   1.0860 B(  4-C ,  5-O ) :   1.7645
B(  4-C ,  6-C ) :   0.9528 B(  6-C , 14-H ) :   0.9376 B(  6-C , 15-H ) :   0.9415
B(  6-C , 16-H ) :   0.9830

Dispersion correction           -0.003800239
FINAL SINGLE POINT ENERGY      -346.942024226612

DIPOLE MOMENT
-------------

Method             : SCF
Type of density    : Electron Density
Multiplicity       :   1
Irrep              :   0
Energy             :  -346.9486117046813547 Eh
Relativity type    :
Basis              : AO
                                X                 Y                 Z
Electronic contribution:      6.548234131      -1.850602089      -0.180690398
Nuclear contribution   :     -7.089788069       2.905333531       0.568054714
                        -----------------------------------------
Total Dipole Moment    :     -0.541553938       1.054731442       0.387364316
                        -----------------------------------------
Magnitude (a.u.)       :      1.247313191
Magnitude (Debye)      :      3.170418173

Rotational constants in cm-1:             0.254831             0.039077             0.035127
Rotational constants in MHz :          7639.631125          1171.509418          1053.086525

                             ****ORCA TERMINATED NORMALLY****
TOTAL RUN TIME: 0 days 0 hours 0 minutes 27 seconds 642 msec
