                         Program Version 6.0.0  -   RELEASE  -
|  1> ! r2scan-3c def2/J RI DEFGRID2 scfconv6 printgap
|  2> %output
|  3>     printlevel normal
|  4> end
|  5> * xyz 0 1
|  6> C -1.7725259666 1.4505827616 0.3192923548
|  7> C -1.1519391175 0.3165382982 -0.4888686649
|  8> C -0.2472153299 -0.6018013086 0.3410701431
|  9> H -0.7635966085 -0.8632344149 1.2714811987
| 10> C 0.0664288841 -1.8825379783 -0.4308676097
| 11> C 1.0593768112 0.0998737784 0.7315946918
| 12> O 1.7588420189 0.4956121996 -0.4320893503
| 13> H -1.0108060038 2.1289030781 0.6942956767
| 14> H -2.4551792079 2.0223245646 -0.3044630716
| 15> H -2.3295821612 1.0545805365 1.1658734599
| 16> H -0.5633335976 0.7272048685 -1.3109552074
| 17> H -1.9534292877 -0.2872990537 -0.91916867
| 18> H -0.8506326018 -2.3983486552 -0.7030399644
| 19> H 0.6756672469 -2.5519697103 0.1719909222
| 20> H 0.6140897644 -1.6376324456 -1.3374817128
| 21> H 1.6714962281 -0.5956339326 1.3227508125
| 22> H 0.8366238018 0.975172587 1.3557543691
| 23> H 2.5892283644 0.915392194 -0.1754424747
| 24> *
| 25>
| 26>                          ****END OF INPUT****

CARTESIAN COORDINATES (ANGSTROEM)
---------------------------------
  C     -1.772526    1.450583    0.319292
  C     -1.151939    0.316538   -0.488869
  C     -0.247215   -0.601801    0.341070
  H     -0.763597   -0.863234    1.271481
  C      0.066429   -1.882538   -0.430868
  C      1.059377    0.099874    0.731595
  O      1.758842    0.495612   -0.432089
  H     -1.010806    2.128903    0.694296
  H     -2.455179    2.022325   -0.304463
  H     -2.329582    1.054581    1.165873
  H     -0.563334    0.727205   -1.310955
  H     -1.953429   -0.287299   -0.919169
  H     -0.850633   -2.398349   -0.703040
  H      0.675667   -2.551970    0.171991
  H      0.614090   -1.637632   -1.337482
  H      1.671496   -0.595634    1.322751
  H      0.836624    0.975173    1.355754
  H      2.589228    0.915392   -0.175442

 Total Charge           Charge          ....    0
 Multiplicity           Mult            ....    1
 Number of Electrons    NEL             ....   50
 Basis Dimension        Dim             ....  179

ORBITAL ENERGIES
----------------

  NO   OCC          E(Eh)            E(eV)
   0   2.0000     -18.948031      -515.6021
   1   2.0000     -10.071890      -274.0701
   2   2.0000     -10.030208      -272.9358
   3   2.0000     -10.015921      -272.5471
   4   2.0000     -10.011762      -272.4339
   5   2.0000     -10.008181      -272.3365
   6   2.0000      -0.984829       -26.7985
   7   2.0000      -0.770180       -20.9577
   8   2.0000      -0.694745       -18.9050
   9   2.0000      -0.638870       -17.3845
  10   2.0000      -0.585700       -15.9377
  11   2.0000      -0.521307       -14.1855
  12   2.0000      -0.481709       -13.1080
  13   2.0000      -0.430712       -11.7203
  14   2.0000      -0.420500       -11.4424
  15   2.0000      -0.385296       -10.4844
  16   2.0000      -0.376905       -10.2561
  17   2.0000      -0.368024       -10.0144
  18   2.0000      -0.338745        -9.2177
  19   2.0000      -0.327629        -8.9152
  20   2.0000      -0.312634        -8.5072
  21   2.0000      -0.292393        -7.9564
  22   2.0000      -0.286443        -7.7945
  23   2.0000      -0.274890        -7.4801
  24   2.0000      -0.234678        -6.3859
  25   0.0000       0.055428         1.5083
  26   0.0000       0.100306         2.7295
  27   0.0000       0.112415         3.0590
  28   0.0000       0.116087         3.1589
  29   0.0000       0.137670         3.7462

MULLIKEN ATOMIC CHARGES
-----------------------
   0 C :   -0.507437
   1 C :   -0.264614
   2 C :   -0.000930
   3 H :    0.143877
   4 C :   -0.509587
   5 C :   -0.166394
   6 O :   -0.439493
   7 H :    0.146557
   8 H :    0.147116
   9 H :    0.144451
  10 H :    0.167165
  11 H :    0.137114
  12 H :    0.143772
  13 H :    0.141295
  14 H :    0.170944
  15 H :    0.123816
  16 H :    0.129572
  17 H :    0.292776
Sum of atomic charges:    0.0000000

LOEWDIN ATOMIC CHARGES
----------------------
   0 C :   -0.422295
   1 C :   -0.305582
   2 C :   -0.219656
   3 H :    0.160848
   4 C :   -0.410732
   5 C :    0.009631
   6 O :   -0.637194
   7 H :    0.148631
   8 H :    0.151211
   9 H :    0.148599
  10 H :    0.170145
  11 H :    0.153339
  12 H :    0.151227
  13 H :    0.152717
  14 H :    0.166601
  15 H :    0.158216
  16 H :    0.157290
  17 H :    0.267005

  Mayer bond orders larger than 0.100000
B(  0-C ,  1-C ) :   0.8917 B(  0-C ,  7-H ) :   0.9824 B(  0-C ,  8-H ) :   0.9732
B(  0-C ,  9-H ) :   0.9895 B(  1-C ,  2-C ) :   0.8963 B(  1-C , 10-H ) :   0.9673
B(  1-C , 11-H ) :   0.9711 B(  2-C ,  3-H ) :   0.9553 B(  2-C ,  4-C ) :   0.9071
B(  2-C ,  5-C ) :   0.9473 B(  4-C , 12-H ) :   0.9800 B(  4-C , 13-H ) :   0.9754
B(  4-C , 14-H ) :   0.9817 B(  5-C ,  6-O ) :   0.9321 B(  5-C , 15-H ) :   0.9644
B(  5-C , 16-H ) :   0.9708 B(  6-O , 17-H ) :   0.9021

Dispersion correction           -0.004394410
FINAL SINGLE POINT ENERGY      -272.897847087308

DIPOLE MOMENT
-------------

Method             : SCF
Type of density    : Electron Density
Multiplicity       :   1
Irrep              :   0
Energy             :  -272.9033265139495938 Eh
Relativity type    :
Basis              : AO
                                X                 Y                 Z
Electronic contribution:      3.525023903       0.577130887      -0.678833661
Nuclear contribution   :     -3.294485056      -0.471615310       1.149025550
                        -----------------------------------------
Total Dipole Moment    :      0.230538847       0.105515577       0.470191889
                        -----------------------------------------
Magnitude (a.u.)       :      0.534192951
Magnitude (Debye)      :      1.357810575

Rotational constants in cm-1:             0.139162             0.089743             0.066237
Rotational constants in MHz :          4171.982883          2690.427617          1985.723403

                             ****ORCA TERMINATED NORMALLY****
TOTAL RUN TIME: 0 days 0 hours 0 minutes 23 seconds 797 msec
