                         Program Version 6.0.0  -   RELEASE  -
|  1> ! r2scan-3c def2/J RI DEFGRID2 scfconv6 printgap
|  2> %output
|  3>     printlevel normal
|  4> end
|  5> %cpcm
|  6>     smd true
|  7>     smdsolvent "water"
|  8> end
|  9> * xyz 0 1
| 10> C -1.7725259666 1.4505827616 0.3192923548
| 11> C -1.1519391175 0.3165382982 -0.4888686649
| 12> C -0.2472153299 -0.6018013086 0.3410701431
| 13> H -0.7635966085 -0.8632344149 1.2714811987
| 14> C 0.0664288841 -1.8825379783 -0.4308676097
| 15> C 1.0593768112 0.0998737784 0.7315946918
| 16> O 1.7588420189 0.4956121996 -0.4320893503
| 17> H -1.0108060038 2.1289030781 0.6942956767
| 18> H -2.4551792079 2.0223245646 -0.3044630716
| 19> H -2.3295821612 1.0545805365 1.1658734599
| 20> H -0.5633335976 0.7272048685 -1.3109552074
| 21> H -1.9534292877 -0.2872990537 -0.91916867
| 22> H -0.8506326018 -2.3983486552 -0.7030399644
| 23> H 0.6756672469 -2.5519697103 0.1719909222
| 24> H 0.6140897644 -1.6376324456 -1.3374817128
| 25> H 1.6714962281 -0.5956339326 1.3227508125
| 26> H 0.8366238018 0.975172587 1.3557543691
| 27> H 2.5892283644 0.915392194 -0.1754424747
| 28> *
| 29>
| 30>                          ****END OF INPUT****

CARTESIAN COORDINATES (ANGSTROEM)
---------------------------------
  C     -1.772526    1.450583    0.319292
  C     -1.151939    0.316538   -0.488869
  C     -0.247215   -0.601801    0.341070
  H     -0.763597   -0.863234    1.271481
  C      0.066429   -1.882538   -0.430868
  C      1.059377    0.099874    0.731595
  O      1.758842    0.495612   -0.432089
  H     -1.010806    2.128903    0.694296
  H     -2.455179    2.022325   -0.304463
  H     -2.329582    1.054581    1.165873
  H     -0.563334    0.727205   -1.310955
  H     -1.953429   -0.287299   -0.919169
  H     -0.850633   -2.398349   -0.703040
  H      0.675667   -2.551970    0.171991
  H      0.614090   -1.637632   -1.337482
  H      1.671496   -0.595634    1.322751
  H      0.836624    0.975173    1.355754
  H      2.589228    0.915392   -0.175442

 Total Charge           Charge          ....    0
 Multiplicity           Mult            ....    1
 Number of Electrons    NEL             ....   50
 Basis Dimension        Dim             ....  179

ORBITAL ENERGIES
----------------

  NO   OCC          E(Eh)            E(eV)
   0   2.0000     -18.948617      -515.6181
   1   2.0000     -10.064786      -273.8767
   2   2.0000     -10.025090      -272.7966
   3   2.0000     -10.013872      -272.4913
   4   2.0000     -10.007082      -272.3065
   5   2.0000     -10.006156      -272.2813
   6   2.0000      -0.984415       -26.7873
   7   2.0000      -0.766625       -20.8609
   8   2.0000      -0.691428       -18.8147
   9   2.0000      -0.634792       -17.2736
  10   2.0000      -0.582610       -15.8536
  11   2.0000      -0.517754       -14.0888
  12   2.0000      -0.476894       -12.9769
  13   2.0000      -0.426248       -11.5988
  14   2.0000      -0.417780       -11.3684
  15   2.0000      -0.382556       -10.4099
  16   2.0000      -0.374245       -10.1837
  17   2.0000      -0.364694        -9.9238
  18   2.0000      -0.338693        -9.2163
  19   2.0000      -0.326138        -8.8747
  20   2.0000      -0.309676        -8.4267
  21   2.0000      -0.289623        -7.8810
  22   2.0000      -0.283727        -7.7206
  23   2.0000      -0.271633        -7.3915
  24   2.0000      -0.236112        -6.4249
  25   0.0000       0.068823         1.8728
  26   0.0000       0.109427         2.9777
  27   0.0000       0.118064         3.2127
  28   0.0000       0.125002         3.4015
  29   0.0000       0.142870         3.8877

MULLIKEN ATOMIC CHARGES
-----------------------
   0 C :   -0.541816
   1 C :   -0.279313
   2 C :    0.016585
   3 H :    0.160546
   4 C :   -0.552269
   5 C :   -0.176627
   6 O :   -0.520109
   7 H :    0.159206
   8 H :    0.156859
   9 H :    0.158135
  10 H :    0.154244
  11 H :    0.149935
  12 H :    0.159478
  13 H :    0.159603
  14 H :    0.161431
  15 H :    0.142014
  16 H :    0.146909
  17 H :    0.345188
Sum of atomic charges:    0.0000000

LOEWDIN ATOMIC CHARGES
----------------------
   0 C :   -0.429532
   1 C :   -0.309275
   2 C :   -0.220006
   3 H :    0.167331
   4 C :   -0.419941
   5 C :    0.012467
   6 O :   -0.669898
   7 H :    0.152174
   8 H :    0.153018
   9 H :    0.153176
  10 H :    0.163521
  11 H :    0.156883
  12 H :    0.155767
  13 H :    0.157391
  14 H :    0.160768
  15 H :    0.165953
  16 H :    0.165150
  17 H :    0.285053

  Mayer bond orders larger than 0.100000
B(  0-C ,  1-C ) :   0.8935 B(  0-C ,  7-H ) :   0.9774 B(  0-C ,  8-H ) :   0.9712
B(  0-C ,  9-H ) :   0.9859 B(  1-C ,  2-C ) :   0.8878 B(  1-C , 10-H ) :   0.9715
B(  1-C , 11-H ) :   0.9702 B(  2-C ,  3-H ) :   0.9502 B(  2-C ,  4-C ) :   0.8916
B(  2-C ,  5-C ) :   0.9339 B(  4-C , 12-H ) :   0.9764 B(  4-C , 13-H ) :   0.9735
B(  4-C , 14-H ) :   0.9841 B(  5-C ,  6-O ) :   0.9161 B(  5-C , 15-H ) :   0.9657
B(  5-C , 16-H ) :   0.9700 B(  6-O , 17-H ) :   0.8757

Dispersion correction           -0.004394410
FINAL SINGLE POINT ENERGY      -272.902793955295

DIPOLE MOMENT
-------------

Method             : SCF
Type of density    : Electron Density
Multiplicity       :   1
Irrep              :   0
Energy             :  -272.9082733819365671 Eh
Relativity type    :
Basis              : AO
                                X                 Y                 Z
Electronic contribution:      3.549654354       0.590155829      -0.383022690
Nuclear contribution   :     -3.294485056      -0.471615310       1.149025550
                        -----------------------------------------
Total Dipole Moment    :      0.255169298       0.118540519       0.766002860
                        -----------------------------------------
Magnitude (a.u.)       :      0.816041424
Magnitude (Debye)      :      2.074212460

Rotational constants in cm-1:             0.139162             0.089743             0.066237
Rotational constants in MHz :          4171.982883          2690.427617          1985.723403

                             ****ORCA TERMINATED NORMALLY****
TOTAL RUN TIME: 0 days 0 hours 0 minutes 28 seconds 649 msec
