                         Program Version 6.0.0  -   RELEASE  -
|  1> ! pbe def2-sv(p) def2/J RI DEFGRID1 loosescf d4 GCP(DFT/SV(P)) printgap
|  2> %output
|  3>     printlevel normal
|  4> end
|  5> * xyz 0 1
|  6> C -3.6705812364 -0.1168944787 0.0078526769
|  7> C -2.2864983209 0.5350165497 -0.0020218964
|  8> O -1.3208564189 -0.5088252381 -0.0060446979
|  9> C 0.0045134059 -0.1902561423 -0.0035335807
| 10> C 0.5159676437 1.1027072762 -0.0029942085
| 11> C 1.8880575207 1.2989219172 0.0010783084
| 12> C 2.7581407693 0.2252071523 0.0041352285
| 13> C 2.2483116702 -1.064597623 0.0024648249
| 14> C 0.8852743805 -1.2738028967 -0.0012919096
| 15> H -4.2430507462 0.1657640337 -0.8692652167
| 16> H -3.5420708596 -1.1960073556 0.0037037743
| 17> H -4.2279325491 0.1606841875 0.8962739032
| 18> H -2.1388487471 1.1611664674 0.886485855
| 19> H -2.1496718871 1.1579224145 -0.894623622
| 20> H -0.1388118042 1.9594445137 -0.0056656126
| 21> H 2.273362895 2.3075033954 0.0019380492
| 22> H 3.8244219751 0.3887493202 0.0075709642
| 23> H 2.9170445777 -1.9117471469 0.0043082512
| 24> H 0.4694158107 -2.2690844144 -0.0025731214
| 25> *
| 26>
| 27>                          ****END OF INPUT****

CARTESIAN COORDINATES (ANGSTROEM)
---------------------------------
  C     -3.670581   -0.116894    0.007853
  C     -2.286498    0.535017   -0.002022
  O     -1.320856   -0.508825   -0.006045
  C      0.004513   -0.190256   -0.003534
  C      0.515968    1.102707   -0.002994
  C      1.888058    1.298922    0.001078
  C      2.758141    0.225207    0.004135
  C      2.248312   -1.064598    0.002465
  C      0.885274   -1.273803   -0.001292
  H     -4.243051    0.165764   -0.869265
  H     -3.542071   -1.196007    0.003704
  H     -4.227933    0.160684    0.896274
  H     -2.138849    1.161166    0.886486
  H     -2.149672    1.157922   -0.894624
  H     -0.138812    1.959445   -0.005666
  H      2.273363    2.307503    0.001938
  H      3.824422    0.388749    0.007571
  H      2.917045   -1.911747    0.004308
  H      0.469416   -2.269084   -0.002573

 Total Charge           Charge          ....    0
 Multiplicity           Mult            ....    1
 Number of Electrons    NEL             ....   66
 Basis Dimension        Dim             ....  146

ORBITAL ENERGIES
----------------

  NO   OCC          E(Eh)            E(eV)
   0   2.0000     -18.779663      -511.0206
   1   2.0000      -9.946755      -270.6650
   2   2.0000      -9.946026      -270.6451
   3   2.0000      -9.890289      -269.1285
   4   2.0000      -9.889027      -269.0941
   5   2.0000      -9.887512      -269.0529
   6   2.0000      -9.884503      -268.9710
   7   2.0000      -9.883110      -268.9331
   8   2.0000      -9.882286      -268.9107
   9   2.0000      -0.963391       -26.2152
  10   2.0000      -0.769628       -20.9427
  11   2.0000      -0.701601       -19.0915
  12   2.0000      -0.668385       -18.1877
  13   2.0000      -0.647384       -17.6162
  14   2.0000      -0.578517       -15.7422
  15   2.0000      -0.539161       -14.6713
  16   2.0000      -0.520658       -14.1678
  17   2.0000      -0.488464       -13.2918
  18   2.0000      -0.435339       -11.8462
  19   2.0000      -0.435275       -11.8444
  20   2.0000      -0.417477       -11.3601
  21   2.0000      -0.390821       -10.6348
  22   2.0000      -0.372753       -10.1431
  23   2.0000      -0.358439        -9.7536
  24   2.0000      -0.353553        -9.6207
  25   2.0000      -0.345811        -9.4100
  26   2.0000      -0.322249        -8.7688
  27   2.0000      -0.316172        -8.6035
  28   2.0000      -0.307899        -8.3783
  29   2.0000      -0.277026        -7.5382
  30   2.0000      -0.274352        -7.4655
  31   2.0000      -0.226135        -6.1535
  32   2.0000      -0.190494        -5.1836
  33   0.0000      -0.030714        -0.8358
  34   0.0000      -0.016258        -0.4424
  35   0.0000       0.040679         1.1069
  36   0.0000       0.045868         1.2481
  37   0.0000       0.071142         1.9359

MULLIKEN ATOMIC CHARGES
-----------------------
   0 C :   -0.267247
   1 C :   -0.044786
   2 O :   -0.272328
   3 C :    0.263766
   4 C :   -0.191294
   5 C :   -0.052013
   6 C :   -0.048303
   7 C :   -0.055954
   8 C :   -0.112997
   9 H :    0.109288
  10 H :    0.125995
  11 H :    0.109437
  12 H :    0.098603
  13 H :    0.098450
  14 H :    0.045784
  15 H :    0.050735
  16 H :    0.047185
  17 H :    0.052808
  18 H :    0.042872
Sum of atomic charges:   -0.0000000

LOEWDIN ATOMIC CHARGES
----------------------
   0 C :   -0.356223
   1 C :   -0.108244
   2 O :   -0.088829
   3 C :    0.032238
   4 C :   -0.177117
   5 C :   -0.116258
   6 C :   -0.148181
   7 C :   -0.117499
   8 C :   -0.143506
   9 H :    0.126195
  10 H :    0.135484
  11 H :    0.126204
  12 H :    0.106730
  13 H :    0.106670
  14 H :    0.125865
  15 H :    0.122888
  16 H :    0.121490
  17 H :    0.123765
  18 H :    0.128327

  Mayer bond orders larger than 0.100000
B(  0-C ,  1-C ) :   1.1207 B(  0-C ,  9-H ) :   0.9562 B(  0-C , 10-H ) :   0.9504
B(  0-C , 11-H ) :   0.9563 B(  1-C ,  2-O ) :   0.9734 B(  1-C , 12-H ) :   0.9295
B(  1-C , 13-H ) :   0.9299 B(  2-O ,  3-C ) :   1.1341 B(  3-C ,  4-C ) :   1.3090
B(  3-C ,  8-C ) :   1.3511 B(  4-C ,  5-C ) :   1.3495 B(  4-C , 14-H ) :   0.9618
B(  5-C ,  6-C ) :   1.3966 B(  5-C , 15-H ) :   0.9613 B(  6-C ,  7-C ) :   1.3504
B(  6-C , 16-H ) :   0.9675 B(  7-C ,  8-C ) :   1.3939 B(  7-C , 17-H ) :   0.9648
B(  8-C , 18-H ) :   0.9632

Dispersion correction           -0.017739210
FINAL SINGLE POINT ENERGY      -385.225365516970

DIPOLE MOMENT
-------------

Method             : SCF
Type of density    : Electron Density
Multiplicity       :   1
Irrep              :   0
Energy             :  -385.2856352705356926 Eh
Relativity type    :
Basis              : AO
                                X                 Y                 Z
Electronic contribution:      6.119767695      -1.437303659      -0.024018328
Nuclear contribution   :     -6.545609422       1.797866770       0.026322892
                        -----------------------------------------
Total Dipole Moment    :     -0.425841727       0.360563112       0.002304564
                        -----------------------------------------
Magnitude (a.u.)       :      0.557989467
Magnitude (Debye)      :      1.418296510

Rotational constants in cm-1:             0.164623             0.030646             0.026090
Rotational constants in MHz :          4935.263525           918.749758           782.163752

                             ****ORCA TERMINATED NORMALLY****
TOTAL RUN TIME: 0 days 0 hours 0 minutes 9 seconds 743 msec
