                         Program Version 6.0.0  -   RELEASE  -
|  1> ! pbe def2-sv(p) def2/J RI DEFGRID1 loosescf d4 GCP(DFT/SV(P)) printgap
|  2> %output
|  3>     printlevel normal
|  4> end
|  5> * xyz 0 1
|  6> C 1.9422091803 0.4671673291 0.8000554583
|  7> C 1.5093244928 -0.3751990122 -0.3947118713
|  8> C 0.2438068854 0.1078322019 -1.1100764885
|  9> C -1.1011157581 -0.0052653599 -0.3684325033
| 10> C -1.3492128922 1.1406158954 0.6120007862
| 11> C -1.272120224 -1.3532878158 0.3282925673
| 12> H 2.9508041887 0.1918032407 1.1017784404
| 13> H 1.9378040911 1.5242577011 0.5446383809
| 14> H 1.287505401 0.3135948325 1.6529274638
| 15> H 2.3158626072 -0.3575889957 -1.1330577118
| 16> H 1.3841221922 -1.412730909 -0.0826660544
| 17> H 0.3858484327 1.1500446701 -1.4066514997
| 18> H 0.1585226696 -0.4792902425 -2.02898084
| 19> H -1.876189563 0.068327297 -1.1425509824
| 20> H -2.3731333814 1.0980627336 0.9782235871
| 21> H -1.2025334256 2.1009083143 0.1229174867
| 22> H -0.6839237767 1.0851030943 1.4673714009
| 23> H -1.0763725322 -2.1696210292 -0.3632866575
| 24> H -0.5953710366 -1.441799587 1.1741492545
| 25> H -2.289899949 -1.4549379294 0.6986049444
| 26> *
| 27>
| 28>                          ****END OF INPUT****

CARTESIAN COORDINATES (ANGSTROEM)
---------------------------------
  C      1.942209    0.467167    0.800055
  C      1.509324   -0.375199   -0.394712
  C      0.243807    0.107832   -1.110076
  C     -1.101116   -0.005265   -0.368433
  C     -1.349213    1.140616    0.612001
  C     -1.272120   -1.353288    0.328293
  H      2.950804    0.191803    1.101778
  H      1.937804    1.524258    0.544638
  H      1.287505    0.313595    1.652927
  H      2.315863   -0.357589   -1.133058
  H      1.384122   -1.412731   -0.082666
  H      0.385848    1.150045   -1.406651
  H      0.158523   -0.479290   -2.028981
  H     -1.876190    0.068327   -1.142551
  H     -2.373133    1.098063    0.978224
  H     -1.202533    2.100908    0.122917
  H     -0.683924    1.085103    1.467371
  H     -1.076373   -2.169621   -0.363287
  H     -0.595371   -1.441800    1.174149
  H     -2.289900   -1.454938    0.698605

 Total Charge           Charge          ....    0
 Multiplicity           Mult            ....    1
 Number of Electrons    NEL             ....   50
 Basis Dimension        Dim             ....  112

ORBITAL ENERGIES
----------------

  NO   OCC          E(Eh)            E(eV)
   0   2.0000      -9.888966      -269.0924
   1   2.0000      -9.878546      -268.8089
   2   2.0000      -9.876041      -268.7408
   3   2.0000      -9.869181      -268.5541
   4   2.0000      -9.869015      -268.5496
   5   2.0000      -9.866584      -268.4834
   6   2.0000      -0.730271       -19.8717
   7   2.0000      -0.678172       -18.4540
   8   2.0000      -0.608075       -16.5466
   9   2.0000      -0.605092       -16.4654
  10   2.0000      -0.531045       -14.4505
  11   2.0000      -0.475153       -12.9296
  12   2.0000      -0.424376       -11.5479
  13   2.0000      -0.403594       -10.9824
  14   2.0000      -0.382506       -10.4085
  15   2.0000      -0.365722        -9.9518
  16   2.0000      -0.365268        -9.9394
  17   2.0000      -0.336864        -9.1665
  18   2.0000      -0.329585        -8.9685
  19   2.0000      -0.313098        -8.5198
  20   2.0000      -0.307003        -8.3540
  21   2.0000      -0.295598        -8.0436
  22   2.0000      -0.274577        -7.4716
  23   2.0000      -0.266377        -7.2485
  24   2.0000      -0.259322        -7.0565
  25   0.0000       0.029050         0.7905
  26   0.0000       0.060898         1.6571
  27   0.0000       0.069971         1.9040
  28   0.0000       0.073074         1.9884
  29   0.0000       0.093071         2.5326

MULLIKEN ATOMIC CHARGES
-----------------------
   0 C :   -0.284535
   1 C :   -0.186968
   2 C :   -0.141431
   3 C :   -0.161800
   4 C :   -0.250191
   5 C :   -0.258413
   6 H :    0.098564
   7 H :    0.095984
   8 H :    0.114593
   9 H :    0.082157
  10 H :    0.087606
  11 H :    0.074369
  12 H :    0.076661
  13 H :    0.067807
  14 H :    0.094670
  15 H :    0.094286
  16 H :    0.097455
  17 H :    0.099400
  18 H :    0.102737
  19 H :    0.097049
Sum of atomic charges:   -0.0000000

LOEWDIN ATOMIC CHARGES
----------------------
   0 C :   -0.343860
   1 C :   -0.235495
   2 C :   -0.220526
   3 C :   -0.157534
   4 C :   -0.332453
   5 C :   -0.331089
   6 H :    0.118400
   7 H :    0.116526
   8 H :    0.114557
   9 H :    0.116544
  10 H :    0.114739
  11 H :    0.111778
  12 H :    0.115103
  13 H :    0.114907
  14 H :    0.116251
  15 H :    0.115530
  16 H :    0.115347
  17 H :    0.116830
  18 H :    0.116408
  19 H :    0.118037

  Mayer bond orders larger than 0.100000
B(  0-C ,  1-C ) :   1.1648 B(  0-C ,  6-H ) :   0.9485 B(  0-C ,  7-H ) :   0.9526
B(  0-C ,  8-H ) :   0.9418 B(  1-C ,  2-C ) :   1.1395 B(  1-C ,  9-H ) :   0.9234
B(  1-C , 10-H ) :   0.9159 B(  2-C ,  3-C ) :   1.0834 B(  2-C , 11-H ) :   0.9211
B(  2-C , 12-H ) :   0.9157 B(  3-C ,  4-C ) :   1.1196 B(  3-C ,  5-C ) :   1.1135
B(  3-C , 13-H ) :   0.9014 B(  4-C , 14-H ) :   0.9494 B(  4-C , 15-H ) :   0.9489
B(  4-C , 16-H ) :   0.9420 B(  5-C , 17-H ) :   0.9505 B(  5-C , 18-H ) :   0.9403
B(  5-C , 19-H ) :   0.9490

Dispersion correction           -0.015512910
FINAL SINGLE POINT ENERGY      -236.446185111522

DIPOLE MOMENT
-------------

Method             : SCF
Type of density    : Electron Density
Multiplicity       :   1
Irrep              :   0
Energy             :  -236.5136501803803526 Eh
Relativity type    :
Basis              : AO
                                X                 Y                 Z
Electronic contribution:     -0.306018831      -0.228450224      -1.520067000
Nuclear contribution   :      0.303069138       0.202767768       1.485500553
                        -----------------------------------------
Total Dipole Moment    :     -0.002949693      -0.025682456      -0.034566446
                        -----------------------------------------
Magnitude (a.u.)       :      0.043163972
Magnitude (Debye)      :      0.109714097

Rotational constants in cm-1:             0.148736             0.078785             0.070605
Rotational constants in MHz :          4458.990100          2361.929033          2116.688814

                             ****ORCA TERMINATED NORMALLY****
TOTAL RUN TIME: 0 days 0 hours 0 minutes 8 seconds 487 msec
