                         Program Version 6.0.0  -   RELEASE  -
|  1> ! pbe def2-sv(p) def2/J RI DEFGRID1 loosescf d4 GCP(DFT/SV(P)) printgap
|  2> %output
|  3>     printlevel normal
|  4> end
|  5> * xyz 0 1
|  6> C 2.2120434403 0.7730877464 -0.5499978823
|  7> C 1.690453785 -0.434940146 0.2200018195
|  8> C 0.3046240552 -0.1952510651 0.8216472484
|  9> C -0.8202155296 -0.1334714944 -0.2315587793
| 10> C -1.5488229086 1.2086372185 -0.1870102272
| 11> C -1.8153619119 -1.276669447 -0.0364956688
| 12> H 3.1992806173 0.5675757859 -0.9571938628
| 13> H 1.5491804332 1.025600226 -1.3738802331
| 14> H 2.2847062893 1.6369533423 0.1073275556
| 15> H 1.6520588404 -1.3031274223 -0.4420447856
| 16> H 2.3899654815 -0.666778462 1.026666338
| 17> H 0.090460582 -0.9980331057 1.5297794106
| 18> H 0.3298601919 0.7365487099 1.3898239161
| 19> H -0.3771118004 -0.2451055903 -1.2267472218
| 20> H -0.8536258986 2.0279209175 -0.3547307992
| 21> H -2.0226983765 1.3498948996 0.7822933858
| 22> H -2.3195624381 1.250585956 -0.9538447078
| 23> H -2.583046136 -1.2507763326 -0.8070711682
| 24> H -1.3087432007 -2.2377835072 -0.0901329126
| 25> H -2.3014866598 -1.1950619543 0.9337588797
| 26> *
| 27>
| 28>                          ****END OF INPUT****

CARTESIAN COORDINATES (ANGSTROEM)
---------------------------------
  C      2.212043    0.773088   -0.549998
  C      1.690454   -0.434940    0.220002
  C      0.304624   -0.195251    0.821647
  C     -0.820216   -0.133471   -0.231559
  C     -1.548823    1.208637   -0.187010
  C     -1.815362   -1.276669   -0.036496
  H      3.199281    0.567576   -0.957194
  H      1.549180    1.025600   -1.373880
  H      2.284706    1.636953    0.107328
  H      1.652059   -1.303127   -0.442045
  H      2.389965   -0.666778    1.026666
  H      0.090461   -0.998033    1.529779
  H      0.329860    0.736549    1.389824
  H     -0.377112   -0.245106   -1.226747
  H     -0.853626    2.027921   -0.354731
  H     -2.022698    1.349895    0.782293
  H     -2.319562    1.250586   -0.953845
  H     -2.583046   -1.250776   -0.807071
  H     -1.308743   -2.237784   -0.090133
  H     -2.301487   -1.195062    0.933759

 Total Charge           Charge          ....    0
 Multiplicity           Mult            ....    1
 Number of Electrons    NEL             ....   50
 Basis Dimension        Dim             ....  112

ORBITAL ENERGIES
----------------

  NO   OCC          E(Eh)            E(eV)
   0   2.0000      -9.888785      -269.0875
   1   2.0000      -9.879836      -268.8440
   2   2.0000      -9.874690      -268.7040
   3   2.0000      -9.869868      -268.5728
   4   2.0000      -9.868495      -268.5354
   5   2.0000      -9.868152      -268.5261
   6   2.0000      -0.731669       -19.9097
   7   2.0000      -0.681492       -18.5443
   8   2.0000      -0.606996       -16.5172
   9   2.0000      -0.600805       -16.3487
  10   2.0000      -0.524625       -14.2758
  11   2.0000      -0.492718       -13.4075
  12   2.0000      -0.409853       -11.1527
  13   2.0000      -0.405582       -11.0364
  14   2.0000      -0.389512       -10.5992
  15   2.0000      -0.372241       -10.1292
  16   2.0000      -0.358386        -9.7522
  17   2.0000      -0.340240        -9.2584
  18   2.0000      -0.328463        -8.9379
  19   2.0000      -0.315853        -8.5948
  20   2.0000      -0.298863        -8.1325
  21   2.0000      -0.294975        -8.0267
  22   2.0000      -0.274006        -7.4561
  23   2.0000      -0.270519        -7.3612
  24   2.0000      -0.264321        -7.1925
  25   0.0000       0.035568         0.9679
  26   0.0000       0.060271         1.6401
  27   0.0000       0.065762         1.7895
  28   0.0000       0.069807         1.8996
  29   0.0000       0.095915         2.6100

MULLIKEN ATOMIC CHARGES
-----------------------
   0 C :   -0.286164
   1 C :   -0.195714
   2 C :   -0.115476
   3 C :   -0.181643
   4 C :   -0.256426
   5 C :   -0.255135
   6 H :    0.102608
   7 H :    0.107297
   8 H :    0.097347
   9 H :    0.087482
  10 H :    0.082292
  11 H :    0.077143
  12 H :    0.074938
  13 H :    0.079684
  14 H :    0.100818
  15 H :    0.096291
  16 H :    0.093965
  17 H :    0.094768
  18 H :    0.099566
  19 H :    0.096358
Sum of atomic charges:   -0.0000000

LOEWDIN ATOMIC CHARGES
----------------------
   0 C :   -0.343129
   1 C :   -0.231867
   2 C :   -0.217396
   3 C :   -0.158138
   4 C :   -0.329964
   5 C :   -0.329016
   6 H :    0.118699
   7 H :    0.116038
   8 H :    0.116185
   9 H :    0.112822
  10 H :    0.113881
  11 H :    0.115308
  12 H :    0.113487
  13 H :    0.111779
  14 H :    0.115195
  15 H :    0.115696
  16 H :    0.114788
  17 H :    0.114720
  18 H :    0.115562
  19 H :    0.115352

  Mayer bond orders larger than 0.100000
B(  0-C ,  1-C ) :   1.1536 B(  0-C ,  6-H ) :   0.9521 B(  0-C ,  7-H ) :   0.9488
B(  0-C ,  8-H ) :   0.9536 B(  1-C ,  2-C ) :   1.1263 B(  1-C ,  9-H ) :   0.9267
B(  1-C , 10-H ) :   0.9252 B(  2-C ,  3-C ) :   1.0317 B(  2-C , 11-H ) :   0.9227
B(  2-C , 12-H ) :   0.9251 B(  3-C ,  4-C ) :   1.1184 B(  3-C ,  5-C ) :   1.1220
B(  3-C , 13-H ) :   0.9114 B(  4-C , 14-H ) :   0.9497 B(  4-C , 15-H ) :   0.9483
B(  4-C , 16-H ) :   0.9513 B(  5-C , 17-H ) :   0.9515 B(  5-C , 18-H ) :   0.9495
B(  5-C , 19-H ) :   0.9483

Dispersion correction           -0.014782075
FINAL SINGLE POINT ENERGY      -236.445529229310

DIPOLE MOMENT
-------------

Method             : SCF
Type of density    : Electron Density
Multiplicity       :   1
Irrep              :   0
Energy             :  -236.5133635756733952 Eh
Relativity type    :
Basis              : AO
                                X                 Y                 Z
Electronic contribution:      0.293556026      -0.675137193       0.395743926
Nuclear contribution   :     -0.254018466       0.655224395      -0.409034712
                        -----------------------------------------
Total Dipole Moment    :      0.039537560      -0.019912798      -0.013290786
                        -----------------------------------------
Magnitude (a.u.)       :      0.046221025
Magnitude (Debye)      :      0.117484510

Rotational constants in cm-1:             0.179744             0.067984             0.056989
Rotational constants in MHz :          5388.587381          2038.099445          1708.484932

                             ****ORCA TERMINATED NORMALLY****
TOTAL RUN TIME: 0 days 0 hours 0 minutes 7 seconds 979 msec
