                         Program Version 6.0.0  -   RELEASE  -
|  1> ! r2scan-3c def2/J RI DEFGRID2 scfconv6 printgap
|  2> %output
|  3>     printlevel normal
|  4> end
|  5> * xyz 0 1
|  6> C -1.4401337782 0.0376930646 0.6212757562
|  7> C 0.0663583699 0.334646397 0.5100724279
|  8> C 0.8184403346 -0.8842038175 -0.043570518
|  9> O 2.2158396884 -0.7425556116 -0.004903953
| 10> O 0.2834685175 1.4192752448 -0.3720729965
| 11> O -2.0067882498 -0.2840007697 -0.6255991714
| 12> H -1.9507419421 0.9115561742 1.051331445
| 13> H -1.609843498 -0.8218939059 1.2711968606
| 14> H 0.4542771521 0.5693242738 1.5114281147
| 15> H 0.5630988099 -1.0105777439 -1.0968243532
| 16> H 0.5004575833 -1.7776402238 0.5080815318
| 17> H 2.5040920318 -0.6338718361 0.9125271735
| 18> H 0.045503614 2.2500325555 0.0620224203
| 19> H -1.7073541019 0.3787368947 -1.2675945676
| 20> *
| 21>
| 22>                          ****END OF INPUT****

CARTESIAN COORDINATES (ANGSTROEM)
---------------------------------
  C     -1.440134    0.037693    0.621276
  C      0.066358    0.334646    0.510072
  C      0.818440   -0.884204   -0.043571
  O      2.215840   -0.742556   -0.004904
  O      0.283469    1.419275   -0.372073
  O     -2.006788   -0.284001   -0.625599
  H     -1.950742    0.911556    1.051331
  H     -1.609843   -0.821894    1.271197
  H      0.454277    0.569324    1.511428
  H      0.563099   -1.010578   -1.096824
  H      0.500458   -1.777640    0.508082
  H      2.504092   -0.633872    0.912527
  H      0.045504    2.250033    0.062022
  H     -1.707354    0.378737   -1.267595

 Total Charge           Charge          ....    0
 Multiplicity           Mult            ....    1
 Number of Electrons    NEL             ....   50
 Basis Dimension        Dim             ....  169

ORBITAL ENERGIES
----------------

  NO   OCC          E(Eh)            E(eV)
   0   2.0000     -18.965311      -516.0724
   1   2.0000     -18.950844      -515.6787
   2   2.0000     -18.950296      -515.6638
   3   2.0000     -10.093271      -274.6519
   4   2.0000     -10.082879      -274.3691
   5   2.0000     -10.078074      -274.2383
   6   2.0000      -1.011614       -27.5274
   7   2.0000      -0.987648       -26.8753
   8   2.0000      -0.981026       -26.6951
   9   2.0000      -0.730205       -19.8699
  10   2.0000      -0.645917       -17.5763
  11   2.0000      -0.578059       -15.7298
  12   2.0000      -0.508352       -13.8330
  13   2.0000      -0.485776       -13.2186
  14   2.0000      -0.467358       -12.7175
  15   2.0000      -0.420148       -11.4328
  16   2.0000      -0.412531       -11.2255
  17   2.0000      -0.390789       -10.6339
  18   2.0000      -0.382121       -10.3980
  19   2.0000      -0.329884        -8.9766
  20   2.0000      -0.312589        -8.5060
  21   2.0000      -0.296974        -8.0811
  22   2.0000      -0.264562        -7.1991
  23   2.0000      -0.245107        -6.6697
  24   2.0000      -0.229456        -6.2438
  25   0.0000       0.041199         1.1211
  26   0.0000       0.059342         1.6148
  27   0.0000       0.078324         2.1313
  28   0.0000       0.099245         2.7006
  29   0.0000       0.123595         3.3632

MULLIKEN ATOMIC CHARGES
-----------------------
   0 C :   -0.167499
   1 C :    0.047202
   2 C :   -0.215813
   3 O :   -0.390628
   4 O :   -0.422487
   5 O :   -0.426283
   6 H :    0.128919
   7 H :    0.137638
   8 H :    0.121941
   9 H :    0.153941
  10 H :    0.129814
  11 H :    0.289772
  12 H :    0.298554
  13 H :    0.314929
Sum of atomic charges:   -0.0000000

LOEWDIN ATOMIC CHARGES
----------------------
   0 C :    0.014609
   1 C :    0.062556
   2 C :    0.030997
   3 O :   -0.591407
   4 O :   -0.588831
   5 O :   -0.602101
   6 H :    0.158479
   7 H :    0.179810
   8 H :    0.166733
   9 H :    0.193738
  10 H :    0.164423
  11 H :    0.264358
  12 H :    0.271535
  13 H :    0.275101

  Mayer bond orders larger than 0.100000
B(  0-C ,  1-C ) :   0.9423 B(  0-C ,  5-O ) :   0.9568 B(  0-C ,  6-H ) :   0.9694
B(  0-C ,  7-H ) :   0.9672 B(  1-C ,  2-C ) :   0.9409 B(  1-C ,  4-O ) :   0.9106
B(  1-C ,  8-H ) :   0.9362 B(  2-C ,  3-O ) :   0.9910 B(  2-C ,  9-H ) :   0.9640
B(  2-C , 10-H ) :   0.9753 B(  3-O , 11-H ) :   0.8967 B(  4-O , 12-H ) :   0.8967
B(  5-O , 13-H ) :   0.8712

Dispersion correction           -0.003037864
FINAL SINGLE POINT ENERGY      -344.721430720959

DIPOLE MOMENT
-------------

Method             : SCF
Type of density    : Electron Density
Multiplicity       :   1
Irrep              :   0
Energy             :  -344.7288514547745990 Eh
Relativity type    :
Basis              : AO
                                X                 Y                 Z
Electronic contribution:      0.989519582       0.714918054      -1.662585242
Nuclear contribution   :     -1.118972271      -0.120196007       2.754756413
                        -----------------------------------------
Total Dipole Moment    :     -0.129452689       0.594722048       1.092171171
                        -----------------------------------------
Magnitude (a.u.)       :      1.250316032
Magnitude (Debye)      :      3.178050789

Rotational constants in cm-1:             0.197336             0.075536             0.065079
Rotational constants in MHz :          5915.985272          2264.503670          1951.031474

                             ****ORCA TERMINATED NORMALLY****
TOTAL RUN TIME: 0 days 0 hours 0 minutes 20 seconds 583 msec
