                         Program Version 6.0.0  -   RELEASE  -
|  1> ! r2scan-3c def2/J RI DEFGRID2 scfconv6 printgap
|  2> %output
|  3>     printlevel normal
|  4> end
|  5> %cpcm
|  6>     smd true
|  7>     smdsolvent "water"
|  8> end
|  9> * xyz 0 1
| 10> C -1.4401337782 0.0376930646 0.6212757562
| 11> C 0.0663583699 0.334646397 0.5100724279
| 12> C 0.8184403346 -0.8842038175 -0.043570518
| 13> O 2.2158396884 -0.7425556116 -0.004903953
| 14> O 0.2834685175 1.4192752448 -0.3720729965
| 15> O -2.0067882498 -0.2840007697 -0.6255991714
| 16> H -1.9507419421 0.9115561742 1.051331445
| 17> H -1.609843498 -0.8218939059 1.2711968606
| 18> H 0.4542771521 0.5693242738 1.5114281147
| 19> H 0.5630988099 -1.0105777439 -1.0968243532
| 20> H 0.5004575833 -1.7776402238 0.5080815318
| 21> H 2.5040920318 -0.6338718361 0.9125271735
| 22> H 0.045503614 2.2500325555 0.0620224203
| 23> H -1.7073541019 0.3787368947 -1.2675945676
| 24> *
| 25>
| 26>                          ****END OF INPUT****

CARTESIAN COORDINATES (ANGSTROEM)
---------------------------------
  C     -1.440134    0.037693    0.621276
  C      0.066358    0.334646    0.510072
  C      0.818440   -0.884204   -0.043571
  O      2.215840   -0.742556   -0.004904
  O      0.283469    1.419275   -0.372073
  O     -2.006788   -0.284001   -0.625599
  H     -1.950742    0.911556    1.051331
  H     -1.609843   -0.821894    1.271197
  H      0.454277    0.569324    1.511428
  H      0.563099   -1.010578   -1.096824
  H      0.500458   -1.777640    0.508082
  H      2.504092   -0.633872    0.912527
  H      0.045504    2.250033    0.062022
  H     -1.707354    0.378737   -1.267595

 Total Charge           Charge          ....    0
 Multiplicity           Mult            ....    1
 Number of Electrons    NEL             ....   50
 Basis Dimension        Dim             ....  169

ORBITAL ENERGIES
----------------

  NO   OCC          E(Eh)            E(eV)
   0   2.0000     -18.956764      -515.8398
   1   2.0000     -18.954053      -515.7660
   2   2.0000     -18.953027      -515.7381
   3   2.0000     -10.080411      -274.3019
   4   2.0000     -10.072043      -274.0742
   5   2.0000     -10.070888      -274.0428
   6   2.0000      -1.006169       -27.3793
   7   2.0000      -0.989579       -26.9278
   8   2.0000      -0.978471       -26.6255
   9   2.0000      -0.720284       -19.5999
  10   2.0000      -0.638911       -17.3857
  11   2.0000      -0.570183       -15.5155
  12   2.0000      -0.497958       -13.5501
  13   2.0000      -0.480540       -13.0762
  14   2.0000      -0.460616       -12.5340
  15   2.0000      -0.413985       -11.2651
  16   2.0000      -0.406306       -11.0562
  17   2.0000      -0.388634       -10.5753
  18   2.0000      -0.378299       -10.2940
  19   2.0000      -0.330378        -8.9900
  20   2.0000      -0.313394        -8.5279
  21   2.0000      -0.295750        -8.0478
  22   2.0000      -0.261049        -7.1035
  23   2.0000      -0.248321        -6.7572
  24   2.0000      -0.229230        -6.2377
  25   0.0000       0.062155         1.6913
  26   0.0000       0.076968         2.0944
  27   0.0000       0.099764         2.7147
  28   0.0000       0.116909         3.1812
  29   0.0000       0.137165         3.7324

MULLIKEN ATOMIC CHARGES
-----------------------
   0 C :   -0.181197
   1 C :    0.077468
   2 C :   -0.235997
   3 O :   -0.487668
   4 O :   -0.498928
   5 O :   -0.507362
   6 H :    0.148840
   7 H :    0.158148
   8 H :    0.158074
   9 H :    0.161463
  10 H :    0.153317
  11 H :    0.351585
  12 H :    0.351255
  13 H :    0.351003
Sum of atomic charges:   -0.0000000

LOEWDIN ATOMIC CHARGES
----------------------
   0 C :    0.018505
   1 C :    0.073381
   2 C :    0.024943
   3 O :   -0.630871
   4 O :   -0.616602
   5 O :   -0.641761
   6 H :    0.170039
   7 H :    0.187582
   8 H :    0.184807
   9 H :    0.190799
  10 H :    0.175420
  11 H :    0.285760
  12 H :    0.291117
  13 H :    0.286879

  Mayer bond orders larger than 0.100000
B(  0-C ,  1-C ) :   0.9513 B(  0-C ,  5-O ) :   0.9366 B(  0-C ,  6-H ) :   0.9617
B(  0-C ,  7-H ) :   0.9614 B(  1-C ,  2-C ) :   0.9284 B(  1-C ,  4-O ) :   0.9024
B(  1-C ,  8-H ) :   0.9293 B(  2-C ,  3-O ) :   0.9794 B(  2-C ,  9-H ) :   0.9693
B(  2-C , 10-H ) :   0.9667 B(  3-O , 11-H ) :   0.8667 B(  4-O , 12-H ) :   0.8702
B(  5-O , 13-H ) :   0.8539

Dispersion correction           -0.003037864
FINAL SINGLE POINT ENERGY      -344.745552854618

DIPOLE MOMENT
-------------

Method             : SCF
Type of density    : Electron Density
Multiplicity       :   1
Irrep              :   0
Energy             :  -344.7529735884338038 Eh
Relativity type    :
Basis              : AO
                                X                 Y                 Z
Electronic contribution:      0.898730388       0.923541522      -1.123087253
Nuclear contribution   :     -1.118972271      -0.120196007       2.754756413
                        -----------------------------------------
Total Dipole Moment    :     -0.220241883       0.803345515       1.631669160
                        -----------------------------------------
Magnitude (a.u.)       :      1.831997476
Magnitude (Debye)      :      4.656567520

Rotational constants in cm-1:             0.197336             0.075536             0.065079
Rotational constants in MHz :          5915.985272          2264.503670          1951.031474

                             ****ORCA TERMINATED NORMALLY****
TOTAL RUN TIME: 0 days 0 hours 0 minutes 23 seconds 238 msec
