                         Program Version 6.0.0  -   RELEASE  -
|  1> ! r2scan-3c def2/J RI DEFGRID2 scfconv6 printgap
|  2> %output
|  3>     printlevel normal
|  4> end
|  5> * xyz 0 1
|  6> C -1.3605626834 -0.073020311 -0.5445823056
|  7> C -0.0149337317 0.019894824 0.1795274506
|  8> C 1.0894795936 -0.7364729509 -0.5692007916
|  9> O 2.2811665238 -0.5812177019 0.171743211
| 10> O 0.3246052592 1.3835367997 0.3040444196
| 11> O -2.3921616334 -0.0637028845 0.4158161867
| 12> H -1.3984263326 -0.9997856788 -1.1320952526
| 13> H -1.4386404237 0.7884827289 -1.2167410261
| 14> H -0.1330168591 -0.4259366121 1.1787083515
| 15> H 1.1978079738 -0.3060300868 -1.5727104699
| 16> H 0.81446484 -1.7940202612 -0.6508043252
| 17> H 3.0061673656 -1.0333620548 -0.280001846
| 18> H 1.215199773 1.4324438134 0.6838148209
| 19> H -3.2460580593 0.0228323975 -0.0302214469
| 20> *
| 21>
| 22>                          ****END OF INPUT****

CARTESIAN COORDINATES (ANGSTROEM)
---------------------------------
  C     -1.360563   -0.073020   -0.544582
  C     -0.014934    0.019895    0.179527
  C      1.089480   -0.736473   -0.569201
  O      2.281167   -0.581218    0.171743
  O      0.324605    1.383537    0.304044
  O     -2.392162   -0.063703    0.415816
  H     -1.398426   -0.999786   -1.132095
  H     -1.438640    0.788483   -1.216741
  H     -0.133017   -0.425937    1.178708
  H      1.197808   -0.306030   -1.572710
  H      0.814465   -1.794020   -0.650804
  H      3.006167   -1.033362   -0.280002
  H      1.215200    1.432444    0.683815
  H     -3.246058    0.022832   -0.030221

 Total Charge           Charge          ....    0
 Multiplicity           Mult            ....    1
 Number of Electrons    NEL             ....   50
 Basis Dimension        Dim             ....  169

ORBITAL ENERGIES
----------------

  NO   OCC          E(Eh)            E(eV)
   0   2.0000     -18.963776      -516.0306
   1   2.0000     -18.949990      -515.6554
   2   2.0000     -18.941000      -515.4108
   3   2.0000     -10.083325      -274.3812
   4   2.0000     -10.081146      -274.3219
   5   2.0000     -10.078857      -274.2596
   6   2.0000      -1.005891       -27.3717
   7   2.0000      -0.989461       -26.9246
   8   2.0000      -0.972863       -26.4730
   9   2.0000      -0.729392       -19.8478
  10   2.0000      -0.643747       -17.5173
  11   2.0000      -0.555936       -15.1278
  12   2.0000      -0.504848       -13.7376
  13   2.0000      -0.488140       -13.2830
  14   2.0000      -0.474897       -12.9226
  15   2.0000      -0.429829       -11.6962
  16   2.0000      -0.394005       -10.7214
  17   2.0000      -0.385141       -10.4802
  18   2.0000      -0.375392       -10.2149
  19   2.0000      -0.328096        -8.9280
  20   2.0000      -0.317429        -8.6377
  21   2.0000      -0.285669        -7.7735
  22   2.0000      -0.253054        -6.8859
  23   2.0000      -0.242296        -6.5932
  24   2.0000      -0.228735        -6.2242
  25   0.0000       0.045911         1.2493
  26   0.0000       0.058917         1.6032
  27   0.0000       0.089059         2.4234
  28   0.0000       0.103543         2.8175
  29   0.0000       0.130507         3.5513

MULLIKEN ATOMIC CHARGES
-----------------------
   0 C :   -0.196745
   1 C :    0.096166
   2 C :   -0.172294
   3 O :   -0.440975
   4 O :   -0.431726
   5 O :   -0.415793
   6 H :    0.116048
   7 H :    0.146276
   8 H :    0.147005
   9 H :    0.127830
  10 H :    0.123233
  11 H :    0.298826
  12 H :    0.307670
  13 H :    0.294478
Sum of atomic charges:    0.0000000

LOEWDIN ATOMIC CHARGES
----------------------
   0 C :    0.038952
   1 C :    0.091978
   2 C :    0.018964
   3 O :   -0.621880
   4 O :   -0.584498
   5 O :   -0.610387
   6 H :    0.158732
   7 H :    0.176356
   8 H :    0.185187
   9 H :    0.164865
  10 H :    0.162074
  11 H :    0.271142
  12 H :    0.280225
  13 H :    0.268291

  Mayer bond orders larger than 0.100000
B(  0-C ,  1-C ) :   0.9440 B(  0-C ,  5-O ) :   0.9470 B(  0-C ,  6-H ) :   0.9636
B(  0-C ,  7-H ) :   0.9639 B(  1-C ,  2-C ) :   0.9363 B(  1-C ,  4-O ) :   0.9085
B(  1-C ,  8-H ) :   0.9501 B(  2-C ,  3-O ) :   0.9532 B(  2-C ,  9-H ) :   0.9602
B(  2-C , 10-H ) :   0.9560 B(  3-O , 11-H ) :   0.8976 B(  4-O , 12-H ) :   0.8765
B(  5-O , 13-H ) :   0.8979

Dispersion correction           -0.002925298
FINAL SINGLE POINT ENERGY      -344.720190492778

DIPOLE MOMENT
-------------

Method             : SCF
Type of density    : Electron Density
Multiplicity       :   1
Irrep              :   0
Energy             :  -344.7277869316772581 Eh
Relativity type    :
Basis              : AO
                                X                 Y                 Z
Electronic contribution:      0.253681156       1.448329112       1.903322311
Nuclear contribution   :      0.019588814      -2.161254452      -2.820090119
                        -----------------------------------------
Total Dipole Moment    :      0.273269969      -0.712925340      -0.916767808
                        -----------------------------------------
Magnitude (a.u.)       :      1.193064219
Magnitude (Debye)      :      3.032528245

Rotational constants in cm-1:             0.247179             0.065113             0.056936
Rotational constants in MHz :          7410.251499          1952.030888          1706.912233

                             ****ORCA TERMINATED NORMALLY****
TOTAL RUN TIME: 0 days 0 hours 0 minutes 20 seconds 529 msec
