                         Program Version 6.0.0  -   RELEASE  -
|  1> ! r2scan-3c def2/J RI DEFGRID2 scfconv6 printgap
|  2> %output
|  3>     printlevel normal
|  4> end
|  5> %cpcm
|  6>     smd true
|  7>     smdsolvent "water"
|  8> end
|  9> * xyz 0 1
| 10> C -1.3605626834 -0.073020311 -0.5445823056
| 11> C -0.0149337317 0.019894824 0.1795274506
| 12> C 1.0894795936 -0.7364729509 -0.5692007916
| 13> O 2.2811665238 -0.5812177019 0.171743211
| 14> O 0.3246052592 1.3835367997 0.3040444196
| 15> O -2.3921616334 -0.0637028845 0.4158161867
| 16> H -1.3984263326 -0.9997856788 -1.1320952526
| 17> H -1.4386404237 0.7884827289 -1.2167410261
| 18> H -0.1330168591 -0.4259366121 1.1787083515
| 19> H 1.1978079738 -0.3060300868 -1.5727104699
| 20> H 0.81446484 -1.7940202612 -0.6508043252
| 21> H 3.0061673656 -1.0333620548 -0.280001846
| 22> H 1.215199773 1.4324438134 0.6838148209
| 23> H -3.2460580593 0.0228323975 -0.0302214469
| 24> *
| 25>
| 26>                          ****END OF INPUT****

CARTESIAN COORDINATES (ANGSTROEM)
---------------------------------
  C     -1.360563   -0.073020   -0.544582
  C     -0.014934    0.019895    0.179527
  C      1.089480   -0.736473   -0.569201
  O      2.281167   -0.581218    0.171743
  O      0.324605    1.383537    0.304044
  O     -2.392162   -0.063703    0.415816
  H     -1.398426   -0.999786   -1.132095
  H     -1.438640    0.788483   -1.216741
  H     -0.133017   -0.425937    1.178708
  H      1.197808   -0.306030   -1.572710
  H      0.814465   -1.794020   -0.650804
  H      3.006167   -1.033362   -0.280002
  H      1.215200    1.432444    0.683815
  H     -3.246058    0.022832   -0.030221

 Total Charge           Charge          ....    0
 Multiplicity           Mult            ....    1
 Number of Electrons    NEL             ....   50
 Basis Dimension        Dim             ....  169

ORBITAL ENERGIES
----------------

  NO   OCC          E(Eh)            E(eV)
   0   2.0000     -18.956568      -515.8344
   1   2.0000     -18.954276      -515.7721
   2   2.0000     -18.953740      -515.7575
   3   2.0000     -10.081632      -274.3352
   4   2.0000     -10.074561      -274.1427
   5   2.0000     -10.073454      -274.1126
   6   2.0000      -1.006129       -27.3782
   7   2.0000      -0.990342       -26.9486
   8   2.0000      -0.978771       -26.6337
   9   2.0000      -0.727012       -19.7830
  10   2.0000      -0.638186       -17.3659
  11   2.0000      -0.555799       -15.1241
  12   2.0000      -0.503572       -13.7029
  13   2.0000      -0.481226       -13.0948
  14   2.0000      -0.473937       -12.8965
  15   2.0000      -0.425462       -11.5774
  16   2.0000      -0.393541       -10.7088
  17   2.0000      -0.390166       -10.6169
  18   2.0000      -0.374532       -10.1915
  19   2.0000      -0.332752        -9.0546
  20   2.0000      -0.322295        -8.7701
  21   2.0000      -0.290240        -7.8978
  22   2.0000      -0.250900        -6.8273
  23   2.0000      -0.247893        -6.7455
  24   2.0000      -0.237811        -6.4712
  25   0.0000       0.064436         1.7534
  26   0.0000       0.074049         2.0150
  27   0.0000       0.095698         2.6041
  28   0.0000       0.117471         3.1966
  29   0.0000       0.136010         3.7010

MULLIKEN ATOMIC CHARGES
-----------------------
   0 C :   -0.200790
   1 C :    0.103480
   2 C :   -0.184576
   3 O :   -0.506836
   4 O :   -0.506399
   5 O :   -0.500245
   6 H :    0.146824
   7 H :    0.158388
   8 H :    0.146211
   9 H :    0.148196
  10 H :    0.149019
  11 H :    0.350514
  12 H :    0.346023
  13 H :    0.350190
Sum of atomic charges:    0.0000000

LOEWDIN ATOMIC CHARGES
----------------------
   0 C :    0.042551
   1 C :    0.085176
   2 C :    0.027263
   3 O :   -0.643762
   4 O :   -0.623331
   5 O :   -0.645529
   6 H :    0.173460
   7 H :    0.181509
   8 H :    0.185688
   9 H :    0.173151
  10 H :    0.174436
  11 H :    0.289743
  12 H :    0.291548
  13 H :    0.288098

  Mayer bond orders larger than 0.100000
B(  0-C ,  1-C ) :   0.9320 B(  0-C ,  5-O ) :   0.9298 B(  0-C ,  6-H ) :   0.9617
B(  0-C ,  7-H ) :   0.9639 B(  1-C ,  2-C ) :   0.9487 B(  1-C ,  4-O ) :   0.8835
B(  1-C ,  8-H ) :   0.9362 B(  2-C ,  3-O ) :   0.9386 B(  2-C ,  9-H ) :   0.9604
B(  2-C , 10-H ) :   0.9538 B(  3-O , 11-H ) :   0.8709 B(  4-O , 12-H ) :   0.8585
B(  5-O , 13-H ) :   0.8703

Dispersion correction           -0.002925298
FINAL SINGLE POINT ENERGY      -344.742148767673

DIPOLE MOMENT
-------------

Method             : SCF
Type of density    : Electron Density
Multiplicity       :   1
Irrep              :   0
Energy             :  -344.7497452065723564 Eh
Relativity type    :
Basis              : AO
                                X                 Y                 Z
Electronic contribution:      0.331063044       1.118475365       1.484081212
Nuclear contribution   :      0.019588814      -2.161254452      -2.820090119
                        -----------------------------------------
Total Dipole Moment    :      0.350651858      -1.042779087      -1.336008907
                        -----------------------------------------
Magnitude (a.u.)       :      1.730683319
Magnitude (Debye)      :      4.399047398

Rotational constants in cm-1:             0.247179             0.065113             0.056936
Rotational constants in MHz :          7410.251499          1952.030888          1706.912233

                             ****ORCA TERMINATED NORMALLY****
TOTAL RUN TIME: 0 days 0 hours 0 minutes 23 seconds 294 msec
