                         Program Version 6.0.0  -   RELEASE  -
|  1> ! pbe def2-sv(p) def2/J RI DEFGRID1 loosescf d4 GCP(DFT/SV(P)) printgap
|  2> %output
|  3>     printlevel normal
|  4> end
|  5> * xyz 0 1
|  6> C -2.7627355055 0.2755803901 0.0036392985
|  7> C -1.3461818085 -0.0132985592 0.4845437976
|  8> C -0.3322391562 0.1304035004 -0.6627797488
|  9> C 1.052576136 -0.147601438 -0.1386439964
| 10> O 1.5757973869 -1.2385355616 -0.1805813835
| 11> O 1.6910608875 0.8704746621 0.4343770263
| 12> H -2.8388817696 1.2908350416 -0.3772424576
| 13> H -3.4660109805 0.1612000631 0.8238445775
| 14> H -3.0440898217 -0.4125164505 -0.7892163549
| 15> H -1.0897366168 0.6709657006 1.2953180064
| 16> H -1.2878426215 -1.0299055209 0.8782260247
| 17> H -0.559354917 -0.6033083211 -1.4362481627
| 18> H -0.3924000611 1.1323725306 -1.0884220014
| 19> H 1.2010103315 1.7122722081 0.3977621097
| 20> *
| 21>
| 22>                          ****END OF INPUT****

CARTESIAN COORDINATES (ANGSTROEM)
---------------------------------
  C     -2.762736    0.275580    0.003639
  C     -1.346182   -0.013299    0.484544
  C     -0.332239    0.130404   -0.662780
  C      1.052576   -0.147601   -0.138644
  O      1.575797   -1.238536   -0.180581
  O      1.691061    0.870475    0.434377
  H     -2.838882    1.290835   -0.377242
  H     -3.466011    0.161200    0.823845
  H     -3.044090   -0.412516   -0.789216
  H     -1.089737    0.670966    1.295318
  H     -1.287843   -1.029906    0.878226
  H     -0.559355   -0.603308   -1.436248
  H     -0.392400    1.132373   -1.088422
  H      1.201010    1.712272    0.397762

 Total Charge           Charge          ....    0
 Multiplicity           Mult            ....    1
 Number of Electrons    NEL             ....   48
 Basis Dimension        Dim             ....  100

ORBITAL ENERGIES
----------------

  NO   OCC          E(Eh)            E(eV)
   0   2.0000     -18.800540      -511.5887
   1   2.0000     -18.727754      -509.6081
   2   2.0000     -10.010939      -272.4115
   3   2.0000      -9.910545      -269.6796
   4   2.0000      -9.908903      -269.6350
   5   2.0000      -9.890560      -269.1358
   6   2.0000      -1.003421       -27.3045
   7   2.0000      -0.910626       -24.7794
   8   2.0000      -0.734859       -19.9965
   9   2.0000      -0.648527       -17.6473
  10   2.0000      -0.571767       -15.5586
  11   2.0000      -0.548194       -14.9171
  12   2.0000      -0.465856       -12.6766
  13   2.0000      -0.442359       -12.0372
  14   2.0000      -0.409800       -11.1512
  15   2.0000      -0.385844       -10.4994
  16   2.0000      -0.373470       -10.1626
  17   2.0000      -0.355244        -9.6667
  18   2.0000      -0.341775        -9.3002
  19   2.0000      -0.317251        -8.6329
  20   2.0000      -0.315165        -8.5761
  21   2.0000      -0.306230        -8.3329
  22   2.0000      -0.266679        -7.2567
  23   2.0000      -0.213637        -5.8134
  24   0.0000      -0.022581        -0.6144
  25   0.0000      -0.001077        -0.0293
  26   0.0000       0.043268         1.1774
  27   0.0000       0.069905         1.9022
  28   0.0000       0.071511         1.9459

MULLIKEN ATOMIC CHARGES
-----------------------
   0 C :   -0.243886
   1 C :   -0.227670
   2 C :   -0.220158
   3 C :    0.133472
   4 O :   -0.183417
   5 O :   -0.287426
   6 H :    0.097559
   7 H :    0.112041
   8 H :    0.106470
   9 H :    0.085832
  10 H :    0.115508
  11 H :    0.110823
  12 H :    0.085486
  13 H :    0.315365
Sum of atomic charges:    0.0000000

LOEWDIN ATOMIC CHARGES
----------------------
   0 C :   -0.338825
   1 C :   -0.226470
   2 C :   -0.261590
   3 C :    0.025166
   4 O :   -0.153953
   5 O :   -0.204699
   6 H :    0.117169
   7 H :    0.124250
   8 H :    0.121888
   9 H :    0.112109
  10 H :    0.128649
  11 H :    0.139988
  12 H :    0.118253
  13 H :    0.298063

  Mayer bond orders larger than 0.100000
B(  0-C ,  1-C ) :   1.1527 B(  0-C ,  6-H ) :   0.9536 B(  0-C ,  7-H ) :   0.9510
B(  0-C ,  8-H ) :   0.9533 B(  1-C ,  2-C ) :   1.1094 B(  1-C ,  9-H ) :   0.9288
B(  1-C , 10-H ) :   0.9254 B(  2-C ,  3-C ) :   1.0203 B(  2-C , 11-H ) :   0.8997
B(  2-C , 12-H ) :   0.9030 B(  3-C ,  4-O ) :   2.1395 B(  3-C ,  5-O ) :   1.2045
B(  5-O , 13-H ) :   0.8274

Dispersion correction           -0.009258861
FINAL SINGLE POINT ENERGY      -307.023572611489

DIPOLE MOMENT
-------------

Method             : SCF
Type of density    : Electron Density
Multiplicity       :   1
Irrep              :   0
Energy             :  -307.0778514342180188 Eh
Relativity type    :
Basis              : AO
                                X                 Y                 Z
Electronic contribution:      9.561225772      -1.511496516       0.197257608
Nuclear contribution   :    -10.719175878       2.735795530      -0.273908999
                        -----------------------------------------
Total Dipole Moment    :     -1.157950106       1.224299014      -0.076651390
                        -----------------------------------------
Magnitude (a.u.)       :      1.686900103
Magnitude (Debye)      :      4.287759309

Rotational constants in cm-1:             0.265766             0.063349             0.056783
Rotational constants in MHz :          7967.459300          1899.145401          1702.325888

                             ****ORCA TERMINATED NORMALLY****
TOTAL RUN TIME: 0 days 0 hours 0 minutes 7 seconds 327 msec
