                         Program Version 6.0.0  -   RELEASE  -
|  1> ! r2scan-3c def2/J RI DEFGRID2 scfconv6 printgap
|  2> %output
|  3>     printlevel normal
|  4> end
|  5> * xyz 0 1
|  6> C -1.4917275646 1.1694144173 -0.5194103831
|  7> C -1.2061530943 0.3794405094 0.753038761
|  8> C -0.0809118914 -0.6592564892 0.632361393
|  9> H -0.0818418742 -1.2351611617 1.5662141218
| 10> C -0.3004871383 -1.6233571356 -0.5312247457
| 11> C 1.3135178333 -0.0220471399 0.545408567
| 12> O 1.5130933149 0.6274425209 -0.6939997281
| 13> H -1.9106943682 0.5260514169 -1.2881187866
| 14> H -2.207641472 1.9611508972 -0.3099488212
| 15> H -0.5791040798 1.6146697757 -0.9035937934
| 16> H -2.1173173063 -0.1413928089 1.0577929175
| 17> H -0.9435807692 1.0753582271 1.5538222695
| 18> H -1.3084153534 -2.0286062338 -0.5017924605
| 19> H 0.4078239519 -2.4467888265 -0.4746787038
| 20> H -0.1507756813 -1.1072812982 -1.4750341772
| 21> H 2.062231015 -0.8168571282 0.6719525418
| 22> H 1.4307559229 0.696008183 1.3699358611
| 23> H 2.422054866 0.9496592075 -0.7389051383
| 24> *
| 25>
| 26>                          ****END OF INPUT****

CARTESIAN COORDINATES (ANGSTROEM)
---------------------------------
  C     -1.491728    1.169414   -0.519410
  C     -1.206153    0.379441    0.753039
  C     -0.080912   -0.659256    0.632361
  H     -0.081842   -1.235161    1.566214
  C     -0.300487   -1.623357   -0.531225
  C      1.313518   -0.022047    0.545409
  O      1.513093    0.627443   -0.694000
  H     -1.910694    0.526051   -1.288119
  H     -2.207641    1.961151   -0.309949
  H     -0.579104    1.614670   -0.903594
  H     -2.117317   -0.141393    1.057793
  H     -0.943581    1.075358    1.553822
  H     -1.308415   -2.028606   -0.501792
  H      0.407824   -2.446789   -0.474679
  H     -0.150776   -1.107281   -1.475034
  H      2.062231   -0.816857    0.671953
  H      1.430756    0.696008    1.369936
  H      2.422055    0.949659   -0.738905

 Total Charge           Charge          ....    0
 Multiplicity           Mult            ....    1
 Number of Electrons    NEL             ....   50
 Basis Dimension        Dim             ....  179

ORBITAL ENERGIES
----------------

  NO   OCC          E(Eh)            E(eV)
   0   2.0000     -18.948841      -515.6242
   1   2.0000     -10.073039      -274.1013
   2   2.0000     -10.031399      -272.9682
   3   2.0000     -10.017970      -272.6028
   4   2.0000     -10.008505      -272.3453
   5   2.0000     -10.000696      -272.1328
   6   2.0000      -0.986192       -26.8357
   7   2.0000      -0.769291       -20.9335
   8   2.0000      -0.689111       -18.7517
   9   2.0000      -0.640758       -17.4359
  10   2.0000      -0.589399       -16.0384
  11   2.0000      -0.507749       -13.8166
  12   2.0000      -0.486768       -13.2456
  13   2.0000      -0.429236       -11.6801
  14   2.0000      -0.417480       -11.3602
  15   2.0000      -0.403981       -10.9929
  16   2.0000      -0.364453        -9.9173
  17   2.0000      -0.349142        -9.5006
  18   2.0000      -0.343264        -9.3407
  19   2.0000      -0.332480        -9.0472
  20   2.0000      -0.316247        -8.6055
  21   2.0000      -0.287669        -7.8279
  22   2.0000      -0.284883        -7.7521
  23   2.0000      -0.269427        -7.3315
  24   2.0000      -0.234162        -6.3719
  25   0.0000       0.056169         1.5284
  26   0.0000       0.095452         2.5974
  27   0.0000       0.114886         3.1262
  28   0.0000       0.135164         3.6780
  29   0.0000       0.135913         3.6984

MULLIKEN ATOMIC CHARGES
-----------------------
   0 C :   -0.505843
   1 C :   -0.291633
   2 C :    0.023537
   3 H :    0.148452
   4 C :   -0.543263
   5 C :   -0.169625
   6 O :   -0.429052
   7 H :    0.146880
   8 H :    0.139157
   9 H :    0.187011
  10 H :    0.145704
  11 H :    0.134057
  12 H :    0.149418
  13 H :    0.140736
  14 H :    0.183850
  15 H :    0.123454
  16 H :    0.123467
  17 H :    0.293694
Sum of atomic charges:   -0.0000000

LOEWDIN ATOMIC CHARGES
----------------------
   0 C :   -0.424777
   1 C :   -0.307820
   2 C :   -0.222696
   3 H :    0.162909
   4 C :   -0.410093
   5 C :    0.007672
   6 O :   -0.639587
   7 H :    0.150477
   8 H :    0.146917
   9 H :    0.171758
  10 H :    0.153038
  11 H :    0.154043
  12 H :    0.153680
  13 H :    0.154015
  14 H :    0.168031
  15 H :    0.158156
  16 H :    0.157721
  17 H :    0.266557

  Mayer bond orders larger than 0.100000
B(  0-C ,  1-C ) :   0.8816 B(  0-C ,  7-H ) :   0.9747 B(  0-C ,  8-H ) :   0.9719
B(  0-C ,  9-H ) :   0.9766 B(  1-C ,  2-C ) :   0.9008 B(  1-C , 10-H ) :   0.9744
B(  1-C , 11-H ) :   0.9833 B(  2-C ,  3-H ) :   0.9580 B(  2-C ,  4-C ) :   0.8854
B(  2-C ,  5-C ) :   0.9625 B(  4-C , 12-H ) :   0.9784 B(  4-C , 13-H ) :   0.9679
B(  4-C , 14-H ) :   0.9747 B(  5-C ,  6-O ) :   0.9283 B(  5-C , 15-H ) :   0.9647
B(  5-C , 16-H ) :   0.9665 B(  6-O , 17-H ) :   0.9004

Dispersion correction           -0.004525249
FINAL SINGLE POINT ENERGY      -272.895119784829

DIPOLE MOMENT
-------------

Method             : SCF
Type of density    : Electron Density
Multiplicity       :   1
Irrep              :   0
Energy             :  -272.9006443132502113 Eh
Relativity type    :
Basis              : AO
                                X                 Y                 Z
Electronic contribution:      3.249097572       0.846028949      -0.115874226
Nuclear contribution   :     -2.769993881      -0.884936424       0.484718858
                        -----------------------------------------
Total Dipole Moment    :      0.479103691      -0.038907475       0.368844632
                        -----------------------------------------
Magnitude (a.u.)       :      0.605888192
Magnitude (Debye)      :      1.540045394

Rotational constants in cm-1:             0.133580             0.096047             0.077728
Rotational constants in MHz :          4004.616241          2879.402570          2330.211899

                             ****ORCA TERMINATED NORMALLY****
TOTAL RUN TIME: 0 days 0 hours 0 minutes 23 seconds 263 msec
