                         Program Version 6.0.0  -   RELEASE  -
|  1> ! r2scan-3c def2/J RI DEFGRID2 scfconv6 printgap
|  2> %output
|  3>     printlevel normal
|  4> end
|  5> %cpcm
|  6>     smd true
|  7>     smdsolvent "water"
|  8> end
|  9> * xyz 0 1
| 10> C -1.4917275646 1.1694144173 -0.5194103831
| 11> C -1.2061530943 0.3794405094 0.753038761
| 12> C -0.0809118914 -0.6592564892 0.632361393
| 13> H -0.0818418742 -1.2351611617 1.5662141218
| 14> C -0.3004871383 -1.6233571356 -0.5312247457
| 15> C 1.3135178333 -0.0220471399 0.545408567
| 16> O 1.5130933149 0.6274425209 -0.6939997281
| 17> H -1.9106943682 0.5260514169 -1.2881187866
| 18> H -2.207641472 1.9611508972 -0.3099488212
| 19> H -0.5791040798 1.6146697757 -0.9035937934
| 20> H -2.1173173063 -0.1413928089 1.0577929175
| 21> H -0.9435807692 1.0753582271 1.5538222695
| 22> H -1.3084153534 -2.0286062338 -0.5017924605
| 23> H 0.4078239519 -2.4467888265 -0.4746787038
| 24> H -0.1507756813 -1.1072812982 -1.4750341772
| 25> H 2.062231015 -0.8168571282 0.6719525418
| 26> H 1.4307559229 0.696008183 1.3699358611
| 27> H 2.422054866 0.9496592075 -0.7389051383
| 28> *
| 29>
| 30>                          ****END OF INPUT****

CARTESIAN COORDINATES (ANGSTROEM)
---------------------------------
  C     -1.491728    1.169414   -0.519410
  C     -1.206153    0.379441    0.753039
  C     -0.080912   -0.659256    0.632361
  H     -0.081842   -1.235161    1.566214
  C     -0.300487   -1.623357   -0.531225
  C      1.313518   -0.022047    0.545409
  O      1.513093    0.627443   -0.694000
  H     -1.910694    0.526051   -1.288119
  H     -2.207641    1.961151   -0.309949
  H     -0.579104    1.614670   -0.903594
  H     -2.117317   -0.141393    1.057793
  H     -0.943581    1.075358    1.553822
  H     -1.308415   -2.028606   -0.501792
  H      0.407824   -2.446789   -0.474679
  H     -0.150776   -1.107281   -1.475034
  H      2.062231   -0.816857    0.671953
  H      1.430756    0.696008    1.369936
  H      2.422055    0.949659   -0.738905

 Total Charge           Charge          ....    0
 Multiplicity           Mult            ....    1
 Number of Electrons    NEL             ....   50
 Basis Dimension        Dim             ....  179

ORBITAL ENERGIES
----------------

  NO   OCC          E(Eh)            E(eV)
   0   2.0000     -18.947051      -515.5755
   1   2.0000     -10.064926      -273.8806
   2   2.0000     -10.025670      -272.8124
   3   2.0000     -10.014505      -272.5085
   4   2.0000     -10.006125      -272.2805
   5   2.0000     -10.002865      -272.1918
   6   2.0000      -0.983621       -26.7657
   7   2.0000      -0.765538       -20.8313
   8   2.0000      -0.687973       -18.7207
   9   2.0000      -0.636319       -17.3151
  10   2.0000      -0.587602       -15.9895
  11   2.0000      -0.504150       -13.7186
  12   2.0000      -0.480806       -13.0834
  13   2.0000      -0.424998       -11.5648
  14   2.0000      -0.414876       -11.2893
  15   2.0000      -0.400718       -10.9041
  16   2.0000      -0.363455        -9.8901
  17   2.0000      -0.348414        -9.4808
  18   2.0000      -0.342642        -9.3238
  19   2.0000      -0.332047        -9.0355
  20   2.0000      -0.315773        -8.5926
  21   2.0000      -0.285008        -7.7555
  22   2.0000      -0.281937        -7.6719
  23   2.0000      -0.266496        -7.2517
  24   2.0000      -0.233371        -6.3504
  25   0.0000       0.070847         1.9278
  26   0.0000       0.105493         2.8706
  27   0.0000       0.120521         3.2795
  28   0.0000       0.138728         3.7750
  29   0.0000       0.138893         3.7795

MULLIKEN ATOMIC CHARGES
-----------------------
   0 C :   -0.544260
   1 C :   -0.302999
   2 C :    0.037418
   3 H :    0.164164
   4 C :   -0.579307
   5 C :   -0.184332
   6 O :   -0.502751
   7 H :    0.159822
   8 H :    0.152702
   9 H :    0.175184
  10 H :    0.156103
  11 H :    0.148189
  12 H :    0.163282
  13 H :    0.158681
  14 H :    0.172493
  15 H :    0.141158
  16 H :    0.139411
  17 H :    0.345041
Sum of atomic charges:   -0.0000000

LOEWDIN ATOMIC CHARGES
----------------------
   0 C :   -0.434021
   1 C :   -0.310513
   2 C :   -0.222176
   3 H :    0.169002
   4 C :   -0.418356
   5 C :    0.010390
   6 O :   -0.669063
   7 H :    0.152966
   8 H :    0.150480
   9 H :    0.164820
  10 H :    0.156357
  11 H :    0.157750
  12 H :    0.157866
  13 H :    0.158224
  14 H :    0.161933
  15 H :    0.165718
  16 H :    0.164662
  17 H :    0.283962

  Mayer bond orders larger than 0.100000
B(  0-C ,  1-C ) :   0.8677 B(  0-C ,  7-H ) :   0.9733 B(  0-C ,  8-H ) :   0.9692
B(  0-C ,  9-H ) :   0.9804 B(  1-C ,  2-C ) :   0.8939 B(  1-C , 10-H ) :   0.9733
B(  1-C , 11-H ) :   0.9835 B(  2-C ,  3-H ) :   0.9556 B(  2-C ,  4-C ) :   0.8749
B(  2-C ,  5-C ) :   0.9473 B(  4-C , 12-H ) :   0.9745 B(  4-C , 13-H ) :   0.9670
B(  4-C , 14-H ) :   0.9768 B(  5-C ,  6-O ) :   0.9174 B(  5-C , 15-H ) :   0.9646
B(  5-C , 16-H ) :   0.9678 B(  6-O , 17-H ) :   0.8743

Dispersion correction           -0.004525249
FINAL SINGLE POINT ENERGY      -272.899309071132

DIPOLE MOMENT
-------------

Method             : SCF
Type of density    : Electron Density
Multiplicity       :   1
Irrep              :   0
Energy             :  -272.9048335995525463 Eh
Relativity type    :
Basis              : AO
                                X                 Y                 Z
Electronic contribution:      3.371244888       0.787109421       0.129667890
Nuclear contribution   :     -2.769993881      -0.884936424       0.484718858
                        -----------------------------------------
Total Dipole Moment    :      0.601251006      -0.097827003       0.614386748
                        -----------------------------------------
Magnitude (a.u.)       :      0.865184357
Magnitude (Debye)      :      2.199123868

Rotational constants in cm-1:             0.133580             0.096047             0.077728
Rotational constants in MHz :          4004.616241          2879.402570          2330.211899

                             ****ORCA TERMINATED NORMALLY****
TOTAL RUN TIME: 0 days 0 hours 0 minutes 27 seconds 524 msec
