                         Program Version 6.0.0  -   RELEASE  -
|  1> ! pbe def2-sv(p) def2/J RI DEFGRID1 loosescf d4 GCP(DFT/SV(P)) printgap
|  2> %output
|  3>     printlevel normal
|  4> end
|  5> * xyz 0 1
|  6> C -1.3602536595 -0.2918526291 -0.452949738
|  7> C -0.0104699909 -0.0377658749 0.2294766257
|  8> C 1.1148255989 -0.7941535013 -0.4953390609
|  9> O 2.3709018318 -0.4945170363 0.0681838866
| 10> O 0.2579273126 1.3480033618 0.2345535864
| 11> O -2.4605907137 0.2091060576 0.262324902
| 12> H -1.4729184505 -1.3712245479 -0.6242956895
| 13> H -1.3755239324 0.2267942373 -1.4132557677
| 14> H -0.0664665824 -0.3905226592 1.2752073499
| 15> H 1.164111771 -0.4540701783 -1.5322312422
| 16> H 0.9162870793 -1.8703991073 -0.4828733615
| 17> H 2.4525820077 -0.9238881554 0.9317817098
| 18> H 1.2206821449 1.4650456812 0.2836740379
| 19> H -2.4599528663 -0.1576509259 1.158002383
| 20> *
| 21>
| 22>                          ****END OF INPUT****

CARTESIAN COORDINATES (ANGSTROEM)
---------------------------------
  C     -1.360254   -0.291853   -0.452950
  C     -0.010470   -0.037766    0.229477
  C      1.114826   -0.794154   -0.495339
  O      2.370902   -0.494517    0.068184
  O      0.257927    1.348003    0.234554
  O     -2.460591    0.209106    0.262325
  H     -1.472918   -1.371225   -0.624296
  H     -1.375524    0.226794   -1.413256
  H     -0.066467   -0.390523    1.275207
  H      1.164112   -0.454070   -1.532231
  H      0.916287   -1.870399   -0.482873
  H      2.452582   -0.923888    0.931782
  H      1.220682    1.465046    0.283674
  H     -2.459953   -0.157651    1.158002

 Total Charge           Charge          ....    0
 Multiplicity           Mult            ....    1
 Number of Electrons    NEL             ....   50
 Basis Dimension        Dim             ....  100

ORBITAL ENERGIES
----------------

  NO   OCC          E(Eh)            E(eV)
   0   2.0000     -18.767691      -510.6948
   1   2.0000     -18.740558      -509.9565
   2   2.0000     -18.740451      -509.9536
   3   2.0000      -9.942331      -270.5446
   4   2.0000      -9.940602      -270.4975
   5   2.0000      -9.930832      -270.2317
   6   2.0000      -0.947951       -25.7951
   7   2.0000      -0.923186       -25.1212
   8   2.0000      -0.906777       -24.6746
   9   2.0000      -0.685783       -18.6611
  10   2.0000      -0.608173       -16.5492
  11   2.0000      -0.550066       -14.9681
  12   2.0000      -0.486533       -13.2392
  13   2.0000      -0.453605       -12.3432
  14   2.0000      -0.447286       -12.1713
  15   2.0000      -0.426828       -11.6146
  16   2.0000      -0.387774       -10.5519
  17   2.0000      -0.372348       -10.1321
  18   2.0000      -0.347590        -9.4584
  19   2.0000      -0.302688        -8.2366
  20   2.0000      -0.293709        -7.9922
  21   2.0000      -0.272002        -7.4015
  22   2.0000      -0.246975        -6.7205
  23   2.0000      -0.215580        -5.8662
  24   2.0000      -0.206419        -5.6169
  25   0.0000       0.009413         0.2562
  26   0.0000       0.032173         0.8755
  27   0.0000       0.054903         1.4940
  28   0.0000       0.068156         1.8546
  29   0.0000       0.080618         2.1937

MULLIKEN ATOMIC CHARGES
-----------------------
   0 C :    0.059243
   1 C :   -0.020868
   2 C :   -0.012921
   3 O :   -0.428337
   4 O :   -0.419842
   5 O :   -0.424995
   6 H :    0.063079
   7 H :    0.089152
   8 H :    0.029665
   9 H :    0.097853
  10 H :    0.078186
  11 H :    0.302067
  12 H :    0.295246
  13 H :    0.292472
Sum of atomic charges:   -0.0000000

LOEWDIN ATOMIC CHARGES
----------------------
   0 C :   -0.127870
   1 C :   -0.098879
   2 C :   -0.143332
   3 O :   -0.330510
   4 O :   -0.329120
   5 O :   -0.331352
   6 H :    0.092409
   7 H :    0.120419
   8 H :    0.083837
   9 H :    0.119537
  10 H :    0.100890
  11 H :    0.287490
  12 H :    0.276240
  13 H :    0.280243

  Mayer bond orders larger than 0.100000
B(  0-C ,  1-C ) :   1.0324 B(  0-C ,  5-O ) :   1.0847 B(  0-C ,  6-H ) :   0.9186
B(  0-C ,  7-H ) :   0.9067 B(  1-C ,  2-C ) :   1.0396 B(  1-C ,  4-O ) :   1.0864
B(  1-C ,  8-H ) :   0.8785 B(  2-C ,  3-O ) :   1.0522 B(  2-C ,  9-H ) :   0.9147
B(  2-C , 10-H ) :   0.9161 B(  3-O , 11-H ) :   0.8506 B(  4-O , 12-H ) :   0.8298
B(  5-O , 13-H ) :   0.8537

Dispersion correction           -0.008972780
FINAL SINGLE POINT ENERGY      -344.006023935468

DIPOLE MOMENT
-------------

Method             : SCF
Type of density    : Electron Density
Multiplicity       :   1
Irrep              :   0
Energy             :  -344.0792781436705923 Eh
Relativity type    :
Basis              : AO
                                X                 Y                 Z
Electronic contribution:      0.197450189       2.138038385       0.987172754
Nuclear contribution   :      0.357879739      -3.245230612      -0.370621277
                        -----------------------------------------
Total Dipole Moment    :      0.555329927      -1.107192226       0.616551477
                        -----------------------------------------
Magnitude (a.u.)       :      1.383619051
Magnitude (Debye)      :      3.516880136

Rotational constants in cm-1:             0.263127             0.064341             0.056120
Rotational constants in MHz :          7888.334138          1928.894128          1682.421549

                             ****ORCA TERMINATED NORMALLY****
TOTAL RUN TIME: 0 days 0 hours 0 minutes 6 seconds 791 msec
