                         Program Version 6.0.0  -   RELEASE  -
|  1> ! r2scan-3c def2/J RI DEFGRID2 scfconv6 printgap
|  2> %output
|  3>     printlevel normal
|  4> end
|  5> * xyz 0 1
|  6> C 1.5278740652 -2.2632273192 -0.0015076514
|  7> O 1.8439726001 -0.8833651926 0.0011404271
|  8> C 0.8750897481 0.0842226448 0.0005451623
|  9> C 1.3828818888 1.3804348248 0.0005308952
| 10> C 0.5548019245 2.4857369816 8.94515e-05
| 11> C -0.8142145741 2.3042200785 -0.0004401981
| 12> C -1.3392898391 1.0235639809 -0.0004034261
| 13> C -0.5197384018 -0.0993115835 0.0001816368
| 14> O -1.0122671268 -1.3839770128 0.0004716472
| 15> C -2.4125523986 -1.5768133535 -0.0003991522
| 16> H 0.9662135536 -2.5430749853 -0.8940355506
| 17> H 0.9642582373 -2.5461393898 0.8888058115
| 18> H 2.4941285987 -2.7649683238 -0.0013077826
| 19> H 2.4561975758 1.4851802597 0.0009498524
| 20> H 0.9803330743 3.4762507118 0.0002004712
| 21> H -1.4819786552 3.1509461712 -0.0008189853
| 22> H -2.4098285376 0.9024719265 -0.0007777176
| 23> H -2.5466516046 -2.6563964904 -7.16682e-05
| 24> H -2.8720610257 -1.1507752801 -0.8961267742
| 25> H -2.8732829898 -1.1500292359 0.8943149945
| 26> *
| 27>
| 28>                          ****END OF INPUT****

CARTESIAN COORDINATES (ANGSTROEM)
---------------------------------
  C      1.527874   -2.263227   -0.001508
  O      1.843973   -0.883365    0.001140
  C      0.875090    0.084223    0.000545
  C      1.382882    1.380435    0.000531
  C      0.554802    2.485737    0.000089
  C     -0.814215    2.304220   -0.000440
  C     -1.339290    1.023564   -0.000403
  C     -0.519738   -0.099312    0.000182
  O     -1.012267   -1.383977    0.000472
  C     -2.412552   -1.576813   -0.000399
  H      0.966214   -2.543075   -0.894036
  H      0.964258   -2.546139    0.888806
  H      2.494129   -2.764968   -0.001308
  H      2.456198    1.485180    0.000950
  H      0.980333    3.476251    0.000200
  H     -1.481979    3.150946   -0.000819
  H     -2.409829    0.902472   -0.000778
  H     -2.546652   -2.656396   -0.000072
  H     -2.872061   -1.150775   -0.896127
  H     -2.873283   -1.150029    0.894315

 Total Charge           Charge          ....    0
 Multiplicity           Mult            ....    1
 Number of Electrons    NEL             ....   74
 Basis Dimension        Dim             ....  250

ORBITAL ENERGIES
----------------

  NO   OCC          E(Eh)            E(eV)
   0   2.0000     -18.986000      -516.6353
   1   2.0000     -18.976265      -516.3704
   2   2.0000     -10.095106      -274.7018
   3   2.0000     -10.091526      -274.6044
   4   2.0000     -10.090250      -274.5697
   5   2.0000     -10.072393      -274.0837
   6   2.0000     -10.031389      -272.9680
   7   2.0000     -10.025178      -272.7990
   8   2.0000     -10.024666      -272.7850
   9   2.0000     -10.024122      -272.7702
  10   2.0000      -1.037134       -28.2218
  11   2.0000      -1.016615       -27.6635
  12   2.0000      -0.818494       -22.2723
  13   2.0000      -0.726155       -19.7597
  14   2.0000      -0.721389       -19.6300
  15   2.0000      -0.677428       -18.4338
  16   2.0000      -0.642995       -17.4968
  17   2.0000      -0.574886       -15.6435
  18   2.0000      -0.559264       -15.2184
  19   2.0000      -0.508465       -13.8360
  20   2.0000      -0.473876       -12.8948
  21   2.0000      -0.460857       -12.5405
  22   2.0000      -0.444265       -12.0891
  23   2.0000      -0.430542       -11.7157
  24   2.0000      -0.421361       -11.4658
  25   2.0000      -0.413154       -11.2425
  26   2.0000      -0.396063       -10.7774
  27   2.0000      -0.380112       -10.3434
  28   2.0000      -0.355877        -9.6839
  29   2.0000      -0.345244        -9.3946
  30   2.0000      -0.326904        -8.8955
  31   2.0000      -0.312935        -8.5154
  32   2.0000      -0.301891        -8.2149
  33   2.0000      -0.285681        -7.7738
  34   2.0000      -0.279985        -7.6188
  35   2.0000      -0.217476        -5.9178
  36   2.0000      -0.183105        -4.9825
  37   0.0000      -0.022006        -0.5988
  38   0.0000      -0.009116        -0.2481
  39   0.0000       0.045235         1.2309
  40   0.0000       0.081139         2.2079
  41   0.0000       0.091122         2.4796

MULLIKEN ATOMIC CHARGES
-----------------------
   0 C :   -0.317015
   1 O :   -0.190022
   2 C :    0.192615
   3 C :   -0.291279
   4 C :   -0.143762
   5 C :   -0.189187
   6 C :   -0.261790
   7 C :    0.206045
   8 O :   -0.171090
   9 C :   -0.339600
  10 H :    0.152116
  11 H :    0.152216
  12 H :    0.142993
  13 H :    0.160615
  14 H :    0.146732
  15 H :    0.144716
  16 H :    0.144875
  17 H :    0.153075
  18 H :    0.153878
  19 H :    0.153868
Sum of atomic charges:   -0.0000000

LOEWDIN ATOMIC CHARGES
----------------------
   0 C :   -0.038212
   1 O :   -0.673436
   2 C :    0.214419
   3 C :   -0.124551
   4 C :   -0.176455
   5 C :   -0.180553
   6 C :   -0.165271
   7 C :    0.191697
   8 O :   -0.710135
   9 C :   -0.053816
  10 H :    0.171064
  11 H :    0.171130
  12 H :    0.171809
  13 H :    0.183035
  14 H :    0.167276
  15 H :    0.166303
  16 H :    0.175700
  17 H :    0.179752
  18 H :    0.165125
  19 H :    0.165120

  Mayer bond orders larger than 0.100000
B(  0-C ,  1-O ) :   0.8720 B(  0-C , 10-H ) :   0.9631 B(  0-C , 11-H ) :   0.9631
B(  0-C , 12-H ) :   0.9680 B(  1-O ,  2-C ) :   0.9991 B(  2-C ,  3-C ) :   1.3904
B(  2-C ,  7-C ) :   1.4288 B(  3-C ,  4-C ) :   1.3562 B(  3-C , 13-H ) :   0.9494
B(  4-C ,  5-C ) :   1.4222 B(  4-C , 14-H ) :   0.9458 B(  5-C ,  6-C ) :   1.3915
B(  5-C , 15-H ) :   0.9491 B(  6-C ,  7-C ) :   1.3041 B(  6-C , 16-H ) :   0.9407
B(  7-C ,  8-O ) :   1.0484 B(  8-O ,  9-C ) :   0.8540 B(  9-C , 17-H ) :   0.9689
B(  9-C , 18-H ) :   0.9591 B(  9-C , 19-H ) :   0.9591

Dispersion correction           -0.006596561
FINAL SINGLE POINT ENERGY      -461.172660909784

DIPOLE MOMENT
-------------

Method             : SCF
Type of density    : Electron Density
Multiplicity       :   1
Irrep              :   0
Energy             :  -461.1775824963798414 Eh
Relativity type    :
Basis              : AO
                                X                 Y                 Z
Electronic contribution:      3.291567576       3.086256691       0.006939039
Nuclear contribution   :     -4.043076268      -3.595387575      -0.008295192
                        -----------------------------------------
Total Dipole Moment    :     -0.751508692      -0.509130884      -0.001356152
                        -----------------------------------------
Magnitude (a.u.)       :      0.907734218
Magnitude (Debye)      :      2.307277019

Rotational constants in cm-1:             0.058782             0.045884             0.026025
Rotational constants in MHz :          1762.225967          1375.561066           780.209921

                             ****ORCA TERMINATED NORMALLY****
TOTAL RUN TIME: 0 days 0 hours 0 minutes 34 seconds 717 msec
