                         Program Version 6.0.0  -   RELEASE  -
|  1> ! r2scan-3c def2/J RI DEFGRID2 scfconv6 printgap
|  2> %output
|  3>     printlevel normal
|  4> end
|  5> %cpcm
|  6>     smd true
|  7>     smdsolvent "water"
|  8> end
|  9> * xyz 0 1
| 10> C 1.5278740652 -2.2632273192 -0.0015076514
| 11> O 1.8439726001 -0.8833651926 0.0011404271
| 12> C 0.8750897481 0.0842226448 0.0005451623
| 13> C 1.3828818888 1.3804348248 0.0005308952
| 14> C 0.5548019245 2.4857369816 8.94515e-05
| 15> C -0.8142145741 2.3042200785 -0.0004401981
| 16> C -1.3392898391 1.0235639809 -0.0004034261
| 17> C -0.5197384018 -0.0993115835 0.0001816368
| 18> O -1.0122671268 -1.3839770128 0.0004716472
| 19> C -2.4125523986 -1.5768133535 -0.0003991522
| 20> H 0.9662135536 -2.5430749853 -0.8940355506
| 21> H 0.9642582373 -2.5461393898 0.8888058115
| 22> H 2.4941285987 -2.7649683238 -0.0013077826
| 23> H 2.4561975758 1.4851802597 0.0009498524
| 24> H 0.9803330743 3.4762507118 0.0002004712
| 25> H -1.4819786552 3.1509461712 -0.0008189853
| 26> H -2.4098285376 0.9024719265 -0.0007777176
| 27> H -2.5466516046 -2.6563964904 -7.16682e-05
| 28> H -2.8720610257 -1.1507752801 -0.8961267742
| 29> H -2.8732829898 -1.1500292359 0.8943149945
| 30> *
| 31>
| 32>                          ****END OF INPUT****

CARTESIAN COORDINATES (ANGSTROEM)
---------------------------------
  C      1.527874   -2.263227   -0.001508
  O      1.843973   -0.883365    0.001140
  C      0.875090    0.084223    0.000545
  C      1.382882    1.380435    0.000531
  C      0.554802    2.485737    0.000089
  C     -0.814215    2.304220   -0.000440
  C     -1.339290    1.023564   -0.000403
  C     -0.519738   -0.099312    0.000182
  O     -1.012267   -1.383977    0.000472
  C     -2.412552   -1.576813   -0.000399
  H      0.966214   -2.543075   -0.894036
  H      0.964258   -2.546139    0.888806
  H      2.494129   -2.764968   -0.001308
  H      2.456198    1.485180    0.000950
  H      0.980333    3.476251    0.000200
  H     -1.481979    3.150946   -0.000819
  H     -2.409829    0.902472   -0.000778
  H     -2.546652   -2.656396   -0.000072
  H     -2.872061   -1.150775   -0.896127
  H     -2.873283   -1.150029    0.894315

 Total Charge           Charge          ....    0
 Multiplicity           Mult            ....    1
 Number of Electrons    NEL             ....   74
 Basis Dimension        Dim             ....  250

ORBITAL ENERGIES
----------------

  NO   OCC          E(Eh)            E(eV)
   0   2.0000     -18.985254      -516.6150
   1   2.0000     -18.984550      -516.5959
   2   2.0000     -10.099319      -274.8164
   3   2.0000     -10.098283      -274.7882
   4   2.0000     -10.072844      -274.0960
   5   2.0000     -10.068595      -273.9804
   6   2.0000     -10.032516      -272.9986
   7   2.0000     -10.030476      -272.9431
   8   2.0000     -10.028486      -272.8890
   9   2.0000     -10.027981      -272.8752
  10   2.0000      -1.038863       -28.2689
  11   2.0000      -1.021447       -27.7950
  12   2.0000      -0.824057       -22.4237
  13   2.0000      -0.728945       -19.8356
  14   2.0000      -0.723122       -19.6771
  15   2.0000      -0.673746       -18.3336
  16   2.0000      -0.641440       -17.4545
  17   2.0000      -0.576554       -15.6888
  18   2.0000      -0.559589       -15.2272
  19   2.0000      -0.506290       -13.7768
  20   2.0000      -0.474162       -12.9026
  21   2.0000      -0.462286       -12.5794
  22   2.0000      -0.440434       -11.9848
  23   2.0000      -0.431547       -11.7430
  24   2.0000      -0.418490       -11.3877
  25   2.0000      -0.407667       -11.0932
  26   2.0000      -0.395594       -10.7646
  27   2.0000      -0.378702       -10.3050
  28   2.0000      -0.358026        -9.7424
  29   2.0000      -0.343636        -9.3508
  30   2.0000      -0.328286        -8.9331
  31   2.0000      -0.313462        -8.5297
  32   2.0000      -0.301587        -8.2066
  33   2.0000      -0.291020        -7.9190
  34   2.0000      -0.281670        -7.6646
  35   2.0000      -0.223889        -6.0923
  36   2.0000      -0.189527        -5.1573
  37   0.0000      -0.028688        -0.7806
  38   0.0000      -0.015904        -0.4328
  39   0.0000       0.046859         1.2751
  40   0.0000       0.090094         2.4516
  41   0.0000       0.097822         2.6619

MULLIKEN ATOMIC CHARGES
-----------------------
   0 C :   -0.332177
   1 O :   -0.231358
   2 C :    0.186026
   3 C :   -0.331196
   4 C :   -0.187338
   5 C :   -0.234968
   6 C :   -0.264054
   7 C :    0.198768
   8 O :   -0.196669
   9 C :   -0.346263
  10 H :    0.166417
  11 H :    0.166456
  12 H :    0.164021
  13 H :    0.185789
  14 H :    0.179417
  15 H :    0.177469
  16 H :    0.184115
  17 H :    0.173737
  18 H :    0.170906
  19 H :    0.170900
Sum of atomic charges:   -0.0000000

LOEWDIN ATOMIC CHARGES
----------------------
   0 C :   -0.036856
   1 O :   -0.700126
   2 C :    0.201970
   3 C :   -0.141798
   4 C :   -0.190318
   5 C :   -0.191217
   6 C :   -0.165208
   7 C :    0.187246
   8 O :   -0.721548
   9 C :   -0.049204
  10 H :    0.176875
  11 H :    0.176920
  12 H :    0.180356
  13 H :    0.190705
  14 H :    0.177932
  15 H :    0.177559
  16 H :    0.191206
  17 H :    0.187770
  18 H :    0.173870
  19 H :    0.173865

  Mayer bond orders larger than 0.100000
B(  0-C ,  1-O ) :   0.8628 B(  0-C , 10-H ) :   0.9568 B(  0-C , 11-H ) :   0.9569
B(  0-C , 12-H ) :   0.9602 B(  1-O ,  2-C ) :   0.9821 B(  2-C ,  3-C ) :   1.3369
B(  2-C ,  7-C ) :   1.3959 B(  3-C ,  4-C ) :   1.3303 B(  3-C , 13-H ) :   0.9642
B(  4-C ,  5-C ) :   1.3773 B(  4-C , 14-H ) :   0.9558 B(  5-C ,  6-C ) :   1.3506
B(  5-C , 15-H ) :   0.9658 B(  6-C ,  7-C ) :   1.2920 B(  6-C , 16-H ) :   0.9477
B(  7-C ,  8-O ) :   1.0387 B(  8-O ,  9-C ) :   0.8459 B(  9-C , 17-H ) :   0.9607
B(  9-C , 18-H ) :   0.9520 B(  9-C , 19-H ) :   0.9520

Dispersion correction           -0.006596561
FINAL SINGLE POINT ENERGY      -461.175990654379

DIPOLE MOMENT
-------------

Method             : SCF
Type of density    : Electron Density
Multiplicity       :   1
Irrep              :   0
Energy             :  -461.1809122409749193 Eh
Relativity type    :
Basis              : AO
                                X                 Y                 Z
Electronic contribution:      2.911286267       2.971264432       0.006288152
Nuclear contribution   :     -4.043076268      -3.595387575      -0.008295192
                        -----------------------------------------
Total Dipole Moment    :     -1.131790001      -0.624123144      -0.002007040
                        -----------------------------------------
Magnitude (a.u.)       :      1.292471405
Magnitude (Debye)      :      3.285201233

Rotational constants in cm-1:             0.058782             0.045884             0.026025
Rotational constants in MHz :          1762.225967          1375.561066           780.209921

                             ****ORCA TERMINATED NORMALLY****
TOTAL RUN TIME: 0 days 0 hours 0 minutes 41 seconds 696 msec
