                         Program Version 6.0.0  -   RELEASE  -
|  1> ! pbe def2-sv(p) def2/J RI DEFGRID1 loosescf d4 GCP(DFT/SV(P)) printgap
|  2> %output
|  3>     printlevel normal
|  4> end
|  5> * xyz 0 1
|  6> C 2.2099291613 -0.658564753 -1.3689782698
|  7> C 2.3101999467 -0.1223378309 0.0563755713
|  8> C 2.2859705198 1.4036343918 0.0510398233
|  9> C 1.2031452779 -0.7041755761 0.9604725683
| 10> C -0.1842226169 -0.3458258378 0.5123626767
| 11> C -0.8038302493 0.810897126 0.9714310147
| 12> C -2.0714174028 1.1572121811 0.5378638178
| 13> C -2.7441819996 0.3473241146 -0.3611964501
| 14> C -2.1436713471 -0.8146703679 -0.8150782855
| 15> C -0.8759067175 -1.1576456515 -0.3793856925
| 16> H 2.2439471966 -1.7456170256 -1.3753554269
| 17> H 3.0378670668 -0.2874042727 -1.9686746322
| 18> H 1.2799212077 -0.3368482921 -1.8324324794
| 19> H 3.2677637099 -0.4486749249 0.4790758024
| 20> H 2.3748622901 1.7942813907 1.0621621022
| 21> H 3.1142803138 1.790033955 -0.5384376801
| 22> H 1.3574478366 1.7683531854 -0.382533429
| 23> H 1.3612370764 -0.3347282189 1.9758634217
| 24> H 1.3085759222 -1.7910058187 0.9740637382
| 25> H -0.2906762658 1.4448653034 1.6798719937
| 26> H -2.536802697 2.0606760347 0.9042547485
| 27> H -3.733313855 0.6166161961 -0.700859521
| 28> H -2.6657039252 -1.4569738004 -1.5093507726
| 29> H -0.4192580748 -2.0707439474 -0.7328182843
| 30> *
| 31>
| 32>                          ****END OF INPUT****

CARTESIAN COORDINATES (ANGSTROEM)
---------------------------------
  C      2.209929   -0.658565   -1.368978
  C      2.310200   -0.122338    0.056376
  C      2.285971    1.403634    0.051040
  C      1.203145   -0.704176    0.960473
  C     -0.184223   -0.345826    0.512363
  C     -0.803830    0.810897    0.971431
  C     -2.071417    1.157212    0.537864
  C     -2.744182    0.347324   -0.361196
  C     -2.143671   -0.814670   -0.815078
  C     -0.875907   -1.157646   -0.379386
  H      2.243947   -1.745617   -1.375355
  H      3.037867   -0.287404   -1.968675
  H      1.279921   -0.336848   -1.832432
  H      3.267764   -0.448675    0.479076
  H      2.374862    1.794281    1.062162
  H      3.114280    1.790034   -0.538438
  H      1.357448    1.768353   -0.382533
  H      1.361237   -0.334728    1.975863
  H      1.308576   -1.791006    0.974064
  H     -0.290676    1.444865    1.679872
  H     -2.536803    2.060676    0.904255
  H     -3.733314    0.616616   -0.700860
  H     -2.665704   -1.456974   -1.509351
  H     -0.419258   -2.070744   -0.732818

 Total Charge           Charge          ....    0
 Multiplicity           Mult            ....    1
 Number of Electrons    NEL             ....   74
 Basis Dimension        Dim             ....  168

ORBITAL ENERGIES
----------------

  NO   OCC          E(Eh)            E(eV)
   0   2.0000      -9.897377      -269.3213
   1   2.0000      -9.896533      -269.2984
   2   2.0000      -9.888150      -269.0702
   3   2.0000      -9.888117      -269.0693
   4   2.0000      -9.886627      -269.0288
   5   2.0000      -9.886593      -269.0279
   6   2.0000      -9.886573      -269.0273
   7   2.0000      -9.885739      -269.0046
   8   2.0000      -9.869942      -268.5748
   9   2.0000      -9.869915      -268.5740
  10   2.0000      -0.776743       -21.1363
  11   2.0000      -0.730540       -19.8790
  12   2.0000      -0.674586       -18.3564
  13   2.0000      -0.666389       -18.1334
  14   2.0000      -0.608879       -16.5684
  15   2.0000      -0.607262       -16.5244
  16   2.0000      -0.539056       -14.6685
  17   2.0000      -0.528879       -14.3915
  18   2.0000      -0.493549       -13.4302
  19   2.0000      -0.452131       -12.3031
  20   2.0000      -0.420124       -11.4322
  21   2.0000      -0.415558       -11.3079
  22   2.0000      -0.400587       -10.9005
  23   2.0000      -0.383057       -10.4235
  24   2.0000      -0.374420       -10.1885
  25   2.0000      -0.368770       -10.0347
  26   2.0000      -0.355144        -9.6640
  27   2.0000      -0.335496        -9.1293
  28   2.0000      -0.327920        -8.9232
  29   2.0000      -0.321470        -8.7477
  30   2.0000      -0.308191        -8.3863
  31   2.0000      -0.293078        -7.9751
  32   2.0000      -0.290244        -7.8979
  33   2.0000      -0.284833        -7.7507
  34   2.0000      -0.273119        -7.4319
  35   2.0000      -0.225562        -6.1379
  36   2.0000      -0.216714        -5.8971
  37   0.0000      -0.031261        -0.8507
  38   0.0000      -0.031200        -0.8490
  39   0.0000       0.032578         0.8865
  40   0.0000       0.052452         1.4273
  41   0.0000       0.064007         1.7417

MULLIKEN ATOMIC CHARGES
-----------------------
   0 C :   -0.257317
   1 C :   -0.182925
   2 C :   -0.256367
   3 C :   -0.061169
   4 C :    0.053380
   5 C :   -0.114177
   6 C :   -0.048186
   7 C :   -0.049497
   8 C :   -0.047968
   9 C :   -0.114782
  10 H :    0.093952
  11 H :    0.098214
  12 H :    0.119238
  13 H :    0.073905
  14 H :    0.093974
  15 H :    0.098090
  16 H :    0.118809
  17 H :    0.078987
  18 H :    0.078960
  19 H :    0.038025
  20 H :    0.048884
  21 H :    0.051002
  22 H :    0.048921
  23 H :    0.038047
Sum of atomic charges:    0.0000000

LOEWDIN ATOMIC CHARGES
----------------------
   0 C :   -0.333639
   1 C :   -0.148496
   2 C :   -0.333498
   3 C :   -0.201612
   4 C :   -0.038881
   5 C :   -0.122374
   6 C :   -0.123175
   7 C :   -0.128735
   8 C :   -0.123121
   9 C :   -0.122477
  10 H :    0.114595
  11 H :    0.118385
  12 H :    0.122841
  13 H :    0.114683
  14 H :    0.114590
  15 H :    0.118339
  16 H :    0.122743
  17 H :    0.120989
  18 H :    0.120992
  19 H :    0.120313
  20 H :    0.122471
  21 H :    0.122278
  22 H :    0.122477
  23 H :    0.120312

  Mayer bond orders larger than 0.100000
B(  0-C ,  1-C ) :   1.1210 B(  0-C , 10-H ) :   0.9482 B(  0-C , 11-H ) :   0.9480
B(  0-C , 12-H ) :   0.9364 B(  1-C ,  2-C ) :   1.1209 B(  1-C ,  3-C ) :   1.0768
B(  1-C , 13-H ) :   0.9008 B(  2-C , 14-H ) :   0.9481 B(  2-C , 15-H ) :   0.9481
B(  2-C , 16-H ) :   0.9365 B(  3-C ,  4-C ) :   1.0641 B(  3-C , 17-H ) :   0.9013
B(  3-C , 18-H ) :   0.9014 B(  4-C ,  5-C ) :   1.3966 B(  4-C ,  9-C ) :   1.3968
B(  5-C ,  6-C ) :   1.3703 B(  5-C , 19-H ) :   0.9572 B(  6-C ,  7-C ) :   1.3783
B(  6-C , 20-H ) :   0.9637 B(  7-C ,  8-C ) :   1.3782 B(  7-C , 21-H ) :   0.9656
B(  8-C ,  9-C ) :   1.3704 B(  8-C , 22-H ) :   0.9636 B(  9-C , 23-H ) :   0.9572

Dispersion correction           -0.025619677
FINAL SINGLE POINT ENERGY      -388.582351639236

DIPOLE MOMENT
-------------

Method             : SCF
Type of density    : Electron Density
Multiplicity       :   1
Irrep              :   0
Energy             :  -388.6516514403933797 Eh
Relativity type    :
Basis              : AO
                                X                 Y                 Z
Electronic contribution:     -8.956142041      -0.943178675       1.839064927
Nuclear contribution   :      9.100354981       0.940821421      -1.843657311
                        -----------------------------------------
Total Dipole Moment    :      0.144212940      -0.002357254      -0.004592383
                        -----------------------------------------
Magnitude (a.u.)       :      0.144305297
Magnitude (Debye)      :      0.366794914

Rotational constants in cm-1:             0.083828             0.030512             0.026525
Rotational constants in MHz :          2513.098450           914.733263           795.201162

                             ****ORCA TERMINATED NORMALLY****
TOTAL RUN TIME: 0 days 0 hours 0 minutes 12 seconds 576 msec
