                         Program Version 6.0.0  -   RELEASE  -
|  1> ! r2scan-3c def2/J RI DEFGRID2 scfconv6 printgap
|  2> %output
|  3>     printlevel normal
|  4> end
|  5> * xyz 0 1
|  6> C -1.5528148262 -1.1436883981 -0.1228002147
|  7> C -1.7313301319 0.3678598019 -0.0509590515
|  8> C -0.5400224355 1.0931080377 0.5755084812
|  9> C 0.7353001089 1.0432072682 -0.2792130541
| 10> C 1.4675074928 -0.1987673589 -0.1374867809
| 11> C 2.0978983191 -1.2069978054 0.002223218
| 12> H -0.7104777647 -1.4050981958 -0.7575341941
| 13> H -2.4485150129 -1.6100478065 -0.5267955221
| 14> H -1.3689445463 -1.5515570771 0.868787804
| 15> H -1.9027376046 0.7599991779 -1.0565793693
| 16> H -2.620490424 0.5909159688 0.544259814
| 17> H -0.8133614871 2.1416837168 0.7141662349
| 18> H -0.3314285752 0.668778973 1.5601029579
| 19> H 1.4021246536 1.8558614565 0.0229148132
| 20> H 0.4795600165 1.1890944501 -1.3322019323
| 21> H 2.6357837934 -2.1000874826 0.1145405537
| 22> *
| 23>
| 24>                          ****END OF INPUT****

CARTESIAN COORDINATES (ANGSTROEM)
---------------------------------
  C     -1.552815   -1.143688   -0.122800
  C     -1.731330    0.367860   -0.050959
  C     -0.540022    1.093108    0.575508
  C      0.735300    1.043207   -0.279213
  C      1.467507   -0.198767   -0.137487
  C      2.097898   -1.206998    0.002223
  H     -0.710478   -1.405098   -0.757534
  H     -2.448515   -1.610048   -0.526796
  H     -1.368945   -1.551557    0.868788
  H     -1.902738    0.759999   -1.056579
  H     -2.620490    0.590916    0.544260
  H     -0.813361    2.141684    0.714166
  H     -0.331429    0.668779    1.560103
  H      1.402125    1.855861    0.022915
  H      0.479560    1.189094   -1.332202
  H      2.635784   -2.100087    0.114541

 Total Charge           Charge          ....    0
 Multiplicity           Mult            ....    1
 Number of Electrons    NEL             ....   46
 Basis Dimension        Dim             ....  164

ORBITAL ENERGIES
----------------

  NO   OCC          E(Eh)            E(eV)
   0   2.0000     -10.056395      -273.6484
   1   2.0000     -10.035327      -273.0751
   2   2.0000     -10.030035      -272.9311
   3   2.0000     -10.027564      -272.8639
   4   2.0000     -10.014855      -272.5181
   5   2.0000     -10.010217      -272.3919
   6   2.0000      -0.785820       -21.3833
   7   2.0000      -0.727908       -19.8074
   8   2.0000      -0.683309       -18.5938
   9   2.0000      -0.621128       -16.9017
  10   2.0000      -0.545867       -14.8538
  11   2.0000      -0.497616       -13.5408
  12   2.0000      -0.446444       -12.1483
  13   2.0000      -0.441375       -12.0104
  14   2.0000      -0.404552       -11.0084
  15   2.0000      -0.382736       -10.4148
  16   2.0000      -0.364609        -9.9215
  17   2.0000      -0.346304        -9.4234
  18   2.0000      -0.310622        -8.4525
  19   2.0000      -0.303619        -8.2619
  20   2.0000      -0.300401        -8.1743
  21   2.0000      -0.243670        -6.6306
  22   2.0000      -0.237783        -6.4704
  23   0.0000       0.021925         0.5966
  24   0.0000       0.027719         0.7543
  25   0.0000       0.088479         2.4076
  26   0.0000       0.116788         3.1780
  27   0.0000       0.121760         3.3133

MULLIKEN ATOMIC CHARGES
-----------------------
   0 C :   -0.485629
   1 C :   -0.246053
   2 C :   -0.248493
   3 C :   -0.407099
   4 C :    0.048889
   5 C :   -0.172173
   6 H :    0.164010
   7 H :    0.141846
   8 H :    0.145696
   9 H :    0.133639
  10 H :    0.140688
  11 H :    0.146105
  12 H :    0.151730
  13 H :    0.164532
  14 H :    0.166650
  15 H :    0.155663
Sum of atomic charges:    0.0000000

LOEWDIN ATOMIC CHARGES
----------------------
   0 C :   -0.420165
   1 C :   -0.313350
   2 C :   -0.293238
   3 C :   -0.278911
   4 C :   -0.087401
   5 C :   -0.224144
   6 H :    0.161767
   7 H :    0.148188
   8 H :    0.152007
   9 H :    0.150130
  10 H :    0.152646
  11 H :    0.155954
  12 H :    0.162635
  13 H :    0.178407
  14 H :    0.176467
  15 H :    0.179007

  Mayer bond orders larger than 0.100000
B(  0-C ,  1-C ) :   0.9099 B(  0-C ,  6-H ) :   0.9811 B(  0-C ,  7-H ) :   0.9691
B(  0-C ,  8-H ) :   0.9742 B(  1-C ,  2-C ) :   0.9391 B(  1-C ,  9-H ) :   0.9876
B(  1-C , 10-H ) :   0.9562 B(  2-C ,  3-C ) :   0.8415 B(  2-C , 11-H ) :   0.9642
B(  2-C , 12-H ) :   0.9774 B(  3-C ,  4-C ) :   1.0165 B(  3-C , 13-H ) :   0.9534
B(  3-C , 14-H ) :   0.9925 B(  4-C ,  5-C ) :   2.6159 B(  5-C , 15-H ) :   1.0576

Dispersion correction           -0.004002435
FINAL SINGLE POINT ENERGY      -234.506604937912

DIPOLE MOMENT
-------------

Method             : SCF
Type of density    : Electron Density
Multiplicity       :   1
Irrep              :   0
Energy             :  -234.5086033677435751 Eh
Relativity type    :
Basis              : AO
                                X                 Y                 Z
Electronic contribution:      5.092400362      -0.241479004      -0.135028397
Nuclear contribution   :     -5.327398486       0.506184403       0.142284281
                        -----------------------------------------
Total Dipole Moment    :     -0.234998124       0.264705399       0.007255885
                        -----------------------------------------
Magnitude (a.u.)       :      0.354041967
Magnitude (Debye)      :      0.899903163

Rotational constants in cm-1:             0.178029             0.084817             0.062782
Rotational constants in MHz :          5337.176307          2542.754221          1882.167907

                             ****ORCA TERMINATED NORMALLY****
TOTAL RUN TIME: 0 days 0 hours 0 minutes 17 seconds 118 msec
