                         Program Version 6.0.0  -   RELEASE  -
|  1> ! r2scan-3c def2/J RI DEFGRID2 scfconv6 printgap
|  2> %output
|  3>     printlevel normal
|  4> end
|  5> %cpcm
|  6>     smd true
|  7>     smdsolvent "water"
|  8> end
|  9> * xyz 0 1
| 10> C -1.5528148262 -1.1436883981 -0.1228002147
| 11> C -1.7313301319 0.3678598019 -0.0509590515
| 12> C -0.5400224355 1.0931080377 0.5755084812
| 13> C 0.7353001089 1.0432072682 -0.2792130541
| 14> C 1.4675074928 -0.1987673589 -0.1374867809
| 15> C 2.0978983191 -1.2069978054 0.002223218
| 16> H -0.7104777647 -1.4050981958 -0.7575341941
| 17> H -2.4485150129 -1.6100478065 -0.5267955221
| 18> H -1.3689445463 -1.5515570771 0.868787804
| 19> H -1.9027376046 0.7599991779 -1.0565793693
| 20> H -2.620490424 0.5909159688 0.544259814
| 21> H -0.8133614871 2.1416837168 0.7141662349
| 22> H -0.3314285752 0.668778973 1.5601029579
| 23> H 1.4021246536 1.8558614565 0.0229148132
| 24> H 0.4795600165 1.1890944501 -1.3322019323
| 25> H 2.6357837934 -2.1000874826 0.1145405537
| 26> *
| 27>
| 28>                          ****END OF INPUT****

CARTESIAN COORDINATES (ANGSTROEM)
---------------------------------
  C     -1.552815   -1.143688   -0.122800
  C     -1.731330    0.367860   -0.050959
  C     -0.540022    1.093108    0.575508
  C      0.735300    1.043207   -0.279213
  C      1.467507   -0.198767   -0.137487
  C      2.097898   -1.206998    0.002223
  H     -0.710478   -1.405098   -0.757534
  H     -2.448515   -1.610048   -0.526796
  H     -1.368945   -1.551557    0.868788
  H     -1.902738    0.759999   -1.056579
  H     -2.620490    0.590916    0.544260
  H     -0.813361    2.141684    0.714166
  H     -0.331429    0.668779    1.560103
  H      1.402125    1.855861    0.022915
  H      0.479560    1.189094   -1.332202
  H      2.635784   -2.100087    0.114541

 Total Charge           Charge          ....    0
 Multiplicity           Mult            ....    1
 Number of Electrons    NEL             ....   46
 Basis Dimension        Dim             ....  164

ORBITAL ENERGIES
----------------

  NO   OCC          E(Eh)            E(eV)
   0   2.0000     -10.047383      -273.4032
   1   2.0000     -10.036059      -273.0950
   2   2.0000     -10.025652      -272.8119
   3   2.0000     -10.018413      -272.6149
   4   2.0000     -10.017488      -272.5897
   5   2.0000     -10.006034      -272.2780
   6   2.0000      -0.779915       -21.2226
   7   2.0000      -0.726424       -19.7670
   8   2.0000      -0.682650       -18.5759
   9   2.0000      -0.615845       -16.7580
  10   2.0000      -0.538561       -14.6550
  11   2.0000      -0.494279       -13.4500
  12   2.0000      -0.440756       -11.9936
  13   2.0000      -0.433277       -11.7901
  14   2.0000      -0.396973       -10.8022
  15   2.0000      -0.376131       -10.2350
  16   2.0000      -0.358916        -9.7666
  17   2.0000      -0.339702        -9.2438
  18   2.0000      -0.306270        -8.3340
  19   2.0000      -0.295561        -8.0426
  20   2.0000      -0.292423        -7.9572
  21   2.0000      -0.249849        -6.7987
  22   2.0000      -0.242208        -6.5908
  23   0.0000       0.019561         0.5323
  24   0.0000       0.024956         0.6791
  25   0.0000       0.091116         2.4794
  26   0.0000       0.124442         3.3862
  27   0.0000       0.128959         3.5092

MULLIKEN ATOMIC CHARGES
-----------------------
   0 C :   -0.530898
   1 C :   -0.249989
   2 C :   -0.266309
   3 C :   -0.404033
   4 C :   -0.020179
   5 C :   -0.207571
   6 H :    0.162429
   7 H :    0.154051
   8 H :    0.157606
   9 H :    0.148328
  10 H :    0.151094
  11 H :    0.163351
  12 H :    0.159175
  13 H :    0.189832
  14 H :    0.191543
  15 H :    0.201569
Sum of atomic charges:    0.0000000

LOEWDIN ATOMIC CHARGES
----------------------
   0 C :   -0.429649
   1 C :   -0.313880
   2 C :   -0.291874
   3 C :   -0.279310
   4 C :   -0.097861
   5 C :   -0.258034
   6 H :    0.158470
   7 H :    0.151621
   8 H :    0.153005
   9 H :    0.154813
  10 H :    0.155652
  11 H :    0.162713
  12 H :    0.163228
  13 H :    0.188380
  14 H :    0.187037
  15 H :    0.195689

  Mayer bond orders larger than 0.100000
B(  0-C ,  1-C ) :   0.8891 B(  0-C ,  6-H ) :   0.9828 B(  0-C ,  7-H ) :   0.9659
B(  0-C ,  8-H ) :   0.9743 B(  1-C ,  2-C ) :   0.9322 B(  1-C ,  9-H ) :   0.9870
B(  1-C , 10-H ) :   0.9562 B(  2-C ,  3-C ) :   0.8262 B(  2-C , 11-H ) :   0.9613
B(  2-C , 12-H ) :   0.9818 B(  3-C ,  4-C ) :   1.0152 B(  3-C , 13-H ) :   0.9491
B(  3-C , 14-H ) :   0.9784 B(  4-C ,  5-C ) :   2.5581 B(  4-C , 15-H ) :  -0.1011
B(  5-C , 15-H ) :   1.0607

Dispersion correction           -0.004002435
FINAL SINGLE POINT ENERGY      -234.507327004369

DIPOLE MOMENT
-------------

Method             : SCF
Type of density    : Electron Density
Multiplicity       :   1
Irrep              :   0
Energy             :  -234.5093254342003775 Eh
Relativity type    :
Basis              : AO
                                X                 Y                 Z
Electronic contribution:      4.979178828      -0.058677757      -0.161398989
Nuclear contribution   :     -5.327398486       0.506184403       0.142284281
                        -----------------------------------------
Total Dipole Moment    :     -0.348219658       0.447506646      -0.019114708
                        -----------------------------------------
Magnitude (a.u.)       :      0.567348659
Magnitude (Debye)      :      1.442085686

Rotational constants in cm-1:             0.178029             0.084817             0.062782
Rotational constants in MHz :          5337.176307          2542.754221          1882.167907

                             ****ORCA TERMINATED NORMALLY****
TOTAL RUN TIME: 0 days 0 hours 0 minutes 20 seconds 38 msec
