                         Program Version 6.0.0  -   RELEASE  -
|  1> ! r2scan-3c def2/J RI DEFGRID2 scfconv6 printgap
|  2> %output
|  3>     printlevel normal
|  4> end
|  5> * xyz 0 1
|  6> C 1.4833429573 0.1548363425 -1.1744000331
|  7> C 1.1160530159 -0.2329381749 0.2537919794
|  8> H 0.9954067843 -1.3257593318 0.3082973705
|  9> C -0.1474006563 0.4538913739 0.7946939054
| 10> C -1.5047738557 0.0949852587 0.1640812147
| 11> C -1.7794591491 0.8307654938 -1.1465086593
| 12> C -1.6867179528 -1.4107956158 -0.0165243062
| 13> O 2.2339099878 0.132884083 1.0589404791
| 14> H 0.8381143778 -0.3426770934 -1.889769708
| 15> H 1.4138611936 1.23119985 -1.3030179525
| 16> H 2.5110482419 -0.1482451956 -1.3605506269
| 17> H -0.2077853929 0.2039081961 1.858764127
| 18> H 0.0030143987 1.5339346085 0.7243903686
| 19> H -2.2609599656 0.436111102 0.8823999802
| 20> H -1.622871025 1.8998189979 -1.0252123035
| 21> H -2.8124053876 0.6698760935 -1.4477299727
| 22> H -1.1369667495 0.476855276 -1.9457633014
| 23> H -1.0263920435 -1.7919695117 -0.7911516698
| 24> H -1.4774388518 -1.9383676192 0.9110943824
| 25> H -2.7113847859 -1.6276885205 -0.309121323
| 26> H 2.0517159866 -0.0844181498 1.9826201713
| 27> *
| 28>
| 29>                          ****END OF INPUT****

CARTESIAN COORDINATES (ANGSTROEM)
---------------------------------
  C      1.483343    0.154836   -1.174400
  C      1.116053   -0.232938    0.253792
  H      0.995407   -1.325759    0.308297
  C     -0.147401    0.453891    0.794694
  C     -1.504774    0.094985    0.164081
  C     -1.779459    0.830765   -1.146509
  C     -1.686718   -1.410796   -0.016524
  O      2.233910    0.132884    1.058940
  H      0.838114   -0.342677   -1.889770
  H      1.413861    1.231200   -1.303018
  H      2.511048   -0.148245   -1.360551
  H     -0.207785    0.203908    1.858764
  H      0.003014    1.533935    0.724390
  H     -2.260960    0.436111    0.882400
  H     -1.622871    1.899819   -1.025212
  H     -2.812405    0.669876   -1.447730
  H     -1.136967    0.476855   -1.945763
  H     -1.026392   -1.791970   -0.791152
  H     -1.477439   -1.938368    0.911094
  H     -2.711385   -1.627689   -0.309121
  H      2.051716   -0.084418    1.982620

 Total Charge           Charge          ....    0
 Multiplicity           Mult            ....    1
 Number of Electrons    NEL             ....   58
 Basis Dimension        Dim             ....  208

ORBITAL ENERGIES
----------------

  NO   OCC          E(Eh)            E(eV)
   0   2.0000     -18.941492      -515.4242
   1   2.0000     -10.079359      -274.2733
   2   2.0000     -10.038162      -273.1523
   3   2.0000     -10.024681      -272.7854
   4   2.0000     -10.019011      -272.6312
   5   2.0000     -10.015558      -272.5372
   6   2.0000     -10.014634      -272.5121
   7   2.0000      -0.978837       -26.6355
   8   2.0000      -0.779570       -21.2132
   9   2.0000      -0.716566       -19.4987
  10   2.0000      -0.656003       -17.8507
  11   2.0000      -0.652485       -17.7550
  12   2.0000      -0.565353       -15.3840
  13   2.0000      -0.520550       -14.1649
  14   2.0000      -0.479643       -13.0518
  15   2.0000      -0.436821       -11.8865
  16   2.0000      -0.417459       -11.3596
  17   2.0000      -0.403932       -10.9915
  18   2.0000      -0.389915       -10.6101
  19   2.0000      -0.364887        -9.9291
  20   2.0000      -0.360884        -9.8202
  21   2.0000      -0.347221        -9.4484
  22   2.0000      -0.333642        -9.0789
  23   2.0000      -0.328569        -8.9408
  24   2.0000      -0.309585        -8.4242
  25   2.0000      -0.298645        -8.1265
  26   2.0000      -0.291993        -7.9455
  27   2.0000      -0.278829        -7.5873
  28   2.0000      -0.228845        -6.2272
  29   0.0000       0.064254         1.7484
  30   0.0000       0.077690         2.1140
  31   0.0000       0.106829         2.9070
  32   0.0000       0.119926         3.2633
  33   0.0000       0.124144         3.3781

MULLIKEN ATOMIC CHARGES
-----------------------
   0 C :   -0.504342
   1 C :    0.030653
   2 H :    0.139578
   3 C :   -0.283730
   4 C :   -0.035438
   5 C :   -0.484469
   6 C :   -0.502136
   7 O :   -0.424008
   8 H :    0.142083
   9 H :    0.159978
  10 H :    0.160640
  11 H :    0.127110
  12 H :    0.159554
  13 H :    0.143066
  14 H :    0.148763
  15 H :    0.144659
  16 H :    0.146099
  17 H :    0.153045
  18 H :    0.150406
  19 H :    0.147041
  20 H :    0.281449
Sum of atomic charges:    0.0000000

LOEWDIN ATOMIC CHARGES
----------------------
   0 C :   -0.382173
   1 C :    0.051799
   2 H :    0.161916
   3 C :   -0.282673
   4 C :   -0.243087
   5 C :   -0.415792
   6 C :   -0.418265
   7 O :   -0.620824
   8 H :    0.152838
   9 H :    0.159555
  10 H :    0.168130
  11 H :    0.158622
  12 H :    0.167300
  13 H :    0.156781
  14 H :    0.154251
  15 H :    0.152785
  16 H :    0.152863
  17 H :    0.152271
  18 H :    0.153990
  19 H :    0.153740
  20 H :    0.265972

  Mayer bond orders larger than 0.100000
B(  0-C ,  1-C ) :   0.9004 B(  0-C ,  8-H ) :   0.9706 B(  0-C ,  9-H ) :   0.9808
B(  0-C , 10-H ) :   0.9643 B(  1-C ,  2-H ) :   0.9640 B(  1-C ,  3-C ) :   0.8920
B(  1-C ,  7-O ) :   0.8734 B(  3-C ,  4-C ) :   0.8917 B(  3-C , 11-H ) :   0.9620
B(  3-C , 12-H ) :   0.9926 B(  4-C ,  5-C ) :   0.9373 B(  4-C ,  6-C ) :   0.8856
B(  4-C , 13-H ) :   0.9595 B(  5-C , 14-H ) :   0.9771 B(  5-C , 15-H ) :   0.9716
B(  5-C , 16-H ) :   0.9741 B(  6-C , 17-H ) :   0.9752 B(  6-C , 18-H ) :   0.9769
B(  6-C , 19-H ) :   0.9691 B(  7-O , 20-H ) :   0.9011

Dispersion correction           -0.005786036
FINAL SINGLE POINT ENERGY      -312.198992413710

DIPOLE MOMENT
-------------

Method             : SCF
Type of density    : Electron Density
Multiplicity       :   1
Irrep              :   0
Energy             :  -312.2045171933394840 Eh
Relativity type    :
Basis              : AO
                                X                 Y                 Z
Electronic contribution:      4.494022312       0.537364304       3.382590243
Nuclear contribution   :     -5.073311780      -0.755521127      -3.178497270
                        -----------------------------------------
Total Dipole Moment    :     -0.579289468      -0.218156822       0.204092972
                        -----------------------------------------
Magnitude (a.u.)       :      0.651784188
Magnitude (Debye)      :      1.656703745

Rotational constants in cm-1:             0.131036             0.052337             0.047548
Rotational constants in MHz :          3928.367622          1569.009876          1425.458135

                             ****ORCA TERMINATED NORMALLY****
TOTAL RUN TIME: 0 days 0 hours 0 minutes 30 seconds 429 msec
