                         Program Version 6.0.0  -   RELEASE  -
|  1> ! r2scan-3c def2/J RI DEFGRID2 scfconv6 printgap
|  2> %output
|  3>     printlevel normal
|  4> end
|  5> %cpcm
|  6>     smd true
|  7>     smdsolvent "water"
|  8> end
|  9> * xyz 0 1
| 10> C 1.4833429573 0.1548363425 -1.1744000331
| 11> C 1.1160530159 -0.2329381749 0.2537919794
| 12> H 0.9954067843 -1.3257593318 0.3082973705
| 13> C -0.1474006563 0.4538913739 0.7946939054
| 14> C -1.5047738557 0.0949852587 0.1640812147
| 15> C -1.7794591491 0.8307654938 -1.1465086593
| 16> C -1.6867179528 -1.4107956158 -0.0165243062
| 17> O 2.2339099878 0.132884083 1.0589404791
| 18> H 0.8381143778 -0.3426770934 -1.889769708
| 19> H 1.4138611936 1.23119985 -1.3030179525
| 20> H 2.5110482419 -0.1482451956 -1.3605506269
| 21> H -0.2077853929 0.2039081961 1.858764127
| 22> H 0.0030143987 1.5339346085 0.7243903686
| 23> H -2.2609599656 0.436111102 0.8823999802
| 24> H -1.622871025 1.8998189979 -1.0252123035
| 25> H -2.8124053876 0.6698760935 -1.4477299727
| 26> H -1.1369667495 0.476855276 -1.9457633014
| 27> H -1.0263920435 -1.7919695117 -0.7911516698
| 28> H -1.4774388518 -1.9383676192 0.9110943824
| 29> H -2.7113847859 -1.6276885205 -0.309121323
| 30> H 2.0517159866 -0.0844181498 1.9826201713
| 31> *
| 32>
| 33>                          ****END OF INPUT****

CARTESIAN COORDINATES (ANGSTROEM)
---------------------------------
  C      1.483343    0.154836   -1.174400
  C      1.116053   -0.232938    0.253792
  H      0.995407   -1.325759    0.308297
  C     -0.147401    0.453891    0.794694
  C     -1.504774    0.094985    0.164081
  C     -1.779459    0.830765   -1.146509
  C     -1.686718   -1.410796   -0.016524
  O      2.233910    0.132884    1.058940
  H      0.838114   -0.342677   -1.889770
  H      1.413861    1.231200   -1.303018
  H      2.511048   -0.148245   -1.360551
  H     -0.207785    0.203908    1.858764
  H      0.003014    1.533935    0.724390
  H     -2.260960    0.436111    0.882400
  H     -1.622871    1.899819   -1.025212
  H     -2.812405    0.669876   -1.447730
  H     -1.136967    0.476855   -1.945763
  H     -1.026392   -1.791970   -0.791152
  H     -1.477439   -1.938368    0.911094
  H     -2.711385   -1.627689   -0.309121
  H      2.051716   -0.084418    1.982620

 Total Charge           Charge          ....    0
 Multiplicity           Mult            ....    1
 Number of Electrons    NEL             ....   58
 Basis Dimension        Dim             ....  208

ORBITAL ENERGIES
----------------

  NO   OCC          E(Eh)            E(eV)
   0   2.0000     -18.946561      -515.5621
   1   2.0000     -10.074581      -274.1433
   2   2.0000     -10.027308      -272.8569
   3   2.0000     -10.014470      -272.5076
   4   2.0000     -10.009186      -272.3638
   5   2.0000     -10.006560      -272.2924
   6   2.0000     -10.004569      -272.2382
   7   2.0000      -0.982604       -26.7380
   8   2.0000      -0.769394       -20.9363
   9   2.0000      -0.710902       -19.3446
  10   2.0000      -0.647527       -17.6201
  11   2.0000      -0.641556       -17.4576
  12   2.0000      -0.559667       -15.2293
  13   2.0000      -0.512825       -13.9547
  14   2.0000      -0.475717       -12.9449
  15   2.0000      -0.427234       -11.6256
  16   2.0000      -0.410124       -11.1600
  17   2.0000      -0.394353       -10.7309
  18   2.0000      -0.380893       -10.3646
  19   2.0000      -0.363120        -9.8810
  20   2.0000      -0.352854        -9.6017
  21   2.0000      -0.338604        -9.2139
  22   2.0000      -0.328021        -8.9259
  23   2.0000      -0.321085        -8.7372
  24   2.0000      -0.303686        -8.2637
  25   2.0000      -0.289656        -7.8819
  26   2.0000      -0.284083        -7.7303
  27   2.0000      -0.272934        -7.4269
  28   2.0000      -0.232733        -6.3330
  29   0.0000       0.079792         2.1712
  30   0.0000       0.088446         2.4067
  31   0.0000       0.119847         3.2612
  32   0.0000       0.129293         3.5182
  33   0.0000       0.132292         3.5998

MULLIKEN ATOMIC CHARGES
-----------------------
   0 C :   -0.547850
   1 C :    0.052195
   2 H :    0.149237
   3 C :   -0.305152
   4 C :   -0.014959
   5 C :   -0.534074
   6 C :   -0.545832
   7 O :   -0.516703
   8 H :    0.170904
   9 H :    0.171328
  10 H :    0.159642
  11 H :    0.153719
  12 H :    0.159526
  13 H :    0.151123
  14 H :    0.159032
  15 H :    0.155236
  16 H :    0.159013
  17 H :    0.166149
  18 H :    0.161881
  19 H :    0.157193
  20 H :    0.338392
Sum of atomic charges:    0.0000000

LOEWDIN ATOMIC CHARGES
----------------------
   0 C :   -0.392511
   1 C :    0.053372
   2 H :    0.168781
   3 C :   -0.283517
   4 C :   -0.238793
   5 C :   -0.425041
   6 C :   -0.425636
   7 O :   -0.659628
   8 H :    0.163325
   9 H :    0.161083
  10 H :    0.165216
  11 H :    0.167450
  12 H :    0.166886
  13 H :    0.159652
  14 H :    0.155946
  15 H :    0.154894
  16 H :    0.155639
  17 H :    0.155812
  18 H :    0.157097
  19 H :    0.155562
  20 H :    0.284411

  Mayer bond orders larger than 0.100000
B(  0-C ,  1-C ) :   0.8903 B(  0-C ,  8-H ) :   0.9653 B(  0-C ,  9-H ) :   0.9771
B(  0-C , 10-H ) :   0.9639 B(  1-C ,  2-H ) :   0.9585 B(  1-C ,  3-C ) :   0.9067
B(  1-C ,  7-O ) :   0.8553 B(  3-C ,  4-C ) :   0.8953 B(  3-C , 11-H ) :   0.9588
B(  3-C , 12-H ) :   0.9865 B(  4-C ,  5-C ) :   0.9225 B(  4-C ,  6-C ) :   0.8812
B(  4-C , 13-H ) :   0.9604 B(  5-C , 14-H ) :   0.9754 B(  5-C , 15-H ) :   0.9699
B(  5-C , 16-H ) :   0.9736 B(  6-C , 17-H ) :   0.9731 B(  6-C , 18-H ) :   0.9732
B(  6-C , 19-H ) :   0.9686 B(  7-O , 20-H ) :   0.8756

Dispersion correction           -0.005786036
FINAL SINGLE POINT ENERGY      -312.205381242713

DIPOLE MOMENT
-------------

Method             : SCF
Type of density    : Electron Density
Multiplicity       :   1
Irrep              :   0
Energy             :  -312.2109060223425558 Eh
Relativity type    :
Basis              : AO
                                X                 Y                 Z
Electronic contribution:      4.248252681       0.397532896       3.486163082
Nuclear contribution   :     -5.073311780      -0.755521127      -3.178497270
                        -----------------------------------------
Total Dipole Moment    :     -0.825059099      -0.357988231       0.307665812
                        -----------------------------------------
Magnitude (a.u.)       :      0.950545286
Magnitude (Debye)      :      2.416094108

Rotational constants in cm-1:             0.131036             0.052337             0.047548
Rotational constants in MHz :          3928.367622          1569.009876          1425.458135

                             ****ORCA TERMINATED NORMALLY****
TOTAL RUN TIME: 0 days 0 hours 0 minutes 36 seconds 669 msec
