                         Program Version 6.0.0  -   RELEASE  -
|  1> ! r2scan-3c def2/J RI DEFGRID2 scfconv6 printgap
|  2> %output
|  3>     printlevel normal
|  4> end
|  5> * xyz 0 1
|  6> C -2.2238594588 -0.8018689527 0.1267806042
|  7> C -1.472333333 0.5213291387 0.2199058928
|  8> C -0.2556391794 0.6076391119 -0.7209059963
|  9> C 1.0268659991 0.1500258626 -0.0803350336
| 10> C 1.9627197289 1.0159401652 0.2780301791
| 11> C 1.1913805689 -1.3222329754 0.1460345133
| 12> H -1.5913149256 -1.6396144492 0.4038861821
| 13> H -2.5799091935 -0.9626845095 -0.8886546348
| 14> H -3.0844695448 -0.7908004404 0.7922174713
| 15> H -2.1655904299 1.3256153217 -0.0350124989
| 16> H -1.1422515663 0.688729064 1.2474079178
| 17> H -0.4539660429 0.0097482627 -1.6132606821
| 18> H -0.1290854267 1.6450981303 -1.0352649017
| 19> H 2.8830752714 0.7016077695 0.7415167514
| 20> H 1.8484221945 2.0760928357 0.1250545041
| 21> H 0.5674682758 -1.6459149337 0.9780814763
| 22> H 0.8929363125 -1.8815315452 -0.7382153695
| 23> H 2.2241241198 -1.5621301671 0.3855868502
| 24> *
| 25>
| 26>                          ****END OF INPUT****

CARTESIAN COORDINATES (ANGSTROEM)
---------------------------------
  C     -2.223859   -0.801869    0.126781
  C     -1.472333    0.521329    0.219906
  C     -0.255639    0.607639   -0.720906
  C      1.026866    0.150026   -0.080335
  C      1.962720    1.015940    0.278030
  C      1.191381   -1.322233    0.146035
  H     -1.591315   -1.639614    0.403886
  H     -2.579909   -0.962685   -0.888655
  H     -3.084470   -0.790800    0.792217
  H     -2.165590    1.325615   -0.035012
  H     -1.142252    0.688729    1.247408
  H     -0.453966    0.009748   -1.613261
  H     -0.129085    1.645098   -1.035265
  H      2.883075    0.701608    0.741517
  H      1.848422    2.076093    0.125055
  H      0.567468   -1.645915    0.978081
  H      0.892936   -1.881532   -0.738215
  H      2.224124   -1.562130    0.385587

 Total Charge           Charge          ....    0
 Multiplicity           Mult            ....    1
 Number of Electrons    NEL             ....   48
 Basis Dimension        Dim             ....  174

ORBITAL ENERGIES
----------------

  NO   OCC          E(Eh)            E(eV)
   0   2.0000     -10.036839      -273.1163
   1   2.0000     -10.027758      -272.8692
   2   2.0000     -10.026736      -272.8414
   3   2.0000     -10.022836      -272.7352
   4   2.0000     -10.017081      -272.5786
   5   2.0000     -10.007642      -272.3218
   6   2.0000      -0.785765       -21.3818
   7   2.0000      -0.730469       -19.8771
   8   2.0000      -0.658857       -17.9284
   9   2.0000      -0.640712       -17.4347
  10   2.0000      -0.560226       -15.2445
  11   2.0000      -0.490352       -13.3431
  12   2.0000      -0.435984       -11.8637
  13   2.0000      -0.428250       -11.6533
  14   2.0000      -0.402679       -10.9574
  15   2.0000      -0.387591       -10.5469
  16   2.0000      -0.374543       -10.1918
  17   2.0000      -0.358362        -9.7515
  18   2.0000      -0.344516        -9.3748
  19   2.0000      -0.320266        -8.7149
  20   2.0000      -0.309446        -8.4205
  21   2.0000      -0.301197        -8.1960
  22   2.0000      -0.286186        -7.7875
  23   2.0000      -0.221300        -6.0219
  24   0.0000      -0.005605        -0.1525
  25   0.0000       0.086687         2.3589
  26   0.0000       0.106500         2.8980
  27   0.0000       0.116639         3.1739
  28   0.0000       0.124409         3.3853

MULLIKEN ATOMIC CHARGES
-----------------------
   0 C :   -0.478481
   1 C :   -0.248556
   2 C :   -0.232008
   3 C :    0.098578
   4 C :   -0.393504
   5 C :   -0.522505
   6 H :    0.144881
   7 H :    0.146113
   8 H :    0.145414
   9 H :    0.141844
  10 H :    0.150839
  11 H :    0.147262
  12 H :    0.149418
  13 H :    0.138363
  14 H :    0.140544
  15 H :    0.165833
  16 H :    0.156318
  17 H :    0.149648
Sum of atomic charges:   -0.0000000

LOEWDIN ATOMIC CHARGES
----------------------
   0 C :   -0.425203
   1 C :   -0.305573
   2 C :   -0.288497
   3 C :   -0.130109
   4 C :   -0.331373
   5 C :   -0.398134
   6 H :    0.149403
   7 H :    0.149205
   8 H :    0.150762
   9 H :    0.153319
  10 H :    0.158072
  11 H :    0.161603
  12 H :    0.163221
  13 H :    0.155303
  14 H :    0.156820
  15 H :    0.161994
  16 H :    0.159457
  17 H :    0.159732

  Mayer bond orders larger than 0.100000
B(  0-C ,  1-C ) :   0.9149 B(  0-C ,  6-H ) :   0.9737 B(  0-C ,  7-H ) :   0.9848
B(  0-C ,  8-H ) :   0.9732 B(  1-C ,  2-C ) :   0.8411 B(  1-C ,  9-H ) :   0.9619
B(  1-C , 10-H ) :   0.9757 B(  2-C ,  3-C ) :   0.8782 B(  2-C , 11-H ) :   0.9890
B(  2-C , 12-H ) :   0.9844 B(  3-C ,  4-C ) :   1.8872 B(  3-C ,  5-C ) :   0.8680
B(  4-C , 13-H ) :   0.9780 B(  4-C , 14-H ) :   0.9829 B(  5-C , 15-H ) :   0.9776
B(  5-C , 16-H ) :   0.9705 B(  5-C , 17-H ) :   0.9822

Dispersion correction           -0.004612162
FINAL SINGLE POINT ENERGY      -235.758487357000

DIPOLE MOMENT
-------------

Method             : SCF
Type of density    : Electron Density
Multiplicity       :   1
Irrep              :   0
Energy             :  -235.7615825602862003 Eh
Relativity type    :
Basis              : AO
                                X                 Y                 Z
Electronic contribution:      2.351934831       1.780294180      -0.360779582
Nuclear contribution   :     -2.561711366      -1.909897926       0.340875035
                        -----------------------------------------
Total Dipole Moment    :     -0.209776535      -0.129603746      -0.019904547
                        -----------------------------------------
Magnitude (a.u.)       :      0.247385361
Magnitude (Debye)      :      0.628803615

Rotational constants in cm-1:             0.195745             0.074909             0.060639
Rotational constants in MHz :          5868.287382          2245.714807          1817.923067

                             ****ORCA TERMINATED NORMALLY****
TOTAL RUN TIME: 0 days 0 hours 0 minutes 18 seconds 854 msec
