                         Program Version 6.0.0  -   RELEASE  -
|  1> ! r2scan-3c def2/J RI DEFGRID2 scfconv6 printgap
|  2> %output
|  3>     printlevel normal
|  4> end
|  5> %cpcm
|  6>     smd true
|  7>     smdsolvent "water"
|  8> end
|  9> * xyz 0 1
| 10> C -2.2238594588 -0.8018689527 0.1267806042
| 11> C -1.472333333 0.5213291387 0.2199058928
| 12> C -0.2556391794 0.6076391119 -0.7209059963
| 13> C 1.0268659991 0.1500258626 -0.0803350336
| 14> C 1.9627197289 1.0159401652 0.2780301791
| 15> C 1.1913805689 -1.3222329754 0.1460345133
| 16> H -1.5913149256 -1.6396144492 0.4038861821
| 17> H -2.5799091935 -0.9626845095 -0.8886546348
| 18> H -3.0844695448 -0.7908004404 0.7922174713
| 19> H -2.1655904299 1.3256153217 -0.0350124989
| 20> H -1.1422515663 0.688729064 1.2474079178
| 21> H -0.4539660429 0.0097482627 -1.6132606821
| 22> H -0.1290854267 1.6450981303 -1.0352649017
| 23> H 2.8830752714 0.7016077695 0.7415167514
| 24> H 1.8484221945 2.0760928357 0.1250545041
| 25> H 0.5674682758 -1.6459149337 0.9780814763
| 26> H 0.8929363125 -1.8815315452 -0.7382153695
| 27> H 2.2241241198 -1.5621301671 0.3855868502
| 28> *
| 29>
| 30>                          ****END OF INPUT****

CARTESIAN COORDINATES (ANGSTROEM)
---------------------------------
  C     -2.223859   -0.801869    0.126781
  C     -1.472333    0.521329    0.219906
  C     -0.255639    0.607639   -0.720906
  C      1.026866    0.150026   -0.080335
  C      1.962720    1.015940    0.278030
  C      1.191381   -1.322233    0.146035
  H     -1.591315   -1.639614    0.403886
  H     -2.579909   -0.962685   -0.888655
  H     -3.084470   -0.790800    0.792217
  H     -2.165590    1.325615   -0.035012
  H     -1.142252    0.688729    1.247408
  H     -0.453966    0.009748   -1.613261
  H     -0.129085    1.645098   -1.035265
  H      2.883075    0.701608    0.741517
  H      1.848422    2.076093    0.125055
  H      0.567468   -1.645915    0.978081
  H      0.892936   -1.881532   -0.738215
  H      2.224124   -1.562130    0.385587

 Total Charge           Charge          ....    0
 Multiplicity           Mult            ....    1
 Number of Electrons    NEL             ....   48
 Basis Dimension        Dim             ....  174

ORBITAL ENERGIES
----------------

  NO   OCC          E(Eh)            E(eV)
   0   2.0000     -10.036337      -273.1026
   1   2.0000     -10.020356      -272.6677
   2   2.0000     -10.019502      -272.6445
   3   2.0000     -10.014254      -272.5017
   4   2.0000     -10.007498      -272.3179
   5   2.0000     -10.005009      -272.2501
   6   2.0000      -0.781469       -21.2649
   7   2.0000      -0.724067       -19.7029
   8   2.0000      -0.652105       -17.7447
   9   2.0000      -0.635902       -17.3038
  10   2.0000      -0.553161       -15.0523
  11   2.0000      -0.485606       -13.2140
  12   2.0000      -0.429924       -11.6988
  13   2.0000      -0.421957       -11.4820
  14   2.0000      -0.395760       -10.7692
  15   2.0000      -0.380342       -10.3496
  16   2.0000      -0.367558       -10.0018
  17   2.0000      -0.350763        -9.5448
  18   2.0000      -0.336692        -9.1619
  19   2.0000      -0.314115        -8.5475
  20   2.0000      -0.301787        -8.2121
  21   2.0000      -0.293893        -7.9972
  22   2.0000      -0.279296        -7.6000
  23   2.0000      -0.222353        -6.0505
  24   0.0000      -0.005993        -0.1631
  25   0.0000       0.093953         2.5566
  26   0.0000       0.114368         3.1121
  27   0.0000       0.122202         3.3253
  28   0.0000       0.131769         3.5856

MULLIKEN ATOMIC CHARGES
-----------------------
   0 C :   -0.516436
   1 C :   -0.253279
   2 C :   -0.230412
   3 C :    0.069875
   4 C :   -0.475022
   5 C :   -0.544817
   6 H :    0.157537
   7 H :    0.157740
   8 H :    0.154558
   9 H :    0.154003
  10 H :    0.151864
  11 H :    0.163358
  12 H :    0.160790
  13 H :    0.162915
  14 H :    0.164140
  15 H :    0.186145
  16 H :    0.173587
  17 H :    0.163455
Sum of atomic charges:   -0.0000000

LOEWDIN ATOMIC CHARGES
----------------------
   0 C :   -0.431999
   1 C :   -0.305698
   2 C :   -0.292221
   3 C :   -0.130303
   4 C :   -0.363889
   5 C :   -0.404961
   6 H :    0.152955
   7 H :    0.152372
   8 H :    0.152721
   9 H :    0.156920
  10 H :    0.157704
  11 H :    0.167796
  12 H :    0.166309
  13 H :    0.160921
  14 H :    0.162248
  15 H :    0.170067
  16 H :    0.165985
  17 H :    0.163073

  Mayer bond orders larger than 0.100000
B(  0-C ,  1-C ) :   0.9098 B(  0-C ,  6-H ) :   0.9716 B(  0-C ,  7-H ) :   0.9818
B(  0-C ,  8-H ) :   0.9711 B(  1-C ,  2-C ) :   0.8381 B(  1-C ,  9-H ) :   0.9623
B(  1-C , 10-H ) :   0.9757 B(  2-C ,  3-C ) :   0.8718 B(  2-C , 11-H ) :   0.9820
B(  2-C , 12-H ) :   0.9818 B(  3-C ,  4-C ) :   1.8614 B(  3-C ,  5-C ) :   0.8698
B(  4-C , 13-H ) :   0.9775 B(  4-C , 14-H ) :   0.9806 B(  5-C , 15-H ) :   0.9685
B(  5-C , 16-H ) :   0.9648 B(  5-C , 17-H ) :   0.9786

Dispersion correction           -0.004612162
FINAL SINGLE POINT ENERGY      -235.756583290684

DIPOLE MOMENT
-------------

Method             : SCF
Type of density    : Electron Density
Multiplicity       :   1
Irrep              :   0
Energy             :  -235.7596784939696306 Eh
Relativity type    :
Basis              : AO
                                X                 Y                 Z
Electronic contribution:      2.237878314       1.685251281      -0.390248296
Nuclear contribution   :     -2.561711366      -1.909897926       0.340875035
                        -----------------------------------------
Total Dipole Moment    :     -0.323833052      -0.224646645      -0.049373261
                        -----------------------------------------
Magnitude (a.u.)       :      0.397204833
Magnitude (Debye)      :      1.009614450

Rotational constants in cm-1:             0.195745             0.074909             0.060639
Rotational constants in MHz :          5868.287382          2245.714807          1817.923067

                             ****ORCA TERMINATED NORMALLY****
TOTAL RUN TIME: 0 days 0 hours 0 minutes 22 seconds 763 msec
