                         Program Version 6.0.0  -   RELEASE  -
|  1> ! pbe def2-sv(p) def2/J RI DEFGRID1 loosescf d4 GCP(DFT/SV(P)) printgap
|  2> %output
|  3>     printlevel normal
|  4> end
|  5> * xyz 0 1
|  6> C 1.6797813497 0.347054022 -1.4321465504
|  7> C 2.2532657814 -0.2904586367 -0.1677337173
|  8> C 3.268011674 0.6573886535 0.4697789133
|  9> C 1.164127147 -0.6908776763 0.8695263738
| 10> C -0.2390971266 -0.3495933426 0.4586814654
| 11> C -0.7870883795 0.8899678228 0.7662354273
| 12> C -2.0732888611 1.2141832974 0.3727553276
| 13> C -2.8344242578 0.2992828796 -0.3347129689
| 14> C -2.301997867 -0.9415100842 -0.6416426646
| 15> C -1.0151793581 -1.2614784349 -0.2468581272
| 16> H 1.1617193216 1.2742168798 -1.1978184149
| 17> H 0.9774730269 -0.3214596766 -1.9240195665
| 18> H 2.4858238167 0.5700883885 -2.1279831735
| 19> H 2.7843879658 -1.1993463442 -0.4696672795
| 20> H 3.7220587141 0.2026495571 1.3473509971
| 21> H 4.0585880601 0.898735491 -0.2373543239
| 22> H 2.7833658245 1.5843429964 0.7689606146
| 23> H 1.3801876235 -0.1878447999 1.8133169479
| 24> H 1.2237445665 -1.7655988465 1.0481023713
| 25> H -0.2000064154 1.6078067658 1.3214697076
| 26> H -2.483774393 2.1824884984 0.6195526414
| 27> H -3.838560847 0.5506138733 -0.6422776836
| 28> H -2.891855876 -1.6621067532 -1.1890184233
| 29> H -0.6061283049 -2.232567525 -0.4877475296
| 30> *
| 31>
| 32>                          ****END OF INPUT****

CARTESIAN COORDINATES (ANGSTROEM)
---------------------------------
  C      1.679781    0.347054   -1.432147
  C      2.253266   -0.290459   -0.167734
  C      3.268012    0.657389    0.469779
  C      1.164127   -0.690878    0.869526
  C     -0.239097   -0.349593    0.458681
  C     -0.787088    0.889968    0.766235
  C     -2.073289    1.214183    0.372755
  C     -2.834424    0.299283   -0.334713
  C     -2.301998   -0.941510   -0.641643
  C     -1.015179   -1.261478   -0.246858
  H      1.161719    1.274217   -1.197818
  H      0.977473   -0.321460   -1.924020
  H      2.485824    0.570088   -2.127983
  H      2.784388   -1.199346   -0.469667
  H      3.722059    0.202650    1.347351
  H      4.058588    0.898735   -0.237354
  H      2.783366    1.584343    0.768961
  H      1.380188   -0.187845    1.813317
  H      1.223745   -1.765599    1.048102
  H     -0.200006    1.607807    1.321470
  H     -2.483774    2.182488    0.619553
  H     -3.838561    0.550614   -0.642278
  H     -2.891856   -1.662107   -1.189018
  H     -0.606128   -2.232568   -0.487748

 Total Charge           Charge          ....    0
 Multiplicity           Mult            ....    1
 Number of Electrons    NEL             ....   74
 Basis Dimension        Dim             ....  168

ORBITAL ENERGIES
----------------

  NO   OCC          E(Eh)            E(eV)
   0   2.0000      -9.898171      -269.3429
   1   2.0000      -9.896029      -269.2846
   2   2.0000      -9.888297      -269.0742
   3   2.0000      -9.888073      -269.0681
   4   2.0000      -9.886800      -269.0335
   5   2.0000      -9.886405      -269.0227
   6   2.0000      -9.886224      -269.0178
   7   2.0000      -9.884953      -268.9833
   8   2.0000      -9.872725      -268.6505
   9   2.0000      -9.866744      -268.4878
  10   2.0000      -0.776584       -21.1319
  11   2.0000      -0.728851       -19.8331
  12   2.0000      -0.675912       -18.3925
  13   2.0000      -0.666318       -18.1314
  14   2.0000      -0.609509       -16.5856
  15   2.0000      -0.604287       -16.4435
  16   2.0000      -0.540414       -14.7054
  17   2.0000      -0.527276       -14.3479
  18   2.0000      -0.493776       -13.4363
  19   2.0000      -0.454713       -12.3734
  20   2.0000      -0.423973       -11.5369
  21   2.0000      -0.404981       -11.0201
  22   2.0000      -0.399561       -10.8726
  23   2.0000      -0.388200       -10.5635
  24   2.0000      -0.375191       -10.2095
  25   2.0000      -0.370440       -10.0802
  26   2.0000      -0.347874        -9.4661
  27   2.0000      -0.342138        -9.3100
  28   2.0000      -0.327932        -8.9235
  29   2.0000      -0.320878        -8.7315
  30   2.0000      -0.305086        -8.3018
  31   2.0000      -0.296123        -8.0579
  32   2.0000      -0.289788        -7.8855
  33   2.0000      -0.277482        -7.5507
  34   2.0000      -0.273085        -7.4310
  35   2.0000      -0.225962        -6.1487
  36   2.0000      -0.216261        -5.8848
  37   0.0000      -0.032403        -0.8817
  38   0.0000      -0.031071        -0.8455
  39   0.0000       0.031654         0.8613
  40   0.0000       0.051535         1.4023
  41   0.0000       0.059322         1.6142

MULLIKEN ATOMIC CHARGES
-----------------------
   0 C :   -0.198996
   1 C :   -0.200077
   2 C :   -0.267060
   3 C :   -0.031960
   4 C :    0.026151
   5 C :   -0.112180
   6 C :   -0.047526
   7 C :   -0.051664
   8 C :   -0.048285
   9 C :   -0.108726
  10 H :    0.095316
  11 H :    0.101496
  12 H :    0.097611
  13 H :    0.069298
  14 H :    0.102641
  15 H :    0.098225
  16 H :    0.097821
  17 H :    0.077769
  18 H :    0.077083
  19 H :    0.037961
  20 H :    0.048860
  21 H :    0.051105
  22 H :    0.048923
  23 H :    0.036214
Sum of atomic charges:    0.0000000

LOEWDIN ATOMIC CHARGES
----------------------
   0 C :   -0.333505
   1 C :   -0.151280
   2 C :   -0.330520
   3 C :   -0.202922
   4 C :   -0.036101
   5 C :   -0.125042
   6 C :   -0.121340
   7 C :   -0.129173
   8 C :   -0.121618
   9 C :   -0.124465
  10 H :    0.120518
  11 H :    0.120875
  12 H :    0.116206
  13 H :    0.115376
  14 H :    0.116206
  15 H :    0.116638
  16 H :    0.115142
  17 H :    0.123938
  18 H :    0.124937
  19 H :    0.119222
  20 H :    0.122556
  21 H :    0.122326
  22 H :    0.122547
  23 H :    0.119479

  Mayer bond orders larger than 0.100000
B(  0-C ,  1-C ) :   1.1828 B(  0-C , 10-H ) :   0.9308 B(  0-C , 11-H ) :   0.9318
B(  0-C , 12-H ) :   0.9468 B(  1-C ,  2-C ) :   1.1095 B(  1-C ,  3-C ) :   1.0320
B(  1-C , 13-H ) :   0.9020 B(  2-C , 14-H ) :   0.9502 B(  2-C , 15-H ) :   0.9502
B(  2-C , 16-H ) :   0.9508 B(  3-C ,  4-C ) :   1.1068 B(  3-C , 17-H ) :   0.9023
B(  3-C , 18-H ) :   0.8950 B(  4-C ,  5-C ) :   1.3889 B(  4-C ,  9-C ) :   1.3894
B(  5-C ,  6-C ) :   1.3689 B(  5-C , 19-H ) :   0.9591 B(  6-C ,  7-C ) :   1.3768
B(  6-C , 20-H ) :   0.9646 B(  7-C ,  8-C ) :   1.3763 B(  7-C , 21-H ) :   0.9656
B(  8-C ,  9-C ) :   1.3702 B(  8-C , 22-H ) :   0.9647 B(  9-C , 23-H ) :   0.9595

Dispersion correction           -0.025254885
FINAL SINGLE POINT ENERGY      -388.575517695144

DIPOLE MOMENT
-------------

Method             : SCF
Type of density    : Electron Density
Multiplicity       :   1
Irrep              :   0
Energy             :  -388.6448453460359929 Eh
Relativity type    :
Basis              : AO
                                X                 Y                 Z
Electronic contribution:     -9.784944290      -1.447665656       1.246365556
Nuclear contribution   :      9.904246776       1.409143640      -1.273217002
                        -----------------------------------------
Total Dipole Moment    :      0.119302487      -0.038522016      -0.026851446
                        -----------------------------------------
Magnitude (a.u.)       :      0.128210878
Magnitude (Debye)      :      0.325886153

Rotational constants in cm-1:             0.097068             0.026842             0.025272
Rotational constants in MHz :          2910.034807           804.702767           757.630418

                             ****ORCA TERMINATED NORMALLY****
TOTAL RUN TIME: 0 days 0 hours 0 minutes 12 seconds 471 msec
