                         Program Version 6.0.0  -   RELEASE  -
|  1> ! pbe def2-sv(p) def2/J RI DEFGRID1 loosescf d4 GCP(DFT/SV(P)) printgap
|  2> %output
|  3>     printlevel normal
|  4> end
|  5> * xyz 0 1
|  6> C 1.9216237453 -0.782226971 -0.8059613562
|  7> C 1.2041520814 -0.1049442748 0.3606948559
|  8> H 0.9321232778 -0.8548781491 1.1121814202
|  9> C -0.0611198753 0.6529468065 -0.0891429201
| 10> C -1.3792047366 -0.075438177 0.197915278
| 11> C -2.5537398312 0.8465095747 -0.1296930797
| 12> C -1.5050177238 -1.3758646444 -0.5919208763
| 13> O 2.0947838387 0.7560432738 1.0571602761
| 14> H 2.8110344957 -1.294085759 -0.4454029514
| 15> H 1.2704066512 -1.5045651454 -1.286201395
| 16> H 2.2213703393 -0.0393088296 -1.5428250717
| 17> H -0.0805219472 1.6024314266 0.4517536686
| 18> H 0.0010083945 0.8751974282 -1.1565417469
| 19> H -1.4128815324 -0.3126641751 1.2675217653
| 20> H -3.4971307571 0.3562214479 0.0976684645
| 21> H -2.5473679812 1.1051679501 -1.1862527479
| 22> H -2.4967445194 1.7646967446 0.450120489
| 23> H -1.4128550171 -1.1818548975 -1.6582982371
| 24> H -0.7390118453 -2.0875698212 -0.2967642926
| 25> H -2.4761011686 -1.8306007219 -0.4099012091
| 26> H 2.4564343866 1.3988386656 0.4309071666
| 27> *
| 28>
| 29>                          ****END OF INPUT****

CARTESIAN COORDINATES (ANGSTROEM)
---------------------------------
  C      1.921624   -0.782227   -0.805961
  C      1.204152   -0.104944    0.360695
  H      0.932123   -0.854878    1.112181
  C     -0.061120    0.652947   -0.089143
  C     -1.379205   -0.075438    0.197915
  C     -2.553740    0.846510   -0.129693
  C     -1.505018   -1.375865   -0.591921
  O      2.094784    0.756043    1.057160
  H      2.811034   -1.294086   -0.445403
  H      1.270407   -1.504565   -1.286201
  H      2.221370   -0.039309   -1.542825
  H     -0.080522    1.602431    0.451754
  H      0.001008    0.875197   -1.156542
  H     -1.412882   -0.312664    1.267522
  H     -3.497131    0.356221    0.097668
  H     -2.547368    1.105168   -1.186253
  H     -2.496745    1.764697    0.450120
  H     -1.412855   -1.181855   -1.658298
  H     -0.739012   -2.087570   -0.296764
  H     -2.476101   -1.830601   -0.409901
  H      2.456434    1.398839    0.430907

 Total Charge           Charge          ....    0
 Multiplicity           Mult            ....    1
 Number of Electrons    NEL             ....   58
 Basis Dimension        Dim             ....  126

ORBITAL ENERGIES
----------------

  NO   OCC          E(Eh)            E(eV)
   0   2.0000     -18.733616      -509.7676
   1   2.0000      -9.933502      -270.3043
   2   2.0000      -9.895709      -269.2759
   3   2.0000      -9.877323      -268.7756
   4   2.0000      -9.875035      -268.7134
   5   2.0000      -9.874301      -268.6934
   6   2.0000      -9.871854      -268.6268
   7   2.0000      -0.912259       -24.8238
   8   2.0000      -0.732679       -19.9372
   9   2.0000      -0.673265       -18.3205
  10   2.0000      -0.614604       -16.7242
  11   2.0000      -0.607496       -16.5308
  12   2.0000      -0.540369       -14.7042
  13   2.0000      -0.502113       -13.6632
  14   2.0000      -0.431646       -11.7457
  15   2.0000      -0.419124       -11.4049
  16   2.0000      -0.413136       -11.2420
  17   2.0000      -0.377026       -10.2594
  18   2.0000      -0.373266       -10.1571
  19   2.0000      -0.354158        -9.6371
  20   2.0000      -0.351960        -9.5773
  21   2.0000      -0.338359        -9.2072
  22   2.0000      -0.328002        -8.9254
  23   2.0000      -0.308555        -8.3962
  24   2.0000      -0.292483        -7.9589
  25   2.0000      -0.283016        -7.7012
  26   2.0000      -0.279553        -7.6070
  27   2.0000      -0.263025        -7.1573
  28   2.0000      -0.206668        -5.6237
  29   0.0000       0.032115         0.8739
  30   0.0000       0.041206         1.1213
  31   0.0000       0.057762         1.5718
  32   0.0000       0.070683         1.9234
  33   0.0000       0.085432         2.3247

MULLIKEN ATOMIC CHARGES
-----------------------
   0 C :   -0.270790
   1 C :    0.037892
   2 H :    0.073078
   3 C :   -0.116790
   4 C :   -0.206300
   5 C :   -0.234331
   6 C :   -0.253604
   7 O :   -0.432065
   8 H :    0.109717
   9 H :    0.103047
  10 H :    0.086925
  11 H :    0.076851
  12 H :    0.065796
  13 H :    0.078808
  14 H :    0.097674
  15 H :    0.091099
  16 H :    0.098976
  17 H :    0.093664
  18 H :    0.113521
  19 H :    0.099016
  20 H :    0.287818
Sum of atomic charges:   -0.0000000

LOEWDIN ATOMIC CHARGES
----------------------
   0 C :   -0.353388
   1 C :   -0.055310
   2 H :    0.110853
   3 C :   -0.234262
   4 C :   -0.155408
   5 C :   -0.328926
   6 C :   -0.332526
   7 O :   -0.331697
   8 H :    0.122197
   9 H :    0.122568
  10 H :    0.113241
  11 H :    0.118573
  12 H :    0.110463
  13 H :    0.115624
  14 H :    0.116559
  15 H :    0.115791
  16 H :    0.117036
  17 H :    0.116291
  18 H :    0.116613
  19 H :    0.118757
  20 H :    0.276950

  Mayer bond orders larger than 0.100000
B(  0-C ,  1-C ) :   1.1217 B(  0-C ,  8-H ) :   0.9454 B(  0-C ,  9-H ) :   0.9301
B(  0-C , 10-H ) :   0.9387 B(  1-C ,  2-H ) :   0.9068 B(  1-C ,  3-C ) :   1.0308
B(  1-C ,  7-O ) :   1.0391 B(  3-C ,  4-C ) :   1.0870 B(  3-C , 11-H ) :   0.9103
B(  3-C , 12-H ) :   0.9084 B(  4-C ,  5-C ) :   1.1097 B(  4-C ,  6-C ) :   1.1090
B(  4-C , 13-H ) :   0.9025 B(  5-C , 14-H ) :   0.9503 B(  5-C , 15-H ) :   0.9500
B(  5-C , 16-H ) :   0.9501 B(  6-C , 17-H ) :   0.9467 B(  6-C , 18-H ) :   0.9402
B(  6-C , 19-H ) :   0.9479 B(  7-O , 20-H ) :   0.8566

Dispersion correction           -0.016299499
FINAL SINGLE POINT ENERGY      -311.515136835017

DIPOLE MOMENT
-------------

Method             : SCF
Type of density    : Electron Density
Multiplicity       :   1
Irrep              :   0
Energy             :  -311.5947083764772856 Eh
Relativity type    :
Basis              : AO
                                X                 Y                 Z
Electronic contribution:      4.498362656       1.921314321       3.361799751
Nuclear contribution   :     -4.631807170      -1.867896771      -3.898361775
                        -----------------------------------------
Total Dipole Moment    :     -0.133444513       0.053417550      -0.536562024
                        -----------------------------------------
Magnitude (a.u.)       :      0.555481484
Magnitude (Debye)      :      1.411921724

Rotational constants in cm-1:             0.141961             0.048831             0.040409
Rotational constants in MHz :          4255.896854          1463.903819          1211.439296

                             ****ORCA TERMINATED NORMALLY****
TOTAL RUN TIME: 0 days 0 hours 0 minutes 10 seconds 177 msec
