                         Program Version 6.0.0  -   RELEASE  -
|  1> ! pbe def2-sv(p) def2/J RI DEFGRID1 loosescf d4 GCP(DFT/SV(P)) printgap
|  2> %output
|  3>     printlevel normal
|  4> end
|  5> * xyz 0 1
|  6> C -2.0239847766 0.3046373907 -0.6788410825
|  7> C -1.4421597845 -0.7606700213 0.2419463197
|  8> C -0.2294940328 -0.240205583 1.0282359045
|  9> C 0.8931575868 0.1953652673 0.1174135654
| 10> O 1.1688735931 1.3688199036 -0.0465403276
| 11> C 1.6469601288 -0.9068903583 -0.5651200138
| 12> H -1.2855909986 0.6312230103 -1.4087272669
| 13> H -2.3340790033 1.1753477162 -0.1055530328
| 14> H -2.8883611867 -0.0837303127 -1.2114166372
| 15> H -1.1560355246 -1.6357693424 -0.3424614139
| 16> H -2.2034579707 -1.072950135 0.9584153145
| 17> H -0.5347096122 0.6176041748 1.6302562729
| 18> H 0.1337942098 -1.030305543 1.6855546568
| 19> H 0.9621351128 -1.5181534602 -1.1466015177
| 20> H 2.1103189171 -1.5440659451 0.1838593239
| 21> H 2.4113538048 -0.4919026288 -1.2161416311
| 22> *
| 23>
| 24>                          ****END OF INPUT****

CARTESIAN COORDINATES (ANGSTROEM)
---------------------------------
  C     -2.023985    0.304637   -0.678841
  C     -1.442160   -0.760670    0.241946
  C     -0.229494   -0.240206    1.028236
  C      0.893158    0.195365    0.117414
  O      1.168874    1.368820   -0.046540
  C      1.646960   -0.906890   -0.565120
  H     -1.285591    0.631223   -1.408727
  H     -2.334079    1.175348   -0.105553
  H     -2.888361   -0.083730   -1.211417
  H     -1.156036   -1.635769   -0.342461
  H     -2.203458   -1.072950    0.958415
  H     -0.534710    0.617604    1.630256
  H      0.133794   -1.030306    1.685555
  H      0.962135   -1.518153   -1.146602
  H      2.110319   -1.544066    0.183859
  H      2.411354   -0.491903   -1.216142

 Total Charge           Charge          ....    0
 Multiplicity           Mult            ....    1
 Number of Electrons    NEL             ....   48
 Basis Dimension        Dim             ....  104

ORBITAL ENERGIES
----------------

  NO   OCC          E(Eh)            E(eV)
   0   2.0000     -18.735029      -509.8061
   1   2.0000      -9.971425      -271.3363
   2   2.0000      -9.900931      -269.4180
   3   2.0000      -9.891175      -269.1526
   4   2.0000      -9.886187      -269.0168
   5   2.0000      -9.878632      -268.8113
   6   2.0000      -0.931670       -25.3520
   7   2.0000      -0.728719       -19.8294
   8   2.0000      -0.672245       -18.2927
   9   2.0000      -0.623507       -16.9665
  10   2.0000      -0.542209       -14.7543
  11   2.0000      -0.468659       -12.7529
  12   2.0000      -0.426910       -11.6168
  13   2.0000      -0.417874       -11.3709
  14   2.0000      -0.399994       -10.8844
  15   2.0000      -0.379389       -10.3237
  16   2.0000      -0.378719       -10.3055
  17   2.0000      -0.347306        -9.4507
  18   2.0000      -0.332872        -9.0579
  19   2.0000      -0.321820        -8.7572
  20   2.0000      -0.311124        -8.4661
  21   2.0000      -0.302436        -8.2297
  22   2.0000      -0.294628        -8.0172
  23   2.0000      -0.191591        -5.2134
  24   0.0000      -0.049256        -1.3403
  25   0.0000       0.027193         0.7400
  26   0.0000       0.063626         1.7314
  27   0.0000       0.074913         2.0385
  28   0.0000       0.083155         2.2628

MULLIKEN ATOMIC CHARGES
-----------------------
   0 C :   -0.282857
   1 C :   -0.227922
   2 C :   -0.113968
   3 C :   -0.028873
   4 O :   -0.169091
   5 C :   -0.259179
   6 H :    0.120377
   7 H :    0.107811
   8 H :    0.106988
   9 H :    0.096134
  10 H :    0.099226
  11 H :    0.092215
  12 H :    0.096078
  13 H :    0.125121
  14 H :    0.120160
  15 H :    0.117780
Sum of atomic charges:    0.0000000

LOEWDIN ATOMIC CHARGES
----------------------
   0 C :   -0.342711
   1 C :   -0.227357
   2 C :   -0.247678
   3 C :    0.039264
   4 O :   -0.132083
   5 C :   -0.363357
   6 H :    0.121773
   7 H :    0.123152
   8 H :    0.121019
   9 H :    0.113947
  10 H :    0.122026
  11 H :    0.128428
  12 H :    0.128380
  13 H :    0.138898
  14 H :    0.141920
  15 H :    0.134378

  Mayer bond orders larger than 0.100000
B(  0-C ,  1-C ) :   1.1516 B(  0-C ,  6-H ) :   0.9456 B(  0-C ,  7-H ) :   0.9535
B(  0-C ,  8-H ) :   0.9512 B(  1-C ,  2-C ) :   1.1040 B(  1-C ,  9-H ) :   0.9251
B(  1-C , 10-H ) :   0.9244 B(  2-C ,  3-C ) :   1.0037 B(  2-C , 11-H ) :   0.8997
B(  2-C , 12-H ) :   0.9039 B(  3-C ,  4-O ) :   2.1823 B(  3-C ,  5-C ) :   1.0572
B(  5-C , 13-H ) :   0.9248 B(  5-C , 14-H ) :   0.9228 B(  5-C , 15-H ) :   0.9341

Dispersion correction           -0.011635906
FINAL SINGLE POINT ENERGY      -271.141633925994

DIPOLE MOMENT
-------------

Method             : SCF
Type of density    : Electron Density
Multiplicity       :   1
Irrep              :   0
Energy             :  -271.1960081863750247 Eh
Relativity type    :
Basis              : AO
                                X                 Y                 Z
Electronic contribution:      4.134497960       3.626233860       1.021069610
Nuclear contribution   :     -4.471426468      -4.626131727      -0.913361169
                        -----------------------------------------
Total Dipole Moment    :     -0.336928507      -0.999897867       0.107708441
                        -----------------------------------------
Magnitude (a.u.)       :      1.060621361
Magnitude (Debye)      :      2.695885255

Rotational constants in cm-1:             0.175594             0.080669             0.072164
Rotational constants in MHz :          5264.171106          2418.384857          2163.418190

                             ****ORCA TERMINATED NORMALLY****
TOTAL RUN TIME: 0 days 0 hours 0 minutes 7 seconds 692 msec
