                         Program Version 6.0.0  -   RELEASE  -
|  1> ! pbe def2-sv(p) def2/J RI DEFGRID1 loosescf d4 GCP(DFT/SV(P)) printgap
|  2> %output
|  3>     printlevel normal
|  4> end
|  5> * xyz 0 1
|  6> C -3.3410035145 -0.0145009561 0.0131297952
|  7> C -2.0029495737 0.6377483654 0.3368105307
|  8> C -0.845307041 -0.209709 -0.1704464508
|  9> O 0.3811041205 0.4698668843 0.1331500863
| 10> C 1.519866748 -0.1797028834 -0.0743146525
| 11> O 1.5653878959 -1.3147025168 -0.5050670873
| 12> C 2.7118372281 0.6539836253 0.2861425528
| 13> H -4.1553874775 0.6011030538 0.3830891068
| 14> H -3.4570280277 -0.1339075016 -1.0610623787
| 15> H -3.4095662057 -0.9953790238 0.476673188
| 16> H -1.8974996516 0.7657627051 1.4147244236
| 17> H -1.9421423437 1.6226845589 -0.1272788842
| 18> H -0.8274164034 -1.1968029864 0.3041282305
| 19> H -0.9024558068 -0.3564782272 -1.2544408393
| 20> H 3.3485019205 0.7568808854 -0.5888446392
| 21> H 3.2836412829 0.1400542701 1.0545031849
| 22> H 2.3886637426 1.6269855239 0.6389918105
| 23> *
| 24>
| 25>                          ****END OF INPUT****

CARTESIAN COORDINATES (ANGSTROEM)
---------------------------------
  C     -3.341004   -0.014501    0.013130
  C     -2.002950    0.637748    0.336811
  C     -0.845307   -0.209709   -0.170446
  O      0.381104    0.469867    0.133150
  C      1.519867   -0.179703   -0.074315
  O      1.565388   -1.314703   -0.505067
  C      2.711837    0.653984    0.286143
  H     -4.155387    0.601103    0.383089
  H     -3.457028   -0.133908   -1.061062
  H     -3.409566   -0.995379    0.476673
  H     -1.897500    0.765763    1.414724
  H     -1.942142    1.622685   -0.127279
  H     -0.827416   -1.196803    0.304128
  H     -0.902456   -0.356478   -1.254441
  H      3.348502    0.756881   -0.588845
  H      3.283641    0.140054    1.054503
  H      2.388664    1.626986    0.638992

 Total Charge           Charge          ....    0
 Multiplicity           Mult            ....    1
 Number of Electrons    NEL             ....   56
 Basis Dimension        Dim             ....  118

ORBITAL ENERGIES
----------------

  NO   OCC          E(Eh)            E(eV)
   0   2.0000     -18.796910      -511.4899
   1   2.0000     -18.727351      -509.5971
   2   2.0000     -10.005756      -272.2705
   3   2.0000      -9.943650      -270.5805
   4   2.0000      -9.895795      -269.2783
   5   2.0000      -9.892678      -269.1935
   6   2.0000      -9.886188      -269.0169
   7   2.0000      -1.003444       -27.3051
   8   2.0000      -0.905108       -24.6292
   9   2.0000      -0.726287       -19.7633
  10   2.0000      -0.679420       -18.4880
  11   2.0000      -0.622912       -16.9503
  12   2.0000      -0.540736       -14.7142
  13   2.0000      -0.509944       -13.8763
  14   2.0000      -0.451330       -12.2813
  15   2.0000      -0.430701       -11.7200
  16   2.0000      -0.412789       -11.2326
  17   2.0000      -0.409627       -11.1465
  18   2.0000      -0.378445       -10.2980
  19   2.0000      -0.371614       -10.1121
  20   2.0000      -0.359501        -9.7825
  21   2.0000      -0.332130        -9.0377
  22   2.0000      -0.325787        -8.8651
  23   2.0000      -0.320097        -8.7103
  24   2.0000      -0.300741        -8.1836
  25   2.0000      -0.293525        -7.9872
  26   2.0000      -0.254660        -6.9297
  27   2.0000      -0.214391        -5.8339
  28   0.0000      -0.017753        -0.4831
  29   0.0000       0.035220         0.9584
  30   0.0000       0.052576         1.4307
  31   0.0000       0.074721         2.0333
  32   0.0000       0.076416         2.0794

MULLIKEN ATOMIC CHARGES
-----------------------
   0 C :   -0.292040
   1 C :   -0.181374
   2 C :   -0.007834
   3 O :   -0.235132
   4 C :    0.082154
   5 O :   -0.219626
   6 C :   -0.249318
   7 H :    0.112913
   8 H :    0.106116
   9 H :    0.106293
  10 H :    0.098081
  11 H :    0.097671
  12 H :    0.101389
  13 H :    0.097776
  14 H :    0.133567
  15 H :    0.133439
  16 H :    0.115924
Sum of atomic charges:    0.0000000

LOEWDIN ATOMIC CHARGES
----------------------
   0 C :   -0.338845
   1 C :   -0.244846
   2 C :   -0.103909
   3 O :   -0.070039
   4 C :    0.027576
   5 O :   -0.176337
   6 C :   -0.360332
   7 H :    0.124759
   8 H :    0.120269
   9 H :    0.120538
  10 H :    0.121401
  11 H :    0.121368
  12 H :    0.115628
  13 H :    0.114274
  14 H :    0.147462
  15 H :    0.147603
  16 H :    0.133431

  Mayer bond orders larger than 0.100000
B(  0-C ,  1-C ) :   1.1382 B(  0-C ,  7-H ) :   0.9525 B(  0-C ,  8-H ) :   0.9551
B(  0-C ,  9-H ) :   0.9550 B(  1-C ,  2-C ) :   1.1112 B(  1-C , 10-H ) :   0.9237
B(  1-C , 11-H ) :   0.9218 B(  2-C ,  3-O ) :   0.9214 B(  2-C , 12-H ) :   0.9249
B(  2-C , 13-H ) :   0.9311 B(  3-O ,  4-C ) :   1.2113 B(  4-C ,  5-O ) :   2.0444
B(  4-C ,  6-C ) :   1.0892 B(  6-C , 14-H ) :   0.9306 B(  6-C , 15-H ) :   0.9294
B(  6-C , 16-H ) :   0.9388

Dispersion correction           -0.011331356
FINAL SINGLE POINT ENERGY      -346.244190856313

DIPOLE MOMENT
-------------

Method             : SCF
Type of density    : Electron Density
Multiplicity       :   1
Irrep              :   0
Energy             :  -346.3090399676338507 Eh
Relativity type    :
Basis              : AO
                                X                 Y                 Z
Electronic contribution:      6.684470343      -2.003506736      -0.914305215
Nuclear contribution   :     -7.073713089       2.643334922       1.158266555
                        -----------------------------------------
Total Dipole Moment    :     -0.389242745       0.639828186       0.243961340
                        -----------------------------------------
Magnitude (a.u.)       :      0.787659290
Magnitude (Debye)      :      2.002070809

Rotational constants in cm-1:             0.261111             0.038820             0.034702
Rotational constants in MHz :          7827.921912          1163.781182          1040.333636

                             ****ORCA TERMINATED NORMALLY****
TOTAL RUN TIME: 0 days 0 hours 0 minutes 8 seconds 685 msec
