                         Program Version 6.0.0  -   RELEASE  -
|  1> ! r2scan-3c def2/J RI DEFGRID2 scfconv6 printgap
|  2> %output
|  3>     printlevel normal
|  4> end
|  5> * xyz 0 1
|  6> C 2.2673655821 0.2540012275 -0.7532037947
|  7> C 1.5243454715 0.5443163901 0.5461546702
|  8> C 0.3215051017 -0.3731358789 0.7747413741
|  9> C -0.7991639034 -0.2641475387 -0.2661988677
| 10> C -1.4232263384 1.1293783046 -0.2879797966
| 11> C -1.8740172269 -1.3091739068 0.0329014325
| 12> H 2.5497015601 -0.7953937797 -0.8029814817
| 13> H 1.650302414 0.4861064565 -1.61721613
| 14> H 3.1712442762 0.8559440489 -0.8122121005
| 15> H 2.2141534286 0.4079284946 1.382816183
| 16> H 1.2044456557 1.5872498138 0.5576658975
| 17> H 0.675789903 -1.4071779977 0.7924708438
| 18> H -0.0997555443 -0.1540733193 1.7595012511
| 19> H -0.3848388475 -0.4781296272 -1.2564708969
| 20> H -2.2613783626 1.1550242613 -0.9808406336
| 21> H -0.7023497293 1.878394198 -0.6039678715
| 22> H -1.7882558081 1.3954897009 0.7019453718
| 23> H -2.3152866348 -1.1286385976 1.0109838893
| 24> H -2.6646877713 -1.268647471 -0.7127166272
| 25> H -1.4493912504 -2.3104992376 0.0279011841
| 26> *
| 27>
| 28>                          ****END OF INPUT****

CARTESIAN COORDINATES (ANGSTROEM)
---------------------------------
  C      2.267366    0.254001   -0.753204
  C      1.524345    0.544316    0.546155
  C      0.321505   -0.373136    0.774741
  C     -0.799164   -0.264148   -0.266199
  C     -1.423226    1.129378   -0.287980
  C     -1.874017   -1.309174    0.032901
  H      2.549702   -0.795394   -0.802981
  H      1.650302    0.486106   -1.617216
  H      3.171244    0.855944   -0.812212
  H      2.214153    0.407928    1.382816
  H      1.204446    1.587250    0.557666
  H      0.675790   -1.407178    0.792471
  H     -0.099756   -0.154073    1.759501
  H     -0.384839   -0.478130   -1.256471
  H     -2.261378    1.155024   -0.980841
  H     -0.702350    1.878394   -0.603968
  H     -1.788256    1.395490    0.701945
  H     -2.315287   -1.128639    1.010984
  H     -2.664688   -1.268647   -0.712717
  H     -1.449391   -2.310499    0.027901

 Total Charge           Charge          ....    0
 Multiplicity           Mult            ....    1
 Number of Electrons    NEL             ....   50
 Basis Dimension        Dim             ....  184

ORBITAL ENERGIES
----------------

  NO   OCC          E(Eh)            E(eV)
   0   2.0000     -10.028892      -272.9000
   1   2.0000     -10.021155      -272.6895
   2   2.0000     -10.018247      -272.6104
   3   2.0000     -10.013596      -272.4838
   4   2.0000     -10.012376      -272.4506
   5   2.0000     -10.011741      -272.4333
   6   2.0000      -0.779391       -21.2083
   7   2.0000      -0.725430       -19.7399
   8   2.0000      -0.647553       -17.6208
   9   2.0000      -0.641001       -17.4425
  10   2.0000      -0.563898       -15.3444
  11   2.0000      -0.512014       -13.9326
  12   2.0000      -0.438609       -11.9352
  13   2.0000      -0.423985       -11.5372
  14   2.0000      -0.395834       -10.7712
  15   2.0000      -0.388294       -10.5660
  16   2.0000      -0.373504       -10.1636
  17   2.0000      -0.352745        -9.5987
  18   2.0000      -0.343971        -9.3599
  19   2.0000      -0.323667        -8.8074
  20   2.0000      -0.314012        -8.5447
  21   2.0000      -0.309200        -8.4138
  22   2.0000      -0.286224        -7.7886
  23   2.0000      -0.281043        -7.6476
  24   2.0000      -0.274179        -7.4608
  25   0.0000       0.083679         2.2770
  26   0.0000       0.109634         2.9833
  27   0.0000       0.118497         3.2245
  28   0.0000       0.126542         3.4434
  29   0.0000       0.135151         3.6776

MULLIKEN ATOMIC CHARGES
-----------------------
   0 C :   -0.486140
   1 C :   -0.251731
   2 C :   -0.272699
   3 C :   -0.045971
   4 C :   -0.498947
   5 C :   -0.481160
   6 H :    0.144726
   7 H :    0.149071
   8 H :    0.146296
   9 H :    0.142063
  10 H :    0.143204
  11 H :    0.140791
  12 H :    0.143384
  13 H :    0.148230
  14 H :    0.143595
  15 H :    0.149165
  16 H :    0.150974
  17 H :    0.145876
  18 H :    0.145390
  19 H :    0.143883
Sum of atomic charges:   -0.0000000

LOEWDIN ATOMIC CHARGES
----------------------
   0 C :   -0.427370
   1 C :   -0.316858
   2 C :   -0.308306
   3 C :   -0.250204
   4 C :   -0.417699
   5 C :   -0.417232
   6 H :    0.150396
   7 H :    0.148280
   8 H :    0.150362
   9 H :    0.152072
  10 H :    0.151084
  11 H :    0.156375
  12 H :    0.157719
  13 H :    0.154674
  14 H :    0.153295
  15 H :    0.151983
  16 H :    0.154189
  17 H :    0.153393
  18 H :    0.151447
  19 H :    0.152399

  Mayer bond orders larger than 0.100000
B(  0-C ,  1-C ) :   0.8843 B(  0-C ,  6-H ) :   0.9808 B(  0-C ,  7-H ) :   0.9819
B(  0-C ,  8-H ) :   0.9706 B(  1-C ,  2-C ) :   0.9038 B(  1-C ,  9-H ) :   0.9711
B(  1-C , 10-H ) :   0.9887 B(  2-C ,  3-C ) :   0.8974 B(  2-C , 11-H ) :   0.9800
B(  2-C , 12-H ) :   0.9789 B(  3-C ,  4-C ) :   0.8933 B(  3-C ,  5-C ) :   0.9117
B(  3-C , 13-H ) :   0.9601 B(  4-C , 14-H ) :   0.9716 B(  4-C , 15-H ) :   0.9738
B(  4-C , 16-H ) :   0.9857 B(  5-C , 17-H ) :   0.9877 B(  5-C , 18-H ) :   0.9769
B(  5-C , 19-H ) :   0.9773

Dispersion correction           -0.005069682
FINAL SINGLE POINT ENERGY      -236.988174932427

DIPOLE MOMENT
-------------

Method             : SCF
Type of density    : Electron Density
Multiplicity       :   1
Irrep              :   0
Energy             :  -236.9926150004604324 Eh
Relativity type    :
Basis              : AO
                                X                 Y                 Z
Electronic contribution:      0.220468401      -0.209478980       0.516543887
Nuclear contribution   :     -0.187919979       0.209751208      -0.518916761
                        -----------------------------------------
Total Dipole Moment    :      0.032548422       0.000272228      -0.002372874
                        -----------------------------------------
Magnitude (a.u.)       :      0.032635938
Magnitude (Debye)      :      0.082953961

Rotational constants in cm-1:             0.184905             0.066066             0.059872
Rotational constants in MHz :          5543.300461          1980.600405          1794.916356

                             ****ORCA TERMINATED NORMALLY****
TOTAL RUN TIME: 0 days 0 hours 0 minutes 17 seconds 45 msec
