                         Program Version 6.0.0  -   RELEASE  -
|  1> ! r2scan-3c def2/J RI DEFGRID2 scfconv6 printgap
|  2> %output
|  3>     printlevel normal
|  4> end
|  5> %cpcm
|  6>     smd true
|  7>     smdsolvent "water"
|  8> end
|  9> * xyz 0 1
| 10> C 2.2673655821 0.2540012275 -0.7532037947
| 11> C 1.5243454715 0.5443163901 0.5461546702
| 12> C 0.3215051017 -0.3731358789 0.7747413741
| 13> C -0.7991639034 -0.2641475387 -0.2661988677
| 14> C -1.4232263384 1.1293783046 -0.2879797966
| 15> C -1.8740172269 -1.3091739068 0.0329014325
| 16> H 2.5497015601 -0.7953937797 -0.8029814817
| 17> H 1.650302414 0.4861064565 -1.61721613
| 18> H 3.1712442762 0.8559440489 -0.8122121005
| 19> H 2.2141534286 0.4079284946 1.382816183
| 20> H 1.2044456557 1.5872498138 0.5576658975
| 21> H 0.675789903 -1.4071779977 0.7924708438
| 22> H -0.0997555443 -0.1540733193 1.7595012511
| 23> H -0.3848388475 -0.4781296272 -1.2564708969
| 24> H -2.2613783626 1.1550242613 -0.9808406336
| 25> H -0.7023497293 1.878394198 -0.6039678715
| 26> H -1.7882558081 1.3954897009 0.7019453718
| 27> H -2.3152866348 -1.1286385976 1.0109838893
| 28> H -2.6646877713 -1.268647471 -0.7127166272
| 29> H -1.4493912504 -2.3104992376 0.0279011841
| 30> *
| 31>
| 32>                          ****END OF INPUT****

CARTESIAN COORDINATES (ANGSTROEM)
---------------------------------
  C      2.267366    0.254001   -0.753204
  C      1.524345    0.544316    0.546155
  C      0.321505   -0.373136    0.774741
  C     -0.799164   -0.264148   -0.266199
  C     -1.423226    1.129378   -0.287980
  C     -1.874017   -1.309174    0.032901
  H      2.549702   -0.795394   -0.802981
  H      1.650302    0.486106   -1.617216
  H      3.171244    0.855944   -0.812212
  H      2.214153    0.407928    1.382816
  H      1.204446    1.587250    0.557666
  H      0.675790   -1.407178    0.792471
  H     -0.099756   -0.154073    1.759501
  H     -0.384839   -0.478130   -1.256471
  H     -2.261378    1.155024   -0.980841
  H     -0.702350    1.878394   -0.603968
  H     -1.788256    1.395490    0.701945
  H     -2.315287   -1.128639    1.010984
  H     -2.664688   -1.268647   -0.712717
  H     -1.449391   -2.310499    0.027901

 Total Charge           Charge          ....    0
 Multiplicity           Mult            ....    1
 Number of Electrons    NEL             ....   50
 Basis Dimension        Dim             ....  184

ORBITAL ENERGIES
----------------

  NO   OCC          E(Eh)            E(eV)
   0   2.0000     -10.021597      -272.7015
   1   2.0000     -10.013809      -272.4896
   2   2.0000     -10.010566      -272.4013
   3   2.0000     -10.006154      -272.2813
   4   2.0000     -10.004744      -272.2429
   5   2.0000     -10.004648      -272.2403
   6   2.0000      -0.772091       -21.0097
   7   2.0000      -0.718402       -19.5487
   8   2.0000      -0.640753       -17.4358
   9   2.0000      -0.634189       -17.2572
  10   2.0000      -0.557037       -15.1578
  11   2.0000      -0.504910       -13.7393
  12   2.0000      -0.431178       -11.7329
  13   2.0000      -0.416695       -11.3389
  14   2.0000      -0.388836       -10.5808
  15   2.0000      -0.381175       -10.3723
  16   2.0000      -0.366275        -9.9668
  17   2.0000      -0.345791        -9.4095
  18   2.0000      -0.336975        -9.1695
  19   2.0000      -0.316226        -8.6049
  20   2.0000      -0.306748        -8.3470
  21   2.0000      -0.302123        -8.2212
  22   2.0000      -0.278617        -7.5815
  23   2.0000      -0.273885        -7.4528
  24   2.0000      -0.266809        -7.2602
  25   0.0000       0.091806         2.4982
  26   0.0000       0.116570         3.1720
  27   0.0000       0.125450         3.4137
  28   0.0000       0.132914         3.6168
  29   0.0000       0.140959         3.8357

MULLIKEN ATOMIC CHARGES
-----------------------
   0 C :   -0.523536
   1 C :   -0.261428
   2 C :   -0.294019
   3 C :   -0.022201
   4 C :   -0.544139
   5 C :   -0.527590
   6 H :    0.154819
   7 H :    0.160269
   8 H :    0.155518
   9 H :    0.149057
  10 H :    0.150828
  11 H :    0.149773
  12 H :    0.151736
  13 H :    0.155210
  14 H :    0.154477
  15 H :    0.160851
  16 H :    0.161678
  17 H :    0.157070
  18 H :    0.156649
  19 H :    0.154978
Sum of atomic charges:   -0.0000000

LOEWDIN ATOMIC CHARGES
----------------------
   0 C :   -0.435541
   1 C :   -0.319458
   2 C :   -0.311666
   3 C :   -0.248130
   4 C :   -0.426308
   5 C :   -0.426664
   6 H :    0.152678
   7 H :    0.151242
   8 H :    0.152150
   9 H :    0.153404
  10 H :    0.153071
  11 H :    0.158320
  12 H :    0.159399
  13 H :    0.156829
  14 H :    0.155360
  15 H :    0.154960
  16 H :    0.156415
  17 H :    0.155507
  18 H :    0.153864
  19 H :    0.154564

  Mayer bond orders larger than 0.100000
B(  0-C ,  1-C ) :   0.8779 B(  0-C ,  6-H ) :   0.9783 B(  0-C ,  7-H ) :   0.9789
B(  0-C ,  8-H ) :   0.9687 B(  1-C ,  2-C ) :   0.9020 B(  1-C ,  9-H ) :   0.9717
B(  1-C , 10-H ) :   0.9877 B(  2-C ,  3-C ) :   0.8935 B(  2-C , 11-H ) :   0.9789
B(  2-C , 12-H ) :   0.9789 B(  3-C ,  4-C ) :   0.8855 B(  3-C ,  5-C ) :   0.8984
B(  3-C , 13-H ) :   0.9606 B(  4-C , 14-H ) :   0.9701 B(  4-C , 15-H ) :   0.9709
B(  4-C , 16-H ) :   0.9839 B(  5-C , 17-H ) :   0.9864 B(  5-C , 18-H ) :   0.9745
B(  5-C , 19-H ) :   0.9754

Dispersion correction           -0.005069682
FINAL SINGLE POINT ENERGY      -236.984804329558

DIPOLE MOMENT
-------------

Method             : SCF
Type of density    : Electron Density
Multiplicity       :   1
Irrep              :   0
Energy             :  -236.9892443975913068 Eh
Relativity type    :
Basis              : AO
                                X                 Y                 Z
Electronic contribution:      0.227832187      -0.205554123       0.507896731
Nuclear contribution   :     -0.187919979       0.209751208      -0.518916761
                        -----------------------------------------
Total Dipole Moment    :      0.039912208       0.004197085      -0.011020030
                        -----------------------------------------
Magnitude (a.u.)       :      0.041617795
Magnitude (Debye)      :      0.105784029

Rotational constants in cm-1:             0.184905             0.066066             0.059872
Rotational constants in MHz :          5543.300461          1980.600405          1794.916356

                             ****ORCA TERMINATED NORMALLY****
TOTAL RUN TIME: 0 days 0 hours 0 minutes 20 seconds 10 msec
