                         Program Version 6.0.0  -   RELEASE  -
|  1> ! pbe def2-sv(p) def2/J RI DEFGRID1 loosescf d4 GCP(DFT/SV(P)) printgap
|  2> %output
|  3>     printlevel normal
|  4> end
|  5> * xyz 0 1
|  6> C -3.2481602923 0.4804631466 0.053258249
|  7> C -1.940683346 -0.3002237513 0.026697867
|  8> C -0.7317162318 0.6348473951 0.0046689901
|  9> C 0.5623385248 -0.119138707 -0.1509351853
| 10> O 0.6930395448 -1.1682468001 -0.7457574465
| 11> O 1.565129598 0.5239674132 0.438162917
| 12> C 2.8851457452 -0.0250971119 0.3636719289
| 13> H -4.0929839424 -0.2019511451 0.0834429268
| 14> H -3.2907662641 1.1209637124 0.9304800587
| 15> H -3.3394519029 1.1024482024 -0.833547683
| 16> H -1.9027949641 -0.9419963135 -0.8553170708
| 17> H -1.8782682774 -0.9464060359 0.904386682
| 18> H -0.6754793423 1.2414104284 0.9083760102
| 19> H -0.8103425641 1.310876713 -0.8509040638
| 20> H 2.8998119828 -0.8590531272 -0.3388092644
| 21> H 3.1688935795 -0.3658284562 1.3582039378
| 22> H 3.5465028867 0.7723890863 0.0328240332
| 23> *
| 24>
| 25>                          ****END OF INPUT****

CARTESIAN COORDINATES (ANGSTROEM)
---------------------------------
  C     -3.248160    0.480463    0.053258
  C     -1.940683   -0.300224    0.026698
  C     -0.731716    0.634847    0.004669
  C      0.562339   -0.119139   -0.150935
  O      0.693040   -1.168247   -0.745757
  O      1.565130    0.523967    0.438163
  C      2.885146   -0.025097    0.363672
  H     -4.092984   -0.201951    0.083443
  H     -3.290766    1.120964    0.930480
  H     -3.339452    1.102448   -0.833548
  H     -1.902795   -0.941996   -0.855317
  H     -1.878268   -0.946406    0.904387
  H     -0.675479    1.241410    0.908376
  H     -0.810343    1.310877   -0.850904
  H      2.899812   -0.859053   -0.338809
  H      3.168894   -0.365828    1.358204
  H      3.546503    0.772389    0.032824

 Total Charge           Charge          ....    0
 Multiplicity           Mult            ....    1
 Number of Electrons    NEL             ....   56
 Basis Dimension        Dim             ....  118

ORBITAL ENERGIES
----------------

  NO   OCC          E(Eh)            E(eV)
   0   2.0000     -18.798446      -511.5317
   1   2.0000     -18.732177      -509.7285
   2   2.0000     -10.005700      -272.2689
   3   2.0000      -9.939443      -270.4660
   4   2.0000      -9.897520      -269.3252
   5   2.0000      -9.887649      -269.0566
   6   2.0000      -9.877101      -268.7696
   7   2.0000      -1.003649       -27.3107
   8   2.0000      -0.909162       -24.7396
   9   2.0000      -0.723377       -19.6841
  10   2.0000      -0.673952       -18.3392
  11   2.0000      -0.619846       -16.8669
  12   2.0000      -0.535398       -14.5689
  13   2.0000      -0.500376       -13.6159
  14   2.0000      -0.448997       -12.2178
  15   2.0000      -0.441325       -12.0091
  16   2.0000      -0.419668       -11.4198
  17   2.0000      -0.406947       -11.0736
  18   2.0000      -0.379691       -10.3319
  19   2.0000      -0.371778       -10.1166
  20   2.0000      -0.358956        -9.7677
  21   2.0000      -0.329666        -8.9707
  22   2.0000      -0.316671        -8.6171
  23   2.0000      -0.300724        -8.1831
  24   2.0000      -0.293785        -7.9943
  25   2.0000      -0.290323        -7.9001
  26   2.0000      -0.255290        -6.9468
  27   2.0000      -0.220237        -5.9930
  28   0.0000      -0.017713        -0.4820
  29   0.0000       0.040240         1.0950
  30   0.0000       0.059211         1.6112
  31   0.0000       0.079014         2.1501
  32   0.0000       0.083655         2.2764

MULLIKEN ATOMIC CHARGES
-----------------------
   0 C :   -0.254705
   1 C :   -0.208681
   2 C :   -0.172019
   3 C :    0.119842
   4 O :   -0.203424
   5 O :   -0.241148
   6 C :   -0.130653
   7 H :    0.105876
   8 H :    0.096613
   9 H :    0.097104
  10 H :    0.107880
  11 H :    0.093507
  12 H :    0.100262
  13 H :    0.113023
  14 H :    0.133162
  15 H :    0.121644
  16 H :    0.121717
Sum of atomic charges:    0.0000000

LOEWDIN ATOMIC CHARGES
----------------------
   0 C :   -0.339648
   1 C :   -0.229854
   2 C :   -0.249162
   3 C :    0.037843
   4 O :   -0.169003
   5 O :   -0.076715
   6 C :   -0.209233
   7 H :    0.121294
   8 H :    0.116473
   9 H :    0.117152
  10 H :    0.124485
  11 H :    0.119118
  12 H :    0.130570
  13 H :    0.142500
  14 H :    0.124006
  15 H :    0.119879
  16 H :    0.120293

  Mayer bond orders larger than 0.100000
B(  0-C ,  1-C ) :   1.1568 B(  0-C ,  7-H ) :   0.9536 B(  0-C ,  8-H ) :   0.9528
B(  0-C ,  9-H ) :   0.9543 B(  1-C ,  2-C ) :   1.1282 B(  1-C , 10-H ) :   0.9190
B(  1-C , 11-H ) :   0.9337 B(  2-C ,  3-C ) :   1.0119 B(  2-C , 12-H ) :   0.9104
B(  2-C , 13-H ) :   0.8892 B(  3-C ,  4-O ) :   2.0650 B(  3-C ,  5-O ) :   1.2193
B(  5-O ,  6-C ) :   0.9362 B(  6-C , 14-H ) :   0.9295 B(  6-C , 15-H ) :   0.9608
B(  6-C , 16-H ) :   0.9612

Dispersion correction           -0.011676864
FINAL SINGLE POINT ENERGY      -346.239676087547

DIPOLE MOMENT
-------------

Method             : SCF
Type of density    : Electron Density
Multiplicity       :   1
Irrep              :   0
Energy             :  -346.3046881550018838 Eh
Relativity type    :
Basis              : AO
                                X                 Y                 Z
Electronic contribution:      6.176815693      -1.555330586      -0.912038539
Nuclear contribution   :     -5.947222241       2.085237324       1.251772622
                        -----------------------------------------
Total Dipole Moment    :      0.229593451       0.529906737       0.339734084
                        -----------------------------------------
Magnitude (a.u.)       :      0.670025037
Magnitude (Debye)      :      1.703068300

Rotational constants in cm-1:             0.269117             0.040208             0.036411
Rotational constants in MHz :          8067.931895          1205.408113          1091.560453

                             ****ORCA TERMINATED NORMALLY****
TOTAL RUN TIME: 0 days 0 hours 0 minutes 9 seconds 689 msec
