                         Program Version 6.0.0  -   RELEASE  -
|  1> ! r2scan-3c def2/J RI DEFGRID2 scfconv6 printgap
|  2> %output
|  3>     printlevel normal
|  4> end
|  5> * xyz 0 1
|  6> C -2.8570822959 0.8503462687 -0.4958621083
|  7> C -2.4033830555 -0.2243722598 0.4861607342
|  8> C -1.1343939817 -0.9678858233 0.0521530611
|  9> C 0.1772622244 -0.3108875755 0.484918961
| 10> C 1.3940323983 -1.2197133888 0.1961220472
| 11> C 2.5006396449 -0.313083794 -0.3670276152
| 12> C 2.0296832271 1.1105041452 -0.074114952
| 13> C 0.5148028856 1.0084987924 -0.2171677502
| 14> H -3.0313891322 0.4155329948 -1.4776884966
| 15> H -3.7858737198 1.3013995019 -0.153278385
| 16> H -2.114093384 1.6351657342 -0.5955268588
| 17> H -2.2412624837 0.2234296058 1.4688965725
| 18> H -3.2127524593 -0.9510815535 0.5894666254
| 19> H -1.1555779984 -1.9680959172 0.4928089905
| 20> H -1.1386974436 -1.0876338365 -1.0336464134
| 21> H 0.1256242687 -0.1229351067 1.56268972
| 22> H 1.7206351221 -1.7198442601 1.1074096651
| 23> H 1.1291040915 -1.992927962 -0.5250159243
| 24> H 3.4717730075 -0.524667829 0.0779502391
| 25> H 2.5874060769 -0.4531716853 -1.4451306141
| 26> H 2.2854051573 1.3882192658 0.9498858832
| 27> H 2.4690714227 1.8431843863 -0.7496663466
| 28> H 0.00253778 1.8600572542 0.2275330096
| 29> H 0.2477784153 0.9469562223 -1.2734567304
| 30> *
| 31>
| 32>                          ****END OF INPUT****

CARTESIAN COORDINATES (ANGSTROEM)
---------------------------------
  C     -2.857082    0.850346   -0.495862
  C     -2.403383   -0.224372    0.486161
  C     -1.134394   -0.967886    0.052153
  C      0.177262   -0.310888    0.484919
  C      1.394032   -1.219713    0.196122
  C      2.500640   -0.313084   -0.367028
  C      2.029683    1.110504   -0.074115
  C      0.514803    1.008499   -0.217168
  H     -3.031389    0.415533   -1.477688
  H     -3.785874    1.301400   -0.153278
  H     -2.114093    1.635166   -0.595527
  H     -2.241262    0.223430    1.468897
  H     -3.212752   -0.951082    0.589467
  H     -1.155578   -1.968096    0.492809
  H     -1.138697   -1.087634   -1.033646
  H      0.125624   -0.122935    1.562690
  H      1.720635   -1.719844    1.107410
  H      1.129104   -1.992928   -0.525016
  H      3.471773   -0.524668    0.077950
  H      2.587406   -0.453172   -1.445131
  H      2.285405    1.388219    0.949886
  H      2.469071    1.843184   -0.749666
  H      0.002538    1.860057    0.227533
  H      0.247778    0.946956   -1.273457

 Total Charge           Charge          ....    0
 Multiplicity           Mult            ....    1
 Number of Electrons    NEL             ....   64
 Basis Dimension        Dim             ....  232

ORBITAL ENERGIES
----------------

  NO   OCC          E(Eh)            E(eV)
   0   2.0000     -10.024696      -272.7858
   1   2.0000     -10.020351      -272.6676
   2   2.0000     -10.018081      -272.6058
   3   2.0000     -10.018060      -272.6053
   4   2.0000     -10.017479      -272.5895
   5   2.0000     -10.016834      -272.5719
   6   2.0000     -10.015824      -272.5444
   7   2.0000     -10.011375      -272.4234
   8   2.0000      -0.804749       -21.8983
   9   2.0000      -0.747976       -20.3535
  10   2.0000      -0.686733       -18.6870
  11   2.0000      -0.670631       -18.2488
  12   2.0000      -0.622040       -16.9266
  13   2.0000      -0.547364       -14.8945
  14   2.0000      -0.532159       -14.4808
  15   2.0000      -0.514729       -14.0065
  16   2.0000      -0.450276       -12.2526
  17   2.0000      -0.435662       -11.8550
  18   2.0000      -0.411803       -11.2057
  19   2.0000      -0.395096       -10.7511
  20   2.0000      -0.385241       -10.4829
  21   2.0000      -0.381170       -10.3722
  22   2.0000      -0.346913        -9.4400
  23   2.0000      -0.333238        -9.0679
  24   2.0000      -0.316703        -8.6179
  25   2.0000      -0.301674        -8.2090
  26   2.0000      -0.300572        -8.1790
  27   2.0000      -0.298920        -8.1340
  28   2.0000      -0.289203        -7.8696
  29   2.0000      -0.277690        -7.5563
  30   2.0000      -0.271051        -7.3757
  31   2.0000      -0.269225        -7.3260
  32   0.0000       0.084422         2.2973
  33   0.0000       0.090222         2.4551
  34   0.0000       0.097683         2.6581
  35   0.0000       0.112415         3.0590
  36   0.0000       0.126003         3.4287

MULLIKEN ATOMIC CHARGES
-----------------------
   0 C :   -0.497383
   1 C :   -0.223951
   2 C :   -0.299836
   3 C :    0.002162
   4 C :   -0.405343
   5 C :   -0.288526
   6 C :   -0.278014
   7 C :   -0.411560
   8 H :    0.145673
   9 H :    0.143717
  10 H :    0.152969
  11 H :    0.132666
  12 H :    0.139414
  13 H :    0.147753
  14 H :    0.144262
  15 H :    0.163429
  16 H :    0.153783
  17 H :    0.159502
  18 H :    0.148504
  19 H :    0.148220
  20 H :    0.146826
  21 H :    0.151340
  22 H :    0.156538
  23 H :    0.167854
Sum of atomic charges:   -0.0000000

LOEWDIN ATOMIC CHARGES
----------------------
   0 C :   -0.426497
   1 C :   -0.315198
   2 C :   -0.301566
   3 C :   -0.224096
   4 C :   -0.301382
   5 C :   -0.304334
   6 C :   -0.303054
   7 C :   -0.303718
   8 H :    0.148763
   9 H :    0.148985
  10 H :    0.151431
  11 H :    0.152547
  12 H :    0.151381
  13 H :    0.158333
  14 H :    0.156458
  15 H :    0.158688
  16 H :    0.157982
  17 H :    0.159811
  18 H :    0.155164
  19 H :    0.154361
  20 H :    0.155256
  21 H :    0.155083
  22 H :    0.157281
  23 H :    0.158321

  Mayer bond orders larger than 0.100000
B(  0-C ,  1-C ) :   0.9099 B(  0-C ,  8-H ) :   0.9871 B(  0-C ,  9-H ) :   0.9737
B(  0-C , 10-H ) :   0.9741 B(  1-C ,  2-C ) :   0.8559 B(  1-C , 11-H ) :   0.9793
B(  1-C , 12-H ) :   0.9687 B(  2-C ,  3-C ) :   0.8929 B(  2-C , 13-H ) :   0.9806
B(  2-C , 14-H ) :   0.9937 B(  3-C ,  4-C ) :   0.9146 B(  3-C ,  7-C ) :   0.8554
B(  3-C , 15-H ) :   0.9682 B(  4-C ,  5-C ) :   0.9247 B(  4-C , 16-H ) :   0.9739
B(  4-C , 17-H ) :   1.0003 B(  5-C ,  6-C ) :   0.9165 B(  5-C , 18-H ) :   0.9628
B(  5-C , 19-H ) :   0.9865 B(  6-C ,  7-C ) :   0.8976 B(  6-C , 20-H ) :   0.9880
B(  6-C , 21-H ) :   0.9591 B(  7-C , 22-H ) :   0.9534 B(  7-C , 23-H ) :   1.0046

Dispersion correction           -0.007051267
FINAL SINGLE POINT ENERGY      -314.379498523359

DIPOLE MOMENT
-------------

Method             : SCF
Type of density    : Electron Density
Multiplicity       :   1
Irrep              :   0
Energy             :  -314.3827005942275719 Eh
Relativity type    :
Basis              : AO
                                X                 Y                 Z
Electronic contribution:      2.482099611      -0.756106631       0.771704463
Nuclear contribution   :     -2.477042455       0.744513819      -0.728736026
                        -----------------------------------------
Total Dipole Moment    :      0.005057156      -0.011592813       0.042968437
                        -----------------------------------------
Magnitude (a.u.)       :      0.044791235
Magnitude (Debye)      :      0.113850271

Rotational constants in cm-1:             0.137937             0.038434             0.032715
Rotational constants in MHz :          4135.253812          1152.220815           980.772804

                             ****ORCA TERMINATED NORMALLY****
TOTAL RUN TIME: 0 days 0 hours 0 minutes 24 seconds 936 msec
