                         Program Version 6.0.0  -   RELEASE  -
|  1> ! r2scan-3c def2/J RI DEFGRID2 scfconv6 printgap
|  2> %output
|  3>     printlevel normal
|  4> end
|  5> %cpcm
|  6>     smd true
|  7>     smdsolvent "water"
|  8> end
|  9> * xyz 0 1
| 10> C -2.8570822959 0.8503462687 -0.4958621083
| 11> C -2.4033830555 -0.2243722598 0.4861607342
| 12> C -1.1343939817 -0.9678858233 0.0521530611
| 13> C 0.1772622244 -0.3108875755 0.484918961
| 14> C 1.3940323983 -1.2197133888 0.1961220472
| 15> C 2.5006396449 -0.313083794 -0.3670276152
| 16> C 2.0296832271 1.1105041452 -0.074114952
| 17> C 0.5148028856 1.0084987924 -0.2171677502
| 18> H -3.0313891322 0.4155329948 -1.4776884966
| 19> H -3.7858737198 1.3013995019 -0.153278385
| 20> H -2.114093384 1.6351657342 -0.5955268588
| 21> H -2.2412624837 0.2234296058 1.4688965725
| 22> H -3.2127524593 -0.9510815535 0.5894666254
| 23> H -1.1555779984 -1.9680959172 0.4928089905
| 24> H -1.1386974436 -1.0876338365 -1.0336464134
| 25> H 0.1256242687 -0.1229351067 1.56268972
| 26> H 1.7206351221 -1.7198442601 1.1074096651
| 27> H 1.1291040915 -1.992927962 -0.5250159243
| 28> H 3.4717730075 -0.524667829 0.0779502391
| 29> H 2.5874060769 -0.4531716853 -1.4451306141
| 30> H 2.2854051573 1.3882192658 0.9498858832
| 31> H 2.4690714227 1.8431843863 -0.7496663466
| 32> H 0.00253778 1.8600572542 0.2275330096
| 33> H 0.2477784153 0.9469562223 -1.2734567304
| 34> *
| 35>
| 36>                          ****END OF INPUT****

CARTESIAN COORDINATES (ANGSTROEM)
---------------------------------
  C     -2.857082    0.850346   -0.495862
  C     -2.403383   -0.224372    0.486161
  C     -1.134394   -0.967886    0.052153
  C      0.177262   -0.310888    0.484919
  C      1.394032   -1.219713    0.196122
  C      2.500640   -0.313084   -0.367028
  C      2.029683    1.110504   -0.074115
  C      0.514803    1.008499   -0.217168
  H     -3.031389    0.415533   -1.477688
  H     -3.785874    1.301400   -0.153278
  H     -2.114093    1.635166   -0.595527
  H     -2.241262    0.223430    1.468897
  H     -3.212752   -0.951082    0.589467
  H     -1.155578   -1.968096    0.492809
  H     -1.138697   -1.087634   -1.033646
  H      0.125624   -0.122935    1.562690
  H      1.720635   -1.719844    1.107410
  H      1.129104   -1.992928   -0.525016
  H      3.471773   -0.524668    0.077950
  H      2.587406   -0.453172   -1.445131
  H      2.285405    1.388219    0.949886
  H      2.469071    1.843184   -0.749666
  H      0.002538    1.860057    0.227533
  H      0.247778    0.946956   -1.273457

 Total Charge           Charge          ....    0
 Multiplicity           Mult            ....    1
 Number of Electrons    NEL             ....   64
 Basis Dimension        Dim             ....  232

ORBITAL ENERGIES
----------------

  NO   OCC          E(Eh)            E(eV)
   0   2.0000     -10.017149      -272.5805
   1   2.0000     -10.013738      -272.4877
   2   2.0000     -10.011190      -272.4183
   3   2.0000     -10.010851      -272.4091
   4   2.0000     -10.010805      -272.4079
   5   2.0000     -10.008996      -272.3586
   6   2.0000     -10.008945      -272.3572
   7   2.0000     -10.005160      -272.2543
   8   2.0000      -0.797707       -21.7067
   9   2.0000      -0.741506       -20.1774
  10   2.0000      -0.680273       -18.5112
  11   2.0000      -0.663864       -18.0647
  12   2.0000      -0.615709       -16.7543
  13   2.0000      -0.541073       -14.7233
  14   2.0000      -0.525397       -14.2968
  15   2.0000      -0.507685       -13.8148
  16   2.0000      -0.443248       -12.0614
  17   2.0000      -0.428840       -11.6693
  18   2.0000      -0.405206       -11.0262
  19   2.0000      -0.388676       -10.5764
  20   2.0000      -0.378538       -10.3006
  21   2.0000      -0.373944       -10.1755
  22   2.0000      -0.340162        -9.2563
  23   2.0000      -0.326820        -8.8932
  24   2.0000      -0.310265        -8.4427
  25   2.0000      -0.294895        -8.0245
  26   2.0000      -0.294017        -8.0006
  27   2.0000      -0.292082        -7.9480
  28   2.0000      -0.281686        -7.6651
  29   2.0000      -0.270388        -7.3576
  30   2.0000      -0.264009        -7.1841
  31   2.0000      -0.262411        -7.1406
  32   0.0000       0.092226         2.5096
  33   0.0000       0.097615         2.6563
  34   0.0000       0.104802         2.8518
  35   0.0000       0.118799         3.2327
  36   0.0000       0.131006         3.5649

MULLIKEN ATOMIC CHARGES
-----------------------
   0 C :   -0.534520
   1 C :   -0.238355
   2 C :   -0.316261
   3 C :    0.005020
   4 C :   -0.423195
   5 C :   -0.303970
   6 C :   -0.298954
   7 C :   -0.425575
   8 H :    0.156735
   9 H :    0.152944
  10 H :    0.161377
  11 H :    0.142237
  12 H :    0.147165
  13 H :    0.153712
  14 H :    0.153934
  15 H :    0.171949
  16 H :    0.162147
  17 H :    0.165130
  18 H :    0.155932
  19 H :    0.156545
  20 H :    0.156089
  21 H :    0.158350
  22 H :    0.166855
  23 H :    0.174712
Sum of atomic charges:   -0.0000000

LOEWDIN ATOMIC CHARGES
----------------------
   0 C :   -0.434815
   1 C :   -0.318275
   2 C :   -0.304573
   3 C :   -0.223401
   4 C :   -0.305421
   5 C :   -0.308966
   6 C :   -0.307902
   7 C :   -0.306238
   8 H :    0.151329
   9 H :    0.150847
  10 H :    0.153228
  11 H :    0.154682
  12 H :    0.152987
  13 H :    0.159312
  14 H :    0.158863
  15 H :    0.161102
  16 H :    0.159722
  17 H :    0.160857
  18 H :    0.156573
  19 H :    0.156324
  20 H :    0.157315
  21 H :    0.156458
  22 H :    0.159855
  23 H :    0.160137

  Mayer bond orders larger than 0.100000
B(  0-C ,  1-C ) :   0.9006 B(  0-C ,  8-H ) :   0.9836 B(  0-C ,  9-H ) :   0.9716
B(  0-C , 10-H ) :   0.9736 B(  1-C ,  2-C ) :   0.8511 B(  1-C , 11-H ) :   0.9803
B(  1-C , 12-H ) :   0.9690 B(  2-C ,  3-C ) :   0.8898 B(  2-C , 13-H ) :   0.9805
B(  2-C , 14-H ) :   0.9918 B(  3-C ,  4-C ) :   0.9122 B(  3-C ,  7-C ) :   0.8542
B(  3-C , 15-H ) :   0.9677 B(  4-C ,  5-C ) :   0.9204 B(  4-C , 16-H ) :   0.9732
B(  4-C , 17-H ) :   0.9989 B(  5-C ,  6-C ) :   0.9116 B(  5-C , 18-H ) :   0.9616
B(  5-C , 19-H ) :   0.9845 B(  6-C ,  7-C ) :   0.8953 B(  6-C , 20-H ) :   0.9872
B(  6-C , 21-H ) :   0.9575 B(  7-C , 22-H ) :   0.9521 B(  7-C , 23-H ) :   1.0024

Dispersion correction           -0.007051267
FINAL SINGLE POINT ENERGY      -314.376772354378

DIPOLE MOMENT
-------------

Method             : SCF
Type of density    : Electron Density
Multiplicity       :   1
Irrep              :   0
Energy             :  -314.3799744252468145 Eh
Relativity type    :
Basis              : AO
                                X                 Y                 Z
Electronic contribution:      2.468599029      -0.754437997       0.784065042
Nuclear contribution   :     -2.477042455       0.744513819      -0.728736026
                        -----------------------------------------
Total Dipole Moment    :     -0.008443426      -0.009924179       0.055329016
                        -----------------------------------------
Magnitude (a.u.)       :      0.056842596
Magnitude (Debye)      :      0.144482398

Rotational constants in cm-1:             0.137937             0.038434             0.032715
Rotational constants in MHz :          4135.253812          1152.220815           980.772804

                             ****ORCA TERMINATED NORMALLY****
TOTAL RUN TIME: 0 days 0 hours 0 minutes 30 seconds 271 msec
