                         Program Version 6.0.0  -   RELEASE  -
|  1> ! pbe def2-sv(p) def2/J RI DEFGRID1 loosescf d4 GCP(DFT/SV(P)) printgap
|  2> %output
|  3>     printlevel normal
|  4> end
|  5> * xyz 0 1
|  6> C -1.9621735971 -0.2661189357 0.4764455299
|  7> O -1.0488358423 -0.2024238157 -0.6006469228
|  8> C -0.0368821384 0.7714467457 -0.4645744033
|  9> C 1.0733805253 0.4109410415 0.5279099198
| 10> O 1.8594025106 -0.6270077495 -0.0177455185
| 11> H -2.3942976982 0.7206922098 0.676083192
| 12> H -1.4930220042 -0.6461107961 1.3885886155
| 13> H -2.7431137192 -0.9537855209 0.1612734529
| 14> H 0.4044923061 0.8574076111 -1.459671276
| 15> H -0.4789136909 1.7333852736 -0.1697805488
| 16> H 0.6341736732 0.101264626 1.4840160102
| 17> H 1.683515232 1.3086573383 0.6920425398
| 18> H 2.5512009776 -0.8740093108 0.6113210005
| 19> *
| 20>
| 21>                          ****END OF INPUT****

CARTESIAN COORDINATES (ANGSTROEM)
---------------------------------
  C     -1.962174   -0.266119    0.476446
  O     -1.048836   -0.202424   -0.600647
  C     -0.036882    0.771447   -0.464574
  C      1.073381    0.410941    0.527910
  O      1.859403   -0.627008   -0.017746
  H     -2.394298    0.720692    0.676083
  H     -1.493022   -0.646111    1.388589
  H     -2.743114   -0.953786    0.161273
  H      0.404492    0.857408   -1.459671
  H     -0.478914    1.733385   -0.169781
  H      0.634174    0.101265    1.484016
  H      1.683515    1.308657    0.692043
  H      2.551201   -0.874009    0.611321

 Total Charge           Charge          ....    0
 Multiplicity           Mult            ....    1
 Number of Electrons    NEL             ....   42
 Basis Dimension        Dim             ....   86

ORBITAL ENERGIES
----------------

  NO   OCC          E(Eh)            E(eV)
   0   2.0000     -18.746313      -510.1131
   1   2.0000     -18.741639      -509.9859
   2   2.0000      -9.930958      -270.2351
   3   2.0000      -9.927565      -270.1428
   4   2.0000      -9.922349      -270.0009
   5   2.0000      -0.930669       -25.3248
   6   2.0000      -0.912804       -24.8386
   7   2.0000      -0.672728       -18.3059
   8   2.0000      -0.609581       -16.5876
   9   2.0000      -0.528267       -14.3749
  10   2.0000      -0.471837       -12.8393
  11   2.0000      -0.441018       -12.0007
  12   2.0000      -0.409469       -11.1422
  13   2.0000      -0.405400       -11.0315
  14   2.0000      -0.375528       -10.2186
  15   2.0000      -0.350076        -9.5260
  16   2.0000      -0.326498        -8.8845
  17   2.0000      -0.288888        -7.8610
  18   2.0000      -0.255081        -6.9411
  19   2.0000      -0.213675        -5.8144
  20   2.0000      -0.200130        -5.4458
  21   0.0000       0.023701         0.6449
  22   0.0000       0.054288         1.4773
  23   0.0000       0.071684         1.9506
  24   0.0000       0.086070         2.3421
  25   0.0000       0.098991         2.6937

MULLIKEN ATOMIC CHARGES
-----------------------
   0 C :   -0.109149
   1 O :   -0.335196
   2 C :    0.014972
   3 C :   -0.021798
   4 O :   -0.435572
   5 H :    0.080463
   6 H :    0.092727
   7 H :    0.115720
   8 H :    0.097440
   9 H :    0.063306
  10 H :    0.071840
  11 H :    0.067192
  12 H :    0.298053
Sum of atomic charges:   -0.0000000

LOEWDIN ATOMIC CHARGES
----------------------
   0 C :   -0.208574
   1 O :   -0.176365
   2 C :   -0.124209
   3 C :   -0.143968
   4 O :   -0.347172
   5 H :    0.094898
   6 H :    0.094581
   7 H :    0.117067
   8 H :    0.120335
   9 H :    0.095685
  10 H :    0.096222
  11 H :    0.096893
  12 H :    0.284608

  Mayer bond orders larger than 0.100000
B(  0-C ,  1-O ) :   1.0240 B(  0-C ,  5-H ) :   0.9392 B(  0-C ,  6-H ) :   0.9373
B(  0-C ,  7-H ) :   0.9635 B(  1-O ,  2-C ) :   1.0462 B(  2-C ,  3-C ) :   1.0942
B(  2-C ,  8-H ) :   0.9232 B(  2-C ,  9-H ) :   0.9117 B(  3-C ,  4-O ) :   1.0866
B(  3-C , 10-H ) :   0.9113 B(  3-C , 11-H ) :   0.9140 B(  4-O , 12-H ) :   0.8538

Dispersion correction           -0.007490097
FINAL SINGLE POINT ENERGY      -268.930490511014

DIPOLE MOMENT
-------------

Method             : SCF
Type of density    : Electron Density
Multiplicity       :   1
Irrep              :   0
Energy             :  -268.9903530033412835 Eh
Relativity type    :
Basis              : AO
                                X                 Y                 Z
Electronic contribution:      1.899141937      -1.694906810      -2.241020121
Nuclear contribution   :     -1.710403801       2.096215723       3.165465478
                        -----------------------------------------
Total Dipole Moment    :      0.188738136       0.401308913       0.924445356
                        -----------------------------------------
Magnitude (a.u.)       :      1.025314656
Magnitude (Debye)      :      2.606142743

Rotational constants in cm-1:             0.358309             0.093900             0.090833
Rotational constants in MHz :         10741.842364          2815.042947          2723.110082

                             ****ORCA TERMINATED NORMALLY****
TOTAL RUN TIME: 0 days 0 hours 0 minutes 6 seconds 316 msec
