                         Program Version 6.0.0  -   RELEASE  -
|  1> ! r2scan-3c def2/J RI DEFGRID2 scfconv6 printgap
|  2> %output
|  3>     printlevel normal
|  4> end
|  5> * xyz 0 1
|  6> C 1.8952169257 1.1578222308 -0.4087651413
|  7> C 1.420795152 -0.2870300824 -0.2788154212
|  8> H 2.0852972595 -0.9179442762 -0.8936468635
|  9> C -0.0177673692 -0.4788363887 -0.7894562986
| 10> C -1.0900673022 0.1954875085 0.0874445202
| 11> C -2.0680387823 0.9966984769 -0.7697590828
| 12> C -1.8490396117 -0.8342711773 0.9233936826
| 13> O 1.5621408891 -0.662393973 1.0826393526
| 14> H 1.8769494282 1.4619474029 -1.4505373642
| 15> H 1.2603814734 1.8211167662 0.1707820162
| 16> H 2.9098018766 1.2395726411 -0.0284213785
| 17> H -0.0558772683 -0.0769655291 -1.802408818
| 18> H -0.2268604027 -1.5488095138 -0.8567385427
| 19> H -0.5939232371 0.8813149212 0.7808800389
| 20> H -2.8141730815 1.4806083741 -0.1434305244
| 21> H -2.5816797247 0.3406469903 -1.469623547
| 22> H -1.5450235645 1.7650208823 -1.334270644
| 23> H -2.6025238257 -0.3422528987 1.5345275611
| 24> H -2.3486165419 -1.5561777207 0.2799808582
| 25> H -1.1701818696 -1.363853695 1.5864074767
| 26> H 1.3737405433 -1.6054856394 1.1694190384
| 27> *
| 28>
| 29>                          ****END OF INPUT****

CARTESIAN COORDINATES (ANGSTROEM)
---------------------------------
  C      1.895217    1.157822   -0.408765
  C      1.420795   -0.287030   -0.278815
  H      2.085297   -0.917944   -0.893647
  C     -0.017767   -0.478836   -0.789456
  C     -1.090067    0.195488    0.087445
  C     -2.068039    0.996698   -0.769759
  C     -1.849040   -0.834271    0.923394
  O      1.562141   -0.662394    1.082639
  H      1.876949    1.461947   -1.450537
  H      1.260381    1.821117    0.170782
  H      2.909802    1.239573   -0.028421
  H     -0.055877   -0.076966   -1.802409
  H     -0.226860   -1.548810   -0.856739
  H     -0.593923    0.881315    0.780880
  H     -2.814173    1.480608   -0.143431
  H     -2.581680    0.340647   -1.469624
  H     -1.545024    1.765021   -1.334271
  H     -2.602524   -0.342253    1.534528
  H     -2.348617   -1.556178    0.279981
  H     -1.170182   -1.363854    1.586407
  H      1.373741   -1.605486    1.169419

 Total Charge           Charge          ....    0
 Multiplicity           Mult            ....    1
 Number of Electrons    NEL             ....   58
 Basis Dimension        Dim             ....  208

ORBITAL ENERGIES
----------------

  NO   OCC          E(Eh)            E(eV)
   0   2.0000     -18.946065      -515.5486
   1   2.0000     -10.081226      -274.3241
   2   2.0000     -10.029887      -272.9271
   3   2.0000     -10.022203      -272.7180
   4   2.0000     -10.015742      -272.5422
   5   2.0000     -10.013394      -272.4783
   6   2.0000     -10.012656      -272.4582
   7   2.0000      -0.983929       -26.7741
   8   2.0000      -0.774968       -21.0880
   9   2.0000      -0.721506       -19.6332
  10   2.0000      -0.649438       -17.6721
  11   2.0000      -0.647046       -17.6070
  12   2.0000      -0.560839       -15.2612
  13   2.0000      -0.528464       -14.3802
  14   2.0000      -0.470410       -12.8005
  15   2.0000      -0.439953       -11.9717
  16   2.0000      -0.415755       -11.3133
  17   2.0000      -0.395601       -10.7648
  18   2.0000      -0.392459       -10.6794
  19   2.0000      -0.367498       -10.0001
  20   2.0000      -0.354330        -9.6418
  21   2.0000      -0.352512        -9.5923
  22   2.0000      -0.335721        -9.1354
  23   2.0000      -0.321581        -8.7507
  24   2.0000      -0.303318        -8.2537
  25   2.0000      -0.297104        -8.0846
  26   2.0000      -0.291680        -7.9370
  27   2.0000      -0.275780        -7.5043
  28   2.0000      -0.232042        -6.3142
  29   0.0000       0.051894         1.4121
  30   0.0000       0.095179         2.5900
  31   0.0000       0.108150         2.9429
  32   0.0000       0.122322         3.3285
  33   0.0000       0.124669         3.3924

MULLIKEN ATOMIC CHARGES
-----------------------
   0 C :   -0.485260
   1 C :    0.007101
   2 H :    0.129977
   3 C :   -0.353072
   4 C :    0.069657
   5 C :   -0.488637
   6 C :   -0.560123
   7 O :   -0.418296
   8 H :    0.144940
   9 H :    0.150632
  10 H :    0.157522
  11 H :    0.155411
  12 H :    0.156290
  13 H :    0.159275
  14 H :    0.144462
  15 H :    0.148096
  16 H :    0.146391
  17 H :    0.144518
  18 H :    0.154043
  19 H :    0.147801
  20 H :    0.289273
Sum of atomic charges:    0.0000000

LOEWDIN ATOMIC CHARGES
----------------------
   0 C :   -0.384844
   1 C :    0.050315
   2 H :    0.160685
   3 C :   -0.283577
   4 C :   -0.245092
   5 C :   -0.417253
   6 C :   -0.416838
   7 O :   -0.614141
   8 H :    0.157216
   9 H :    0.158617
  10 H :    0.162899
  11 H :    0.166133
  12 H :    0.161247
  13 H :    0.163308
  14 H :    0.152011
  15 H :    0.153125
  16 H :    0.151719
  17 H :    0.152722
  18 H :    0.150934
  19 H :    0.153179
  20 H :    0.267630

  Mayer bond orders larger than 0.100000
B(  0-C ,  1-C ) :   0.9604 B(  0-C ,  8-H ) :   0.9762 B(  0-C ,  9-H ) :   0.9708
B(  0-C , 10-H ) :   0.9682 B(  1-C ,  2-H ) :   0.9628 B(  1-C ,  3-C ) :   0.9151
B(  1-C ,  7-O ) :   0.8944 B(  3-C ,  4-C ) :   0.7766 B(  3-C , 11-H ) :   0.9870
B(  3-C , 12-H ) :   0.9788 B(  4-C ,  5-C ) :   0.8720 B(  4-C ,  6-C ) :   0.8928
B(  4-C , 13-H ) :   0.9667 B(  5-C , 14-H ) :   0.9785 B(  5-C , 15-H ) :   0.9822
B(  5-C , 16-H ) :   0.9803 B(  6-C , 17-H ) :   0.9754 B(  6-C , 18-H ) :   0.9937
B(  6-C , 19-H ) :   0.9789 B(  7-O , 20-H ) :   0.8992

Dispersion correction           -0.005653500
FINAL SINGLE POINT ENERGY      -312.199865063663

DIPOLE MOMENT
-------------

Method             : SCF
Type of density    : Electron Density
Multiplicity       :   1
Irrep              :   0
Energy             :  -312.2052969543688050 Eh
Relativity type    :
Basis              : AO
                                X                 Y                 Z
Electronic contribution:      4.019615122      -1.785436998       1.892823470
Nuclear contribution   :     -4.135403795       1.471284665      -2.289076332
                        -----------------------------------------
Total Dipole Moment    :     -0.115788672      -0.314152334      -0.396252862
                        -----------------------------------------
Magnitude (a.u.)       :      0.518762987
Magnitude (Debye)      :      1.318590723

Rotational constants in cm-1:             0.124418             0.057061             0.045629
Rotational constants in MHz :          3729.970546          1710.637484          1367.912801

                             ****ORCA TERMINATED NORMALLY****
TOTAL RUN TIME: 0 days 0 hours 0 minutes 30 seconds 178 msec
