                         Program Version 6.0.0  -   RELEASE  -
|  1> ! r2scan-3c def2/J RI DEFGRID2 scfconv6 printgap
|  2> %output
|  3>     printlevel normal
|  4> end
|  5> %cpcm
|  6>     smd true
|  7>     smdsolvent "water"
|  8> end
|  9> * xyz 0 1
| 10> C 1.8952169257 1.1578222308 -0.4087651413
| 11> C 1.420795152 -0.2870300824 -0.2788154212
| 12> H 2.0852972595 -0.9179442762 -0.8936468635
| 13> C -0.0177673692 -0.4788363887 -0.7894562986
| 14> C -1.0900673022 0.1954875085 0.0874445202
| 15> C -2.0680387823 0.9966984769 -0.7697590828
| 16> C -1.8490396117 -0.8342711773 0.9233936826
| 17> O 1.5621408891 -0.662393973 1.0826393526
| 18> H 1.8769494282 1.4619474029 -1.4505373642
| 19> H 1.2603814734 1.8211167662 0.1707820162
| 20> H 2.9098018766 1.2395726411 -0.0284213785
| 21> H -0.0558772683 -0.0769655291 -1.802408818
| 22> H -0.2268604027 -1.5488095138 -0.8567385427
| 23> H -0.5939232371 0.8813149212 0.7808800389
| 24> H -2.8141730815 1.4806083741 -0.1434305244
| 25> H -2.5816797247 0.3406469903 -1.469623547
| 26> H -1.5450235645 1.7650208823 -1.334270644
| 27> H -2.6025238257 -0.3422528987 1.5345275611
| 28> H -2.3486165419 -1.5561777207 0.2799808582
| 29> H -1.1701818696 -1.363853695 1.5864074767
| 30> H 1.3737405433 -1.6054856394 1.1694190384
| 31> *
| 32>
| 33>                          ****END OF INPUT****

CARTESIAN COORDINATES (ANGSTROEM)
---------------------------------
  C      1.895217    1.157822   -0.408765
  C      1.420795   -0.287030   -0.278815
  H      2.085297   -0.917944   -0.893647
  C     -0.017767   -0.478836   -0.789456
  C     -1.090067    0.195488    0.087445
  C     -2.068039    0.996698   -0.769759
  C     -1.849040   -0.834271    0.923394
  O      1.562141   -0.662394    1.082639
  H      1.876949    1.461947   -1.450537
  H      1.260381    1.821117    0.170782
  H      2.909802    1.239573   -0.028421
  H     -0.055877   -0.076966   -1.802409
  H     -0.226860   -1.548810   -0.856739
  H     -0.593923    0.881315    0.780880
  H     -2.814173    1.480608   -0.143431
  H     -2.581680    0.340647   -1.469624
  H     -1.545024    1.765021   -1.334271
  H     -2.602524   -0.342253    1.534528
  H     -2.348617   -1.556178    0.279981
  H     -1.170182   -1.363854    1.586407
  H      1.373741   -1.605486    1.169419

 Total Charge           Charge          ....    0
 Multiplicity           Mult            ....    1
 Number of Electrons    NEL             ....   58
 Basis Dimension        Dim             ....  208

ORBITAL ENERGIES
----------------

  NO   OCC          E(Eh)            E(eV)
   0   2.0000     -18.948182      -515.6062
   1   2.0000     -10.075212      -274.1605
   2   2.0000     -10.023388      -272.7503
   3   2.0000     -10.012123      -272.4437
   4   2.0000     -10.009524      -272.3730
   5   2.0000     -10.005677      -272.2683
   6   2.0000     -10.005148      -272.2539
   7   2.0000      -0.984824       -26.7984
   8   2.0000      -0.767693       -20.8900
   9   2.0000      -0.715629       -19.4732
  10   2.0000      -0.642023       -17.4703
  11   2.0000      -0.640111       -17.4183
  12   2.0000      -0.555435       -15.1141
  13   2.0000      -0.522507       -14.2181
  14   2.0000      -0.465436       -12.6651
  15   2.0000      -0.434107       -11.8127
  16   2.0000      -0.408707       -11.1215
  17   2.0000      -0.388249       -10.5648
  18   2.0000      -0.386020       -10.5041
  19   2.0000      -0.364912        -9.9298
  20   2.0000      -0.348190        -9.4747
  21   2.0000      -0.345632        -9.4051
  22   2.0000      -0.330494        -8.9932
  23   2.0000      -0.315446        -8.5837
  24   2.0000      -0.299273        -8.1436
  25   2.0000      -0.292477        -7.9587
  26   2.0000      -0.284127        -7.7315
  27   2.0000      -0.270734        -7.3670
  28   2.0000      -0.233312        -6.3487
  29   0.0000       0.068745         1.8706
  30   0.0000       0.104872         2.8537
  31   0.0000       0.116904         3.1811
  32   0.0000       0.129606         3.5268
  33   0.0000       0.135394         3.6843

MULLIKEN ATOMIC CHARGES
-----------------------
   0 C :   -0.531696
   1 C :    0.027544
   2 H :    0.142528
   3 C :   -0.345146
   4 C :    0.049377
   5 C :   -0.532173
   6 C :   -0.588385
   7 O :   -0.503793
   8 H :    0.167020
   9 H :    0.163223
  10 H :    0.162132
  11 H :    0.167323
  12 H :    0.168871
  13 H :    0.158725
  14 H :    0.154634
  15 H :    0.159499
  16 H :    0.157224
  17 H :    0.155275
  18 H :    0.166063
  19 H :    0.157733
  20 H :    0.344022
Sum of atomic charges:    0.0000000

LOEWDIN ATOMIC CHARGES
----------------------
   0 C :   -0.395176
   1 C :    0.052622
   2 H :    0.168248
   3 C :   -0.281604
   4 C :   -0.245699
   5 C :   -0.424602
   6 C :   -0.425391
   7 O :   -0.649649
   8 H :    0.165487
   9 H :    0.160236
  10 H :    0.161708
  11 H :    0.170464
  12 H :    0.167385
  13 H :    0.160965
  14 H :    0.153689
  15 H :    0.156120
  16 H :    0.154609
  17 H :    0.153763
  18 H :    0.155235
  19 H :    0.155335
  20 H :    0.286255

  Mayer bond orders larger than 0.100000
B(  0-C ,  1-C ) :   0.9494 B(  0-C ,  8-H ) :   0.9702 B(  0-C ,  9-H ) :   0.9677
B(  0-C , 10-H ) :   0.9680 B(  1-C ,  2-H ) :   0.9565 B(  1-C ,  3-C ) :   0.9234
B(  1-C ,  7-O ) :   0.8791 B(  3-C ,  4-C ) :   0.7727 B(  3-C , 11-H ) :   0.9856
B(  3-C , 12-H ) :   0.9719 B(  4-C ,  5-C ) :   0.8733 B(  4-C ,  6-C ) :   0.8984
B(  4-C , 13-H ) :   0.9714 B(  5-C , 14-H ) :   0.9774 B(  5-C , 15-H ) :   0.9808
B(  5-C , 16-H ) :   0.9764 B(  6-C , 17-H ) :   0.9760 B(  6-C , 18-H ) :   0.9886
B(  6-C , 19-H ) :   0.9727 B(  7-O , 20-H ) :   0.8730

Dispersion correction           -0.005653500
FINAL SINGLE POINT ENERGY      -312.205431634505

DIPOLE MOMENT
-------------

Method             : SCF
Type of density    : Electron Density
Multiplicity       :   1
Irrep              :   0
Energy             :  -312.2108635252103568 Eh
Relativity type    :
Basis              : AO
                                X                 Y                 Z
Electronic contribution:      3.947663725      -1.971819260       1.649461761
Nuclear contribution   :     -4.135403795       1.471284665      -2.289076332
                        -----------------------------------------
Total Dipole Moment    :     -0.187740070      -0.500534596      -0.639614571
                        -----------------------------------------
Magnitude (a.u.)       :      0.833599433
Magnitude (Debye)      :      2.118841372

Rotational constants in cm-1:             0.124418             0.057061             0.045629
Rotational constants in MHz :          3729.970546          1710.637484          1367.912801

                             ****ORCA TERMINATED NORMALLY****
TOTAL RUN TIME: 0 days 0 hours 0 minutes 36 seconds 184 msec
