                         Program Version 6.0.0  -   RELEASE  -
|  1> ! pbe def2-sv(p) def2/J RI DEFGRID1 loosescf d4 GCP(DFT/SV(P)) printgap
|  2> %output
|  3>     printlevel normal
|  4> end
|  5> * xyz 0 1
|  6> C 1.6258277345 -0.4019976792 -1.0591378526
|  7> C 1.3037865225 -0.110514141 0.4030202556
|  8> H 2.0936131988 -0.5800522986 1.0180651359
|  9> C -0.0230469717 -0.7074210146 0.9133648265
| 10> C -1.3536535019 -0.3593228029 0.2204894596
| 11> C -1.563027681 1.1448174801 0.0630774638
| 12> C -1.5557636815 -1.0742216351 -1.1155426121
| 13> O 1.3887243855 1.2957797451 0.5720578848
| 14> H 1.0134378116 0.2181445107 -1.7056959088
| 15> H 2.6674323403 -0.1568010663 -1.2517157875
| 16> H 1.457515706 -1.4498784342 -1.2829883998
| 17> H 0.0926174708 -1.7934008787 0.8990939015
| 18> H -0.1148330158 -0.4088002593 1.9624861927
| 19> H -2.1338694413 -0.7334729027 0.8973221271
| 20> H -2.5248743294 1.3394915236 -0.4064104277
| 21> H -0.782251497 1.5835095744 -0.5515872703
| 22> H -1.5511009748 1.6370328944 1.0327327511
| 23> H -1.3111752879 -2.1302164189 -1.0280117475
| 24> H -2.5975859889 -0.9909971366 -1.4187611625
| 25> H -0.9447166065 -0.6394511235 -1.8990461065
| 26> H 1.2515249821 1.514173012 1.5026292167
| 27> *
| 28>
| 29>                          ****END OF INPUT****

CARTESIAN COORDINATES (ANGSTROEM)
---------------------------------
  C      1.625828   -0.401998   -1.059138
  C      1.303787   -0.110514    0.403020
  H      2.093613   -0.580052    1.018065
  C     -0.023047   -0.707421    0.913365
  C     -1.353654   -0.359323    0.220489
  C     -1.563028    1.144817    0.063077
  C     -1.555764   -1.074222   -1.115543
  O      1.388724    1.295780    0.572058
  H      1.013438    0.218145   -1.705696
  H      2.667432   -0.156801   -1.251716
  H      1.457516   -1.449878   -1.282988
  H      0.092617   -1.793401    0.899094
  H     -0.114833   -0.408800    1.962486
  H     -2.133869   -0.733473    0.897322
  H     -2.524874    1.339492   -0.406410
  H     -0.782251    1.583510   -0.551587
  H     -1.551101    1.637033    1.032733
  H     -1.311175   -2.130216   -1.028012
  H     -2.597586   -0.990997   -1.418761
  H     -0.944717   -0.639451   -1.899046
  H      1.251525    1.514173    1.502629

 Total Charge           Charge          ....    0
 Multiplicity           Mult            ....    1
 Number of Electrons    NEL             ....   58
 Basis Dimension        Dim             ....  126

ORBITAL ENERGIES
----------------

  NO   OCC          E(Eh)            E(eV)
   0   2.0000     -18.738298      -509.8950
   1   2.0000      -9.936988      -270.3992
   2   2.0000      -9.892193      -269.1802
   3   2.0000      -9.882338      -268.9121
   4   2.0000      -9.870625      -268.5934
   5   2.0000      -9.868415      -268.5332
   6   2.0000      -9.862856      -268.3820
   7   2.0000      -0.916228       -24.9318
   8   2.0000      -0.726282       -19.7631
   9   2.0000      -0.673627       -18.3303
  10   2.0000      -0.615872       -16.7587
  11   2.0000      -0.603627       -16.4255
  12   2.0000      -0.530498       -14.4356
  13   2.0000      -0.493280       -13.4228
  14   2.0000      -0.450598       -12.2614
  15   2.0000      -0.418275       -11.3818
  16   2.0000      -0.398488       -10.8434
  17   2.0000      -0.376890       -10.2557
  18   2.0000      -0.373692       -10.1687
  19   2.0000      -0.346282        -9.4228
  20   2.0000      -0.340924        -9.2770
  21   2.0000      -0.336845        -9.1660
  22   2.0000      -0.316422        -8.6103
  23   2.0000      -0.310728        -8.4553
  24   2.0000      -0.291841        -7.9414
  25   2.0000      -0.283006        -7.7010
  26   2.0000      -0.275138        -7.4869
  27   2.0000      -0.261471        -7.1150
  28   2.0000      -0.205927        -5.6036
  29   0.0000       0.015237         0.4146
  30   0.0000       0.053410         1.4534
  31   0.0000       0.067305         1.8315
  32   0.0000       0.072641         1.9767
  33   0.0000       0.081749         2.2245

MULLIKEN ATOMIC CHARGES
-----------------------
   0 C :   -0.243915
   1 C :    0.012723
   2 H :    0.056415
   3 C :   -0.147403
   4 C :   -0.161022
   5 C :   -0.250343
   6 C :   -0.247226
   7 O :   -0.423431
   8 H :    0.120205
   9 H :    0.104732
  10 H :    0.098898
  11 H :    0.076826
  12 H :    0.064720
  13 H :    0.066549
  14 H :    0.089568
  15 H :    0.121515
  16 H :    0.080278
  17 H :    0.090819
  18 H :    0.097786
  19 H :    0.098783
  20 H :    0.293523
Sum of atomic charges:    0.0000000

LOEWDIN ATOMIC CHARGES
----------------------
   0 C :   -0.340821
   1 C :   -0.054450
   2 H :    0.095661
   3 C :   -0.234093
   4 C :   -0.154472
   5 C :   -0.336898
   6 C :   -0.332673
   7 O :   -0.328819
   8 H :    0.123788
   9 H :    0.123796
  10 H :    0.122377
  11 H :    0.118162
  12 H :    0.109851
  13 H :    0.114510
  14 H :    0.112905
  15 H :    0.121532
  16 H :    0.110294
  17 H :    0.114158
  18 H :    0.117854
  19 H :    0.116973
  20 H :    0.280364

  Mayer bond orders larger than 0.100000
B(  0-C ,  1-C ) :   1.1358 B(  0-C ,  8-H ) :   0.9310 B(  0-C ,  9-H ) :   0.9392
B(  0-C , 10-H ) :   0.9438 B(  1-C ,  2-H ) :   0.9031 B(  1-C ,  3-C ) :   1.0744
B(  1-C ,  7-O ) :   1.0383 B(  3-C ,  4-C ) :   1.0877 B(  3-C , 11-H ) :   0.9036
B(  3-C , 12-H ) :   0.9097 B(  4-C ,  5-C ) :   1.1164 B(  4-C ,  6-C ) :   1.1234
B(  4-C , 13-H ) :   0.8993 B(  5-C , 14-H ) :   0.9466 B(  5-C , 15-H ) :   0.9334
B(  5-C , 16-H ) :   0.9509 B(  6-C , 17-H ) :   0.9484 B(  6-C , 18-H ) :   0.9472
B(  6-C , 19-H ) :   0.9407 B(  7-O , 20-H ) :   0.8487

Dispersion correction           -0.017409596
FINAL SINGLE POINT ENERGY      -311.513246158717

DIPOLE MOMENT
-------------

Method             : SCF
Type of density    : Electron Density
Multiplicity       :   1
Irrep              :   0
Energy             :  -311.5926730455182678 Eh
Relativity type    :
Basis              : AO
                                X                 Y                 Z
Electronic contribution:      3.086779134       2.102047965       2.535945701
Nuclear contribution   :     -3.154384905      -2.411287756      -2.085385699
                        -----------------------------------------
Total Dipole Moment    :     -0.067605771      -0.309239791       0.450560002
                        -----------------------------------------
Magnitude (a.u.)       :      0.550639723
Magnitude (Debye)      :      1.399614945

Rotational constants in cm-1:             0.112340             0.064942             0.054048
Rotational constants in MHz :          3367.873454          1946.906196          1620.322832

                             ****ORCA TERMINATED NORMALLY****
TOTAL RUN TIME: 0 days 0 hours 0 minutes 9 seconds 433 msec
