                         Program Version 6.0.0  -   RELEASE  -
|  1> ! pbe def2-sv(p) def2/J RI DEFGRID1 loosescf d4 GCP(DFT/SV(P)) printgap
|  2> %output
|  3>     printlevel normal
|  4> end
|  5> * xyz 0 1
|  6> C -2.601738096 -0.3009530853 1.5334532462
|  7> C -2.1056716629 -0.3238981542 0.0881598087
|  8> C -3.2927164465 -0.1850978169 -0.8641009894
|  9> C -1.0843007428 0.8003280309 -0.1731790624
| 10> C 0.3482261008 0.3691822243 -0.1275444768
| 11> C 0.8589856674 -0.5426904572 0.7998953538
| 12> N 2.1330144228 -0.8989371733 0.8155936922
| 13> C 2.9280854237 -0.3497300522 -0.0943726195
| 14> C 2.4354403492 0.556868287 -1.0208936429
| 15> N 1.158857961 0.9091506959 -1.0372581616
| 16> H -1.7763345939 -0.3491966987 2.2389058438
| 17> H -3.2604662515 -1.1456272356 1.7206871696
| 18> H -3.1583560013 0.614415282 1.7224441476
| 19> H -1.6239572449 -1.2888388044 -0.1057661295
| 20> H -4.021949333 -0.9692134942 -0.6751026556
| 21> H -3.779099623 0.7774414877 -0.7238440109
| 22> H -2.9674215868 -0.2625365732 -1.8987297345
| 23> H -1.2246874049 1.5950679304 0.5639413022
| 24> H -1.2479441697 1.2429052112 -1.1565045753
| 25> H 0.2371464159 -1.0059198314 1.5513552183
| 26> H 3.9653923603 -0.6489409794 -0.0709421476
| 27> H 3.0660855593 1.0123957214 -1.7712457811
| 28> *
| 29>
| 30>                          ****END OF INPUT****

CARTESIAN COORDINATES (ANGSTROEM)
---------------------------------
  C     -2.601738   -0.300953    1.533453
  C     -2.105672   -0.323898    0.088160
  C     -3.292716   -0.185098   -0.864101
  C     -1.084301    0.800328   -0.173179
  C      0.348226    0.369182   -0.127544
  C      0.858986   -0.542690    0.799895
  N      2.133014   -0.898937    0.815594
  C      2.928085   -0.349730   -0.094373
  C      2.435440    0.556868   -1.020894
  N      1.158858    0.909151   -1.037258
  H     -1.776335   -0.349197    2.238906
  H     -3.260466   -1.145627    1.720687
  H     -3.158356    0.614415    1.722444
  H     -1.623957   -1.288839   -0.105766
  H     -4.021949   -0.969213   -0.675103
  H     -3.779100    0.777441   -0.723844
  H     -2.967422   -0.262537   -1.898730
  H     -1.224687    1.595068    0.563941
  H     -1.247944    1.242905   -1.156505
  H      0.237146   -1.005920    1.551355
  H      3.965392   -0.648941   -0.070942
  H      3.066086    1.012396   -1.771246

 Total Charge           Charge          ....    0
 Multiplicity           Mult            ....    1
 Number of Electrons    NEL             ....   74
 Basis Dimension        Dim             ....  164

ORBITAL ENERGIES
----------------

  NO   OCC          E(Eh)            E(eV)
   0   2.0000     -13.998509      -380.9188
   1   2.0000     -13.997474      -380.8906
   2   2.0000      -9.942872      -270.5593
   3   2.0000      -9.930628      -270.2261
   4   2.0000      -9.930414      -270.2203
   5   2.0000      -9.928267      -270.1619
   6   2.0000      -9.905155      -269.5330
   7   2.0000      -9.892282      -269.1827
   8   2.0000      -9.881042      -268.8768
   9   2.0000      -9.878889      -268.8182
  10   2.0000      -0.896824       -24.4038
  11   2.0000      -0.822186       -22.3728
  12   2.0000      -0.745885       -20.2966
  13   2.0000      -0.702369       -19.1124
  14   2.0000      -0.636581       -17.3223
  15   2.0000      -0.617817       -16.8117
  16   2.0000      -0.592261       -16.1163
  17   2.0000      -0.564080       -15.3494
  18   2.0000      -0.511742       -13.9252
  19   2.0000      -0.471477       -12.8296
  20   2.0000      -0.467436       -12.7196
  21   2.0000      -0.431767       -11.7490
  22   2.0000      -0.412889       -11.2353
  23   2.0000      -0.405495       -11.0341
  24   2.0000      -0.387064       -10.5326
  25   2.0000      -0.383307       -10.4303
  26   2.0000      -0.367970       -10.0130
  27   2.0000      -0.349200        -9.5022
  28   2.0000      -0.345738        -9.4080
  29   2.0000      -0.328773        -8.9464
  30   2.0000      -0.302976        -8.2444
  31   2.0000      -0.296306        -8.0629
  32   2.0000      -0.294490        -8.0135
  33   2.0000      -0.290048        -7.8926
  34   2.0000      -0.247670        -6.7394
  35   2.0000      -0.242676        -6.6035
  36   2.0000      -0.197326        -5.3695
  37   0.0000      -0.076313        -2.0766
  38   0.0000      -0.055512        -1.5106
  39   0.0000       0.034232         0.9315
  40   0.0000       0.064363         1.7514
  41   0.0000       0.066835         1.8187

MULLIKEN ATOMIC CHARGES
-----------------------
   0 C :   -0.262207
   1 C :   -0.204713
   2 C :   -0.246669
   3 C :   -0.019381
   4 C :   -0.104922
   5 C :   -0.084272
   6 N :   -0.037603
   7 C :   -0.060578
   8 C :   -0.047895
   9 N :   -0.049141
  10 H :    0.110214
  11 H :    0.102813
  12 H :    0.098536
  13 H :    0.089333
  14 H :    0.100079
  15 H :    0.098646
  16 H :    0.107409
  17 H :    0.102446
  18 H :    0.085863
  19 H :    0.072390
  20 H :    0.075275
  21 H :    0.074377
Sum of atomic charges:   -0.0000000

LOEWDIN ATOMIC CHARGES
----------------------
   0 C :   -0.331005
   1 C :   -0.155255
   2 C :   -0.327104
   3 C :   -0.211743
   4 C :   -0.019811
   5 C :   -0.098255
   6 N :   -0.050443
   7 C :   -0.104926
   8 C :   -0.095803
   9 N :   -0.055390
  10 H :    0.114505
  11 H :    0.119679
  12 H :    0.118407
  13 H :    0.116401
  14 H :    0.118130
  15 H :    0.118035
  16 H :    0.119508
  17 H :    0.137442
  18 H :    0.130797
  19 H :    0.118378
  20 H :    0.119252
  21 H :    0.119199

  Mayer bond orders larger than 0.100000
B(  0-C ,  1-C ) :   1.0982 B(  0-C , 10-H ) :   0.9455 B(  0-C , 11-H ) :   0.9484
B(  0-C , 12-H ) :   0.9456 B(  1-C ,  2-C ) :   1.1171 B(  1-C ,  3-C ) :   1.0306
B(  1-C , 13-H ) :   0.9169 B(  2-C , 14-H ) :   0.9516 B(  2-C , 15-H ) :   0.9484
B(  2-C , 16-H ) :   0.9483 B(  3-C ,  4-C ) :   1.0637 B(  3-C , 17-H ) :   0.8821
B(  3-C , 18-H ) :   0.8980 B(  4-C ,  5-C ) :   1.3387 B(  4-C ,  7-C ) :   0.1033
B(  4-C ,  9-N ) :   1.5563 B(  5-C ,  6-N ) :   1.5638 B(  5-C , 19-H ) :   0.9365
B(  6-N ,  7-C ) :   1.5365 B(  7-C ,  8-C ) :   1.3601 B(  7-C , 20-H ) :   0.9475
B(  8-C ,  9-N ) :   1.5309 B(  8-C , 21-H ) :   0.9456

Dispersion correction           -0.021817020
FINAL SINGLE POINT ENERGY      -420.620666636387

DIPOLE MOMENT
-------------

Method             : SCF
Type of density    : Electron Density
Multiplicity       :   1
Irrep              :   0
Energy             :  -420.6889922420395465 Eh
Relativity type    :
Basis              : AO
                                X                 Y                 Z
Electronic contribution:     14.502150539       0.458092225      -1.329152756
Nuclear contribution   :    -14.797122922      -0.401524993       1.307715796
                        -----------------------------------------
Total Dipole Moment    :     -0.294972384       0.056567232      -0.021436960
                        -----------------------------------------
Magnitude (a.u.)       :      0.301111445
Magnitude (Debye)      :      0.765364468

Rotational constants in cm-1:             0.106825             0.025113             0.021779
Rotational constants in MHz :          3202.521534           752.862487           652.920155

                             ****ORCA TERMINATED NORMALLY****
TOTAL RUN TIME: 0 days 0 hours 0 minutes 11 seconds 431 msec
