                         Program Version 6.0.0  -   RELEASE  -
|  1> ! r2scan-3c def2/J RI DEFGRID2 scfconv6 printgap
|  2> %output
|  3>     printlevel normal
|  4> end
|  5> * xyz 0 1
|  6> C -1.8916250592 1.2248104744 0.2425293658
|  7> C -1.1960645384 0.0854773647 -0.4895394981
|  8> C -0.1295385873 -0.6195637613 0.3537208728
|  9> C 1.0428507001 0.2829692159 0.7674427947
| 10> C 1.7709257225 0.9091584774 -0.4173554891
| 11> O 0.3171769362 -1.7292118667 -0.4118401155
| 12> H -1.2022501875 2.0400455749 0.4438518176
| 13> H -2.7060969121 1.6100532039 -0.3650115235
| 14> H -2.3018468542 0.8763025763 1.1876800269
| 15> H -1.9289720279 -0.6730605224 -0.7726959123
| 16> H -0.7343544433 0.4463971336 -1.4084662092
| 17> H -0.6118737641 -0.9923748364 1.274672615
| 18> H 0.6683011617 1.0598260173 1.4338983493
| 19> H 1.7484290482 -0.3259094452 1.3392502629
| 20> H 1.1674314085 1.6846054742 -0.880778546
| 21> H 2.7064582879 1.3552622086 -0.0895616555
| 22> H 1.989323542 0.149369618 -1.1645139909
| 23> H 0.9784623937 -2.2186907145 0.0956259631
| 24> *
| 25>
| 26>                          ****END OF INPUT****

CARTESIAN COORDINATES (ANGSTROEM)
---------------------------------
  C     -1.891625    1.224810    0.242529
  C     -1.196065    0.085477   -0.489539
  C     -0.129539   -0.619564    0.353721
  C      1.042851    0.282969    0.767443
  C      1.770926    0.909158   -0.417355
  O      0.317177   -1.729212   -0.411840
  H     -1.202250    2.040046    0.443852
  H     -2.706097    1.610053   -0.365012
  H     -2.301847    0.876303    1.187680
  H     -1.928972   -0.673061   -0.772696
  H     -0.734354    0.446397   -1.408466
  H     -0.611874   -0.992375    1.274673
  H      0.668301    1.059826    1.433898
  H      1.748429   -0.325909    1.339250
  H      1.167431    1.684605   -0.880779
  H      2.706458    1.355262   -0.089562
  H      1.989324    0.149370   -1.164514
  H      0.978462   -2.218691    0.095626

 Total Charge           Charge          ....    0
 Multiplicity           Mult            ....    1
 Number of Electrons    NEL             ....   50
 Basis Dimension        Dim             ....  179

ORBITAL ENERGIES
----------------

  NO   OCC          E(Eh)            E(eV)
   0   2.0000     -18.943723      -515.4849
   1   2.0000     -10.077286      -274.2169
   2   2.0000     -10.026802      -272.8432
   3   2.0000     -10.021611      -272.7019
   4   2.0000     -10.019454      -272.6432
   5   2.0000     -10.014499      -272.5084
   6   2.0000      -0.981625       -26.7114
   7   2.0000      -0.761150       -20.7119
   8   2.0000      -0.716410       -19.4945
   9   2.0000      -0.639620       -17.4050
  10   2.0000      -0.592140       -16.1129
  11   2.0000      -0.523436       -14.2434
  12   2.0000      -0.467196       -12.7130
  13   2.0000      -0.443660       -12.0726
  14   2.0000      -0.427082       -11.6215
  15   2.0000      -0.393549       -10.7090
  16   2.0000      -0.379664       -10.3312
  17   2.0000      -0.342915        -9.3312
  18   2.0000      -0.337474        -9.1831
  19   2.0000      -0.331867        -9.0306
  20   2.0000      -0.328421        -8.9368
  21   2.0000      -0.305502        -8.3131
  22   2.0000      -0.299874        -8.1600
  23   2.0000      -0.275069        -7.4850
  24   2.0000      -0.232751        -6.3335
  25   0.0000       0.064031         1.7424
  26   0.0000       0.087092         2.3699
  27   0.0000       0.114064         3.1038
  28   0.0000       0.126103         3.4314
  29   0.0000       0.136943         3.7264

MULLIKEN ATOMIC CHARGES
-----------------------
   0 C :   -0.497089
   1 C :   -0.254978
   2 C :    0.027734
   3 C :   -0.245958
   4 C :   -0.516630
   5 O :   -0.432006
   6 H :    0.149041
   7 H :    0.148865
   8 H :    0.148003
   9 H :    0.152610
  10 H :    0.152927
  11 H :    0.132872
  12 H :    0.148904
  13 H :    0.130981
  14 H :    0.149206
  15 H :    0.146659
  16 H :    0.173739
  17 H :    0.285121
Sum of atomic charges:   -0.0000000

LOEWDIN ATOMIC CHARGES
----------------------
   0 C :   -0.419219
   1 C :   -0.277754
   2 C :    0.051845
   3 C :   -0.298333
   4 C :   -0.423258
   5 O :   -0.621613
   6 H :    0.149508
   7 H :    0.153351
   8 H :    0.151948
   9 H :    0.165679
  10 H :    0.162193
  11 H :    0.161520
  12 H :    0.159139
  13 H :    0.153749
  14 H :    0.150679
  15 H :    0.150523
  16 H :    0.162346
  17 H :    0.267697

  Mayer bond orders larger than 0.100000
B(  0-C ,  1-C ) :   0.8787 B(  0-C ,  6-H ) :   0.9785 B(  0-C ,  7-H ) :   0.9668
B(  0-C ,  8-H ) :   0.9819 B(  1-C ,  2-C ) :   0.9238 B(  1-C ,  9-H ) :   0.9615
B(  1-C , 10-H ) :   0.9745 B(  2-C ,  3-C ) :   0.9078 B(  2-C ,  5-O ) :   0.9017
B(  2-C , 11-H ) :   0.9719 B(  3-C ,  4-C ) :   0.8797 B(  3-C , 12-H ) :   0.9710
B(  3-C , 13-H ) :   0.9690 B(  4-C , 14-H ) :   0.9772 B(  4-C , 15-H ) :   0.9702
B(  4-C , 16-H ) :   0.9804 B(  5-O , 17-H ) :   0.9000

Dispersion correction           -0.004428709
FINAL SINGLE POINT ENERGY      -272.902433872799

DIPOLE MOMENT
-------------

Method             : SCF
Type of density    : Electron Density
Multiplicity       :   1
Irrep              :   0
Energy             :  -272.9076401075022886 Eh
Relativity type    :
Basis              : AO
                                X                 Y                 Z
Electronic contribution:      0.388019167      -4.527529930      -0.515692376
Nuclear contribution   :     -0.208245163       4.676250850       1.020193331
                        -----------------------------------------
Total Dipole Moment    :      0.179774004       0.148720919       0.504500955
                        -----------------------------------------
Magnitude (a.u.)       :      0.555839741
Magnitude (Debye)      :      1.412832343

Rotational constants in cm-1:             0.135073             0.092356             0.067027
Rotational constants in MHz :          4049.386288          2768.756313          2009.412964

                             ****ORCA TERMINATED NORMALLY****
TOTAL RUN TIME: 0 days 0 hours 0 minutes 23 seconds 838 msec
