                         Program Version 6.0.0  -   RELEASE  -
|  1> ! r2scan-3c def2/J RI DEFGRID2 scfconv6 printgap
|  2> %output
|  3>     printlevel normal
|  4> end
|  5> %cpcm
|  6>     smd true
|  7>     smdsolvent "water"
|  8> end
|  9> * xyz 0 1
| 10> C -1.8916250592 1.2248104744 0.2425293658
| 11> C -1.1960645384 0.0854773647 -0.4895394981
| 12> C -0.1295385873 -0.6195637613 0.3537208728
| 13> C 1.0428507001 0.2829692159 0.7674427947
| 14> C 1.7709257225 0.9091584774 -0.4173554891
| 15> O 0.3171769362 -1.7292118667 -0.4118401155
| 16> H -1.2022501875 2.0400455749 0.4438518176
| 17> H -2.7060969121 1.6100532039 -0.3650115235
| 18> H -2.3018468542 0.8763025763 1.1876800269
| 19> H -1.9289720279 -0.6730605224 -0.7726959123
| 20> H -0.7343544433 0.4463971336 -1.4084662092
| 21> H -0.6118737641 -0.9923748364 1.274672615
| 22> H 0.6683011617 1.0598260173 1.4338983493
| 23> H 1.7484290482 -0.3259094452 1.3392502629
| 24> H 1.1674314085 1.6846054742 -0.880778546
| 25> H 2.7064582879 1.3552622086 -0.0895616555
| 26> H 1.989323542 0.149369618 -1.1645139909
| 27> H 0.9784623937 -2.2186907145 0.0956259631
| 28> *
| 29>
| 30>                          ****END OF INPUT****

CARTESIAN COORDINATES (ANGSTROEM)
---------------------------------
  C     -1.891625    1.224810    0.242529
  C     -1.196065    0.085477   -0.489539
  C     -0.129539   -0.619564    0.353721
  C      1.042851    0.282969    0.767443
  C      1.770926    0.909158   -0.417355
  O      0.317177   -1.729212   -0.411840
  H     -1.202250    2.040046    0.443852
  H     -2.706097    1.610053   -0.365012
  H     -2.301847    0.876303    1.187680
  H     -1.928972   -0.673061   -0.772696
  H     -0.734354    0.446397   -1.408466
  H     -0.611874   -0.992375    1.274673
  H      0.668301    1.059826    1.433898
  H      1.748429   -0.325909    1.339250
  H      1.167431    1.684605   -0.880779
  H      2.706458    1.355262   -0.089562
  H      1.989324    0.149370   -1.164514
  H      0.978462   -2.218691    0.095626

 Total Charge           Charge          ....    0
 Multiplicity           Mult            ....    1
 Number of Electrons    NEL             ....   50
 Basis Dimension        Dim             ....  179

ORBITAL ENERGIES
----------------

  NO   OCC          E(Eh)            E(eV)
   0   2.0000     -18.947310      -515.5825
   1   2.0000     -10.072315      -274.0816
   2   2.0000     -10.017372      -272.5865
   3   2.0000     -10.016825      -272.5717
   4   2.0000     -10.010852      -272.4091
   5   2.0000     -10.007923      -272.3294
   6   2.0000      -0.984005       -26.7761
   7   2.0000      -0.755078       -20.5467
   8   2.0000      -0.709294       -19.3009
   9   2.0000      -0.633965       -17.2511
  10   2.0000      -0.585746       -15.9390
  11   2.0000      -0.518872       -14.1192
  12   2.0000      -0.463675       -12.6172
  13   2.0000      -0.437519       -11.9055
  14   2.0000      -0.421509       -11.4698
  15   2.0000      -0.387830       -10.5534
  16   2.0000      -0.371693       -10.1143
  17   2.0000      -0.342590        -9.3223
  18   2.0000      -0.330271        -8.9871
  19   2.0000      -0.326647        -8.8885
  20   2.0000      -0.323368        -8.7993
  21   2.0000      -0.300017        -8.1639
  22   2.0000      -0.294567        -8.0156
  23   2.0000      -0.271605        -7.3908
  24   2.0000      -0.236194        -6.4272
  25   0.0000       0.079765         2.1705
  26   0.0000       0.096502         2.6260
  27   0.0000       0.121961         3.3187
  28   0.0000       0.132683         3.6105
  29   0.0000       0.144516         3.9325

MULLIKEN ATOMIC CHARGES
-----------------------
   0 C :   -0.535029
   1 C :   -0.257105
   2 C :    0.035602
   3 C :   -0.252336
   4 C :   -0.554603
   5 O :   -0.519975
   6 H :    0.164044
   7 H :    0.159183
   8 H :    0.160644
   9 H :    0.152080
  10 H :    0.158252
  11 H :    0.145759
  12 H :    0.160990
  13 H :    0.153183
  14 H :    0.163408
  15 H :    0.159614
  16 H :    0.165269
  17 H :    0.341020
Sum of atomic charges:   -0.0000000

LOEWDIN ATOMIC CHARGES
----------------------
   0 C :   -0.423914
   1 C :   -0.283373
   2 C :    0.053035
   3 C :   -0.296615
   4 C :   -0.430486
   5 O :   -0.658203
   6 H :    0.154667
   7 H :    0.155826
   8 H :    0.155849
   9 H :    0.163652
  10 H :    0.162386
  11 H :    0.168844
  12 H :    0.164158
  13 H :    0.161832
  14 H :    0.154137
  15 H :    0.154446
  16 H :    0.157389
  17 H :    0.286371

  Mayer bond orders larger than 0.100000
B(  0-C ,  1-C ) :   0.8854 B(  0-C ,  6-H ) :   0.9752 B(  0-C ,  7-H ) :   0.9639
B(  0-C ,  8-H ) :   0.9795 B(  1-C ,  2-C ) :   0.9192 B(  1-C ,  9-H ) :   0.9602
B(  1-C , 10-H ) :   0.9690 B(  2-C ,  3-C ) :   0.9146 B(  2-C ,  5-O ) :   0.8848
B(  2-C , 11-H ) :   0.9673 B(  3-C ,  4-C ) :   0.8637 B(  3-C , 12-H ) :   0.9682
B(  3-C , 13-H ) :   0.9664 B(  4-C , 14-H ) :   0.9747 B(  4-C , 15-H ) :   0.9668
B(  4-C , 16-H ) :   0.9829 B(  5-O , 17-H ) :   0.8739

Dispersion correction           -0.004428709
FINAL SINGLE POINT ENERGY      -272.908470508548

DIPOLE MOMENT
-------------

Method             : SCF
Type of density    : Electron Density
Multiplicity       :   1
Irrep              :   0
Energy             :  -272.9136767432510169 Eh
Relativity type    :
Basis              : AO
                                X                 Y                 Z
Electronic contribution:      0.475029130      -4.434203034      -0.222859459
Nuclear contribution   :     -0.208245163       4.676250850       1.020193331
                        -----------------------------------------
Total Dipole Moment    :      0.266783967       0.242047816       0.797333872
                        -----------------------------------------
Magnitude (a.u.)       :      0.874929788
Magnitude (Debye)      :      2.223894784

Rotational constants in cm-1:             0.135073             0.092356             0.067027
Rotational constants in MHz :          4049.386288          2768.756313          2009.412964

                             ****ORCA TERMINATED NORMALLY****
TOTAL RUN TIME: 0 days 0 hours 0 minutes 28 seconds 549 msec
