                         Program Version 6.0.0  -   RELEASE  -
|  1> ! pbe def2-sv(p) def2/J RI DEFGRID1 loosescf d4 GCP(DFT/SV(P)) printgap
|  2> %output
|  3>     printlevel normal
|  4> end
|  5> * xyz 0 1
|  6> C -1.0760679165 -0.4685672425 -0.3477482925
|  7> C -0.0140390354 0.2085792312 0.5364351678
|  8> C 1.2784620187 -0.6238591813 0.6100752737
|  9> O 1.9155796592 -0.715057562 -0.6461379332
| 10> O 0.2758812811 1.5140422039 0.0927154223
| 11> O -2.3373444956 0.0803171574 -0.0328623425
| 12> H -1.0755905254 -1.5481002987 -0.1429844362
| 13> H -0.8337070455 -0.2917906424 -1.4025809018
| 14> H -0.4366268713 0.3201322815 1.5399078657
| 15> H 1.0685377916 -1.6126228796 1.028266015
| 16> H 1.9850869934 -0.1057587715 1.2624374136
| 17> H 1.4697478046 -1.3737605256 -1.1946895246
| 18> H 0.8948881907 1.4439193911 -0.6520006037
| 19> H -3.001134623 -0.2574682422 -0.6501861859
| 20> *
| 21>
| 22>                          ****END OF INPUT****

CARTESIAN COORDINATES (ANGSTROEM)
---------------------------------
  C     -1.076068   -0.468567   -0.347748
  C     -0.014039    0.208579    0.536435
  C      1.278462   -0.623859    0.610075
  O      1.915580   -0.715058   -0.646138
  O      0.275881    1.514042    0.092715
  O     -2.337344    0.080317   -0.032862
  H     -1.075591   -1.548100   -0.142984
  H     -0.833707   -0.291791   -1.402581
  H     -0.436627    0.320132    1.539908
  H      1.068538   -1.612623    1.028266
  H      1.985087   -0.105759    1.262437
  H      1.469748   -1.373761   -1.194690
  H      0.894888    1.443919   -0.652001
  H     -3.001135   -0.257468   -0.650186

 Total Charge           Charge          ....    0
 Multiplicity           Mult            ....    1
 Number of Electrons    NEL             ....   50
 Basis Dimension        Dim             ....  100

ORBITAL ENERGIES
----------------

  NO   OCC          E(Eh)            E(eV)
   0   2.0000     -18.763205      -510.5728
   1   2.0000     -18.745602      -510.0938
   2   2.0000     -18.734868      -509.8017
   3   2.0000      -9.935578      -270.3608
   4   2.0000      -9.934632      -270.3351
   5   2.0000      -9.934054      -270.3193
   6   2.0000      -0.942438       -25.6450
   7   2.0000      -0.923117       -25.1193
   8   2.0000      -0.905533       -24.6408
   9   2.0000      -0.679126       -18.4800
  10   2.0000      -0.613041       -16.6817
  11   2.0000      -0.540244       -14.7008
  12   2.0000      -0.483949       -13.1689
  13   2.0000      -0.464207       -12.6317
  14   2.0000      -0.430624       -11.7179
  15   2.0000      -0.412790       -11.2326
  16   2.0000      -0.404361       -11.0032
  17   2.0000      -0.372563       -10.1380
  18   2.0000      -0.342807        -9.3283
  19   2.0000      -0.300170        -8.1680
  20   2.0000      -0.285470        -7.7680
  21   2.0000      -0.273940        -7.4543
  22   2.0000      -0.241232        -6.5642
  23   2.0000      -0.216338        -5.8869
  24   2.0000      -0.204322        -5.5599
  25   0.0000       0.007504         0.2042
  26   0.0000       0.027210         0.7404
  27   0.0000       0.061019         1.6604
  28   0.0000       0.074054         2.0151
  29   0.0000       0.090503         2.4627

MULLIKEN ATOMIC CHARGES
-----------------------
   0 C :    0.016373
   1 C :    0.031896
   2 C :   -0.015408
   3 O :   -0.443615
   4 O :   -0.427906
   5 O :   -0.426785
   6 H :    0.055503
   7 H :    0.052521
   8 H :    0.081265
   9 H :    0.079612
  10 H :    0.101416
  11 H :    0.303420
  12 H :    0.293710
  13 H :    0.297999
Sum of atomic charges:    0.0000000

LOEWDIN ATOMIC CHARGES
----------------------
   0 C :   -0.141102
   1 C :   -0.087995
   2 C :   -0.138963
   3 O :   -0.335911
   4 O :   -0.322728
   5 O :   -0.340460
   6 H :    0.088383
   7 H :    0.091304
   8 H :    0.122050
   9 H :    0.100357
  10 H :    0.118790
  11 H :    0.285454
  12 H :    0.275701
  13 H :    0.285119

  Mayer bond orders larger than 0.100000
B(  0-C ,  1-C ) :   1.0158 B(  0-C ,  5-O ) :   1.1068 B(  0-C ,  6-H ) :   0.9154
B(  0-C ,  7-H ) :   0.9009 B(  1-C ,  2-C ) :   1.0256 B(  1-C ,  4-O ) :   1.0599
B(  1-C ,  8-H ) :   0.8916 B(  2-C ,  3-O ) :   1.0505 B(  2-C ,  9-H ) :   0.9175
B(  2-C , 10-H ) :   0.9254 B(  3-O , 11-H ) :   0.8495 B(  4-O , 12-H ) :   0.8386
B(  5-O , 13-H ) :   0.8519

Dispersion correction           -0.009163030
FINAL SINGLE POINT ENERGY      -344.004037242106

DIPOLE MOMENT
-------------

Method             : SCF
Type of density    : Electron Density
Multiplicity       :   1
Irrep              :   0
Energy             :  -344.0771448442193901 Eh
Relativity type    :
Basis              : AO
                                X                 Y                 Z
Electronic contribution:     -0.260814910       2.008000102      -0.447965382
Nuclear contribution   :      0.064632988      -3.200606893      -0.207440714
                        -----------------------------------------
Total Dipole Moment    :     -0.196181922      -1.192606792      -0.655406096
                        -----------------------------------------
Magnitude (a.u.)       :      1.374901981
Magnitude (Debye)      :      3.494723105

Rotational constants in cm-1:             0.200067             0.074229             0.063801
Rotational constants in MHz :          5997.853953          2225.335886          1912.714941

                             ****ORCA TERMINATED NORMALLY****
TOTAL RUN TIME: 0 days 0 hours 0 minutes 6 seconds 798 msec
