                         Program Version 6.0.0  -   RELEASE  -
|  1> ! pbe def2-sv(p) def2/J RI DEFGRID1 loosescf d4 GCP(DFT/SV(P)) printgap
|  2> %output
|  3>     printlevel normal
|  4> end
|  5> * xyz 0 1
|  6> C -1.2896652359 0.0521414282 0.5472340915
|  7> C 0.1074440606 0.6896084473 0.6126897468
|  8> C 1.2209209469 -0.3708936312 0.6568973443
|  9> O 1.1553160455 -1.2020480977 -0.4830221473
| 10> O 0.2335582053 1.5709601875 -0.4778818094
| 11> O -1.5599016686 -0.6230103889 -0.6537493425
| 12> H -2.0416346259 0.8411577731 0.6270632318
| 13> H -1.3976675338 -0.6308703984 1.4033440013
| 14> H 0.1643158035 1.2522878803 1.560235656
| 15> H 1.0895832921 -0.9594285536 1.573556617
| 16> H 2.1929081816 0.1383463021 0.7016037903
| 17> H 1.8604954051 -1.8623283694 -0.4463201547
| 18> H 1.1343667672 1.9218659239 -0.5145999353
| 19> H -0.7487386162 -1.0868020731 -0.9243590152
| 20> *
| 21>
| 22>                          ****END OF INPUT****

CARTESIAN COORDINATES (ANGSTROEM)
---------------------------------
  C     -1.289665    0.052141    0.547234
  C      0.107444    0.689608    0.612690
  C      1.220921   -0.370894    0.656897
  O      1.155316   -1.202048   -0.483022
  O      0.233558    1.570960   -0.477882
  O     -1.559902   -0.623010   -0.653749
  H     -2.041635    0.841158    0.627063
  H     -1.397668   -0.630870    1.403344
  H      0.164316    1.252288    1.560236
  H      1.089583   -0.959429    1.573557
  H      2.192908    0.138346    0.701604
  H      1.860495   -1.862328   -0.446320
  H      1.134367    1.921866   -0.514600
  H     -0.748739   -1.086802   -0.924359

 Total Charge           Charge          ....    0
 Multiplicity           Mult            ....    1
 Number of Electrons    NEL             ....   50
 Basis Dimension        Dim             ....  100

ORBITAL ENERGIES
----------------

  NO   OCC          E(Eh)            E(eV)
   0   2.0000     -18.773209      -510.8450
   1   2.0000     -18.744444      -510.0623
   2   2.0000     -18.713481      -509.2197
   3   2.0000      -9.948318      -270.7075
   4   2.0000      -9.942740      -270.5557
   5   2.0000      -9.918575      -269.8981
   6   2.0000      -0.950173       -25.8555
   7   2.0000      -0.921654       -25.0795
   8   2.0000      -0.889954       -24.2169
   9   2.0000      -0.684659       -18.6305
  10   2.0000      -0.608242       -16.5511
  11   2.0000      -0.531724       -14.4690
  12   2.0000      -0.498260       -13.5583
  13   2.0000      -0.467053       -12.7092
  14   2.0000      -0.429360       -11.6835
  15   2.0000      -0.405080       -11.0228
  16   2.0000      -0.393662       -10.7121
  17   2.0000      -0.362681        -9.8690
  18   2.0000      -0.346890        -9.4394
  19   2.0000      -0.319240        -8.6870
  20   2.0000      -0.296530        -8.0690
  21   2.0000      -0.249315        -6.7842
  22   2.0000      -0.234272        -6.3749
  23   2.0000      -0.217917        -5.9298
  24   2.0000      -0.190553        -5.1852
  25   0.0000       0.001380         0.0376
  26   0.0000       0.033506         0.9117
  27   0.0000       0.065693         1.7876
  28   0.0000       0.081940         2.2297
  29   0.0000       0.089817         2.4440

MULLIKEN ATOMIC CHARGES
-----------------------
   0 C :    0.070013
   1 C :   -0.029354
   2 C :   -0.001855
   3 O :   -0.436942
   4 O :   -0.407223
   5 O :   -0.451006
   6 H :    0.086865
   7 H :    0.055397
   8 H :    0.061203
   9 H :    0.077263
  10 H :    0.070519
  11 H :    0.313127
  12 H :    0.294822
  13 H :    0.297172
Sum of atomic charges:    0.0000000

LOEWDIN ATOMIC CHARGES
----------------------
   0 C :   -0.118486
   1 C :   -0.090705
   2 C :   -0.138084
   3 O :   -0.332010
   4 O :   -0.319097
   5 O :   -0.349490
   6 H :    0.113757
   7 H :    0.090125
   8 H :    0.102156
   9 H :    0.102383
  10 H :    0.093865
  11 H :    0.293991
  12 H :    0.282582
  13 H :    0.269014

  Mayer bond orders larger than 0.100000
B(  0-C ,  1-C ) :   1.0462 B(  0-C ,  5-O ) :   1.0991 B(  0-C ,  6-H ) :   0.9218
B(  0-C ,  7-H ) :   0.9117 B(  1-C ,  2-C ) :   1.0534 B(  1-C ,  4-O ) :   1.0809
B(  1-C ,  8-H ) :   0.8904 B(  2-C ,  3-O ) :   1.0508 B(  2-C ,  9-H ) :   0.9116
B(  2-C , 10-H ) :   0.9169 B(  3-O , 11-H ) :   0.8430 B(  4-O , 12-H ) :   0.8517
B(  5-O , 13-H ) :   0.8171

Dispersion correction           -0.009574399
FINAL SINGLE POINT ENERGY      -344.004911152623

DIPOLE MOMENT
-------------

Method             : SCF
Type of density    : Electron Density
Multiplicity       :   1
Irrep              :   0
Energy             :  -344.0788953021589123 Eh
Relativity type    :
Basis              : AO
                                X                 Y                 Z
Electronic contribution:     -0.424780987       0.078678549      -2.839772035
Nuclear contribution   :      2.111754436      -0.365694263       3.710442064
                        -----------------------------------------
Total Dipole Moment    :      1.686973449      -0.287015714       0.870670029
                        -----------------------------------------
Magnitude (a.u.)       :      1.919980140
Magnitude (Debye)      :      4.880201680

Rotational constants in cm-1:             0.137593             0.109454             0.081491
Rotational constants in MHz :          4124.923384          3281.338686          2443.028324

                             ****ORCA TERMINATED NORMALLY****
TOTAL RUN TIME: 0 days 0 hours 0 minutes 6 seconds 737 msec
