                         Program Version 6.0.0  -   RELEASE  -
|  1> ! r2scan-3c def2/J RI DEFGRID2 scfconv6 printgap
|  2> %output
|  3>     printlevel normal
|  4> end
|  5> * xyz 0 1
|  6> C -2.3114868189 0.3836741295 0.4677875067
|  7> C -0.9668151782 0.6958916432 -0.1780356855
|  8> C 0.0708415953 -0.3912598437 0.1115251396
|  9> C 1.4771807974 0.0054065238 -0.3620803359
| 10> C 2.1297402879 1.0674574826 0.5143029703
| 11> O -0.3715815692 -1.5690214399 -0.5477559278
| 12> H -2.6698299137 -0.5836308382 0.1249655365
| 13> H -2.2158661159 0.3541953435 1.5510112268
| 14> H -3.0435834299 1.1421626974 0.2036805106
| 15> H -1.0884224712 0.7618263666 -1.2606173661
| 16> H -0.5956946392 1.6517025871 0.1901206209
| 17> H 0.0992329633 -0.5754044217 1.1985924939
| 18> H 2.1056861457 -0.8890349304 -0.3547728475
| 19> H 1.413491334 0.355429559 -1.3941936262
| 20> H 2.1654533934 0.7359203648 1.5495928317
| 21> H 3.1458484027 1.2534927592 0.1765568378
| 22> H 1.5813443425 2.0042976747 0.4721713263
| 23> H 0.2405083458 -2.2919279616 -0.3580078789
| 24> *
| 25>
| 26>                          ****END OF INPUT****

CARTESIAN COORDINATES (ANGSTROEM)
---------------------------------
  C     -2.311487    0.383674    0.467788
  C     -0.966815    0.695892   -0.178036
  C      0.070842   -0.391260    0.111525
  C      1.477181    0.005407   -0.362080
  C      2.129740    1.067457    0.514303
  O     -0.371582   -1.569021   -0.547756
  H     -2.669830   -0.583631    0.124966
  H     -2.215866    0.354195    1.551011
  H     -3.043583    1.142163    0.203681
  H     -1.088422    0.761826   -1.260617
  H     -0.595695    1.651703    0.190121
  H      0.099233   -0.575404    1.198592
  H      2.105686   -0.889035   -0.354773
  H      1.413491    0.355430   -1.394194
  H      2.165453    0.735920    1.549593
  H      3.145848    1.253493    0.176557
  H      1.581344    2.004298    0.472171
  H      0.240508   -2.291928   -0.358008

 Total Charge           Charge          ....    0
 Multiplicity           Mult            ....    1
 Number of Electrons    NEL             ....   50
 Basis Dimension        Dim             ....  179

ORBITAL ENERGIES
----------------

  NO   OCC          E(Eh)            E(eV)
   0   2.0000     -18.943640      -515.4827
   1   2.0000     -10.077221      -274.2151
   2   2.0000     -10.026451      -272.8336
   3   2.0000     -10.021912      -272.7101
   4   2.0000     -10.021398      -272.6961
   5   2.0000     -10.009396      -272.3695
   6   2.0000      -0.981571       -26.7099
   7   2.0000      -0.760342       -20.6900
   8   2.0000      -0.719374       -19.5752
   9   2.0000      -0.636754       -17.3270
  10   2.0000      -0.578287       -15.7360
  11   2.0000      -0.538718       -14.6593
  12   2.0000      -0.485723       -13.2172
  13   2.0000      -0.424450       -11.5499
  14   2.0000      -0.411408       -11.1950
  15   2.0000      -0.393080       -10.6963
  16   2.0000      -0.377966       -10.2850
  17   2.0000      -0.363702        -9.8968
  18   2.0000      -0.345728        -9.4077
  19   2.0000      -0.320343        -8.7170
  20   2.0000      -0.314828        -8.5669
  21   2.0000      -0.312286        -8.4977
  22   2.0000      -0.300201        -8.1689
  23   2.0000      -0.276406        -7.5214
  24   2.0000      -0.231934        -6.3113
  25   0.0000       0.064312         1.7500
  26   0.0000       0.091744         2.4965
  27   0.0000       0.111694         3.0394
  28   0.0000       0.125709         3.4207
  29   0.0000       0.131127         3.5681

MULLIKEN ATOMIC CHARGES
-----------------------
   0 C :   -0.514301
   1 C :   -0.250250
   2 C :    0.044682
   3 C :   -0.194975
   4 C :   -0.504118
   5 O :   -0.432013
   6 H :    0.171973
   7 H :    0.140589
   8 H :    0.144347
   9 H :    0.151389
  10 H :    0.131531
  11 H :    0.120067
  12 H :    0.126538
  13 H :    0.141687
  14 H :    0.145321
  15 H :    0.148933
  16 H :    0.145532
  17 H :    0.283067
Sum of atomic charges:    0.0000000

LOEWDIN ATOMIC CHARGES
----------------------
   0 C :   -0.418057
   1 C :   -0.279010
   2 C :    0.053339
   3 C :   -0.293140
   4 C :   -0.423183
   5 O :   -0.619798
   6 H :    0.163433
   7 H :    0.149153
   8 H :    0.149012
   9 H :    0.165531
  10 H :    0.157100
  11 H :    0.160617
  12 H :    0.153312
  13 H :    0.161465
  14 H :    0.150797
  15 H :    0.152767
  16 H :    0.149736
  17 H :    0.266925

  Mayer bond orders larger than 0.100000
B(  0-C ,  1-C ) :   0.9004 B(  0-C ,  6-H ) :   0.9787 B(  0-C ,  7-H ) :   0.9852
B(  0-C ,  8-H ) :   0.9747 B(  1-C ,  2-C ) :   0.9346 B(  1-C ,  9-H ) :   0.9712
B(  1-C , 10-H ) :   0.9696 B(  2-C ,  3-C ) :   0.9019 B(  2-C ,  5-O ) :   0.8538
B(  2-C , 11-H ) :   0.9723 B(  3-C ,  4-C ) :   0.8894 B(  3-C , 12-H ) :   0.9733
B(  3-C , 13-H ) :   0.9634 B(  4-C , 14-H ) :   0.9851 B(  4-C , 15-H ) :   0.9679
B(  4-C , 16-H ) :   0.9802 B(  5-O , 17-H ) :   0.9021

Dispersion correction           -0.004237676
FINAL SINGLE POINT ENERGY      -272.902567521546

DIPOLE MOMENT
-------------

Method             : SCF
Type of density    : Electron Density
Multiplicity       :   1
Irrep              :   0
Energy             :  -272.9078948284786179 Eh
Relativity type    :
Basis              : AO
                                X                 Y                 Z
Electronic contribution:     -0.549413313      -3.608304478      -1.676118653
Nuclear contribution   :      1.062273718       3.653405667       1.961170013
                        -----------------------------------------
Total Dipole Moment    :      0.512860405       0.045101188       0.285051360
                        -----------------------------------------
Magnitude (a.u.)       :      0.588484656
Magnitude (Debye)      :      1.495809120

Rotational constants in cm-1:             0.167884             0.075571             0.057364
Rotational constants in MHz :          5033.043420          2265.576119          1719.728030

                             ****ORCA TERMINATED NORMALLY****
TOTAL RUN TIME: 0 days 0 hours 0 minutes 23 seconds 155 msec
