                         Program Version 6.0.0  -   RELEASE  -
|  1> ! r2scan-3c def2/J RI DEFGRID2 scfconv6 printgap
|  2> %output
|  3>     printlevel normal
|  4> end
|  5> %cpcm
|  6>     smd true
|  7>     smdsolvent "water"
|  8> end
|  9> * xyz 0 1
| 10> C -2.3114868189 0.3836741295 0.4677875067
| 11> C -0.9668151782 0.6958916432 -0.1780356855
| 12> C 0.0708415953 -0.3912598437 0.1115251396
| 13> C 1.4771807974 0.0054065238 -0.3620803359
| 14> C 2.1297402879 1.0674574826 0.5143029703
| 15> O -0.3715815692 -1.5690214399 -0.5477559278
| 16> H -2.6698299137 -0.5836308382 0.1249655365
| 17> H -2.2158661159 0.3541953435 1.5510112268
| 18> H -3.0435834299 1.1421626974 0.2036805106
| 19> H -1.0884224712 0.7618263666 -1.2606173661
| 20> H -0.5956946392 1.6517025871 0.1901206209
| 21> H 0.0992329633 -0.5754044217 1.1985924939
| 22> H 2.1056861457 -0.8890349304 -0.3547728475
| 23> H 1.413491334 0.355429559 -1.3941936262
| 24> H 2.1654533934 0.7359203648 1.5495928317
| 25> H 3.1458484027 1.2534927592 0.1765568378
| 26> H 1.5813443425 2.0042976747 0.4721713263
| 27> H 0.2405083458 -2.2919279616 -0.3580078789
| 28> *
| 29>
| 30>                          ****END OF INPUT****

CARTESIAN COORDINATES (ANGSTROEM)
---------------------------------
  C     -2.311487    0.383674    0.467788
  C     -0.966815    0.695892   -0.178036
  C      0.070842   -0.391260    0.111525
  C      1.477181    0.005407   -0.362080
  C      2.129740    1.067457    0.514303
  O     -0.371582   -1.569021   -0.547756
  H     -2.669830   -0.583631    0.124966
  H     -2.215866    0.354195    1.551011
  H     -3.043583    1.142163    0.203681
  H     -1.088422    0.761826   -1.260617
  H     -0.595695    1.651703    0.190121
  H      0.099233   -0.575404    1.198592
  H      2.105686   -0.889035   -0.354773
  H      1.413491    0.355430   -1.394194
  H      2.165453    0.735920    1.549593
  H      3.145848    1.253493    0.176557
  H      1.581344    2.004298    0.472171
  H      0.240508   -2.291928   -0.358008

 Total Charge           Charge          ....    0
 Multiplicity           Mult            ....    1
 Number of Electrons    NEL             ....   50
 Basis Dimension        Dim             ....  179

ORBITAL ENERGIES
----------------

  NO   OCC          E(Eh)            E(eV)
   0   2.0000     -18.947232      -515.5804
   1   2.0000     -10.072093      -274.0756
   2   2.0000     -10.017176      -272.5812
   3   2.0000     -10.016944      -272.5749
   4   2.0000     -10.010172      -272.3906
   5   2.0000     -10.008048      -272.3328
   6   2.0000      -0.983975       -26.7753
   7   2.0000      -0.754348       -20.5268
   8   2.0000      -0.713425       -19.4133
   9   2.0000      -0.631808       -17.1924
  10   2.0000      -0.571727       -15.5575
  11   2.0000      -0.534461       -14.5434
  12   2.0000      -0.482249       -13.1227
  13   2.0000      -0.415676       -11.3111
  14   2.0000      -0.407128       -11.0785
  15   2.0000      -0.391262       -10.6468
  16   2.0000      -0.373499       -10.1634
  17   2.0000      -0.358907        -9.7664
  18   2.0000      -0.339281        -9.2323
  19   2.0000      -0.315860        -8.5950
  20   2.0000      -0.311137        -8.4665
  21   2.0000      -0.307357        -8.3636
  22   2.0000      -0.296642        -8.0720
  23   2.0000      -0.272822        -7.4239
  24   2.0000      -0.235465        -6.4073
  25   0.0000       0.080874         2.2007
  26   0.0000       0.100884         2.7452
  27   0.0000       0.117931         3.2091
  28   0.0000       0.135768         3.6944
  29   0.0000       0.138646         3.7727

MULLIKEN ATOMIC CHARGES
-----------------------
   0 C :   -0.545579
   1 C :   -0.269543
   2 C :    0.062562
   3 C :   -0.222330
   4 C :   -0.543487
   5 O :   -0.520125
   6 H :    0.160990
   7 H :    0.158969
   8 H :    0.158817
   9 H :    0.158226
  10 H :    0.153375
  11 H :    0.135699
  12 H :    0.152287
  13 H :    0.144339
  14 H :    0.158301
  15 H :    0.159720
  16 H :    0.158515
  17 H :    0.339266
Sum of atomic charges:    0.0000000

LOEWDIN ATOMIC CHARGES
----------------------
   0 C :   -0.426953
   1 C :   -0.283124
   2 C :    0.055035
   3 C :   -0.294342
   4 C :   -0.428913
   5 O :   -0.655932
   6 H :    0.157066
   7 H :    0.154326
   8 H :    0.153302
   9 H :    0.164935
  10 H :    0.165127
  11 H :    0.168472
  12 H :    0.161463
  13 H :    0.160994
  14 H :    0.154615
  15 H :    0.155498
  16 H :    0.153051
  17 H :    0.285379

  Mayer bond orders larger than 0.100000
B(  0-C ,  1-C ) :   0.8880 B(  0-C ,  6-H ) :   0.9805 B(  0-C ,  7-H ) :   0.9821
B(  0-C ,  8-H ) :   0.9715 B(  1-C ,  2-C ) :   0.9292 B(  1-C ,  9-H ) :   0.9733
B(  1-C , 10-H ) :   0.9635 B(  2-C ,  3-C ) :   0.9086 B(  2-C ,  5-O ) :   0.8368
B(  2-C , 11-H ) :   0.9650 B(  3-C ,  4-C ) :   0.8869 B(  3-C , 12-H ) :   0.9729
B(  3-C , 13-H ) :   0.9612 B(  4-C , 14-H ) :   0.9825 B(  4-C , 15-H ) :   0.9654
B(  4-C , 16-H ) :   0.9765 B(  5-O , 17-H ) :   0.8762

Dispersion correction           -0.004237676
FINAL SINGLE POINT ENERGY      -272.908456381855

DIPOLE MOMENT
-------------

Method             : SCF
Type of density    : Electron Density
Multiplicity       :   1
Irrep              :   0
Energy             :  -272.9137836887880439 Eh
Relativity type    :
Basis              : AO
                                X                 Y                 Z
Electronic contribution:     -0.316492085      -3.554010244      -1.494705500
Nuclear contribution   :      1.062273718       3.653405667       1.961170013
                        -----------------------------------------
Total Dipole Moment    :      0.745781632       0.099395423       0.466464513
                        -----------------------------------------
Magnitude (a.u.)       :      0.885245071
Magnitude (Debye)      :      2.250114151

Rotational constants in cm-1:             0.167884             0.075571             0.057364
Rotational constants in MHz :          5033.043420          2265.576119          1719.728030

                             ****ORCA TERMINATED NORMALLY****
TOTAL RUN TIME: 0 days 0 hours 0 minutes 27 seconds 123 msec
