                         Program Version 6.0.0  -   RELEASE  -
|  1> ! pbe def2-sv(p) def2/J RI DEFGRID1 loosescf d4 GCP(DFT/SV(P)) printgap
|  2> %output
|  3>     printlevel normal
|  4> end
|  5> * xyz 0 1
|  6> C 1.8152362258 -1.3421119823 -0.1437279162
|  7> C 0.8160997453 -0.2440436043 0.2157922681
|  8> C 1.5497498339 1.0718648875 0.4694090333
|  9> C -0.2522839209 -0.0861685791 -0.8851382017
| 10> C -1.6761499279 -0.2518561501 -0.350658852
| 11> O -2.022698184 0.7009962996 0.632982559
| 12> H 2.5458853656 -1.4659126651 0.6522270837
| 13> H 2.3452511638 -1.0860207805 -1.0587997284
| 14> H 1.3061065369 -2.2916259358 -0.2910571381
| 15> H 0.3087864073 -0.5290792079 1.1439326744
| 16> H 0.85143262 1.8442803165 0.7811274891
| 17> H 2.061129804 1.4028350418 -0.4323539822
| 18> H 2.2900042265 0.9468701683 1.2563118996
| 19> H -0.1048551345 -0.8363270883 -1.6626978146
| 20> H -0.1609172743 0.8958898986 -1.3532917517
| 21> H -2.3923263007 -0.2104091736 -1.1832231735
| 22> H -1.7806321001 -1.2220405388 0.1416350788
| 23> H -2.006094424 1.5808488402 0.2323828619
| 24> *
| 25>
| 26>                          ****END OF INPUT****

CARTESIAN COORDINATES (ANGSTROEM)
---------------------------------
  C      1.815236   -1.342112   -0.143728
  C      0.816100   -0.244044    0.215792
  C      1.549750    1.071865    0.469409
  C     -0.252284   -0.086169   -0.885138
  C     -1.676150   -0.251856   -0.350659
  O     -2.022698    0.700996    0.632983
  H      2.545885   -1.465913    0.652227
  H      2.345251   -1.086021   -1.058800
  H      1.306107   -2.291626   -0.291057
  H      0.308786   -0.529079    1.143933
  H      0.851433    1.844280    0.781127
  H      2.061130    1.402835   -0.432354
  H      2.290004    0.946870    1.256312
  H     -0.104855   -0.836327   -1.662698
  H     -0.160917    0.895890   -1.353292
  H     -2.392326   -0.210409   -1.183223
  H     -1.780632   -1.222041    0.141635
  H     -2.006094    1.580849    0.232383

 Total Charge           Charge          ....    0
 Multiplicity           Mult            ....    1
 Number of Electrons    NEL             ....   50
 Basis Dimension        Dim             ....  108

ORBITAL ENERGIES
----------------

  NO   OCC          E(Eh)            E(eV)
   0   2.0000     -18.740260      -509.9484
   1   2.0000      -9.927086      -270.1298
   2   2.0000      -9.890421      -269.1320
   3   2.0000      -9.881269      -268.8830
   4   2.0000      -9.870515      -268.5904
   5   2.0000      -9.869735      -268.5691
   6   2.0000      -0.916756       -24.9462
   7   2.0000      -0.726813       -19.7776
   8   2.0000      -0.649753       -17.6807
   9   2.0000      -0.607862       -16.5408
  10   2.0000      -0.558143       -15.1879
  11   2.0000      -0.503454       -13.6997
  12   2.0000      -0.442175       -12.0322
  13   2.0000      -0.409841       -11.1523
  14   2.0000      -0.409119       -11.1327
  15   2.0000      -0.378586       -10.3018
  16   2.0000      -0.368370       -10.0239
  17   2.0000      -0.353254        -9.6125
  18   2.0000      -0.339972        -9.2511
  19   2.0000      -0.311232        -8.4691
  20   2.0000      -0.288294        -7.8449
  21   2.0000      -0.284286        -7.7358
  22   2.0000      -0.282348        -7.6831
  23   2.0000      -0.265044        -7.2122
  24   2.0000      -0.211924        -5.7668
  25   0.0000       0.023838         0.6487
  26   0.0000       0.050403         1.3715
  27   0.0000       0.065217         1.7746
  28   0.0000       0.073811         2.0085
  29   0.0000       0.097853         2.6627

MULLIKEN ATOMIC CHARGES
-----------------------
   0 C :   -0.258534
   1 C :   -0.159197
   2 C :   -0.253658
   3 C :   -0.158848
   4 C :   -0.004111
   5 O :   -0.436266
   6 H :    0.097356
   7 H :    0.094936
   8 H :    0.099547
   9 H :    0.088475
  10 H :    0.090999
  11 H :    0.093863
  12 H :    0.096418
  13 H :    0.079079
  14 H :    0.071613
  15 H :    0.074534
  16 H :    0.090401
  17 H :    0.293394
Sum of atomic charges:   -0.0000000

LOEWDIN ATOMIC CHARGES
----------------------
   0 C :   -0.330477
   1 C :   -0.157913
   2 C :   -0.329754
   3 C :   -0.241673
   4 C :   -0.122213
   5 O :   -0.342059
   6 H :    0.115965
   7 H :    0.114907
   8 H :    0.115077
   9 H :    0.118677
  10 H :    0.112555
  11 H :    0.113570
  12 H :    0.116355
  13 H :    0.120911
  14 H :    0.111389
  15 H :    0.092939
  16 H :    0.111347
  17 H :    0.280396

  Mayer bond orders larger than 0.100000
B(  0-C ,  1-C ) :   1.1164 B(  0-C ,  6-H ) :   0.9526 B(  0-C ,  7-H ) :   0.9482
B(  0-C ,  8-H ) :   0.9500 B(  1-C ,  2-C ) :   1.1205 B(  1-C ,  3-C ) :   1.0211
B(  1-C ,  9-H ) :   0.9133 B(  2-C , 10-H ) :   0.9472 B(  2-C , 11-H ) :   0.9481
B(  2-C , 12-H ) :   0.9518 B(  3-C ,  4-C ) :   1.1093 B(  3-C , 13-H ) :   0.9115
B(  3-C , 14-H ) :   0.9206 B(  4-C ,  5-O ) :   1.0579 B(  4-C , 15-H ) :   0.9282
B(  4-C , 16-H ) :   0.9288 B(  5-O , 17-H ) :   0.8527

Dispersion correction           -0.012801661
FINAL SINGLE POINT ENERGY      -272.297671164038

DIPOLE MOMENT
-------------

Method             : SCF
Type of density    : Electron Density
Multiplicity       :   1
Irrep              :   0
Energy             :  -272.3674007772306140 Eh
Relativity type    :
Basis              : AO
                                X                 Y                 Z
Electronic contribution:     -4.806535940       1.082764325       1.140523218
Nuclear contribution   :      4.908260642      -0.900264006      -1.654726996
                        -----------------------------------------
Total Dipole Moment    :      0.101724702       0.182500319      -0.514203777
                        -----------------------------------------
Magnitude (a.u.)       :      0.555031356
Magnitude (Debye)      :      1.410777590

Rotational constants in cm-1:             0.185086             0.069566             0.058187
Rotational constants in MHz :          5548.730176          2085.545800          1744.389129

                             ****ORCA TERMINATED NORMALLY****
TOTAL RUN TIME: 0 days 0 hours 0 minutes 8 seconds 201 msec
