                         Program Version 6.0.0  -   RELEASE  -
|  1> ! wb97x-v def2-tzvp def2/J RIJCOSX DEFGRID2 scfconv7 GCP(DFT/TZ) printgap
|  2> %output
|  3>     printlevel normal
|  4> end
|  5> * xyz 0 1
|  6> C 2.83752051609057 -0.41951328542609057 -0.08357894743823538
|  7> C 1.3941349994832535 -0.3589134287771088 0.4078811798497946
|  8> C 0.6249778368766413 0.8030391204822477 -0.21905699164830011
|  9> C -0.7888627209953382 0.9850159135039751 0.3141779419532608
| 10> S -1.8337274457587065 -0.5022841573340635 -0.08405185773780245
| 11> H 3.3822391502931177 -1.2498018248354192 0.3766052028783269
| 12> H 3.3717767626309585 0.506886570492866 0.15533861968180263
| 13> H 2.8749891531947305 -0.5551847412043112 -1.1703840553388893
| 14> H 1.3752422711023404 -0.25392170525902924 1.500538097892911
| 15> H 0.8923449736338483 -1.3069760154627115 0.17659120935123948
| 16> H 0.5984730599698684 0.6854322030279493 -1.3102133050849458
| 17> H 1.1652722592789975 1.7376872871967084 -0.016868308141385943
| 18> H -0.7764994715395421 1.1216319453588521 1.3996998071441795
| 19> H -1.2615387937805813 1.8561076233414837 -0.14562158494405655
| 20> H -3.0166922172743225 0.05568941397290246 0.2312212370783255
| 21> *
| 22>
| 23>                          ****END OF INPUT****

CARTESIAN COORDINATES (ANGSTROEM)
---------------------------------
  C      2.837521   -0.419513   -0.083579
  C      1.394135   -0.358913    0.407881
  C      0.624978    0.803039   -0.219057
  C     -0.788863    0.985016    0.314178
  S     -1.833727   -0.502284   -0.084052
  H      3.382239   -1.249802    0.376605
  H      3.371777    0.506887    0.155339
  H      2.874989   -0.555185   -1.170384
  H      1.375242   -0.253922    1.500538
  H      0.892345   -1.306976    0.176591
  H      0.598473    0.685432   -1.310213
  H      1.165272    1.737687   -0.016868
  H     -0.776499    1.121632    1.399700
  H     -1.261539    1.856108   -0.145622
  H     -3.016692    0.055689    0.231221

 Total Charge           Charge          ....    0
 Multiplicity           Mult            ....    1
 Number of Electrons    NEL             ....   50
 Basis Dimension        Dim             ....  221

ORBITAL ENERGIES
----------------

  NO   OCC          E(Eh)            E(eV)
   0   2.0000     -94.117271     -2561.0611
   1   2.0000     -12.080378      -328.7238
   2   2.0000     -12.051057      -327.9259
   3   2.0000     -12.043610      -327.7233
   4   2.0000     -12.035648      -327.5066
   5   2.0000      -9.628572      -262.0068
   6   2.0000      -7.606128      -206.9733
   7   2.0000      -7.605114      -206.9457
   8   2.0000      -7.604602      -206.9317
   9   2.0000      -1.318857       -35.8879
  10   2.0000      -1.258961       -34.2581
  11   2.0000      -1.190853       -32.4048
  12   2.0000      -1.108438       -30.1621
  13   2.0000      -1.044045       -28.4099
  14   2.0000      -0.902559       -24.5599
  15   2.0000      -0.886076       -24.1114
  16   2.0000      -0.871606       -23.7176
  17   2.0000      -0.847076       -23.0501
  18   2.0000      -0.818694       -22.2778
  19   2.0000      -0.805353       -21.9148
  20   2.0000      -0.791254       -21.5311
  21   2.0000      -0.771712       -20.9994
  22   2.0000      -0.757040       -20.6001
  23   2.0000      -0.737149       -20.0589
  24   2.0000      -0.640288       -17.4231
  25   0.0000      -0.197615        -5.3774
  26   0.0000      -0.110618        -3.0101
  27   0.0000      -0.039056        -1.0628
  28   0.0000      -0.018266        -0.4971
  29   0.0000      -0.007028        -0.1912

MULLIKEN ATOMIC CHARGES
-----------------------
   0 C :   -0.331949
   1 C :   -0.173018
   2 C :   -0.193366
   3 C :   -0.160571
   4 S :   -0.231084
   5 H :    0.116474
   6 H :    0.102869
   7 H :    0.106540
   8 H :    0.087175
   9 H :    0.107544
  10 H :    0.104797
  11 H :    0.095563
  12 H :    0.113213
  13 H :    0.122058
  14 H :    0.133756
Sum of atomic charges:   -0.0000000

LOEWDIN ATOMIC CHARGES
----------------------
   0 C :   -0.307433
   1 C :   -0.295898
   2 C :   -0.301410
   3 C :   -0.454417
   4 S :    0.205133
   5 H :    0.116649
   6 H :    0.115247
   7 H :    0.117031
   8 H :    0.131683
   9 H :    0.131672
  10 H :    0.135691
  11 H :    0.137650
  12 H :    0.118729
  13 H :    0.120006
  14 H :    0.029668

  Mayer bond orders larger than 0.100000
B(  0-C ,  1-C ) :   0.9859 B(  0-C ,  5-H ) :   0.9847 B(  0-C ,  6-H ) :   0.9811
B(  0-C ,  7-H ) :   0.9795 B(  1-C ,  2-C ) :   0.9886 B(  1-C ,  8-H ) :   0.9696
B(  1-C ,  9-H ) :   0.9705 B(  2-C ,  3-C ) :   1.0052 B(  2-C , 10-H ) :   0.9706
B(  2-C , 11-H ) :   0.9654 B(  3-C ,  4-S ) :   1.0539 B(  3-C , 12-H ) :   0.9679
B(  3-C , 13-H ) :   0.9728 B(  4-S , 14-H ) :   0.9736

FINAL SINGLE POINT ENERGY      -556.594530184604

DIPOLE MOMENT
-------------

Method             : SCF
Type of density    : Electron Density
Multiplicity       :   1
Irrep              :   0
Energy             :  -556.6049528680040339 Eh
Relativity type    :
Basis              : AO
                                X                 Y                 Z
Electronic contribution:     -8.099464429      -2.002722423      -0.560815852
Nuclear contribution   :      8.257009020       2.592363527       0.757234001
                        -----------------------------------------
Total Dipole Moment    :      0.157544592       0.589641104       0.196418149
                        -----------------------------------------
Magnitude (a.u.)       :      0.641152883
Magnitude (Debye)      :      1.629681116

Rotational constants in cm-1:             0.307313             0.056452             0.050993
Rotational constants in MHz :          9213.010421          1692.377138          1528.733570

                             ****ORCA TERMINATED NORMALLY****
TOTAL RUN TIME: 0 days 0 hours 1 minutes 9 seconds 208 msec
