                         Program Version 6.0.0  -   RELEASE  -
|  1> ! wb97x-v def2-tzvp def2/J RIJCOSX DEFGRID2 scfconv7 GCP(DFT/TZ) printgap
|  2> %output
|  3>     printlevel normal
|  4> end
|  5> %cpcm
|  6>     smd true
|  7>     smdsolvent "water"
|  8> end
|  9> * xyz 0 1
| 10> C 2.83752051609057 -0.41951328542609057 -0.08357894743823538
| 11> C 1.3941349994832535 -0.3589134287771088 0.4078811798497946
| 12> C 0.6249778368766413 0.8030391204822477 -0.21905699164830011
| 13> C -0.7888627209953382 0.9850159135039751 0.3141779419532608
| 14> S -1.8337274457587065 -0.5022841573340635 -0.08405185773780245
| 15> H 3.3822391502931177 -1.2498018248354192 0.3766052028783269
| 16> H 3.3717767626309585 0.506886570492866 0.15533861968180263
| 17> H 2.8749891531947305 -0.5551847412043112 -1.1703840553388893
| 18> H 1.3752422711023404 -0.25392170525902924 1.500538097892911
| 19> H 0.8923449736338483 -1.3069760154627115 0.17659120935123948
| 20> H 0.5984730599698684 0.6854322030279493 -1.3102133050849458
| 21> H 1.1652722592789975 1.7376872871967084 -0.016868308141385943
| 22> H -0.7764994715395421 1.1216319453588521 1.3996998071441795
| 23> H -1.2615387937805813 1.8561076233414837 -0.14562158494405655
| 24> H -3.0166922172743225 0.05568941397290246 0.2312212370783255
| 25> *
| 26>
| 27>                          ****END OF INPUT****

CARTESIAN COORDINATES (ANGSTROEM)
---------------------------------
  C      2.837521   -0.419513   -0.083579
  C      1.394135   -0.358913    0.407881
  C      0.624978    0.803039   -0.219057
  C     -0.788863    0.985016    0.314178
  S     -1.833727   -0.502284   -0.084052
  H      3.382239   -1.249802    0.376605
  H      3.371777    0.506887    0.155339
  H      2.874989   -0.555185   -1.170384
  H      1.375242   -0.253922    1.500538
  H      0.892345   -1.306976    0.176591
  H      0.598473    0.685432   -1.310213
  H      1.165272    1.737687   -0.016868
  H     -0.776499    1.121632    1.399700
  H     -1.261539    1.856108   -0.145622
  H     -3.016692    0.055689    0.231221

 Total Charge           Charge          ....    0
 Multiplicity           Mult            ....    1
 Number of Electrons    NEL             ....   50
 Basis Dimension        Dim             ....  221

ORBITAL ENERGIES
----------------

  NO   OCC          E(Eh)            E(eV)
   0   2.0000     -94.115133     -2561.0030
   1   2.0000     -12.069738      -328.4343
   2   2.0000     -12.038842      -327.5936
   3   2.0000     -12.033676      -327.4530
   4   2.0000     -12.025292      -327.2248
   5   2.0000      -9.626575      -261.9524
   6   2.0000      -7.604139      -206.9191
   7   2.0000      -7.603151      -206.8923
   8   2.0000      -7.602841      -206.8838
   9   2.0000      -1.308822       -35.6149
  10   2.0000      -1.251213       -34.0472
  11   2.0000      -1.183523       -32.2053
  12   2.0000      -1.099101       -29.9081
  13   2.0000      -1.033601       -28.1257
  14   2.0000      -0.892137       -24.2763
  15   2.0000      -0.875505       -23.8237
  16   2.0000      -0.861126       -23.4324
  17   2.0000      -0.838137       -22.8069
  18   2.0000      -0.809235       -22.0204
  19   2.0000      -0.795329       -21.6420
  20   2.0000      -0.781483       -21.2652
  21   2.0000      -0.762371       -20.7452
  22   2.0000      -0.748314       -20.3627
  23   2.0000      -0.730309       -19.8727
  24   2.0000      -0.639173       -17.3928
  25   0.0000      -0.192591        -5.2407
  26   0.0000      -0.102716        -2.7951
  27   0.0000      -0.028203        -0.7674
  28   0.0000      -0.005813        -0.1582
  29   0.0000       0.004282         0.1165

MULLIKEN ATOMIC CHARGES
-----------------------
   0 C :   -0.383164
   1 C :   -0.185613
   2 C :   -0.200204
   3 C :   -0.181919
   4 S :   -0.307235
   5 H :    0.129289
   6 H :    0.120615
   7 H :    0.119853
   8 H :    0.103131
   9 H :    0.103826
  10 H :    0.110827
  11 H :    0.115422
  12 H :    0.137217
  13 H :    0.149101
  14 H :    0.168851
Sum of atomic charges:   -0.0000000

LOEWDIN ATOMIC CHARGES
----------------------
   0 C :   -0.313987
   1 C :   -0.299065
   2 C :   -0.300936
   3 C :   -0.448086
   4 S :    0.170102
   5 H :    0.117934
   6 H :    0.118421
   7 H :    0.118807
   8 H :    0.134433
   9 H :    0.128797
  10 H :    0.136171
  11 H :    0.143585
  12 H :    0.125013
  13 H :    0.127327
  14 H :    0.041484

  Mayer bond orders larger than 0.100000
B(  0-C ,  1-C ) :   0.9827 B(  0-C ,  5-H ) :   0.9814 B(  0-C ,  6-H ) :   0.9798
B(  0-C ,  7-H ) :   0.9776 B(  1-C ,  2-C ) :   0.9820 B(  1-C ,  8-H ) :   0.9692
B(  1-C ,  9-H ) :   0.9694 B(  2-C ,  3-C ) :   0.9987 B(  2-C , 10-H ) :   0.9704
B(  2-C , 11-H ) :   0.9616 B(  3-C ,  4-S ) :   1.0308 B(  3-C , 12-H ) :   0.9681
B(  3-C , 13-H ) :   0.9713 B(  4-S , 14-H ) :   0.9685

FINAL SINGLE POINT ENERGY      -556.595998668804

DIPOLE MOMENT
-------------

Method             : SCF
Type of density    : Electron Density
Multiplicity       :   1
Irrep              :   0
Energy             :  -556.6064213522040518 Eh
Relativity type    :
Basis              : AO
                                X                 Y                 Z
Electronic contribution:     -8.061217757      -1.739629130      -0.481625664
Nuclear contribution   :      8.257009020       2.592363527       0.757234001
                        -----------------------------------------
Total Dipole Moment    :      0.195791263       0.852734397       0.275608337
                        -----------------------------------------
Magnitude (a.u.)       :      0.917305906
Magnitude (Debye)      :      2.331606318

Rotational constants in cm-1:             0.307313             0.056452             0.050993
Rotational constants in MHz :          9213.010421          1692.377138          1528.733570

                             ****ORCA TERMINATED NORMALLY****
TOTAL RUN TIME: 0 days 0 hours 1 minutes 11 seconds 941 msec
