                         Program Version 6.0.0  -   RELEASE  -
|  1> ! pbe def2-sv(p) def2/J RI DEFGRID1 loosescf d4 GCP(DFT/SV(P)) printgap
|  2> %output
|  3>     printlevel normal
|  4> end
|  5> * xyz 0 1
|  6> C -2.3443321463 0.9950397408 -0.5430573037
|  7> C -1.804414306 0.1513294178 0.6158248682
|  8> C -0.5274814142 -0.521006229 0.1818783661
|  9> O -0.4701898749 -1.5856711154 -0.4000356835
| 10> O 0.5329344056 0.2125988134 0.4818065332
| 11> C 1.8375642602 -0.2416289855 0.0810167896
| 12> C 2.6664262401 0.9583255858 -0.3408482828
| 13> H -3.2840158354 1.4557977614 -0.2541973697
| 14> H -1.6353070612 1.7763640583 -0.8041975264
| 15> H -2.5135987579 0.3689233178 -1.415948012
| 16> H -2.5273353787 -0.6193367034 0.8810101711
| 17> H -1.5952174324 0.7864948922 1.4749917948
| 18> H 2.2848830594 -0.7466027502 0.9422706819
| 19> H 1.7190408884 -0.9644264193 -0.7324331595
| 20> H 3.6681431228 0.6290102689 -0.5965651684
| 21> H 2.2194033733 1.4421597454 -1.2048697656
| 22> H 2.7205256623 1.674628009 0.4737038658
| 23> *
| 24>
| 25>                          ****END OF INPUT****

CARTESIAN COORDINATES (ANGSTROEM)
---------------------------------
  C     -2.344332    0.995040   -0.543057
  C     -1.804414    0.151329    0.615825
  C     -0.527481   -0.521006    0.181878
  O     -0.470190   -1.585671   -0.400036
  O      0.532934    0.212599    0.481807
  C      1.837564   -0.241629    0.081017
  C      2.666426    0.958326   -0.340848
  H     -3.284016    1.455798   -0.254197
  H     -1.635307    1.776364   -0.804198
  H     -2.513599    0.368923   -1.415948
  H     -2.527335   -0.619337    0.881010
  H     -1.595217    0.786495    1.474992
  H      2.284883   -0.746603    0.942271
  H      1.719041   -0.964426   -0.732433
  H      3.668143    0.629010   -0.596565
  H      2.219403    1.442160   -1.204870
  H      2.720526    1.674628    0.473704

 Total Charge           Charge          ....    0
 Multiplicity           Mult            ....    1
 Number of Electrons    NEL             ....   56
 Basis Dimension        Dim             ....  118

ORBITAL ENERGIES
----------------

  NO   OCC          E(Eh)            E(eV)
   0   2.0000     -18.797159      -511.4967
   1   2.0000     -18.728263      -509.6219
   2   2.0000     -10.003207      -272.2011
   3   2.0000      -9.945512      -270.6311
   4   2.0000      -9.897880      -269.3350
   5   2.0000      -9.889752      -269.1138
   6   2.0000      -9.887816      -269.0612
   7   2.0000      -1.003268       -27.3003
   8   2.0000      -0.905959       -24.6524
   9   2.0000      -0.722050       -19.6480
  10   2.0000      -0.689575       -18.7643
  11   2.0000      -0.603561       -16.4237
  12   2.0000      -0.559948       -15.2370
  13   2.0000      -0.504392       -13.7252
  14   2.0000      -0.444049       -12.0832
  15   2.0000      -0.442552       -12.0424
  16   2.0000      -0.417105       -11.3500
  17   2.0000      -0.387049       -10.5321
  18   2.0000      -0.382364       -10.4047
  19   2.0000      -0.369016       -10.0414
  20   2.0000      -0.358291        -9.7496
  21   2.0000      -0.336586        -9.1590
  22   2.0000      -0.327055        -8.8996
  23   2.0000      -0.315430        -8.5833
  24   2.0000      -0.311303        -8.4710
  25   2.0000      -0.290314        -7.8999
  26   2.0000      -0.253360        -6.8943
  27   2.0000      -0.213979        -5.8227
  28   0.0000      -0.017773        -0.4836
  29   0.0000       0.038847         1.0571
  30   0.0000       0.059041         1.6066
  31   0.0000       0.077428         2.1069
  32   0.0000       0.089845         2.4448

MULLIKEN ATOMIC CHARGES
-----------------------
   0 C :   -0.302417
   1 C :   -0.134213
   2 C :    0.096452
   3 O :   -0.212787
   4 O :   -0.243927
   5 C :   -0.027667
   6 C :   -0.282847
   7 H :    0.116226
   8 H :    0.109649
   9 H :    0.118751
  10 H :    0.106485
  11 H :    0.099254
  12 H :    0.103618
  13 H :    0.115032
  14 H :    0.111544
  15 H :    0.112868
  16 H :    0.113980
Sum of atomic charges:    0.0000000

LOEWDIN ATOMIC CHARGES
----------------------
   0 C :   -0.330005
   1 C :   -0.249408
   2 C :    0.035125
   3 O :   -0.174192
   4 O :   -0.070556
   5 C :   -0.112092
   6 C :   -0.351124
   7 H :    0.123782
   8 H :    0.121272
   9 H :    0.125962
  10 H :    0.135443
  11 H :    0.129247
  12 H :    0.116249
  13 H :    0.119584
  14 H :    0.129962
  15 H :    0.125309
  16 H :    0.125442

  Mayer bond orders larger than 0.100000
B(  0-C ,  1-C ) :   1.1412 B(  0-C ,  7-H ) :   0.9526 B(  0-C ,  8-H ) :   0.9543
B(  0-C ,  9-H ) :   0.9527 B(  1-C ,  2-C ) :   1.0218 B(  1-C , 10-H ) :   0.9103
B(  1-C , 11-H ) :   0.9095 B(  2-C ,  3-O ) :   2.0590 B(  2-C ,  4-O ) :   1.2031
B(  4-O ,  5-C ) :   0.9125 B(  5-C ,  6-C ) :   1.1599 B(  5-C , 12-H ) :   0.9366
B(  5-C , 13-H ) :   0.9120 B(  6-C , 14-H ) :   0.9448 B(  6-C , 15-H ) :   0.9524
B(  6-C , 16-H ) :   0.9489

Dispersion correction           -0.011701471
FINAL SINGLE POINT ENERGY      -346.243400196661

DIPOLE MOMENT
-------------

Method             : SCF
Type of density    : Electron Density
Multiplicity       :   1
Irrep              :   0
Energy             :  -346.3079482636170496 Eh
Relativity type    :
Basis              : AO
                                X                 Y                 Z
Electronic contribution:     -0.685856015      -4.722542136       1.375996833
Nuclear contribution   :      0.992124211       5.423838312      -1.158582303
                        -----------------------------------------
Total Dipole Moment    :      0.306268196       0.701296176       0.217414530
                        -----------------------------------------
Magnitude (a.u.)       :      0.795541082
Magnitude (Debye)      :      2.022104730

Rotational constants in cm-1:             0.158427             0.050861             0.043543
Rotational constants in MHz :          4749.523413          1524.776651          1305.396741

                             ****ORCA TERMINATED NORMALLY****
TOTAL RUN TIME: 0 days 0 hours 0 minutes 8 seconds 805 msec
