                         Program Version 6.0.0  -   RELEASE  -
|  1> ! pbe def2-sv(p) def2/J RI DEFGRID1 loosescf d4 GCP(DFT/SV(P)) printgap
|  2> %output
|  3>     printlevel normal
|  4> end
|  5> * xyz 0 1
|  6> C -2.3982737929 -0.7488955386 -0.109339614
|  7> C -1.7412778719 0.5571648517 0.321227142
|  8> C -0.4421510127 0.902590765 -0.4126903519
|  9> C 0.7965472109 0.0501991801 -0.0540268132
| 10> C 2.0598722868 0.8880077921 -0.3091114513
| 11> C 0.8794630537 -1.2265613743 -0.9015194197
| 12> O 0.7093179521 -0.2760301922 1.3288075564
| 13> H -2.4639683172 -0.808513657 -1.1936359162
| 14> H -3.4046205329 -0.8084020779 0.2997172886
| 15> H -1.8395319523 -1.6044066424 0.2588893739
| 16> H -2.4417831206 1.3755512569 0.1378088485
| 17> H -1.5385506886 0.5240119921 1.3922020283
| 18> H -0.6028885803 0.8415289066 -1.4899013214
| 19> H -0.2070141873 1.9406648519 -0.1683541742
| 20> H 2.9553237446 0.2913295079 -0.1467932602
| 21> H 2.0824699483 1.7393742115 0.3674016096
| 22> H 2.0663678249 1.2515686854 -1.3325164465
| 23> H 0.8883669304 -0.9721534332 -1.9572762006
| 24> H 0.0342969336 -1.8774528971 -0.7051030558
| 25> H 1.7939867379 -1.7703053976 -0.6709078504
| 26> H 1.4973526722 -0.7760329461 1.5786670569
| 27> *
| 28>
| 29>                          ****END OF INPUT****

CARTESIAN COORDINATES (ANGSTROEM)
---------------------------------
  C     -2.398274   -0.748896   -0.109340
  C     -1.741278    0.557165    0.321227
  C     -0.442151    0.902591   -0.412690
  C      0.796547    0.050199   -0.054027
  C      2.059872    0.888008   -0.309111
  C      0.879463   -1.226561   -0.901519
  O      0.709318   -0.276030    1.328808
  H     -2.463968   -0.808514   -1.193636
  H     -3.404621   -0.808402    0.299717
  H     -1.839532   -1.604407    0.258889
  H     -2.441783    1.375551    0.137809
  H     -1.538551    0.524012    1.392202
  H     -0.602889    0.841529   -1.489901
  H     -0.207014    1.940665   -0.168354
  H      2.955324    0.291330   -0.146793
  H      2.082470    1.739374    0.367402
  H      2.066368    1.251569   -1.332516
  H      0.888367   -0.972153   -1.957276
  H      0.034297   -1.877453   -0.705103
  H      1.793987   -1.770305   -0.670908
  H      1.497353   -0.776033    1.578667

 Total Charge           Charge          ....    0
 Multiplicity           Mult            ....    1
 Number of Electrons    NEL             ....   58
 Basis Dimension        Dim             ....  126

ORBITAL ENERGIES
----------------

  NO   OCC          E(Eh)            E(eV)
   0   2.0000     -18.739252      -509.9210
   1   2.0000      -9.945936      -270.6427
   2   2.0000      -9.877112      -268.7699
   3   2.0000      -9.872483      -268.6439
   4   2.0000      -9.872165      -268.6353
   5   2.0000      -9.872016      -268.6312
   6   2.0000      -9.864384      -268.4235
   7   2.0000      -0.918204       -24.9856
   8   2.0000      -0.717705       -19.5298
   9   2.0000      -0.676641       -18.4123
  10   2.0000      -0.617214       -16.7952
  11   2.0000      -0.604645       -16.4532
  12   2.0000      -0.530340       -14.4313
  13   2.0000      -0.500436       -13.6175
  14   2.0000      -0.432103       -11.7581
  15   2.0000      -0.408013       -11.1026
  16   2.0000      -0.404299       -11.0015
  17   2.0000      -0.380029       -10.3411
  18   2.0000      -0.362825        -9.8730
  19   2.0000      -0.360505        -9.8098
  20   2.0000      -0.345381        -9.3983
  21   2.0000      -0.335848        -9.1389
  22   2.0000      -0.321142        -8.7387
  23   2.0000      -0.308092        -8.3836
  24   2.0000      -0.291229        -7.9248
  25   2.0000      -0.279241        -7.5985
  26   2.0000      -0.276866        -7.5339
  27   2.0000      -0.257565        -7.0087
  28   2.0000      -0.211528        -5.7560
  29   0.0000       0.018897         0.5142
  30   0.0000       0.059314         1.6140
  31   0.0000       0.073246         1.9931
  32   0.0000       0.074844         2.0366
  33   0.0000       0.078252         2.1293

MULLIKEN ATOMIC CHARGES
-----------------------
   0 C :   -0.291908
   1 C :   -0.156461
   2 C :   -0.132635
   3 C :   -0.034826
   4 C :   -0.227234
   5 C :   -0.223425
   6 O :   -0.421915
   7 H :    0.089851
   8 H :    0.096500
   9 H :    0.118231
  10 H :    0.076813
  11 H :    0.101046
  12 H :    0.075295
  13 H :    0.073620
  14 H :    0.082179
  15 H :    0.104956
  16 H :    0.095918
  17 H :    0.092521
  18 H :    0.108529
  19 H :    0.080386
  20 H :    0.292560
Sum of atomic charges:    0.0000000

LOEWDIN ATOMIC CHARGES
----------------------
   0 C :   -0.344633
   1 C :   -0.234124
   2 C :   -0.216771
   3 C :   -0.013774
   4 C :   -0.339423
   5 C :   -0.340369
   6 O :   -0.316459
   7 H :    0.112308
   8 H :    0.118039
   9 H :    0.117067
  10 H :    0.113671
  11 H :    0.123363
  12 H :    0.116268
  13 H :    0.118173
  14 H :    0.109846
  15 H :    0.119904
  16 H :    0.122187
  17 H :    0.121354
  18 H :    0.121632
  19 H :    0.110777
  20 H :    0.280967

  Mayer bond orders larger than 0.100000
B(  0-C ,  1-C ) :   1.1605 B(  0-C ,  7-H ) :   0.9537 B(  0-C ,  8-H ) :   0.9481
B(  0-C ,  9-H ) :   0.9413 B(  1-C ,  2-C ) :   1.1451 B(  1-C , 10-H ) :   0.9246
B(  1-C , 11-H ) :   0.9119 B(  2-C ,  3-C ) :   1.0328 B(  2-C , 12-H ) :   0.9158
B(  2-C , 13-H ) :   0.9100 B(  3-C ,  4-C ) :   1.0892 B(  3-C ,  5-C ) :   1.0904
B(  3-C ,  6-O ) :   1.0152 B(  4-C , 14-H ) :   0.9414 B(  4-C , 15-H ) :   0.9385
B(  4-C , 16-H ) :   0.9407 B(  5-C , 17-H ) :   0.9374 B(  5-C , 18-H ) :   0.9343
B(  5-C , 19-H ) :   0.9384 B(  6-O , 20-H ) :   0.8527

Dispersion correction           -0.017077198
FINAL SINGLE POINT ENERGY      -311.518086466355

DIPOLE MOMENT
-------------

Method             : SCF
Type of density    : Electron Density
Multiplicity       :   1
Irrep              :   0
Energy             :  -311.5972844679889704 Eh
Relativity type    :
Basis              : AO
                                X                 Y                 Z
Electronic contribution:      1.546329735       0.465745668       3.163472790
Nuclear contribution   :     -1.096686836      -0.616940242      -3.385627405
                        -----------------------------------------
Total Dipole Moment    :      0.449642898      -0.151194575      -0.222154615
                        -----------------------------------------
Magnitude (a.u.)       :      0.523823642
Magnitude (Debye)      :      1.331453887

Rotational constants in cm-1:             0.131094             0.057127             0.053997
Rotational constants in MHz :          3930.093673          1712.626127          1618.782632

                             ****ORCA TERMINATED NORMALLY****
TOTAL RUN TIME: 0 days 0 hours 0 minutes 8 seconds 464 msec
