                         Program Version 6.0.0  -   RELEASE  -
|  1> ! pbe def2-sv(p) def2/J RI DEFGRID1 loosescf d4 GCP(DFT/SV(P)) printgap
|  2> %output
|  3>     printlevel normal
|  4> end
|  5> * xyz 0 1
|  6> C -2.7877420644 0.226190386 0.0235445293
|  7> C -1.3882109934 -0.1865324916 -0.4125749958
|  8> C -0.3185860901 0.3963604807 0.5208701835
|  9> C 1.0424907488 -0.09477306 0.1126183668
| 10> O 1.4016542985 -1.2528693141 0.1600734256
| 11> O 1.8232535227 0.8728629489 -0.3401749594
| 12> H -2.8844452519 1.3087621928 0.0181332633
| 13> H -2.9961843333 -0.1347967206 1.0273315521
| 14> H -3.5287212228 -0.1900291146 -0.6534393499
| 15> H -1.2987283068 -1.2747160465 -0.4078069242
| 16> H -1.2035168991 0.1616493879 -1.4308348414
| 17> H -0.3293403265 1.4847142776 0.4846177108
| 18> H -0.5133959264 0.0580042801 1.539547866
| 19> H 2.6992130293 0.5520712854 -0.6317232108
| 20> *
| 21>
| 22>                          ****END OF INPUT****

CARTESIAN COORDINATES (ANGSTROEM)
---------------------------------
  C     -2.787742    0.226190    0.023545
  C     -1.388211   -0.186532   -0.412575
  C     -0.318586    0.396360    0.520870
  C      1.042491   -0.094773    0.112618
  O      1.401654   -1.252869    0.160073
  O      1.823254    0.872863   -0.340175
  H     -2.884445    1.308762    0.018133
  H     -2.996184   -0.134797    1.027332
  H     -3.528721   -0.190029   -0.653439
  H     -1.298728   -1.274716   -0.407807
  H     -1.203517    0.161649   -1.430835
  H     -0.329340    1.484714    0.484618
  H     -0.513396    0.058004    1.539548
  H      2.699213    0.552071   -0.631723

 Total Charge           Charge          ....    0
 Multiplicity           Mult            ....    1
 Number of Electrons    NEL             ....   48
 Basis Dimension        Dim             ....  100

ORBITAL ENERGIES
----------------

  NO   OCC          E(Eh)            E(eV)
   0   2.0000     -18.798381      -511.5299
   1   2.0000     -18.734424      -509.7896
   2   2.0000     -10.008913      -272.3564
   3   2.0000      -9.898383      -269.3487
   4   2.0000      -9.895726      -269.2764
   5   2.0000      -9.880697      -268.8674
   6   2.0000      -1.006899       -27.3991
   7   2.0000      -0.907605       -24.6972
   8   2.0000      -0.725686       -19.7469
   9   2.0000      -0.649959       -17.6863
  10   2.0000      -0.572958       -15.5910
  11   2.0000      -0.527619       -14.3572
  12   2.0000      -0.440848       -11.9961
  13   2.0000      -0.426639       -11.6094
  14   2.0000      -0.408621       -11.1192
  15   2.0000      -0.401707       -10.9310
  16   2.0000      -0.367918       -10.0115
  17   2.0000      -0.346818        -9.4374
  18   2.0000      -0.340281        -9.2595
  19   2.0000      -0.310866        -8.4591
  20   2.0000      -0.304670        -8.2905
  21   2.0000      -0.298334        -8.1181
  22   2.0000      -0.268995        -7.3197
  23   2.0000      -0.218689        -5.9508
  24   0.0000      -0.020339        -0.5535
  25   0.0000       0.024784         0.6744
  26   0.0000       0.046713         1.2711
  27   0.0000       0.077374         2.1055
  28   0.0000       0.081895         2.2285

MULLIKEN ATOMIC CHARGES
-----------------------
   0 C :   -0.250670
   1 C :   -0.231216
   2 C :   -0.153829
   3 C :    0.084843
   4 O :   -0.201808
   5 O :   -0.284854
   6 H :    0.099740
   7 H :    0.101199
   8 H :    0.108550
   9 H :    0.110871
  10 H :    0.096976
  11 H :    0.096057
  12 H :    0.111223
  13 H :    0.312917
Sum of atomic charges:   -0.0000000

LOEWDIN ATOMIC CHARGES
----------------------
   0 C :   -0.339471
   1 C :   -0.224886
   2 C :   -0.245557
   3 C :    0.024681
   4 O :   -0.178897
   5 O :   -0.204836
   6 H :    0.118156
   7 H :    0.119238
   8 H :    0.122666
   9 H :    0.124563
  10 H :    0.119244
  11 H :    0.128547
  12 H :    0.140072
  13 H :    0.296479

  Mayer bond orders larger than 0.100000
B(  0-C ,  1-C ) :   1.1583 B(  0-C ,  6-H ) :   0.9529 B(  0-C ,  7-H ) :   0.9540
B(  0-C ,  8-H ) :   0.9521 B(  1-C ,  2-C ) :   1.1241 B(  1-C ,  9-H ) :   0.9229
B(  1-C , 10-H ) :   0.9306 B(  2-C ,  3-C ) :   1.0088 B(  2-C , 11-H ) :   0.9082
B(  2-C , 12-H ) :   0.8994 B(  3-C ,  4-O ) :   2.0953 B(  3-C ,  5-O ) :   1.2834
B(  5-O , 13-H ) :   0.8210

Dispersion correction           -0.009127252
FINAL SINGLE POINT ENERGY      -307.032472261340

DIPOLE MOMENT
-------------

Method             : SCF
Type of density    : Electron Density
Multiplicity       :   1
Irrep              :   0
Energy             :  -307.0873457011546179 Eh
Relativity type    :
Basis              : AO
                                X                 Y                 Z
Electronic contribution:      9.293513724      -1.227279136      -0.105909918
Nuclear contribution   :     -9.385541013       1.838484570      -0.053499766
                        -----------------------------------------
Total Dipole Moment    :     -0.092027288       0.611205435      -0.159409685
                        -----------------------------------------
Magnitude (a.u.)       :      0.638320102
Magnitude (Debye)      :      1.622480759

Rotational constants in cm-1:             0.279613             0.062271             0.055625
Rotational constants in MHz :          8382.594266          1866.825888          1667.597583

                             ****ORCA TERMINATED NORMALLY****
TOTAL RUN TIME: 0 days 0 hours 0 minutes 6 seconds 691 msec
