                         Program Version 6.0.0  -   RELEASE  -
|  1> ! pbe def2-sv(p) def2/J RI DEFGRID1 loosescf d4 GCP(DFT/SV(P)) printgap
|  2> %output
|  3>     printlevel normal
|  4> end
|  5> * xyz 0 1
|  6> C -1.7772444806 0.8575946116 -0.1650329896
|  7> C -1.2905700112 -0.5848278397 -0.0663820583
|  8> C 0.0735541185 -0.7553407954 0.6142331655
|  9> O 1.1909454221 -0.4720047558 -0.2143342028
| 10> C 1.6749369433 0.8532642509 -0.1655564246
| 11> H -1.7296694109 1.3440022155 0.8069032284
| 12> H -1.1804880159 1.4291641321 -0.8706794654
| 13> H -2.809086874 0.8757690586 -0.5077911322
| 14> H -1.2300906861 -1.0252052675 -1.0630181914
| 15> H -2.0127879205 -1.1613789857 0.5144672682
| 16> H 0.1221937869 -0.1494971962 1.5281015358
| 17> H 0.1980369243 -1.8081578819 0.8868846219
| 18> H 1.8633437045 1.1619338186 0.8683179534
| 19> H 0.9842230026 1.5613738186 -0.6301422348
| 20> H 2.6112289017 0.8471103666 -0.7197548235
| 21> *
| 22>
| 23>                          ****END OF INPUT****

CARTESIAN COORDINATES (ANGSTROEM)
---------------------------------
  C     -1.777244    0.857595   -0.165033
  C     -1.290570   -0.584828   -0.066382
  C      0.073554   -0.755341    0.614233
  O      1.190945   -0.472005   -0.214334
  C      1.674937    0.853264   -0.165556
  H     -1.729669    1.344002    0.806903
  H     -1.180488    1.429164   -0.870679
  H     -2.809087    0.875769   -0.507791
  H     -1.230091   -1.025205   -1.063018
  H     -2.012788   -1.161379    0.514467
  H      0.122194   -0.149497    1.528102
  H      0.198037   -1.808158    0.886885
  H      1.863344    1.161934    0.868318
  H      0.984223    1.561374   -0.630142
  H      2.611229    0.847110   -0.719755

 Total Charge           Charge          ....    0
 Multiplicity           Mult            ....    1
 Number of Electrons    NEL             ....   42
 Basis Dimension        Dim             ....   90

ORBITAL ENERGIES
----------------

  NO   OCC          E(Eh)            E(eV)
   0   2.0000     -18.745514      -510.0914
   1   2.0000      -9.925623      -270.0899
   2   2.0000      -9.920844      -269.9599
   3   2.0000      -9.883218      -268.9360
   4   2.0000      -9.876222      -268.7457
   5   2.0000      -0.923590       -25.1322
   6   2.0000      -0.701721       -19.0948
   7   2.0000      -0.637274       -17.3411
   8   2.0000      -0.573188       -15.5972
   9   2.0000      -0.517466       -14.0810
  10   2.0000      -0.439551       -11.9608
  11   2.0000      -0.423353       -11.5200
  12   2.0000      -0.405969       -11.0470
  13   2.0000      -0.379196       -10.3184
  14   2.0000      -0.366444        -9.9715
  15   2.0000      -0.346419        -9.4265
  16   2.0000      -0.319797        -8.7021
  17   2.0000      -0.299966        -8.1625
  18   2.0000      -0.295808        -8.0493
  19   2.0000      -0.255906        -6.9636
  20   2.0000      -0.197216        -5.3665
  21   0.0000       0.036500         0.9932
  22   0.0000       0.064799         1.7633
  23   0.0000       0.070979         1.9314
  24   0.0000       0.085857         2.3363
  25   0.0000       0.098782         2.6880

MULLIKEN ATOMIC CHARGES
-----------------------
   0 C :   -0.298308
   1 C :   -0.190916
   2 C :    0.013778
   3 O :   -0.344604
   4 C :   -0.110424
   5 H :    0.097003
   6 H :    0.117655
   7 H :    0.104471
   8 H :    0.095721
   9 H :    0.082699
  10 H :    0.061837
  11 H :    0.085676
  12 H :    0.084584
  13 H :    0.089202
  14 H :    0.111628
Sum of atomic charges:    0.0000000

LOEWDIN ATOMIC CHARGES
----------------------
   0 C :   -0.345449
   1 C :   -0.254565
   2 C :   -0.110671
   3 O :   -0.186425
   4 C :   -0.207801
   5 H :    0.115363
   6 H :    0.118439
   7 H :    0.120596
   8 H :    0.122597
   9 H :    0.119362
  10 H :    0.094474
  11 H :    0.109903
  12 H :    0.096052
  13 H :    0.093719
  14 H :    0.114406

  Mayer bond orders larger than 0.100000
B(  0-C ,  1-C ) :   1.1492 B(  0-C ,  5-H ) :   0.9565 B(  0-C ,  6-H ) :   0.9464
B(  0-C ,  7-H ) :   0.9507 B(  1-C ,  2-C ) :   1.1082 B(  1-C ,  8-H ) :   0.9198
B(  1-C ,  9-H ) :   0.9186 B(  2-C ,  3-O ) :   1.0339 B(  2-C , 10-H ) :   0.9140
B(  2-C , 11-H ) :   0.9342 B(  3-O ,  4-C ) :   1.0270 B(  4-C , 12-H ) :   0.9431
B(  4-C , 13-H ) :   0.9334 B(  4-C , 14-H ) :   0.9632

Dispersion correction           -0.009363884
FINAL SINGLE POINT ENERGY      -233.081001357303

DIPOLE MOMENT
-------------

Method             : SCF
Type of density    : Electron Density
Multiplicity       :   1
Irrep              :   0
Energy             :  -233.1396322842942084 Eh
Relativity type    :
Basis              : AO
                                X                 Y                 Z
Electronic contribution:      2.742338067      -2.552246758      -0.536206371
Nuclear contribution   :     -2.968563690       2.877959150       0.759814098
                        -----------------------------------------
Total Dipole Moment    :     -0.226225623       0.325712392       0.223607727
                        -----------------------------------------
Magnitude (a.u.)       :      0.455265868
Magnitude (Debye)      :      1.157193873

Rotational constants in cm-1:             0.276821             0.108622             0.087198
Rotational constants in MHz :          8298.892617          3256.403523          2614.123051

                             ****ORCA TERMINATED NORMALLY****
TOTAL RUN TIME: 0 days 0 hours 0 minutes 6 seconds 699 msec
