                         Program Version 6.0.0  -   RELEASE  -
|  1> ! pbe def2-sv(p) def2/J RI DEFGRID1 loosescf d4 GCP(DFT/SV(P)) printgap
|  2> %output
|  3>     printlevel normal
|  4> end
|  5> * xyz 0 1
|  6> C 1.9796171173 -1.0002311308 0.2518885712
|  7> C 1.2287229784 0.1592888838 0.8986352249
|  8> C 0.1692231844 0.8365071208 0.0125603818
|  9> H -0.0489046853 1.8116925565 0.4862922072
| 10> C -1.1940254418 0.1198639275 -0.1296593009
| 11> C -1.1046162292 -1.2444188265 -0.8095952647
| 12> C -1.9175360776 0.011923722 1.2103210582
| 13> O 0.7574132712 1.0724926549 -1.2563453216
| 14> H 2.8448684093 -1.2543188991 0.859781951
| 15> H 2.3232755991 -0.7079547429 -0.7364822213
| 16> H 1.3582813855 -1.8838653072 0.1576655506
| 17> H 0.7572841769 -0.1628519116 1.8262827998
| 18> H 1.9607255261 0.9307949235 1.1486474572
| 19> H -1.7946912888 0.7728531153 -0.7779462767
| 20> H -0.4105082854 -1.2053694279 -1.6452121666
| 21> H -0.7706810751 -2.0041443235 -0.1088352754
| 22> H -2.0833389925 -1.5377648872 -1.1828175054
| 23> H -2.9306696311 -0.3494250699 1.0527549731
| 24> H -1.9684765591 0.9810816434 1.7014841476
| 25> H -1.4094085035 -0.6851667759 1.8714112009
| 26> H 0.1427176716 1.5816148049 -1.8003751574
| 27> *
| 28>
| 29>                          ****END OF INPUT****

CARTESIAN COORDINATES (ANGSTROEM)
---------------------------------
  C      1.979617   -1.000231    0.251889
  C      1.228723    0.159289    0.898635
  C      0.169223    0.836507    0.012560
  H     -0.048905    1.811693    0.486292
  C     -1.194025    0.119864   -0.129659
  C     -1.104616   -1.244419   -0.809595
  C     -1.917536    0.011924    1.210321
  O      0.757413    1.072493   -1.256345
  H      2.844868   -1.254319    0.859782
  H      2.323276   -0.707955   -0.736482
  H      1.358281   -1.883865    0.157666
  H      0.757284   -0.162852    1.826283
  H      1.960726    0.930795    1.148647
  H     -1.794691    0.772853   -0.777946
  H     -0.410508   -1.205369   -1.645212
  H     -0.770681   -2.004144   -0.108835
  H     -2.083339   -1.537765   -1.182818
  H     -2.930670   -0.349425    1.052755
  H     -1.968477    0.981082    1.701484
  H     -1.409409   -0.685167    1.871411
  H      0.142718    1.581615   -1.800375

 Total Charge           Charge          ....    0
 Multiplicity           Mult            ....    1
 Number of Electrons    NEL             ....   58
 Basis Dimension        Dim             ....  126

ORBITAL ENERGIES
----------------

  NO   OCC          E(Eh)            E(eV)
   0   2.0000     -18.740440      -509.9533
   1   2.0000      -9.932582      -270.2793
   2   2.0000      -9.894007      -269.2296
   3   2.0000      -9.879057      -268.8228
   4   2.0000      -9.875434      -268.7242
   5   2.0000      -9.868344      -268.5313
   6   2.0000      -9.861844      -268.3544
   7   2.0000      -0.917644       -24.9704
   8   2.0000      -0.724311       -19.7095
   9   2.0000      -0.679256       -18.4835
  10   2.0000      -0.612139       -16.6571
  11   2.0000      -0.597384       -16.2556
  12   2.0000      -0.532871       -14.5002
  13   2.0000      -0.496420       -13.5083
  14   2.0000      -0.446434       -12.1481
  15   2.0000      -0.429846       -11.6967
  16   2.0000      -0.393484       -10.7073
  17   2.0000      -0.375055       -10.2058
  18   2.0000      -0.368562       -10.0291
  19   2.0000      -0.354071        -9.6348
  20   2.0000      -0.341241        -9.2856
  21   2.0000      -0.328510        -8.9392
  22   2.0000      -0.317989        -8.6529
  23   2.0000      -0.301366        -8.2006
  24   2.0000      -0.297964        -8.1080
  25   2.0000      -0.282364        -7.6835
  26   2.0000      -0.280371        -7.6293
  27   2.0000      -0.257374        -7.0035
  28   2.0000      -0.210366        -5.7244
  29   0.0000       0.018910         0.5146
  30   0.0000       0.048505         1.3199
  31   0.0000       0.063648         1.7319
  32   0.0000       0.071138         1.9358
  33   0.0000       0.085226         2.3191

MULLIKEN ATOMIC CHARGES
-----------------------
   0 C :   -0.281052
   1 C :   -0.170707
   2 C :    0.062478
   3 H :    0.049941
   4 C :   -0.184864
   5 C :   -0.242085
   6 C :   -0.258456
   7 O :   -0.416987
   8 H :    0.095853
   9 H :    0.117220
  10 H :    0.097944
  11 H :    0.086456
  12 H :    0.084861
  13 H :    0.053306
  14 H :    0.105464
  15 H :    0.106297
  16 H :    0.093835
  17 H :    0.099868
  18 H :    0.097247
  19 H :    0.107664
  20 H :    0.295717
Sum of atomic charges:    0.0000000

LOEWDIN ATOMIC CHARGES
----------------------
   0 C :   -0.346100
   1 C :   -0.235078
   2 C :   -0.046477
   3 H :    0.093967
   4 C :   -0.170620
   5 C :   -0.334897
   6 C :   -0.330475
   7 O :   -0.325141
   8 H :    0.117258
   9 H :    0.125683
  10 H :    0.114322
  11 H :    0.118397
  12 H :    0.121705
  13 H :    0.107144
  14 H :    0.119742
  15 H :    0.116441
  16 H :    0.117434
  17 H :    0.120693
  18 H :    0.116331
  19 H :    0.117453
  20 H :    0.282218

  Mayer bond orders larger than 0.100000
B(  0-C ,  1-C ) :   1.1687 B(  0-C ,  8-H ) :   0.9495 B(  0-C ,  9-H ) :   0.9430
B(  0-C , 10-H ) :   0.9452 B(  1-C ,  2-C ) :   1.0716 B(  1-C , 11-H ) :   0.9216
B(  1-C , 12-H ) :   0.9147 B(  2-C ,  3-H ) :   0.9004 B(  2-C ,  4-C ) :   1.0293
B(  2-C ,  7-O ) :   1.0453 B(  4-C ,  5-C ) :   1.1163 B(  4-C ,  6-C ) :   1.1023
B(  4-C , 13-H ) :   0.8914 B(  5-C , 14-H ) :   0.9359 B(  5-C , 15-H ) :   0.9406
B(  5-C , 16-H ) :   0.9456 B(  6-C , 17-H ) :   0.9466 B(  6-C , 18-H ) :   0.9479
B(  6-C , 19-H ) :   0.9412 B(  7-O , 20-H ) :   0.8485

Dispersion correction           -0.017290208
FINAL SINGLE POINT ENERGY      -311.515168012337

DIPOLE MOMENT
-------------

Method             : SCF
Type of density    : Electron Density
Multiplicity       :   1
Irrep              :   0
Energy             :  -311.5946052615949498 Eh
Relativity type    :
Basis              : AO
                                X                 Y                 Z
Electronic contribution:      1.366938730       3.706903432      -2.610655948
Nuclear contribution   :     -1.892786949      -3.467319796       2.657608686
                        -----------------------------------------
Total Dipole Moment    :     -0.525848219       0.239583636       0.046952739
                        -----------------------------------------
Magnitude (a.u.)       :      0.579759629
Magnitude (Debye)      :      1.473631865

Rotational constants in cm-1:             0.104031             0.063028             0.059192
Rotational constants in MHz :          3118.765404          1889.532355          1774.519540

                             ****ORCA TERMINATED NORMALLY****
TOTAL RUN TIME: 0 days 0 hours 0 minutes 9 seconds 627 msec
