                         Program Version 6.0.0  -   RELEASE  -
|  1> ! r2scan-3c def2/J RI DEFGRID2 scfconv6 printgap
|  2> %output
|  3>     printlevel normal
|  4> end
|  5> * xyz 0 1
|  6> C -1.3596159655 -0.4410292696 -0.3332659796
|  7> C 0.007712912 -0.0623971215 0.2510266137
|  8> C 1.1384445654 -0.8017072544 -0.4844941873
|  9> O 2.3913027687 -0.5309895262 0.0962067646
| 10> O 0.2349743629 1.3316492482 0.2151439552
| 11> O -2.4155641593 0.3153011365 0.206083269
| 12> H -1.5275840232 -1.515260825 -0.1870677116
| 13> H -1.3716817371 -0.2309463989 -1.4064905784
| 14> H 0.0525712949 -0.3272006432 1.314121794
| 15> H 1.141228476 -0.5073036598 -1.5437756554
| 16> H 0.9920874412 -1.8806809098 -0.4181911973
| 17> H 2.4501819024 0.4262868578 0.2434869545
| 18> H -0.0849065192 1.687541743 -0.6260349137
| 19> H -2.4530239229 0.1856370368 1.1637971545
| 20> *
| 21>
| 22>                          ****END OF INPUT****

CARTESIAN COORDINATES (ANGSTROEM)
---------------------------------
  C     -1.359616   -0.441029   -0.333266
  C      0.007713   -0.062397    0.251027
  C      1.138445   -0.801707   -0.484494
  O      2.391303   -0.530990    0.096207
  O      0.234974    1.331649    0.215144
  O     -2.415564    0.315301    0.206083
  H     -1.527584   -1.515261   -0.187068
  H     -1.371682   -0.230946   -1.406491
  H      0.052571   -0.327201    1.314122
  H      1.141228   -0.507304   -1.543776
  H      0.992087   -1.880681   -0.418191
  H      2.450182    0.426287    0.243487
  H     -0.084907    1.687542   -0.626035
  H     -2.453024    0.185637    1.163797

 Total Charge           Charge          ....    0
 Multiplicity           Mult            ....    1
 Number of Electrons    NEL             ....   50
 Basis Dimension        Dim             ....  169

ORBITAL ENERGIES
----------------

  NO   OCC          E(Eh)            E(eV)
   0   2.0000     -18.963788      -516.0309
   1   2.0000     -18.960288      -515.9357
   2   2.0000     -18.947815      -515.5962
   3   2.0000     -10.092222      -274.6233
   4   2.0000     -10.091154      -274.5943
   5   2.0000     -10.081715      -274.3374
   6   2.0000      -1.013760       -27.5858
   7   2.0000      -0.993523       -27.0351
   8   2.0000      -0.979077       -26.6420
   9   2.0000      -0.734066       -19.9749
  10   2.0000      -0.644495       -17.5376
  11   2.0000      -0.595273       -16.1982
  12   2.0000      -0.503513       -13.7013
  13   2.0000      -0.486975       -13.2513
  14   2.0000      -0.451340       -12.2816
  15   2.0000      -0.442484       -12.0406
  16   2.0000      -0.420072       -11.4307
  17   2.0000      -0.405328       -11.0295
  18   2.0000      -0.367881       -10.0105
  19   2.0000      -0.337157        -9.1745
  20   2.0000      -0.309534        -8.4228
  21   2.0000      -0.306442        -8.3387
  22   2.0000      -0.265209        -7.2167
  23   2.0000      -0.251768        -6.8510
  24   2.0000      -0.229116        -6.2346
  25   0.0000       0.041460         1.1282
  26   0.0000       0.062620         1.7040
  27   0.0000       0.078013         2.1228
  28   0.0000       0.100585         2.7371
  29   0.0000       0.111101         3.0232

MULLIKEN ATOMIC CHARGES
-----------------------
   0 C :   -0.220505
   1 C :    0.009158
   2 C :   -0.160256
   3 O :   -0.419119
   4 O :   -0.412234
   5 O :   -0.393594
   6 H :    0.135606
   7 H :    0.143914
   8 H :    0.139282
   9 H :    0.127861
  10 H :    0.132420
  11 H :    0.315731
  12 H :    0.302454
  13 H :    0.299282
Sum of atomic charges:   -0.0000000

LOEWDIN ATOMIC CHARGES
----------------------
   0 C :    0.013057
   1 C :    0.057789
   2 C :    0.015543
   3 O :   -0.599687
   4 O :   -0.580593
   5 O :   -0.592880
   6 H :    0.165744
   7 H :    0.179405
   8 H :    0.184706
   9 H :    0.159726
  10 H :    0.179293
  11 H :    0.276276
  12 H :    0.273034
  13 H :    0.268586

  Mayer bond orders larger than 0.100000
B(  0-C ,  1-C ) :   0.9475 B(  0-C ,  5-O ) :   0.9689 B(  0-C ,  6-H ) :   0.9708
B(  0-C ,  7-H ) :   0.9686 B(  1-C ,  2-C ) :   0.9425 B(  1-C ,  4-O ) :   0.9481
B(  1-C ,  8-H ) :   0.9363 B(  2-C ,  3-O ) :   0.9588 B(  2-C ,  9-H ) :   0.9713
B(  2-C , 10-H ) :   0.9642 B(  3-O , 11-H ) :   0.8703 B(  4-O , 12-H ) :   0.8935
B(  5-O , 13-H ) :   0.8949

Dispersion correction           -0.002997521
FINAL SINGLE POINT ENERGY      -344.722870004447

DIPOLE MOMENT
-------------

Method             : SCF
Type of density    : Electron Density
Multiplicity       :   1
Irrep              :   0
Energy             :  -344.7303806521716751 Eh
Relativity type    :
Basis              : AO
                                X                 Y                 Z
Electronic contribution:      0.345448000       1.838292343       1.179365254
Nuclear contribution   :     -0.748466736      -2.011688657      -1.362193167
                        -----------------------------------------
Total Dipole Moment    :     -0.403018736      -0.173396314      -0.182827913
                        -----------------------------------------
Magnitude (a.u.)       :      0.475306669
Magnitude (Debye)      :      1.208133540

Rotational constants in cm-1:             0.265752             0.065194             0.056274
Rotational constants in MHz :          7967.051168          1954.473109          1687.046941

                             ****ORCA TERMINATED NORMALLY****
TOTAL RUN TIME: 0 days 0 hours 0 minutes 20 seconds 445 msec
