                         Program Version 6.0.0  -   RELEASE  -
|  1> ! r2scan-3c def2/J RI DEFGRID2 scfconv6 printgap
|  2> %output
|  3>     printlevel normal
|  4> end
|  5> %cpcm
|  6>     smd true
|  7>     smdsolvent "water"
|  8> end
|  9> * xyz 0 1
| 10> C -1.3596159655 -0.4410292696 -0.3332659796
| 11> C 0.007712912 -0.0623971215 0.2510266137
| 12> C 1.1384445654 -0.8017072544 -0.4844941873
| 13> O 2.3913027687 -0.5309895262 0.0962067646
| 14> O 0.2349743629 1.3316492482 0.2151439552
| 15> O -2.4155641593 0.3153011365 0.206083269
| 16> H -1.5275840232 -1.515260825 -0.1870677116
| 17> H -1.3716817371 -0.2309463989 -1.4064905784
| 18> H 0.0525712949 -0.3272006432 1.314121794
| 19> H 1.141228476 -0.5073036598 -1.5437756554
| 20> H 0.9920874412 -1.8806809098 -0.4181911973
| 21> H 2.4501819024 0.4262868578 0.2434869545
| 22> H -0.0849065192 1.687541743 -0.6260349137
| 23> H -2.4530239229 0.1856370368 1.1637971545
| 24> *
| 25>
| 26>                          ****END OF INPUT****

CARTESIAN COORDINATES (ANGSTROEM)
---------------------------------
  C     -1.359616   -0.441029   -0.333266
  C      0.007713   -0.062397    0.251027
  C      1.138445   -0.801707   -0.484494
  O      2.391303   -0.530990    0.096207
  O      0.234974    1.331649    0.215144
  O     -2.415564    0.315301    0.206083
  H     -1.527584   -1.515261   -0.187068
  H     -1.371682   -0.230946   -1.406491
  H      0.052571   -0.327201    1.314122
  H      1.141228   -0.507304   -1.543776
  H      0.992087   -1.880681   -0.418191
  H      2.450182    0.426287    0.243487
  H     -0.084907    1.687542   -0.626035
  H     -2.453024    0.185637    1.163797

 Total Charge           Charge          ....    0
 Multiplicity           Mult            ....    1
 Number of Electrons    NEL             ....   50
 Basis Dimension        Dim             ....  169

ORBITAL ENERGIES
----------------

  NO   OCC          E(Eh)            E(eV)
   0   2.0000     -18.957272      -515.8536
   1   2.0000     -18.955161      -515.7962
   2   2.0000     -18.952927      -515.7354
   3   2.0000     -10.080097      -274.2934
   4   2.0000     -10.074505      -274.1412
   5   2.0000     -10.071020      -274.0464
   6   2.0000      -1.007846       -27.4249
   7   2.0000      -0.990504       -26.9530
   8   2.0000      -0.977689       -26.6043
   9   2.0000      -0.721534       -19.6339
  10   2.0000      -0.633805       -17.2467
  11   2.0000      -0.584623       -15.9084
  12   2.0000      -0.494089       -13.4448
  13   2.0000      -0.479484       -13.0474
  14   2.0000      -0.441131       -12.0038
  15   2.0000      -0.432521       -11.7695
  16   2.0000      -0.410901       -11.1812
  17   2.0000      -0.399546       -10.8722
  18   2.0000      -0.361643        -9.8408
  19   2.0000      -0.335898        -9.1402
  20   2.0000      -0.310965        -8.4618
  21   2.0000      -0.296455        -8.0669
  22   2.0000      -0.264261        -7.1909
  23   2.0000      -0.249894        -6.8000
  24   2.0000      -0.228880        -6.2282
  25   0.0000       0.057405         1.5621
  26   0.0000       0.084689         2.3045
  27   0.0000       0.100040         2.7222
  28   0.0000       0.117637         3.2011
  29   0.0000       0.126722         3.4483

MULLIKEN ATOMIC CHARGES
-----------------------
   0 C :   -0.215814
   1 C :    0.035636
   2 C :   -0.175869
   3 O :   -0.501120
   4 O :   -0.491680
   5 O :   -0.488182
   6 H :    0.152918
   7 H :    0.166030
   8 H :    0.158186
   9 H :    0.148445
  10 H :    0.154844
  11 H :    0.351661
  12 H :    0.352664
  13 H :    0.352283
Sum of atomic charges:   -0.0000000

LOEWDIN ATOMIC CHARGES
----------------------
   0 C :    0.019522
   1 C :    0.065727
   2 C :    0.017776
   3 O :   -0.640345
   4 O :   -0.609496
   5 O :   -0.629776
   6 H :    0.176031
   7 H :    0.188510
   8 H :    0.191239
   9 H :    0.170437
  10 H :    0.187734
  11 H :    0.287305
  12 H :    0.289446
  13 H :    0.285890

  Mayer bond orders larger than 0.100000
B(  0-C ,  1-C ) :   0.9545 B(  0-C ,  5-O ) :   0.9563 B(  0-C ,  6-H ) :   0.9604
B(  0-C ,  7-H ) :   0.9659 B(  1-C ,  2-C ) :   0.9439 B(  1-C ,  4-O ) :   0.9335
B(  1-C ,  8-H ) :   0.9347 B(  2-C ,  3-O ) :   0.9383 B(  2-C ,  9-H ) :   0.9645
B(  2-C , 10-H ) :   0.9579 B(  3-O , 11-H ) :   0.8529 B(  4-O , 12-H ) :   0.8676
B(  5-O , 13-H ) :   0.8673

Dispersion correction           -0.002997521
FINAL SINGLE POINT ENERGY      -344.745518667042

DIPOLE MOMENT
-------------

Method             : SCF
Type of density    : Electron Density
Multiplicity       :   1
Irrep              :   0
Energy             :  -344.7530293147667066 Eh
Relativity type    :
Basis              : AO
                                X                 Y                 Z
Electronic contribution:      0.229778507       1.700206338       1.046764243
Nuclear contribution   :     -0.748466736      -2.011688657      -1.362193167
                        -----------------------------------------
Total Dipole Moment    :     -0.518688229      -0.311482319      -0.315428924
                        -----------------------------------------
Magnitude (a.u.)       :      0.682315264
Magnitude (Debye)      :      1.734307574

Rotational constants in cm-1:             0.265752             0.065194             0.056274
Rotational constants in MHz :          7967.051168          1954.473109          1687.046941

                             ****ORCA TERMINATED NORMALLY****
TOTAL RUN TIME: 0 days 0 hours 0 minutes 23 seconds 338 msec
