                         Program Version 6.0.0  -   RELEASE  -
|  1> ! pbe def2-sv(p) def2/J RI DEFGRID1 loosescf d4 GCP(DFT/SV(P)) printgap
|  2> %output
|  3>     printlevel normal
|  4> end
|  5> * xyz 0 1
|  6> C -1.4498382707 0.1084492482 0.6157532891
|  7> C 0.0593253996 0.3785203594 0.5181456066
|  8> C 0.7974057263 -0.9059049671 0.1028209049
|  9> O 2.1782136691 -0.7183160769 -0.0859709374
| 10> O 0.3276844638 1.4452211127 -0.3596952731
| 11> O -1.9053438049 -0.3238065515 -0.6493367841
| 12> H -1.9500265406 1.0394789923 0.9088467777
| 13> H -1.6300548032 -0.6567443783 1.3799995882
| 14> H 0.42196667 0.7162061914 1.4955657515
| 15> H 0.4092462483 -1.249912232 -0.858491155
| 16> H 0.6097330796 -1.681875798 0.8574917474
| 17> H 2.5601060495 -0.3183928361 0.7077500301
| 18> H -0.0262234108 1.2135498826 -1.2311456256
| 19> H -2.8600296964 -0.4687555001 -0.6155348929
| 20> *
| 21>
| 22>                          ****END OF INPUT****

CARTESIAN COORDINATES (ANGSTROEM)
---------------------------------
  C     -1.449838    0.108449    0.615753
  C      0.059325    0.378520    0.518146
  C      0.797406   -0.905905    0.102821
  O      2.178214   -0.718316   -0.085971
  O      0.327684    1.445221   -0.359695
  O     -1.905344   -0.323807   -0.649337
  H     -1.950027    1.039479    0.908847
  H     -1.630055   -0.656744    1.380000
  H      0.421967    0.716206    1.495566
  H      0.409246   -1.249912   -0.858491
  H      0.609733   -1.681876    0.857492
  H      2.560106   -0.318393    0.707750
  H     -0.026223    1.213550   -1.231146
  H     -2.860030   -0.468756   -0.615535

 Total Charge           Charge          ....    0
 Multiplicity           Mult            ....    1
 Number of Electrons    NEL             ....   50
 Basis Dimension        Dim             ....  100

ORBITAL ENERGIES
----------------

  NO   OCC          E(Eh)            E(eV)
   0   2.0000     -18.760670      -510.5038
   1   2.0000     -18.738207      -509.8925
   2   2.0000     -18.735927      -509.8305
   3   2.0000      -9.937828      -270.4221
   4   2.0000      -9.936432      -270.3841
   5   2.0000      -9.922498      -270.0049
   6   2.0000      -0.940471       -25.5915
   7   2.0000      -0.920223       -25.0405
   8   2.0000      -0.903158       -24.5762
   9   2.0000      -0.680542       -18.5185
  10   2.0000      -0.601006       -16.3542
  11   2.0000      -0.547644       -14.9021
  12   2.0000      -0.480717       -13.0810
  13   2.0000      -0.467074       -12.7097
  14   2.0000      -0.411777       -11.2050
  15   2.0000      -0.405950       -11.0465
  16   2.0000      -0.395377       -10.7588
  17   2.0000      -0.384767       -10.4701
  18   2.0000      -0.340441        -9.2639
  19   2.0000      -0.309513        -8.4223
  20   2.0000      -0.278266        -7.5720
  21   2.0000      -0.271248        -7.3810
  22   2.0000      -0.228960        -6.2303
  23   2.0000      -0.220075        -5.9885
  24   2.0000      -0.199968        -5.4414
  25   0.0000       0.012905         0.3511
  26   0.0000       0.037316         1.0154
  27   0.0000       0.060336         1.6418
  28   0.0000       0.071286         1.9398
  29   0.0000       0.088963         2.4208

MULLIKEN ATOMIC CHARGES
-----------------------
   0 C :    0.009264
   1 C :   -0.010690
   2 C :    0.038255
   3 O :   -0.424377
   4 O :   -0.427580
   5 O :   -0.446922
   6 H :    0.083162
   7 H :    0.067828
   8 H :    0.063095
   9 H :    0.088280
  10 H :    0.059626
  11 H :    0.291878
  12 H :    0.300264
  13 H :    0.307917
Sum of atomic charges:    0.0000000

LOEWDIN ATOMIC CHARGES
----------------------
   0 C :   -0.137222
   1 C :   -0.092701
   2 C :   -0.140395
   3 O :   -0.335115
   4 O :   -0.321191
   5 O :   -0.346713
   6 H :    0.101607
   7 H :    0.096672
   8 H :    0.109715
   9 H :    0.115240
  10 H :    0.093197
  11 H :    0.280841
  12 H :    0.284502
  13 H :    0.291561

  Mayer bond orders larger than 0.100000
B(  0-C ,  1-C ) :   1.0489 B(  0-C ,  5-O ) :   1.0609 B(  0-C ,  6-H ) :   0.9155
B(  0-C ,  7-H ) :   0.9098 B(  1-C ,  2-C ) :   1.0329 B(  1-C ,  4-O ) :   1.0526
B(  1-C ,  8-H ) :   0.8958 B(  2-C ,  3-O ) :   1.0870 B(  2-C ,  9-H ) :   0.9078
B(  2-C , 10-H ) :   0.9149 B(  3-O , 11-H ) :   0.8549 B(  4-O , 12-H ) :   0.8471
B(  5-O , 13-H ) :   0.8487

Dispersion correction           -0.009212472
FINAL SINGLE POINT ENERGY      -344.005898028915

DIPOLE MOMENT
-------------

Method             : SCF
Type of density    : Electron Density
Multiplicity       :   1
Irrep              :   0
Energy             :  -344.0790624149634596 Eh
Relativity type    :
Basis              : AO
                                X                 Y                 Z
Electronic contribution:      1.280217301       1.093483916      -1.795469997
Nuclear contribution   :     -2.303943283      -1.313503340       2.464720559
                        -----------------------------------------
Total Dipole Moment    :     -1.023725982      -0.220019424       0.669250561
                        -----------------------------------------
Magnitude (a.u.)       :      1.242706621
Magnitude (Debye)      :      3.158709204

Rotational constants in cm-1:             0.196223             0.076860             0.066269
Rotational constants in MHz :          5882.603956          2304.201485          1986.690391

                             ****ORCA TERMINATED NORMALLY****
TOTAL RUN TIME: 0 days 0 hours 0 minutes 6 seconds 575 msec
