                         Program Version 6.0.0  -   RELEASE  -
|  1> ! wb97x-v def2-tzvp def2/J RIJCOSX DEFGRID2 scfconv7 GCP(DFT/TZ) printgap
|  2> %output
|  3>     printlevel normal
|  4> end
|  5> * xyz 0 1
|  6> C -2.7885006172509557 -0.0021245003327809444 -0.30515370878374876
|  7> C -2.1084200573948277 -1.2074602728248203 -0.1435851783743915
|  8> C -0.7586120831680179 -1.2082968268749725 0.19936655914702686
|  9> C -0.06758760030947156 -0.0074029395700928495 0.3882579495288475
| 10> C -0.7596149907204235 1.196240593560486 0.22127114048574412
| 11> C -2.1093130834723137 1.2006581498445363 -0.12169610055827752
| 12> C 1.4034038153363584 -0.009131424090186283 0.7095205812254575
| 13> C 2.2295303481342716 0.014577627280464226 -0.5690726322920379
| 14> O 3.622125095314793 0.014118299007887318 -0.20310498504342941
| 15> H -3.8413820960543354 -0.00011844649539137416 -0.5692130710224045
| 16> H -2.630792921756204 -2.1493812608994403 -0.2811057262111524
| 17> H -0.23295092684853924 -2.1510762610221876 0.32688461567433374
| 18> H -0.2346717554216491 2.1369172557546348 0.36613012494436215
| 19> H -2.6324351195012543 2.144516877897113 -0.2419699673882634
| 20> H 1.6593080204441064 0.8686986414066193 1.3132502273865252
| 21> H 1.6635670603116217 -0.9054920742837591 1.2834339360467422
| 22> H 1.9950806937717052 -0.8676643013733584 -1.1818299021159562
| 23> H 1.988501647027385 0.9141672489589032 -1.1534334117302874
| 24> H 4.134712456993175 0.03302831903826736 -1.0208759200150204
| 25> *
| 26>
| 27>                          ****END OF INPUT****

CARTESIAN COORDINATES (ANGSTROEM)
---------------------------------
  C     -2.788501   -0.002125   -0.305154
  C     -2.108420   -1.207460   -0.143585
  C     -0.758612   -1.208297    0.199367
  C     -0.067588   -0.007403    0.388258
  C     -0.759615    1.196241    0.221271
  C     -2.109313    1.200658   -0.121696
  C      1.403404   -0.009131    0.709521
  C      2.229530    0.014578   -0.569073
  O      3.622125    0.014118   -0.203105
  H     -3.841382   -0.000118   -0.569213
  H     -2.630793   -2.149381   -0.281106
  H     -0.232951   -2.151076    0.326885
  H     -0.234672    2.136917    0.366130
  H     -2.632435    2.144517   -0.241970
  H      1.659308    0.868699    1.313250
  H      1.663567   -0.905492    1.283434
  H      1.995081   -0.867664   -1.181830
  H      1.988502    0.914167   -1.153433
  H      4.134712    0.033028   -1.020876

 Total Charge           Charge          ....    0
 Multiplicity           Mult            ....    1
 Number of Electrons    NEL             ....   66
 Basis Dimension        Dim             ....  339

ORBITAL ENERGIES
----------------

  NO   OCC          E(Eh)            E(eV)
   0   2.0000     -21.671391      -589.7085
   1   2.0000     -12.095433      -329.1335
   2   2.0000     -12.060602      -328.1857
   3   2.0000     -12.053289      -327.9867
   4   2.0000     -12.053151      -327.9829
   5   2.0000     -12.050497      -327.9107
   6   2.0000     -12.050126      -327.9006
   7   2.0000     -12.049327      -327.8788
   8   2.0000     -12.047817      -327.8378
   9   2.0000      -1.669915       -45.4407
  10   2.0000      -1.386203       -37.7205
  11   2.0000      -1.309496       -35.6332
  12   2.0000      -1.272767       -34.6337
  13   2.0000      -1.247136       -33.9363
  14   2.0000      -1.145403       -31.1680
  15   2.0000      -1.107249       -30.1298
  16   2.0000      -1.076577       -29.2952
  17   2.0000      -1.035694       -28.1827
  18   2.0000      -0.961051       -26.1515
  19   2.0000      -0.957891       -26.0655
  20   2.0000      -0.940799       -25.6004
  21   2.0000      -0.936916       -25.4948
  22   2.0000      -0.913616       -24.8608
  23   2.0000      -0.874314       -23.7913
  24   2.0000      -0.873355       -23.7652
  25   2.0000      -0.847095       -23.0506
  26   2.0000      -0.825077       -22.4515
  27   2.0000      -0.813907       -22.1475
  28   2.0000      -0.805188       -21.9103
  29   2.0000      -0.767096       -20.8737
  30   2.0000      -0.764682       -20.8081
  31   2.0000      -0.638647       -17.3785
  32   2.0000      -0.636950       -17.3323
  33   0.0000      -0.245022        -6.6674
  34   0.0000      -0.236998        -6.4490
  35   0.0000      -0.143320        -3.8999
  36   0.0000      -0.072488        -1.9725
  37   0.0000      -0.041255        -1.1226

MULLIKEN ATOMIC CHARGES
-----------------------
   0 C :   -0.141150
   1 C :   -0.095312
   2 C :   -0.239144
   3 C :    0.207511
   4 C :   -0.239093
   5 C :   -0.095698
   6 C :   -0.173115
   7 C :   -0.070184
   8 O :   -0.440647
   9 H :    0.117189
  10 H :    0.117106
  11 H :    0.117899
  12 H :    0.118144
  13 H :    0.117038
  14 H :    0.108452
  15 H :    0.108358
  16 H :    0.091512
  17 H :    0.091627
  18 H :    0.299508
Sum of atomic charges:    0.0000000

LOEWDIN ATOMIC CHARGES
----------------------
   0 C :   -0.144857
   1 C :   -0.138608
   2 C :   -0.113645
   3 C :   -0.144133
   4 C :   -0.113636
   5 C :   -0.138630
   6 C :   -0.215565
   7 C :   -0.324411
   8 O :   -0.061846
   9 H :    0.140628
  10 H :    0.141405
  11 H :    0.144640
  12 H :    0.144669
  13 H :    0.141402
  14 H :    0.143719
  15 H :    0.143649
  16 H :    0.114565
  17 H :    0.114541
  18 H :    0.166112

  Mayer bond orders larger than 0.100000
B(  0-C ,  1-C ) :   1.4216 B(  0-C ,  5-C ) :   1.4210 B(  0-C ,  9-H ) :   0.9725
B(  1-C ,  2-C ) :   1.4429 B(  1-C , 10-H ) :   0.9740 B(  2-C ,  3-C ) :   1.3839
B(  2-C , 11-H ) :   0.9711 B(  3-C ,  4-C ) :   1.3826 B(  3-C ,  6-C ) :   0.8685
B(  4-C ,  5-C ) :   1.4432 B(  4-C , 12-H ) :   0.9711 B(  5-C , 13-H ) :   0.9743
B(  6-C ,  7-C ) :   0.9848 B(  6-C , 14-H ) :   0.9787 B(  6-C , 15-H ) :   0.9790
B(  7-C ,  8-O ) :   1.0881 B(  7-C , 16-H ) :   0.9699 B(  7-C , 17-H ) :   0.9702
B(  8-O , 18-H ) :   0.9067

FINAL SINGLE POINT ENERGY      -386.109324348291

DIPOLE MOMENT
-------------

Method             : SCF
Type of density    : Electron Density
Multiplicity       :   1
Irrep              :   0
Energy             :  -386.1201257016911086 Eh
Relativity type    :
Basis              : AO
                                X                 Y                 Z
Electronic contribution:     -1.932357553      -0.013221087       0.515678169
Nuclear contribution   :      1.786167486       0.024335357      -1.100371692
                        -----------------------------------------
Total Dipole Moment    :     -0.146190066       0.011114271      -0.584693522
                        -----------------------------------------
Magnitude (a.u.)       :      0.602794805
Magnitude (Debye)      :      1.532182631

Rotational constants in cm-1:             0.147612             0.028570             0.025602
Rotational constants in MHz :          4425.301080           856.495501           767.515583

                             ****ORCA TERMINATED NORMALLY****
TOTAL RUN TIME: 0 days 0 hours 2 minutes 48 seconds 29 msec
