                         Program Version 6.0.0  -   RELEASE  -
|  1> ! wb97x-v def2-tzvp def2/J RIJCOSX DEFGRID2 scfconv7 GCP(DFT/TZ) printgap
|  2> %output
|  3>     printlevel normal
|  4> end
|  5> %cpcm
|  6>     smd true
|  7>     smdsolvent "water"
|  8> end
|  9> * xyz 0 1
| 10> C -2.7885006172509557 -0.0021245003327809444 -0.30515370878374876
| 11> C -2.1084200573948277 -1.2074602728248203 -0.1435851783743915
| 12> C -0.7586120831680179 -1.2082968268749725 0.19936655914702686
| 13> C -0.06758760030947156 -0.0074029395700928495 0.3882579495288475
| 14> C -0.7596149907204235 1.196240593560486 0.22127114048574412
| 15> C -2.1093130834723137 1.2006581498445363 -0.12169610055827752
| 16> C 1.4034038153363584 -0.009131424090186283 0.7095205812254575
| 17> C 2.2295303481342716 0.014577627280464226 -0.5690726322920379
| 18> O 3.622125095314793 0.014118299007887318 -0.20310498504342941
| 19> H -3.8413820960543354 -0.00011844649539137416 -0.5692130710224045
| 20> H -2.630792921756204 -2.1493812608994403 -0.2811057262111524
| 21> H -0.23295092684853924 -2.1510762610221876 0.32688461567433374
| 22> H -0.2346717554216491 2.1369172557546348 0.36613012494436215
| 23> H -2.6324351195012543 2.144516877897113 -0.2419699673882634
| 24> H 1.6593080204441064 0.8686986414066193 1.3132502273865252
| 25> H 1.6635670603116217 -0.9054920742837591 1.2834339360467422
| 26> H 1.9950806937717052 -0.8676643013733584 -1.1818299021159562
| 27> H 1.988501647027385 0.9141672489589032 -1.1534334117302874
| 28> H 4.134712456993175 0.03302831903826736 -1.0208759200150204
| 29> *
| 30>
| 31>                          ****END OF INPUT****

CARTESIAN COORDINATES (ANGSTROEM)
---------------------------------
  C     -2.788501   -0.002125   -0.305154
  C     -2.108420   -1.207460   -0.143585
  C     -0.758612   -1.208297    0.199367
  C     -0.067588   -0.007403    0.388258
  C     -0.759615    1.196241    0.221271
  C     -2.109313    1.200658   -0.121696
  C      1.403404   -0.009131    0.709521
  C      2.229530    0.014578   -0.569073
  O      3.622125    0.014118   -0.203105
  H     -3.841382   -0.000118   -0.569213
  H     -2.630793   -2.149381   -0.281106
  H     -0.232951   -2.151076    0.326885
  H     -0.234672    2.136917    0.366130
  H     -2.632435    2.144517   -0.241970
  H      1.659308    0.868699    1.313250
  H      1.663567   -0.905492    1.283434
  H      1.995081   -0.867664   -1.181830
  H      1.988502    0.914167   -1.153433
  H      4.134712    0.033028   -1.020876

 Total Charge           Charge          ....    0
 Multiplicity           Mult            ....    1
 Number of Electrons    NEL             ....   66
 Basis Dimension        Dim             ....  339

ORBITAL ENERGIES
----------------

  NO   OCC          E(Eh)            E(eV)
   0   2.0000     -21.673281      -589.7600
   1   2.0000     -12.088148      -328.9352
   2   2.0000     -12.058212      -328.1206
   3   2.0000     -12.049377      -327.8802
   4   2.0000     -12.049194      -327.8752
   5   2.0000     -12.046617      -327.8051
   6   2.0000     -12.046137      -327.7920
   7   2.0000     -12.045418      -327.7725
   8   2.0000     -12.041538      -327.6669
   9   2.0000      -1.671810       -45.4923
  10   2.0000      -1.384180       -37.6654
  11   2.0000      -1.305736       -35.5309
  12   2.0000      -1.270032       -34.5593
  13   2.0000      -1.243692       -33.8426
  14   2.0000      -1.142176       -31.0802
  15   2.0000      -1.103451       -30.0264
  16   2.0000      -1.073124       -29.2012
  17   2.0000      -1.035780       -28.1850
  18   2.0000      -0.956788       -26.0355
  19   2.0000      -0.954845       -25.9826
  20   2.0000      -0.942809       -25.6551
  21   2.0000      -0.937409       -25.5082
  22   2.0000      -0.907880       -24.7047
  23   2.0000      -0.869253       -23.6536
  24   2.0000      -0.869132       -23.6503
  25   2.0000      -0.843278       -22.9468
  26   2.0000      -0.819822       -22.3085
  27   2.0000      -0.809192       -22.0192
  28   2.0000      -0.799950       -21.7677
  29   2.0000      -0.763719       -20.7819
  30   2.0000      -0.760501       -20.6943
  31   2.0000      -0.637547       -17.3485
  32   2.0000      -0.635826       -17.3017
  33   0.0000      -0.243648        -6.6300
  34   0.0000      -0.235308        -6.4030
  35   0.0000      -0.138669        -3.7734
  36   0.0000      -0.069616        -1.8943
  37   0.0000      -0.032540        -0.8855

MULLIKEN ATOMIC CHARGES
-----------------------
   0 C :   -0.190430
   1 C :   -0.138415
   2 C :   -0.273617
   3 C :    0.164270
   4 C :   -0.273338
   5 C :   -0.138799
   6 C :   -0.156781
   7 C :   -0.083038
   8 O :   -0.548897
   9 H :    0.160286
  10 H :    0.160086
  11 H :    0.157810
  12 H :    0.157943
  13 H :    0.160019
  14 H :    0.123958
  15 H :    0.124085
  16 H :    0.116240
  17 H :    0.116644
  18 H :    0.361973
Sum of atomic charges:    0.0000000

LOEWDIN ATOMIC CHARGES
----------------------
   0 C :   -0.156535
   1 C :   -0.149535
   2 C :   -0.119279
   3 C :   -0.150716
   4 C :   -0.119172
   5 C :   -0.149530
   6 C :   -0.220019
   7 C :   -0.318500
   8 O :   -0.100856
   9 H :    0.149617
  10 H :    0.150597
  11 H :    0.154454
  12 H :    0.154496
  13 H :    0.150601
  14 H :    0.146102
  15 H :    0.146083
  16 H :    0.121811
  17 H :    0.121891
  18 H :    0.188489

  Mayer bond orders larger than 0.100000
B(  0-C ,  1-C ) :   1.3985 B(  0-C ,  5-C ) :   1.3978 B(  0-C ,  9-H ) :   0.9755
B(  1-C ,  2-C ) :   1.4219 B(  1-C , 10-H ) :   0.9769 B(  2-C ,  3-C ) :   1.3659
B(  2-C , 11-H ) :   0.9779 B(  3-C ,  4-C ) :   1.3647 B(  3-C ,  6-C ) :   0.8951
B(  4-C ,  5-C ) :   1.4221 B(  4-C , 12-H ) :   0.9780 B(  5-C , 13-H ) :   0.9771
B(  6-C ,  7-C ) :   0.9678 B(  6-C , 14-H ) :   0.9649 B(  6-C , 15-H ) :   0.9652
B(  7-C ,  8-O ) :   1.0327 B(  7-C , 16-H ) :   0.9770 B(  7-C , 17-H ) :   0.9773
B(  8-O , 18-H ) :   0.8685

FINAL SINGLE POINT ENERGY      -386.119922585794

DIPOLE MOMENT
-------------

Method             : SCF
Type of density    : Electron Density
Multiplicity       :   1
Irrep              :   0
Energy             :  -386.1307239391938424 Eh
Relativity type    :
Basis              : AO
                                X                 Y                 Z
Electronic contribution:     -1.967428636      -0.008507592       0.291121591
Nuclear contribution   :      1.786167486       0.024335357      -1.100371692
                        -----------------------------------------
Total Dipole Moment    :     -0.181261150       0.015827765      -0.809250101
                        -----------------------------------------
Magnitude (a.u.)       :      0.829452740
Magnitude (Debye)      :      2.108301316

Rotational constants in cm-1:             0.147612             0.028570             0.025602
Rotational constants in MHz :          4425.301080           856.495501           767.515583

                             ****ORCA TERMINATED NORMALLY****
TOTAL RUN TIME: 0 days 0 hours 2 minutes 58 seconds 229 msec
