                         Program Version 6.0.0  -   RELEASE  -
|  1> ! pbe def2-sv(p) def2/J RI DEFGRID1 loosescf d4 GCP(DFT/SV(P)) printgap
|  2> %output
|  3>     printlevel normal
|  4> end
|  5> * xyz 0 1
|  6> C 2.3831217337 -0.1602993512 -0.6744785663
|  7> C 1.5696001066 0.2697093737 0.5408600663
|  8> C 0.2671826718 -0.5188425619 0.6924208528
|  9> C -0.8251932157 -0.0627654095 -0.2847605551
| 10> H -0.4419379328 -0.0946398902 -1.3100044528
| 11> C -2.0585999184 -0.9604488909 -0.1796561659
| 12> O -1.1631665669 1.2993392763 -0.0852055968
| 13> H 2.6297227686 -1.2180918419 -0.6130604127
| 14> H 3.3093508483 0.4066760064 -0.7269352266
| 15> H 1.8285399095 0.0115910914 -1.5933935606
| 16> H 2.1749356049 0.1297955434 1.4388617514
| 17> H 1.3286579483 1.331910223 0.4593056936
| 18> H 0.4593384599 -1.5804351925 0.5320042835
| 19> H -0.1121583525 -0.3955915323 1.7102074985
| 20> H -1.8098279076 -1.9733406808 -0.4812329961
| 21> H -2.4262858211 -0.9804935683 0.8443727717
| 22> H -2.8459931551 -0.5840250385 -0.8280454239
| 23> H -1.5524895982 1.3935864193 0.7956932681
| 24> *
| 25>
| 26>                          ****END OF INPUT****

CARTESIAN COORDINATES (ANGSTROEM)
---------------------------------
  C      2.383122   -0.160299   -0.674479
  C      1.569600    0.269709    0.540860
  C      0.267183   -0.518843    0.692421
  C     -0.825193   -0.062765   -0.284761
  H     -0.441938   -0.094640   -1.310004
  C     -2.058600   -0.960449   -0.179656
  O     -1.163167    1.299339   -0.085206
  H      2.629723   -1.218092   -0.613060
  H      3.309351    0.406676   -0.726935
  H      1.828540    0.011591   -1.593394
  H      2.174936    0.129796    1.438862
  H      1.328658    1.331910    0.459306
  H      0.459338   -1.580435    0.532004
  H     -0.112158   -0.395592    1.710207
  H     -1.809828   -1.973341   -0.481233
  H     -2.426286   -0.980494    0.844373
  H     -2.845993   -0.584025   -0.828045
  H     -1.552490    1.393586    0.795693

 Total Charge           Charge          ....    0
 Multiplicity           Mult            ....    1
 Number of Electrons    NEL             ....   50
 Basis Dimension        Dim             ....  108

ORBITAL ENERGIES
----------------

  NO   OCC          E(Eh)            E(eV)
   0   2.0000     -18.738952      -509.9128
   1   2.0000      -9.934803      -270.3397
   2   2.0000      -9.881268      -268.8830
   3   2.0000      -9.878081      -268.7962
   4   2.0000      -9.874562      -268.7005
   5   2.0000      -9.870322      -268.5851
   6   2.0000      -0.917220       -24.9588
   7   2.0000      -0.714441       -19.4409
   8   2.0000      -0.667845       -18.1730
   9   2.0000      -0.607064       -16.5190
  10   2.0000      -0.549288       -14.9469
  11   2.0000      -0.515123       -14.0172
  12   2.0000      -0.427174       -11.6240
  13   2.0000      -0.421470       -11.4688
  14   2.0000      -0.404252       -11.0003
  15   2.0000      -0.374207       -10.1827
  16   2.0000      -0.367484        -9.9998
  17   2.0000      -0.351689        -9.5699
  18   2.0000      -0.332518        -9.0483
  19   2.0000      -0.324030        -8.8173
  20   2.0000      -0.295530        -8.0418
  21   2.0000      -0.290006        -7.8915
  22   2.0000      -0.283688        -7.7196
  23   2.0000      -0.261319        -7.1109
  24   2.0000      -0.212515        -5.7828
  25   0.0000       0.025840         0.7031
  26   0.0000       0.050948         1.3864
  27   0.0000       0.063562         1.7296
  28   0.0000       0.075132         2.0444
  29   0.0000       0.087461         2.3799

MULLIKEN ATOMIC CHARGES
-----------------------
   0 C :   -0.294495
   1 C :   -0.148360
   2 C :   -0.157303
   3 C :   -0.006218
   4 H :    0.075855
   5 C :   -0.235382
   6 O :   -0.427709
   7 H :    0.094820
   8 H :    0.103644
   9 H :    0.108005
  10 H :    0.081119
  11 H :    0.087852
  12 H :    0.076073
  13 H :    0.063296
  14 H :    0.096905
  15 H :    0.083045
  16 H :    0.109453
  17 H :    0.289401
Sum of atomic charges:   -0.0000000

LOEWDIN ATOMIC CHARGES
----------------------
   0 C :   -0.342035
   1 C :   -0.238373
   2 C :   -0.239780
   3 C :   -0.060454
   4 H :    0.111923
   5 C :   -0.351523
   6 O :   -0.326399
   7 H :    0.114578
   8 H :    0.120037
   9 H :    0.116440
  10 H :    0.113924
  11 H :    0.117556
  12 H :    0.116713
  13 H :    0.109829
  14 H :    0.123293
  15 H :    0.113194
  16 H :    0.122424
  17 H :    0.278655

  Mayer bond orders larger than 0.100000
B(  0-C ,  1-C ) :   1.1577 B(  0-C ,  7-H ) :   0.9539 B(  0-C ,  8-H ) :   0.9517
B(  0-C ,  9-H ) :   0.9516 B(  1-C ,  2-C ) :   1.1160 B(  1-C , 10-H ) :   0.9278
B(  1-C , 11-H ) :   0.9132 B(  2-C ,  3-C ) :   1.0682 B(  2-C , 12-H ) :   0.9148
B(  2-C , 13-H ) :   0.9068 B(  3-C ,  4-H ) :   0.9007 B(  3-C ,  5-C ) :   1.1153
B(  3-C ,  6-O ) :   1.0227 B(  5-C , 14-H ) :   0.9390 B(  5-C , 15-H ) :   0.9420
B(  5-C , 16-H ) :   0.9462 B(  6-O , 17-H ) :   0.8541

Dispersion correction           -0.012587118
FINAL SINGLE POINT ENERGY      -272.305763884735

DIPOLE MOMENT
-------------

Method             : SCF
Type of density    : Electron Density
Multiplicity       :   1
Irrep              :   0
Energy             :  -272.3757994836150260 Eh
Relativity type    :
Basis              : AO
                                X                 Y                 Z
Electronic contribution:     -2.478210506       2.944019718       0.200056690
Nuclear contribution   :      2.367411902      -3.314067435       0.212424037
                        -----------------------------------------
Total Dipole Moment    :     -0.110798604      -0.370047718       0.412480726
                        -----------------------------------------
Magnitude (a.u.)       :      0.565112373
Magnitude (Debye)      :      1.436401499

Rotational constants in cm-1:             0.198253             0.065628             0.059463
Rotational constants in MHz :          5943.466002          1967.470480          1782.663174

                             ****ORCA TERMINATED NORMALLY****
TOTAL RUN TIME: 0 days 0 hours 0 minutes 7 seconds 840 msec
