                         Program Version 6.0.0  -   RELEASE  -
|  1> ! r2scan-3c def2/J RI DEFGRID2 scfconv6 printgap
|  2> %output
|  3>     printlevel normal
|  4> end
|  5> * xyz 0 1
|  6> C -2.7619080324 0.3089986123 0.0063718975
|  7> C -1.342988091 0.0683446222 -0.4918426059
|  8> C -0.3392768684 0.0764507381 0.6715215005
|  9> C 1.043714907 -0.1748582026 0.1410588488
| 10> O 1.6252152733 -1.2387632453 0.1925265262
| 11> O 1.569784015 0.8952784214 -0.4325665326
| 12> H -3.0564686668 -0.4670049607 0.7083076847
| 13> H -3.4575513883 0.3009772779 -0.8282884044
| 14> H -2.8320628962 1.2716655287 0.5060532027
| 15> H -1.2895230747 -0.8958600383 -1.0018526032
| 16> H -1.0646094381 0.8459051576 -1.2052550982
| 17> H -0.3586476154 1.0512183763 1.1583322925
| 18> H -0.5901930935 -0.7056875503 1.3872110537
| 19> H 2.4539297858 0.7272138119 -0.8121424932
| 20> *
| 21>
| 22>                          ****END OF INPUT****

CARTESIAN COORDINATES (ANGSTROEM)
---------------------------------
  C     -2.761908    0.308999    0.006372
  C     -1.342988    0.068345   -0.491843
  C     -0.339277    0.076451    0.671522
  C      1.043715   -0.174858    0.141059
  O      1.625215   -1.238763    0.192527
  O      1.569784    0.895278   -0.432567
  H     -3.056469   -0.467005    0.708308
  H     -3.457551    0.300977   -0.828288
  H     -2.832063    1.271666    0.506053
  H     -1.289523   -0.895860   -1.001853
  H     -1.064609    0.845905   -1.205255
  H     -0.358648    1.051218    1.158332
  H     -0.590193   -0.705688    1.387211
  H      2.453930    0.727214   -0.812142

 Total Charge           Charge          ....    0
 Multiplicity           Mult            ....    1
 Number of Electrons    NEL             ....   48
 Basis Dimension        Dim             ....  164

ORBITAL ENERGIES
----------------

  NO   OCC          E(Eh)            E(eV)
   0   2.0000     -19.003266      -517.1052
   1   2.0000     -18.932186      -515.1710
   2   2.0000     -10.160111      -276.4707
   3   2.0000     -10.046404      -273.3766
   4   2.0000     -10.042919      -273.2817
   5   2.0000     -10.026601      -272.8377
   6   2.0000      -1.077812       -29.3287
   7   2.0000      -0.976971       -26.5847
   8   2.0000      -0.776287       -21.1238
   9   2.0000      -0.692786       -18.8517
  10   2.0000      -0.601765       -16.3749
  11   2.0000      -0.566626       -15.4187
  12   2.0000      -0.466770       -12.7015
  13   2.0000      -0.449327       -12.2268
  14   2.0000      -0.433442       -11.7945
  15   2.0000      -0.427033       -11.6202
  16   2.0000      -0.385651       -10.4941
  17   2.0000      -0.368434       -10.0256
  18   2.0000      -0.361067        -9.8251
  19   2.0000      -0.330593        -8.9959
  20   2.0000      -0.321796        -8.7565
  21   2.0000      -0.314119        -8.5476
  22   2.0000      -0.289613        -7.8808
  23   2.0000      -0.236761        -6.4426
  24   0.0000      -0.019882        -0.5410
  25   0.0000       0.056062         1.5255
  26   0.0000       0.100741         2.7413
  27   0.0000       0.112103         3.0505
  28   0.0000       0.129748         3.5306

MULLIKEN ATOMIC CHARGES
-----------------------
   0 C :   -0.466260
   1 C :   -0.239155
   2 C :   -0.294494
   3 C :    0.361760
   4 O :   -0.400575
   5 O :   -0.352685
   6 H :    0.145956
   7 H :    0.151778
   8 H :    0.144296
   9 H :    0.151765
  10 H :    0.152450
  11 H :    0.152696
  12 H :    0.162777
  13 H :    0.329690
Sum of atomic charges:   -0.0000000

LOEWDIN ATOMIC CHARGES
----------------------
   0 C :   -0.418697
   1 C :   -0.288031
   2 C :   -0.235282
   3 C :    0.335157
   4 O :   -0.420713
   5 O :   -0.404905
   6 H :    0.151780
   7 H :    0.153823
   8 H :    0.151029
   9 H :    0.160042
  10 H :    0.160573
  11 H :    0.177097
  12 H :    0.178412
  13 H :    0.299714

  Mayer bond orders larger than 0.100000
B(  0-C ,  1-C ) :   0.8957 B(  0-C ,  6-H ) :   0.9812 B(  0-C ,  7-H ) :   0.9718
B(  0-C ,  8-H ) :   0.9841 B(  1-C ,  2-C ) :   0.9248 B(  1-C ,  9-H ) :   0.9589
B(  1-C , 10-H ) :   0.9646 B(  2-C ,  3-C ) :   0.9900 B(  2-C , 11-H ) :   0.9599
B(  2-C , 12-H ) :   0.9673 B(  3-C ,  4-O ) :   1.9396 B(  3-C ,  5-O ) :   1.0224
B(  5-O , 13-H ) :   0.8591

Dispersion correction           -0.003045220
FINAL SINGLE POINT ENERGY      -307.647477202742

DIPOLE MOMENT
-------------

Method             : SCF
Type of density    : Electron Density
Multiplicity       :   1
Irrep              :   0
Energy             :  -307.6520520776232388 Eh
Relativity type    :
Basis              : AO
                                X                 Y                 Z
Electronic contribution:      9.131827481      -1.269079067      -0.108859400
Nuclear contribution   :     -9.517336236       1.991731702      -0.085781775
                        -----------------------------------------
Total Dipole Moment    :     -0.385508756       0.722652634      -0.194641175
                        -----------------------------------------
Magnitude (a.u.)       :      0.841860450
Magnitude (Debye)      :      2.139839209

Rotational constants in cm-1:             0.273170             0.063110             0.056716
Rotational constants in MHz :          8189.441229          1891.993230          1700.297238

                             ****ORCA TERMINATED NORMALLY****
TOTAL RUN TIME: 0 days 0 hours 0 minutes 19 seconds 236 msec
