                         Program Version 6.0.0  -   RELEASE  -
|  1> ! r2scan-3c def2/J RI DEFGRID2 scfconv6 printgap
|  2> %output
|  3>     printlevel normal
|  4> end
|  5> %cpcm
|  6>     smd true
|  7>     smdsolvent "water"
|  8> end
|  9> * xyz 0 1
| 10> C -2.7619080324 0.3089986123 0.0063718975
| 11> C -1.342988091 0.0683446222 -0.4918426059
| 12> C -0.3392768684 0.0764507381 0.6715215005
| 13> C 1.043714907 -0.1748582026 0.1410588488
| 14> O 1.6252152733 -1.2387632453 0.1925265262
| 15> O 1.569784015 0.8952784214 -0.4325665326
| 16> H -3.0564686668 -0.4670049607 0.7083076847
| 17> H -3.4575513883 0.3009772779 -0.8282884044
| 18> H -2.8320628962 1.2716655287 0.5060532027
| 19> H -1.2895230747 -0.8958600383 -1.0018526032
| 20> H -1.0646094381 0.8459051576 -1.2052550982
| 21> H -0.3586476154 1.0512183763 1.1583322925
| 22> H -0.5901930935 -0.7056875503 1.3872110537
| 23> H 2.4539297858 0.7272138119 -0.8121424932
| 24> *
| 25>
| 26>                          ****END OF INPUT****

CARTESIAN COORDINATES (ANGSTROEM)
---------------------------------
  C     -2.761908    0.308999    0.006372
  C     -1.342988    0.068345   -0.491843
  C     -0.339277    0.076451    0.671522
  C      1.043715   -0.174858    0.141059
  O      1.625215   -1.238763    0.192527
  O      1.569784    0.895278   -0.432567
  H     -3.056469   -0.467005    0.708308
  H     -3.457551    0.300977   -0.828288
  H     -2.832063    1.271666    0.506053
  H     -1.289523   -0.895860   -1.001853
  H     -1.064609    0.845905   -1.205255
  H     -0.358648    1.051218    1.158332
  H     -0.590193   -0.705688    1.387211
  H      2.453930    0.727214   -0.812142

 Total Charge           Charge          ....    0
 Multiplicity           Mult            ....    1
 Number of Electrons    NEL             ....   48
 Basis Dimension        Dim             ....  164

ORBITAL ENERGIES
----------------

  NO   OCC          E(Eh)            E(eV)
   0   2.0000     -19.000900      -517.0408
   1   2.0000     -18.943571      -515.4808
   2   2.0000     -10.166568      -276.6464
   3   2.0000     -10.036491      -273.1068
   4   2.0000     -10.031068      -272.9592
   5   2.0000     -10.012252      -272.4472
   6   2.0000      -1.078515       -29.3479
   7   2.0000      -0.985657       -26.8211
   8   2.0000      -0.765926       -20.8419
   9   2.0000      -0.682869       -18.5818
  10   2.0000      -0.592572       -16.1247
  11   2.0000      -0.555719       -15.1219
  12   2.0000      -0.468915       -12.7598
  13   2.0000      -0.451410       -12.2835
  14   2.0000      -0.429295       -11.6817
  15   2.0000      -0.424159       -11.5420
  16   2.0000      -0.378732       -10.3058
  17   2.0000      -0.360244        -9.8027
  18   2.0000      -0.355218        -9.6660
  19   2.0000      -0.323161        -8.7937
  20   2.0000      -0.311217        -8.4686
  21   2.0000      -0.303478        -8.2580
  22   2.0000      -0.294192        -8.0054
  23   2.0000      -0.249114        -6.7787
  24   0.0000      -0.024129        -0.6566
  25   0.0000       0.075782         2.0621
  26   0.0000       0.113948         3.1007
  27   0.0000       0.128848         3.5061
  28   0.0000       0.140915         3.8345

MULLIKEN ATOMIC CHARGES
-----------------------
   0 C :   -0.510717
   1 C :   -0.228625
   2 C :   -0.317224
   3 C :    0.396037
   4 O :   -0.491390
   5 O :   -0.375301
   6 H :    0.158387
   7 H :    0.162697
   8 H :    0.158339
   9 H :    0.157906
  10 H :    0.159388
  11 H :    0.177526
  12 H :    0.174024
  13 H :    0.378955
Sum of atomic charges:   -0.0000000

LOEWDIN ATOMIC CHARGES
----------------------
   0 C :   -0.424586
   1 C :   -0.285516
   2 C :   -0.234740
   3 C :    0.346107
   4 O :   -0.487236
   5 O :   -0.394783
   6 H :    0.154985
   7 H :    0.156637
   8 H :    0.154969
   9 H :    0.161626
  10 H :    0.162710
  11 H :    0.187223
  12 H :    0.182415
  13 H :    0.320188

  Mayer bond orders larger than 0.100000
B(  0-C ,  1-C ) :   0.8875 B(  0-C ,  6-H ) :   0.9792 B(  0-C ,  7-H ) :   0.9689
B(  0-C ,  8-H ) :   0.9813 B(  1-C ,  2-C ) :   0.9149 B(  1-C ,  9-H ) :   0.9580
B(  1-C , 10-H ) :   0.9634 B(  2-C ,  3-C ) :   0.9901 B(  2-C , 11-H ) :   0.9508
B(  2-C , 12-H ) :   0.9657 B(  3-C ,  4-O ) :   1.8643 B(  3-C ,  5-O ) :   1.0623
B(  5-O , 13-H ) :   0.8348

Dispersion correction           -0.003045220
FINAL SINGLE POINT ENERGY      -307.657625800358

DIPOLE MOMENT
-------------

Method             : SCF
Type of density    : Electron Density
Multiplicity       :   1
Irrep              :   0
Energy             :  -307.6622006752391485 Eh
Relativity type    :
Basis              : AO
                                X                 Y                 Z
Electronic contribution:      9.042098560      -0.974899076      -0.163117728
Nuclear contribution   :     -9.517336236       1.991731702      -0.085781775
                        -----------------------------------------
Total Dipole Moment    :     -0.475237676       1.016832626      -0.248899503
                        -----------------------------------------
Magnitude (a.u.)       :      1.149674041
Magnitude (Debye)      :      2.922239177

Rotational constants in cm-1:             0.273170             0.063110             0.056716
Rotational constants in MHz :          8189.441229          1891.993230          1700.297238

                             ****ORCA TERMINATED NORMALLY****
TOTAL RUN TIME: 0 days 0 hours 0 minutes 20 seconds 444 msec
