                         Program Version 6.0.0  -   RELEASE  -
|  1> ! r2scan-3c def2/J RI DEFGRID2 scfconv6 printgap
|  2> %output
|  3>     printlevel normal
|  4> end
|  5> * xyz 0 1
|  6> C -3.5285561803 -0.5809988051 -1.807449484
|  7> C -3.0086598703 -1.5915056151 -0.792542224
|  8> C -2.4897978635 -0.9973889178 0.525993985
|  9> H -2.0271043554 -1.8230861498 1.0813489364
| 10> C -3.5806035544 -0.4030897608 1.4064220189
| 11> N -1.3649878505 -0.0725771722 0.2797941995
| 12> C -0.1014371427 -0.6721051293 0.2736829575
| 13> O 0.02869268 -1.8729036515 0.4478639306
| 14> C 1.004627181 0.2286110436 0.0592508833
| 15> C 0.8384483401 1.5598278483 -0.1492582569
| 16> N -0.4387519423 2.0232302018 -0.1558931737
| 17> C -1.574240701 1.2616410222 0.0249418446
| 18> O -2.6617739061 1.799376186 -0.0452211132
| 19> C 1.9410789142 2.5244991758 -0.3827195085
| 20> Br 2.7302815594 -0.5674003713 0.0706260562
| 21> H -4.2954232772 0.0531656047 -1.3730752078
| 22> H -2.7273395337 0.0589404826 -2.1715102205
| 23> H -3.9536471614 -1.1070601592 -2.6582281293
| 24> H -3.8066279709 -2.2884443526 -0.5344860017
| 25> H -2.196951838 -2.1690897935 -1.2430574355
| 26> H -4.1414249729 0.3704490016 0.8941818419
| 27> H -4.2567631759 -1.2025229962 1.6947633044
| 28> H -3.1454643823 0.0254085338 2.3061748099
| 29> H -0.6129220383 3.0080731443 -0.3327237768
| 30> H 2.3690446938 2.3612555092 -1.3712420041
| 31> H 2.7387119455 2.363720622 0.3396490681
| 32> H 1.5861484771 3.5471547038 -0.3141054538
| 33> *
| 34>
| 35>                          ****END OF INPUT****

CARTESIAN COORDINATES (ANGSTROEM)
---------------------------------
  C     -3.528556   -0.580999   -1.807449
  C     -3.008660   -1.591506   -0.792542
  C     -2.489798   -0.997389    0.525994
  H     -2.027104   -1.823086    1.081349
  C     -3.580604   -0.403090    1.406422
  N     -1.364988   -0.072577    0.279794
  C     -0.101437   -0.672105    0.273683
  O      0.028693   -1.872904    0.447864
  C      1.004627    0.228611    0.059251
  C      0.838448    1.559828   -0.149258
  N     -0.438752    2.023230   -0.155893
  C     -1.574241    1.261641    0.024942
  O     -2.661774    1.799376   -0.045221
  C      1.941079    2.524499   -0.382720
  Br     2.730282   -0.567400    0.070626
  H     -4.295423    0.053166   -1.373075
  H     -2.727340    0.058940   -2.171510
  H     -3.953647   -1.107060   -2.658228
  H     -3.806628   -2.288444   -0.534486
  H     -2.196952   -2.169090   -1.243057
  H     -4.141425    0.370449    0.894182
  H     -4.256763   -1.202523    1.694763
  H     -3.145464    0.025409    2.306175
  H     -0.612922    3.008073   -0.332724
  H      2.369045    2.361256   -1.371242
  H      2.738712    2.363721    0.339649
  H      1.586148    3.547155   -0.314105

 Total Charge           Charge          ....    0
 Multiplicity           Mult            ....    1
 Number of Electrons    NEL             ....  132
 Basis Dimension        Dim             ....  368

ORBITAL ENERGIES
----------------

  NO   OCC          E(Eh)            E(eV)
   0   2.0000    -482.235578    -13122.2972
   1   2.0000     -62.306763     -1695.4532
   2   2.0000     -56.087355     -1526.2145
   3   2.0000     -56.084575     -1526.1389
   4   2.0000     -56.084351     -1526.1328
   5   2.0000     -18.931739      -515.1588
   6   2.0000     -18.927179      -515.0347
   7   2.0000     -14.239926      -387.4881
   8   2.0000     -14.228563      -387.1789
   9   2.0000     -10.183437      -277.1054
  10   2.0000     -10.150606      -276.2120
  11   2.0000     -10.130287      -275.6591
  12   2.0000     -10.098361      -274.7904
  13   2.0000     -10.078422      -274.2478
  14   2.0000     -10.070144      -274.0225
  15   2.0000     -10.029878      -272.9269
  16   2.0000     -10.018122      -272.6069
  17   2.0000     -10.013990      -272.4945
  18   2.0000      -8.638581      -235.0677
  19   2.0000      -6.446737      -175.4246
  20   2.0000      -6.432362      -175.0335
  21   2.0000      -6.431553      -175.0114
  22   2.0000      -2.544148       -69.2298
  23   2.0000      -2.540660       -69.1349
  24   2.0000      -2.540082       -69.1191
  25   2.0000      -2.529376       -68.8278
  26   2.0000      -2.529353       -68.8272
  27   2.0000      -1.053938       -28.6791
  28   2.0000      -1.015282       -27.6272
  29   2.0000      -0.958347       -26.0779
  30   2.0000      -0.918152       -24.9842
  31   2.0000      -0.814593       -22.1662
  32   2.0000      -0.774395       -21.0724
  33   2.0000      -0.749369       -20.3914
  34   2.0000      -0.707790       -19.2599
  35   2.0000      -0.693228       -18.8637
  36   2.0000      -0.651098       -17.7173
  37   2.0000      -0.628582       -17.1046
  38   2.0000      -0.607373       -16.5275
  39   2.0000      -0.561642       -15.2831
  40   2.0000      -0.551948       -15.0193
  41   2.0000      -0.514960       -14.0128
  42   2.0000      -0.475491       -12.9388
  43   2.0000      -0.451075       -12.2744
  44   2.0000      -0.438267       -11.9258
  45   2.0000      -0.436003       -11.8643
  46   2.0000      -0.427166       -11.6238
  47   2.0000      -0.412219       -11.2170
  48   2.0000      -0.409400       -11.1403
  49   2.0000      -0.402571       -10.9545
  50   2.0000      -0.390780       -10.6337
  51   2.0000      -0.385618       -10.4932
  52   2.0000      -0.384251       -10.4560
  53   2.0000      -0.359968        -9.7952
  54   2.0000      -0.356430        -9.6990
  55   2.0000      -0.353087        -9.6080
  56   2.0000      -0.334939        -9.1141
  57   2.0000      -0.319597        -8.6967
  58   2.0000      -0.309074        -8.4103
  59   2.0000      -0.297425        -8.0933
  60   2.0000      -0.291587        -7.9345
  61   2.0000      -0.269967        -7.3462
  62   2.0000      -0.258120        -7.0238
  63   2.0000      -0.249778        -6.7968
  64   2.0000      -0.235254        -6.4016
  65   2.0000      -0.217349        -5.9144
  66   0.0000      -0.072780        -1.9804
  67   0.0000      -0.032893        -0.8951
  68   0.0000      -0.025233        -0.6866
  69   0.0000       0.038533         1.0485
  70   0.0000       0.064305         1.7498

MULLIKEN ATOMIC CHARGES
-----------------------
   0 C :   -0.470088
   1 C :   -0.328816
   2 C :   -0.066897
   3 H :    0.206583
   4 C :   -0.495386
   5 N :    0.162242
   6 C :    0.221140
   7 O :   -0.430348
   8 C :   -0.114397
   9 C :    0.173883
  10 N :   -0.021143
  11 C :    0.190876
  12 O :   -0.442092
  13 C :   -0.583853
  14 Br:   -0.078872
  15 H :    0.166902
  16 H :    0.140145
  17 H :    0.146429
  18 H :    0.149981
  19 H :    0.171409
  20 H :    0.194030
  21 H :    0.149725
  22 H :    0.150439
  23 H :    0.275025
  24 H :    0.196838
  25 H :    0.189117
  26 H :    0.147127
Sum of atomic charges:   -0.0000000

LOEWDIN ATOMIC CHARGES
----------------------
   0 C :   -0.407517
   1 C :   -0.262922
   2 C :    0.042539
   3 H :    0.222924
   4 C :   -0.365109
   5 N :   -0.619833
   6 C :    0.355530
   7 O :   -0.474109
   8 C :   -0.199665
   9 C :    0.154966
  10 N :   -0.518001
  11 C :    0.456870
  12 O :   -0.420479
  13 C :   -0.351243
  14 Br:    0.259743
  15 H :    0.160150
  16 H :    0.154915
  17 H :    0.149874
  18 H :    0.160959
  19 H :    0.167923
  20 H :    0.180626
  21 H :    0.157001
  22 H :    0.162424
  23 H :    0.298405
  24 H :    0.185278
  25 H :    0.184471
  26 H :    0.164281

  Mayer bond orders larger than 0.100000
B(  0-C ,  1-C ) :   0.8746 B(  0-C , 15-H ) :   0.9875 B(  0-C , 16-H ) :   0.9709
B(  0-C , 17-H ) :   0.9634 B(  1-C ,  2-C ) :   0.9131 B(  1-C , 18-H ) :   0.9837
B(  1-C , 19-H ) :   0.9720 B(  2-C ,  3-H ) :   0.9544 B(  2-C ,  4-C ) :   0.8723
B(  2-C ,  5-N ) :   0.8297 B(  4-C , 20-H ) :   0.9719 B(  4-C , 21-H ) :   0.9639
B(  4-C , 22-H ) :   0.9788 B(  5-N ,  6-C ) :   1.0787 B(  5-N , 11-C ) :   1.1660
B(  6-C ,  7-O ) :   1.9089 B(  6-C ,  8-C ) :   0.9787 B(  6-C , 14-Br) :  -0.1032
B(  8-C ,  9-C ) :   1.4597 B(  8-C , 14-Br) :   1.1918 B(  9-C , 10-N ) :   1.1620
B(  9-C , 13-C ) :   0.8646 B( 10-N , 11-C ) :   1.0211 B( 10-N , 23-H ) :   0.9042
B( 11-C , 12-O ) :   1.8865 B( 13-C , 24-H ) :   0.9439 B( 13-C , 25-H ) :   0.9517
B( 13-C , 26-H ) :   0.9933

Dispersion correction           -0.011549161
FINAL SINGLE POINT ENERGY     -3184.783252602458

DIPOLE MOMENT
-------------

Method             : SCF
Type of density    : Electron Density
Multiplicity       :   1
Irrep              :   0
Energy             : -3184.7931757977294183 Eh
Relativity type    :
Basis              : AO
                                X                 Y                 Z
Electronic contribution:     48.700099712      -6.804042042       3.847594781
Nuclear contribution   :    -48.356360050       8.278187418      -4.103774052
                        -----------------------------------------
Total Dipole Moment    :      0.343739663       1.474145375      -0.256179272
                        -----------------------------------------
Magnitude (a.u.)       :      1.535216390
Magnitude (Debye)      :      3.902209949

Rotational constants in cm-1:             0.031894             0.010839             0.009014
Rotational constants in MHz :           956.146466           324.938026           270.247126

                             ****ORCA TERMINATED NORMALLY****
TOTAL RUN TIME: 0 days 0 hours 1 minutes 24 seconds 388 msec
