                         Program Version 6.0.0  -   RELEASE  -
|  1> ! r2scan-3c def2/J RI DEFGRID2 scfconv6 printgap
|  2> %output
|  3>     printlevel normal
|  4> end
|  5> %cpcm
|  6>     smd true
|  7>     smdsolvent "water"
|  8> end
|  9> * xyz 0 1
| 10> C -3.5285561803 -0.5809988051 -1.807449484
| 11> C -3.0086598703 -1.5915056151 -0.792542224
| 12> C -2.4897978635 -0.9973889178 0.525993985
| 13> H -2.0271043554 -1.8230861498 1.0813489364
| 14> C -3.5806035544 -0.4030897608 1.4064220189
| 15> N -1.3649878505 -0.0725771722 0.2797941995
| 16> C -0.1014371427 -0.6721051293 0.2736829575
| 17> O 0.02869268 -1.8729036515 0.4478639306
| 18> C 1.004627181 0.2286110436 0.0592508833
| 19> C 0.8384483401 1.5598278483 -0.1492582569
| 20> N -0.4387519423 2.0232302018 -0.1558931737
| 21> C -1.574240701 1.2616410222 0.0249418446
| 22> O -2.6617739061 1.799376186 -0.0452211132
| 23> C 1.9410789142 2.5244991758 -0.3827195085
| 24> Br 2.7302815594 -0.5674003713 0.0706260562
| 25> H -4.2954232772 0.0531656047 -1.3730752078
| 26> H -2.7273395337 0.0589404826 -2.1715102205
| 27> H -3.9536471614 -1.1070601592 -2.6582281293
| 28> H -3.8066279709 -2.2884443526 -0.5344860017
| 29> H -2.196951838 -2.1690897935 -1.2430574355
| 30> H -4.1414249729 0.3704490016 0.8941818419
| 31> H -4.2567631759 -1.2025229962 1.6947633044
| 32> H -3.1454643823 0.0254085338 2.3061748099
| 33> H -0.6129220383 3.0080731443 -0.3327237768
| 34> H 2.3690446938 2.3612555092 -1.3712420041
| 35> H 2.7387119455 2.363720622 0.3396490681
| 36> H 1.5861484771 3.5471547038 -0.3141054538
| 37> *
| 38>
| 39>                          ****END OF INPUT****

CARTESIAN COORDINATES (ANGSTROEM)
---------------------------------
  C     -3.528556   -0.580999   -1.807449
  C     -3.008660   -1.591506   -0.792542
  C     -2.489798   -0.997389    0.525994
  H     -2.027104   -1.823086    1.081349
  C     -3.580604   -0.403090    1.406422
  N     -1.364988   -0.072577    0.279794
  C     -0.101437   -0.672105    0.273683
  O      0.028693   -1.872904    0.447864
  C      1.004627    0.228611    0.059251
  C      0.838448    1.559828   -0.149258
  N     -0.438752    2.023230   -0.155893
  C     -1.574241    1.261641    0.024942
  O     -2.661774    1.799376   -0.045221
  C      1.941079    2.524499   -0.382720
  Br     2.730282   -0.567400    0.070626
  H     -4.295423    0.053166   -1.373075
  H     -2.727340    0.058940   -2.171510
  H     -3.953647   -1.107060   -2.658228
  H     -3.806628   -2.288444   -0.534486
  H     -2.196952   -2.169090   -1.243057
  H     -4.141425    0.370449    0.894182
  H     -4.256763   -1.202523    1.694763
  H     -3.145464    0.025409    2.306175
  H     -0.612922    3.008073   -0.332724
  H      2.369045    2.361256   -1.371242
  H      2.738712    2.363721    0.339649
  H      1.586148    3.547155   -0.314105

 Total Charge           Charge          ....    0
 Multiplicity           Mult            ....    1
 Number of Electrons    NEL             ....  132
 Basis Dimension        Dim             ....  368

ORBITAL ENERGIES
----------------

  NO   OCC          E(Eh)            E(eV)
   0   2.0000    -482.234711    -13122.2736
   1   2.0000     -62.305958     -1695.4313
   2   2.0000     -56.086511     -1526.1915
   3   2.0000     -56.083781     -1526.1173
   4   2.0000     -56.083568     -1526.1115
   5   2.0000     -18.936178      -515.2796
   6   2.0000     -18.934997      -515.2475
   7   2.0000     -14.228388      -387.1741
   8   2.0000     -14.227181      -387.1413
   9   2.0000     -10.184005      -277.1209
  10   2.0000     -10.155169      -276.3362
  11   2.0000     -10.121111      -275.4094
  12   2.0000     -10.092201      -274.6227
  13   2.0000     -10.075126      -274.1581
  14   2.0000     -10.041337      -273.2387
  15   2.0000     -10.025148      -272.7982
  16   2.0000     -10.012975      -272.4669
  17   2.0000     -10.009996      -272.3858
  18   2.0000      -8.637832      -235.0474
  19   2.0000      -6.445791      -175.3989
  20   2.0000      -6.431699      -175.0154
  21   2.0000      -6.430927      -174.9944
  22   2.0000      -2.543265       -69.2057
  23   2.0000      -2.539836       -69.1124
  24   2.0000      -2.539285       -69.0975
  25   2.0000      -2.528785       -68.8117
  26   2.0000      -2.528764       -68.8112
  27   2.0000      -1.054510       -28.6947
  28   2.0000      -1.022923       -27.8351
  29   2.0000      -0.952035       -25.9062
  30   2.0000      -0.915913       -24.9232
  31   2.0000      -0.808376       -21.9970
  32   2.0000      -0.767977       -20.8977
  33   2.0000      -0.738165       -20.0865
  34   2.0000      -0.701485       -19.0884
  35   2.0000      -0.685030       -18.6406
  36   2.0000      -0.646734       -17.5985
  37   2.0000      -0.619114       -16.8470
  38   2.0000      -0.601812       -16.3761
  39   2.0000      -0.555744       -15.1226
  40   2.0000      -0.545748       -14.8506
  41   2.0000      -0.503414       -13.6986
  42   2.0000      -0.470038       -12.7904
  43   2.0000      -0.445601       -12.1254
  44   2.0000      -0.440013       -11.9733
  45   2.0000      -0.429405       -11.6847
  46   2.0000      -0.416994       -11.3470
  47   2.0000      -0.411703       -11.2030
  48   2.0000      -0.396295       -10.7837
  49   2.0000      -0.393546       -10.7089
  50   2.0000      -0.389120       -10.5885
  51   2.0000      -0.384015       -10.4496
  52   2.0000      -0.372985       -10.1494
  53   2.0000      -0.355142        -9.6639
  54   2.0000      -0.353858        -9.6290
  55   2.0000      -0.349038        -9.4978
  56   2.0000      -0.325370        -8.8538
  57   2.0000      -0.315819        -8.5939
  58   2.0000      -0.307137        -8.3576
  59   2.0000      -0.294751        -8.0206
  60   2.0000      -0.291269        -7.9258
  61   2.0000      -0.270293        -7.3550
  62   2.0000      -0.262464        -7.1420
  63   2.0000      -0.252840        -6.8801
  64   2.0000      -0.244702        -6.6587
  65   2.0000      -0.213987        -5.8229
  66   0.0000      -0.066002        -1.7960
  67   0.0000      -0.029484        -0.8023
  68   0.0000      -0.025615        -0.6970
  69   0.0000       0.056534         1.5384
  70   0.0000       0.076820         2.0904

MULLIKEN ATOMIC CHARGES
-----------------------
   0 C :   -0.532360
   1 C :   -0.306418
   2 C :   -0.061475
   3 H :    0.207834
   4 C :   -0.544379
   5 N :    0.185494
   6 C :    0.209456
   7 O :   -0.505965
   8 C :   -0.118914
   9 C :    0.214922
  10 N :   -0.029763
  11 C :    0.228292
  12 O :   -0.516811
  13 C :   -0.612786
  14 Br:   -0.109761
  15 H :    0.171193
  16 H :    0.159133
  17 H :    0.161171
  18 H :    0.170965
  19 H :    0.166072
  20 H :    0.187204
  21 H :    0.170792
  22 H :    0.171593
  23 H :    0.334947
  24 H :    0.216174
  25 H :    0.191992
  26 H :    0.191396
Sum of atomic charges:   -0.0000000

LOEWDIN ATOMIC CHARGES
----------------------
   0 C :   -0.416196
   1 C :   -0.262795
   2 C :    0.044573
   3 H :    0.222741
   4 C :   -0.369522
   5 N :   -0.607839
   6 C :    0.357170
   7 O :   -0.541401
   8 C :   -0.208272
   9 C :    0.181188
  10 N :   -0.478904
  11 C :    0.464820
  12 O :   -0.472620
  13 C :   -0.346348
  14 Br:    0.240329
  15 H :    0.158380
  16 H :    0.158815
  17 H :    0.154454
  18 H :    0.167661
  19 H :    0.166297
  20 H :    0.176306
  21 H :    0.164397
  22 H :    0.167176
  23 H :    0.317202
  24 H :    0.193450
  25 H :    0.185834
  26 H :    0.183101

  Mayer bond orders larger than 0.100000
B(  0-C ,  1-C ) :   0.8551 B(  0-C , 15-H ) :   0.9883 B(  0-C , 16-H ) :   0.9716
B(  0-C , 17-H ) :   0.9595 B(  1-C ,  2-C ) :   0.9222 B(  1-C , 18-H ) :   0.9826
B(  1-C , 19-H ) :   0.9658 B(  2-C ,  3-H ) :   0.9512 B(  2-C ,  4-C ) :   0.8588
B(  2-C ,  5-N ) :   0.8186 B(  4-C , 20-H ) :   0.9726 B(  4-C , 21-H ) :   0.9599
B(  4-C , 22-H ) :   0.9788 B(  5-N ,  6-C ) :   1.0857 B(  5-N , 11-C ) :   1.1787
B(  6-C ,  7-O ) :   1.8677 B(  6-C ,  8-C ) :   0.9986 B(  8-C ,  9-C ) :   1.4307
B(  8-C , 14-Br) :   1.1290 B(  9-C , 10-N ) :   1.1728 B(  9-C , 13-C ) :   0.8436
B( 10-N , 11-C ) :   1.0435 B( 10-N , 23-H ) :   0.8795 B( 11-C , 12-O ) :   1.8218
B( 13-C , 24-H ) :   0.9357 B( 13-C , 25-H ) :   0.9507 B( 13-C , 26-H ) :   0.9812

Dispersion correction           -0.011549161
FINAL SINGLE POINT ENERGY     -3184.800604099893

DIPOLE MOMENT
-------------

Method             : SCF
Type of density    : Electron Density
Multiplicity       :   1
Irrep              :   0
Energy             : -3184.8105272951643201 Eh
Relativity type    :
Basis              : AO
                                X                 Y                 Z
Electronic contribution:     48.879331513      -6.040297588       3.719730541
Nuclear contribution   :    -48.356360050       8.278187418      -4.103774052
                        -----------------------------------------
Total Dipole Moment    :      0.522971463       2.237889829      -0.384043511
                        -----------------------------------------
Magnitude (a.u.)       :      2.330051385
Magnitude (Debye)      :      5.922519951

Rotational constants in cm-1:             0.031894             0.010839             0.009014
Rotational constants in MHz :           956.146466           324.938026           270.247126

                             ****ORCA TERMINATED NORMALLY****
TOTAL RUN TIME: 0 days 0 hours 1 minutes 36 seconds 430 msec
