                         Program Version 6.0.0  -   RELEASE  -
|  1> ! r2scan-3c def2/J RI DEFGRID2 scfconv6 printgap
|  2> %output
|  3>     printlevel normal
|  4> end
|  5> * xyz 0 1
|  6> C -1.4557266547 0.3796130686 -0.2364765353
|  7> C -0.01040549 0.3782107055 0.2758931325
|  8> C 0.8031135974 -0.7441066194 -0.3815277062
|  9> O 2.0929026162 -0.8552017979 0.1715098756
| 10> O 0.6104194492 1.6301110177 0.0829954831
| 11> O -2.066571099 -0.8323425401 0.1406121595
| 12> H -1.4506279852 0.4852556176 -1.3310837479
| 13> H -1.9771866363 1.2391523787 0.2037296788
| 14> H -0.0177559111 0.2177828004 1.3588865526
| 15> H 0.8718610517 -0.5597986975 -1.4645496221
| 16> H 0.3021906987 -1.6986929532 -0.2151454704
| 17> H 2.462397649 0.0375349929 0.2556288148
| 18> H 0.5938965622 1.8548102375 -0.8593837862
| 19> H -2.9915478773 -0.8278398558 -0.1432898118
| 20> *
| 21>
| 22>                          ****END OF INPUT****

CARTESIAN COORDINATES (ANGSTROEM)
---------------------------------
  C     -1.455727    0.379613   -0.236477
  C     -0.010405    0.378211    0.275893
  C      0.803114   -0.744107   -0.381528
  O      2.092903   -0.855202    0.171510
  O      0.610419    1.630111    0.082995
  O     -2.066571   -0.832343    0.140612
  H     -1.450628    0.485256   -1.331084
  H     -1.977187    1.239152    0.203730
  H     -0.017756    0.217783    1.358887
  H      0.871861   -0.559799   -1.464550
  H      0.302191   -1.698693   -0.215145
  H      2.462398    0.037535    0.255629
  H      0.593897    1.854810   -0.859384
  H     -2.991548   -0.827840   -0.143290

 Total Charge           Charge          ....    0
 Multiplicity           Mult            ....    1
 Number of Electrons    NEL             ....   50
 Basis Dimension        Dim             ....  169

ORBITAL ENERGIES
----------------

  NO   OCC          E(Eh)            E(eV)
   0   2.0000     -18.967873      -516.1421
   1   2.0000     -18.963614      -516.0262
   2   2.0000     -18.943295      -515.4733
   3   2.0000     -10.088496      -274.5219
   4   2.0000     -10.088101      -274.5112
   5   2.0000     -10.072662      -274.0911
   6   2.0000      -1.012170       -27.5425
   7   2.0000      -0.998137       -27.1607
   8   2.0000      -0.976942       -26.5840
   9   2.0000      -0.728983       -19.8366
  10   2.0000      -0.642192       -17.4749
  11   2.0000      -0.585420       -15.9301
  12   2.0000      -0.503679       -13.7058
  13   2.0000      -0.491309       -13.3692
  14   2.0000      -0.452826       -12.3220
  15   2.0000      -0.424105       -11.5405
  16   2.0000      -0.422241       -11.4898
  17   2.0000      -0.404292       -11.0013
  18   2.0000      -0.362928        -9.8758
  19   2.0000      -0.339839        -9.2475
  20   2.0000      -0.306958        -8.3527
  21   2.0000      -0.301269        -8.1979
  22   2.0000      -0.260904        -7.0996
  23   2.0000      -0.250562        -6.8181
  24   2.0000      -0.229576        -6.2471
  25   0.0000       0.029223         0.7952
  26   0.0000       0.062302         1.6953
  27   0.0000       0.086530         2.3546
  28   0.0000       0.116861         3.1800
  29   0.0000       0.129837         3.5331

MULLIKEN ATOMIC CHARGES
-----------------------
   0 C :   -0.142949
   1 C :    0.011362
   2 C :   -0.187504
   3 O :   -0.417324
   4 O :   -0.428667
   5 O :   -0.437385
   6 H :    0.117254
   7 H :    0.138790
   8 H :    0.151564
   9 H :    0.125088
  10 H :    0.161916
  11 H :    0.311311
  12 H :    0.296844
  13 H :    0.299702
Sum of atomic charges:    0.0000000

LOEWDIN ATOMIC CHARGES
----------------------
   0 C :    0.026537
   1 C :    0.079777
   2 C :    0.020554
   3 O :   -0.600018
   4 O :   -0.590718
   5 O :   -0.620996
   6 H :    0.157037
   7 H :    0.167177
   8 H :    0.195369
   9 H :    0.156741
  10 H :    0.193409
  11 H :    0.273407
  12 H :    0.270815
  13 H :    0.270908

  Mayer bond orders larger than 0.100000
B(  0-C ,  1-C ) :   0.9738 B(  0-C ,  5-O ) :   0.9398 B(  0-C ,  6-H ) :   0.9540
B(  0-C ,  7-H ) :   0.9582 B(  1-C ,  2-C ) :   0.9635 B(  1-C ,  4-O ) :   0.9500
B(  1-C ,  8-H ) :   0.9359 B(  2-C ,  3-O ) :   0.9586 B(  2-C ,  9-H ) :   0.9708
B(  2-C , 10-H ) :   0.9575 B(  3-O , 11-H ) :   0.8751 B(  4-O , 12-H ) :   0.8905
B(  5-O , 13-H ) :   0.8965

Dispersion correction           -0.002998205
FINAL SINGLE POINT ENERGY      -344.722867506837

DIPOLE MOMENT
-------------

Method             : SCF
Type of density    : Electron Density
Multiplicity       :   1
Irrep              :   0
Energy             :  -344.7302606466562906 Eh
Relativity type    :
Basis              : AO
                                X                 Y                 Z
Electronic contribution:      1.153236528      -0.084756864       1.241269207
Nuclear contribution   :     -2.060878557       0.701092600      -2.053617108
                        -----------------------------------------
Total Dipole Moment    :     -0.907642029       0.616335736      -0.812347902
                        -----------------------------------------
Magnitude (a.u.)       :      1.365134757
Magnitude (Debye)      :      3.469896796

Rotational constants in cm-1:             0.176473             0.079923             0.059220
Rotational constants in MHz :          5290.536068          2396.042781          1775.377628

                             ****ORCA TERMINATED NORMALLY****
TOTAL RUN TIME: 0 days 0 hours 0 minutes 20 seconds 498 msec
