                         Program Version 6.0.0  -   RELEASE  -
|  1> ! r2scan-3c def2/J RI DEFGRID2 scfconv6 printgap
|  2> %output
|  3>     printlevel normal
|  4> end
|  5> %cpcm
|  6>     smd true
|  7>     smdsolvent "water"
|  8> end
|  9> * xyz 0 1
| 10> C -1.4557266547 0.3796130686 -0.2364765353
| 11> C -0.01040549 0.3782107055 0.2758931325
| 12> C 0.8031135974 -0.7441066194 -0.3815277062
| 13> O 2.0929026162 -0.8552017979 0.1715098756
| 14> O 0.6104194492 1.6301110177 0.0829954831
| 15> O -2.066571099 -0.8323425401 0.1406121595
| 16> H -1.4506279852 0.4852556176 -1.3310837479
| 17> H -1.9771866363 1.2391523787 0.2037296788
| 18> H -0.0177559111 0.2177828004 1.3588865526
| 19> H 0.8718610517 -0.5597986975 -1.4645496221
| 20> H 0.3021906987 -1.6986929532 -0.2151454704
| 21> H 2.462397649 0.0375349929 0.2556288148
| 22> H 0.5938965622 1.8548102375 -0.8593837862
| 23> H -2.9915478773 -0.8278398558 -0.1432898118
| 24> *
| 25>
| 26>                          ****END OF INPUT****

CARTESIAN COORDINATES (ANGSTROEM)
---------------------------------
  C     -1.455727    0.379613   -0.236477
  C     -0.010405    0.378211    0.275893
  C      0.803114   -0.744107   -0.381528
  O      2.092903   -0.855202    0.171510
  O      0.610419    1.630111    0.082995
  O     -2.066571   -0.832343    0.140612
  H     -1.450628    0.485256   -1.331084
  H     -1.977187    1.239152    0.203730
  H     -0.017756    0.217783    1.358887
  H      0.871861   -0.559799   -1.464550
  H      0.302191   -1.698693   -0.215145
  H      2.462398    0.037535    0.255629
  H      0.593897    1.854810   -0.859384
  H     -2.991548   -0.827840   -0.143290

 Total Charge           Charge          ....    0
 Multiplicity           Mult            ....    1
 Number of Electrons    NEL             ....   50
 Basis Dimension        Dim             ....  169

ORBITAL ENERGIES
----------------

  NO   OCC          E(Eh)            E(eV)
   0   2.0000     -18.960589      -515.9439
   1   2.0000     -18.955616      -515.8085
   2   2.0000     -18.952951      -515.7360
   3   2.0000     -10.081400      -274.3288
   4   2.0000     -10.073841      -274.1232
   5   2.0000     -10.069588      -274.0074
   6   2.0000      -1.006616       -27.3914
   7   2.0000      -0.990505       -26.9530
   8   2.0000      -0.981695       -26.7133
   9   2.0000      -0.721235       -19.6258
  10   2.0000      -0.635944       -17.3049
  11   2.0000      -0.577377       -15.7112
  12   2.0000      -0.493582       -13.4310
  13   2.0000      -0.488110       -13.2821
  14   2.0000      -0.444760       -12.1025
  15   2.0000      -0.420124       -11.4321
  16   2.0000      -0.413807       -11.2603
  17   2.0000      -0.403925       -10.9914
  18   2.0000      -0.360635        -9.8134
  19   2.0000      -0.340159        -9.2562
  20   2.0000      -0.309542        -8.4231
  21   2.0000      -0.297548        -8.0967
  22   2.0000      -0.261057        -7.1037
  23   2.0000      -0.244120        -6.6428
  24   2.0000      -0.234031        -6.3683
  25   0.0000       0.048191         1.3114
  26   0.0000       0.091237         2.4827
  27   0.0000       0.095712         2.6045
  28   0.0000       0.125907         3.4261
  29   0.0000       0.144982         3.9452

MULLIKEN ATOMIC CHARGES
-----------------------
   0 C :   -0.158476
   1 C :    0.025986
   2 C :   -0.191200
   3 O :   -0.500080
   4 O :   -0.493885
   5 O :   -0.512960
   6 H :    0.149757
   7 H :    0.149479
   8 H :    0.161133
   9 H :    0.151995
  10 H :    0.161295
  11 H :    0.352028
  12 H :    0.353456
  13 H :    0.351472
Sum of atomic charges:   -0.0000000

LOEWDIN ATOMIC CHARGES
----------------------
   0 C :    0.033664
   1 C :    0.078491
   2 C :    0.019080
   3 O :   -0.639120
   4 O :   -0.610531
   5 O :   -0.650873
   6 H :    0.171441
   7 H :    0.173174
   8 H :    0.194503
   9 H :    0.170986
  10 H :    0.191527
  11 H :    0.286806
  12 H :    0.291304
  13 H :    0.289548

  Mayer bond orders larger than 0.100000
B(  0-C ,  1-C ) :   0.9544 B(  0-C ,  5-O ) :   0.9272 B(  0-C ,  6-H ) :   0.9572
B(  0-C ,  7-H ) :   0.9573 B(  1-C ,  2-C ) :   0.9493 B(  1-C ,  4-O ) :   0.9419
B(  1-C ,  8-H ) :   0.9452 B(  2-C ,  3-O ) :   0.9414 B(  2-C ,  9-H ) :   0.9629
B(  2-C , 10-H ) :   0.9578 B(  3-O , 11-H ) :   0.8551 B(  4-O , 12-H ) :   0.8637
B(  5-O , 13-H ) :   0.8697

Dispersion correction           -0.002998205
FINAL SINGLE POINT ENERGY      -344.744449650272

DIPOLE MOMENT
-------------

Method             : SCF
Type of density    : Electron Density
Multiplicity       :   1
Irrep              :   0
Energy             :  -344.7518427900916436 Eh
Relativity type    :
Basis              : AO
                                X                 Y                 Z
Electronic contribution:      0.885946379       0.201274178       0.828125301
Nuclear contribution   :     -2.060878557       0.701092600      -2.053617108
                        -----------------------------------------
Total Dipole Moment    :     -1.174932177       0.902366777      -1.225491808
                        -----------------------------------------
Magnitude (a.u.)       :      1.922644427
Magnitude (Debye)      :      4.886973759

Rotational constants in cm-1:             0.176473             0.079923             0.059220
Rotational constants in MHz :          5290.536068          2396.042781          1775.377628

                             ****ORCA TERMINATED NORMALLY****
TOTAL RUN TIME: 0 days 0 hours 0 minutes 23 seconds 618 msec
