                         Program Version 6.0.0  -   RELEASE  -
|  1> ! r2scan-3c def2/J RI DEFGRID2 scfconv6 printgap
|  2> %output
|  3>     printlevel normal
|  4> end
|  5> * xyz 0 1
|  6> C 2.6353728469 -0.8071135479 -0.1022486319
|  7> C 1.985723726 0.5714177531 -0.1491727103
|  8> C 0.55684748 0.5825757451 0.3961986599
|  9> C -0.4067563069 -0.2053032216 -0.4759301233
| 10> S -2.1151543592 -0.0109896784 0.1813983989
| 11> H 3.675558583 -0.7407313353 -0.4111345818
| 12> H 2.12942572 -1.50233902 -0.7668790261
| 13> H 2.6027890918 -1.2080450167 0.9083206115
| 14> H 1.9810115924 0.9384424044 -1.1777299599
| 15> H 2.5816425364 1.2647244392 0.4474941917
| 16> H 0.2053357991 1.6160900646 0.4569947356
| 17> H 0.5444657293 0.1699479332 1.4081039675
| 18> H -0.4044179013 0.1721008162 -1.4980456558
| 19> H -0.1779042522 -1.268997723 -0.4653140156
| 20> H -2.7042589699 -0.7786312938 -0.7264335959
| 21> *
| 22>
| 23>                          ****END OF INPUT****

CARTESIAN COORDINATES (ANGSTROEM)
---------------------------------
  C      2.635373   -0.807114   -0.102249
  C      1.985724    0.571418   -0.149173
  C      0.556847    0.582576    0.396199
  C     -0.406756   -0.205303   -0.475930
  S     -2.115154   -0.010990    0.181398
  H      3.675559   -0.740731   -0.411135
  H      2.129426   -1.502339   -0.766879
  H      2.602789   -1.208045    0.908321
  H      1.981012    0.938442   -1.177730
  H      2.581643    1.264724    0.447494
  H      0.205336    1.616090    0.456995
  H      0.544466    0.169948    1.408104
  H     -0.404418    0.172101   -1.498046
  H     -0.177904   -1.268998   -0.465314
  H     -2.704259   -0.778631   -0.726434

 Total Charge           Charge          ....    0
 Multiplicity           Mult            ....    1
 Number of Electrons    NEL             ....   50
 Basis Dimension        Dim             ....  153

ORBITAL ENERGIES
----------------

  NO   OCC          E(Eh)            E(eV)
   0   2.0000     -88.548587     -2409.5296
   1   2.0000     -10.064151      -273.8595
   2   2.0000     -10.036576      -273.1091
   3   2.0000     -10.033874      -273.0356
   4   2.0000     -10.022382      -272.7229
   5   2.0000      -7.843656      -213.4367
   6   2.0000      -5.790743      -157.5741
   7   2.0000      -5.787254      -157.4792
   8   2.0000      -5.780671      -157.3000
   9   2.0000      -0.785264       -21.3681
  10   2.0000      -0.730020       -19.8649
  11   2.0000      -0.659907       -17.9570
  12   2.0000      -0.593652       -16.1541
  13   2.0000      -0.542770       -14.7695
  14   2.0000      -0.446110       -12.1393
  15   2.0000      -0.429857       -11.6970
  16   2.0000      -0.413400       -11.2492
  17   2.0000      -0.383235       -10.4284
  18   2.0000      -0.361862        -9.8468
  19   2.0000      -0.348353        -9.4792
  20   2.0000      -0.314869        -8.5680
  21   2.0000      -0.307194        -8.3592
  22   2.0000      -0.302244        -8.2245
  23   2.0000      -0.293999        -8.0001
  24   2.0000      -0.207270        -5.6401
  25   0.0000       0.009186         0.2500
  26   0.0000       0.055339         1.5058
  27   0.0000       0.097095         2.6421
  28   0.0000       0.114200         3.1075
  29   0.0000       0.115881         3.1533

MULLIKEN ATOMIC CHARGES
-----------------------
   0 C :   -0.481174
   1 C :   -0.231777
   2 C :   -0.263181
   3 C :   -0.231962
   4 S :   -0.266564
   5 H :    0.147464
   6 H :    0.146353
   7 H :    0.146045
   8 H :    0.134147
   9 H :    0.145638
  10 H :    0.152645
  11 H :    0.148991
  12 H :    0.156791
  13 H :    0.161821
  14 H :    0.134765
Sum of atomic charges:   -0.0000000

LOEWDIN ATOMIC CHARGES
----------------------
   0 C :   -0.426363
   1 C :   -0.315496
   2 C :   -0.319675
   3 C :   -0.353330
   4 S :   -0.109076
   5 H :    0.152198
   6 H :    0.148423
   7 H :    0.151768
   8 H :    0.152731
   9 H :    0.154914
  10 H :    0.160682
  11 H :    0.159349
  12 H :    0.158663
  13 H :    0.159206
  14 H :    0.126006

  Mayer bond orders larger than 0.100000
B(  0-C ,  1-C ) :   0.9013 B(  0-C ,  5-H ) :   0.9681 B(  0-C ,  6-H ) :   0.9830
B(  0-C ,  7-H ) :   0.9794 B(  1-C ,  2-C ) :   0.8984 B(  1-C ,  8-H ) :   0.9778
B(  1-C ,  9-H ) :   0.9670 B(  2-C ,  3-C ) :   0.9370 B(  2-C , 10-H ) :   0.9630
B(  2-C , 11-H ) :   0.9726 B(  3-C ,  4-S ) :   0.9871 B(  3-C , 12-H ) :   0.9590
B(  3-C , 13-H ) :   0.9618 B(  4-S , 14-H ) :   0.9605

Dispersion correction           -0.003594783
FINAL SINGLE POINT ENERGY      -556.554445766974

DIPOLE MOMENT
-------------

Method             : SCF
Type of density    : Electron Density
Multiplicity       :   1
Irrep              :   0
Energy             :  -556.5611278394628698 Eh
Relativity type    :
Basis              : AO
                                X                 Y                 Z
Electronic contribution:     -9.277615153       1.072523600       1.324295580
Nuclear contribution   :      9.848589633      -1.254436448      -1.716959581
                        -----------------------------------------
Total Dipole Moment    :      0.570974481      -0.181912849      -0.392664000
                        -----------------------------------------
Magnitude (a.u.)       :      0.716442014
Magnitude (Debye)      :      1.821050878

Rotational constants in cm-1:             0.403141             0.050106             0.047641
Rotational constants in MHz :         12085.875493          1502.145510          1428.229712

                             ****ORCA TERMINATED NORMALLY****
TOTAL RUN TIME: 0 days 0 hours 0 minutes 13 seconds 944 msec
