                         Program Version 6.0.0  -   RELEASE  -
|  1> ! r2scan-3c def2/J RI DEFGRID2 scfconv6 printgap
|  2> %output
|  3>     printlevel normal
|  4> end
|  5> %cpcm
|  6>     smd true
|  7>     smdsolvent "water"
|  8> end
|  9> * xyz 0 1
| 10> C 2.6353728469 -0.8071135479 -0.1022486319
| 11> C 1.985723726 0.5714177531 -0.1491727103
| 12> C 0.55684748 0.5825757451 0.3961986599
| 13> C -0.4067563069 -0.2053032216 -0.4759301233
| 14> S -2.1151543592 -0.0109896784 0.1813983989
| 15> H 3.675558583 -0.7407313353 -0.4111345818
| 16> H 2.12942572 -1.50233902 -0.7668790261
| 17> H 2.6027890918 -1.2080450167 0.9083206115
| 18> H 1.9810115924 0.9384424044 -1.1777299599
| 19> H 2.5816425364 1.2647244392 0.4474941917
| 20> H 0.2053357991 1.6160900646 0.4569947356
| 21> H 0.5444657293 0.1699479332 1.4081039675
| 22> H -0.4044179013 0.1721008162 -1.4980456558
| 23> H -0.1779042522 -1.268997723 -0.4653140156
| 24> H -2.7042589699 -0.7786312938 -0.7264335959
| 25> *
| 26>
| 27>                          ****END OF INPUT****

CARTESIAN COORDINATES (ANGSTROEM)
---------------------------------
  C      2.635373   -0.807114   -0.102249
  C      1.985724    0.571418   -0.149173
  C      0.556847    0.582576    0.396199
  C     -0.406756   -0.205303   -0.475930
  S     -2.115154   -0.010990    0.181398
  H      3.675559   -0.740731   -0.411135
  H      2.129426   -1.502339   -0.766879
  H      2.602789   -1.208045    0.908321
  H      1.981012    0.938442   -1.177730
  H      2.581643    1.264724    0.447494
  H      0.205336    1.616090    0.456995
  H      0.544466    0.169948    1.408104
  H     -0.404418    0.172101   -1.498046
  H     -0.177904   -1.268998   -0.465314
  H     -2.704259   -0.778631   -0.726434

 Total Charge           Charge          ....    0
 Multiplicity           Mult            ....    1
 Number of Electrons    NEL             ....   50
 Basis Dimension        Dim             ....  153

ORBITAL ENERGIES
----------------

  NO   OCC          E(Eh)            E(eV)
   0   2.0000     -88.547965     -2409.5126
   1   2.0000     -10.053667      -273.5742
   2   2.0000     -10.024958      -272.7930
   3   2.0000     -10.020255      -272.6650
   4   2.0000     -10.008420      -272.3430
   5   2.0000      -7.843172      -213.4236
   6   2.0000      -5.789997      -157.5538
   7   2.0000      -5.786619      -157.4619
   8   2.0000      -5.780633      -157.2990
   9   2.0000      -0.774802       -21.0834
  10   2.0000      -0.721047       -19.6207
  11   2.0000      -0.651034       -17.7155
  12   2.0000      -0.583451       -15.8765
  13   2.0000      -0.530703       -14.4412
  14   2.0000      -0.434359       -11.8195
  15   2.0000      -0.418858       -11.3977
  16   2.0000      -0.402560       -10.9542
  17   2.0000      -0.372605       -10.1391
  18   2.0000      -0.350258        -9.5310
  19   2.0000      -0.336515        -9.1570
  20   2.0000      -0.307251        -8.3607
  21   2.0000      -0.294166        -8.0047
  22   2.0000      -0.289912        -7.8889
  23   2.0000      -0.286913        -7.8073
  24   2.0000      -0.209064        -5.6889
  25   0.0000       0.012422         0.3380
  26   0.0000       0.061416         1.6712
  27   0.0000       0.107614         2.9283
  28   0.0000       0.126005         3.4288
  29   0.0000       0.127662         3.4739

MULLIKEN ATOMIC CHARGES
-----------------------
   0 C :   -0.517846
   1 C :   -0.244770
   2 C :   -0.268658
   3 C :   -0.240748
   4 S :   -0.346327
   5 H :    0.156042
   6 H :    0.159805
   7 H :    0.154975
   8 H :    0.145623
   9 H :    0.154384
  10 H :    0.157581
  11 H :    0.156963
  12 H :    0.177559
  13 H :    0.182328
  14 H :    0.173088
Sum of atomic charges:   -0.0000000

LOEWDIN ATOMIC CHARGES
----------------------
   0 C :   -0.434042
   1 C :   -0.315566
   2 C :   -0.322246
   3 C :   -0.347535
   4 S :   -0.147756
   5 H :    0.153698
   6 H :    0.152395
   7 H :    0.153653
   8 H :    0.156191
   9 H :    0.157176
  10 H :    0.161167
  11 H :    0.160686
  12 H :    0.166390
  13 H :    0.166977
  14 H :    0.138813

  Mayer bond orders larger than 0.100000
B(  0-C ,  1-C ) :   0.8964 B(  0-C ,  5-H ) :   0.9666 B(  0-C ,  6-H ) :   0.9789
B(  0-C ,  7-H ) :   0.9776 B(  1-C ,  2-C ) :   0.8967 B(  1-C ,  8-H ) :   0.9779
B(  1-C ,  9-H ) :   0.9672 B(  2-C ,  3-C ) :   0.9252 B(  2-C , 10-H ) :   0.9622
B(  2-C , 11-H ) :   0.9709 B(  3-C ,  4-S ) :   0.9695 B(  3-C , 12-H ) :   0.9568
B(  3-C , 13-H ) :   0.9582 B(  4-S , 14-H ) :   0.9544

Dispersion correction           -0.003594783
FINAL SINGLE POINT ENERGY      -556.556298475671

DIPOLE MOMENT
-------------

Method             : SCF
Type of density    : Electron Density
Multiplicity       :   1
Irrep              :   0
Energy             :  -556.5629805481595440 Eh
Relativity type    :
Basis              : AO
                                X                 Y                 Z
Electronic contribution:     -9.123033896       0.989212774       1.158726332
Nuclear contribution   :      9.848589633      -1.254436448      -1.716959581
                        -----------------------------------------
Total Dipole Moment    :      0.725555737      -0.265223675      -0.558233249
                        -----------------------------------------
Magnitude (a.u.)       :      0.953099725
Magnitude (Debye)      :      2.422586976

Rotational constants in cm-1:             0.403141             0.050106             0.047641
Rotational constants in MHz :         12085.875493          1502.145510          1428.229712

                             ****ORCA TERMINATED NORMALLY****
TOTAL RUN TIME: 0 days 0 hours 0 minutes 16 seconds 205 msec
