                         Program Version 6.0.0  -   RELEASE  -
|  1> ! r2scan-3c def2/J RI DEFGRID2 scfconv6 printgap
|  2> %output
|  3>     printlevel normal
|  4> end
|  5> %cpcm
|  6>     smd true
|  7>     smdsolvent "water"
|  8> end
|  9> * xyz 0 1
| 10> C -1.6254265611 1.0485900355 -0.5394581756
| 11> C -1.0879227931 0.4846729745 0.7748381925
| 12> C -0.0492941455 -0.6438203459 0.6346584934
| 13> H -0.0405971925 -1.1961120495 1.5816452313
| 14> C -0.3904604958 -1.6219604007 -0.487048879
| 15> C 1.3860812632 -0.1116088154 0.4682275531
| 16> O 1.6042000264 0.6843214508 -0.6766478651
| 17> H -2.2158870227 1.940390433 -0.3405366784
| 18> H -0.8256001294 1.3100893125 -1.2255594927
| 19> H -2.2670602034 0.3237507334 -1.0329838062
| 20> H -1.9347691329 0.10078313 1.3482853264
| 21> H -0.6432737943 1.2909479295 1.364308461
| 22> H -0.2426427881 -1.1534848446 -1.456198034
| 23> H -1.4219409937 -1.9541261227 -0.4044715211
| 24> H 0.2581748314 -2.4930328283 -0.4299412804
| 25> H 2.0678395876 -0.9600408674 0.3605615705
| 26> H 1.6736258633 0.4434777855 1.3713529316
| 27> H 1.1844239948 1.5437770691 -0.5391909033
| 28> *
| 29>
| 30>                          ****END OF INPUT****

CARTESIAN COORDINATES (ANGSTROEM)
---------------------------------
  C     -1.625427    1.048590   -0.539458
  C     -1.087923    0.484673    0.774838
  C     -0.049294   -0.643820    0.634658
  H     -0.040597   -1.196112    1.581645
  C     -0.390460   -1.621960   -0.487049
  C      1.386081   -0.111609    0.468228
  O      1.604200    0.684321   -0.676648
  H     -2.215887    1.940390   -0.340537
  H     -0.825600    1.310089   -1.225559
  H     -2.267060    0.323751   -1.032984
  H     -1.934769    0.100783    1.348285
  H     -0.643274    1.290948    1.364308
  H     -0.242643   -1.153485   -1.456198
  H     -1.421941   -1.954126   -0.404472
  H      0.258175   -2.493033   -0.429941
  H      2.067840   -0.960041    0.360562
  H      1.673626    0.443478    1.371353
  H      1.184424    1.543777   -0.539191

 Total Charge           Charge          ....    0
 Multiplicity           Mult            ....    1
 Number of Electrons    NEL             ....   50
 Basis Dimension        Dim             ....  179

ORBITAL ENERGIES
----------------

  NO   OCC          E(Eh)            E(eV)
   0   2.0000     -18.950159      -515.6600
   1   2.0000     -10.064303      -273.8636
   2   2.0000     -10.023795      -272.7613
   3   2.0000     -10.016720      -272.5688
   4   2.0000     -10.006996      -272.3042
   5   2.0000     -10.006122      -272.2804
   6   2.0000      -0.986279       -26.8380
   7   2.0000      -0.763720       -20.7819
   8   2.0000      -0.689931       -18.7740
   9   2.0000      -0.636439       -17.3184
  10   2.0000      -0.592075       -16.1112
  11   2.0000      -0.515341       -14.0232
  12   2.0000      -0.461677       -12.5629
  13   2.0000      -0.437012       -11.8917
  14   2.0000      -0.416528       -11.3343
  15   2.0000      -0.390314       -10.6210
  16   2.0000      -0.372279       -10.1302
  17   2.0000      -0.352371        -9.5885
  18   2.0000      -0.339925        -9.2498
  19   2.0000      -0.326688        -8.8896
  20   2.0000      -0.317125        -8.6294
  21   2.0000      -0.294163        -8.0046
  22   2.0000      -0.282120        -7.6769
  23   2.0000      -0.272986        -7.4283
  24   2.0000      -0.232002        -6.3131
  25   0.0000       0.062653         1.7049
  26   0.0000       0.110598         3.0095
  27   0.0000       0.120848         3.2884
  28   0.0000       0.131122         3.5680
  29   0.0000       0.140402         3.8205

MULLIKEN ATOMIC CHARGES
-----------------------
   0 C :   -0.524589
   1 C :   -0.326631
   2 C :    0.055330
   3 H :    0.162375
   4 C :   -0.566700
   5 C :   -0.226388
   6 O :   -0.517699
   7 H :    0.156874
   8 H :    0.165140
   9 H :    0.159235
  10 H :    0.158249
  11 H :    0.155680
  12 H :    0.165865
  13 H :    0.167398
  14 H :    0.157914
  15 H :    0.148787
  16 H :    0.151350
  17 H :    0.357810
Sum of atomic charges:    0.0000000

LOEWDIN ATOMIC CHARGES
----------------------
   0 C :   -0.431702
   1 C :   -0.313035
   2 C :   -0.231723
   3 H :    0.167441
   4 C :   -0.420872
   5 C :    0.001722
   6 O :   -0.656127
   7 H :    0.153610
   8 H :    0.154684
   9 H :    0.153697
  10 H :    0.158690
  11 H :    0.159602
  12 H :    0.158981
  13 H :    0.158073
  14 H :    0.157261
  15 H :    0.180272
  16 H :    0.166526
  17 H :    0.282901

  Mayer bond orders larger than 0.100000
B(  0-C ,  1-C ) :   0.8745 B(  0-C ,  7-H ) :   0.9680 B(  0-C ,  8-H ) :   0.9885
B(  0-C ,  9-H ) :   0.9661 B(  1-C ,  2-C ) :   0.8621 B(  1-C , 10-H ) :   0.9639
B(  1-C , 11-H ) :   0.9907 B(  2-C ,  3-H ) :   0.9604 B(  2-C ,  4-C ) :   0.8698
B(  2-C ,  5-C ) :   0.9107 B(  4-C , 12-H ) :   0.9712 B(  4-C , 13-H ) :   0.9790
B(  4-C , 14-H ) :   0.9687 B(  5-C ,  6-O ) :   0.9544 B(  5-C , 15-H ) :   0.9794
B(  5-C , 16-H ) :   0.9737 B(  6-O , 17-H ) :   0.8629

Dispersion correction           -0.004563056
FINAL SINGLE POINT ENERGY      -272.900520023910

DIPOLE MOMENT
-------------

Method             : SCF
Type of density    : Electron Density
Multiplicity       :   1
Irrep              :   0
Energy             :  -272.9060506847916372 Eh
Relativity type    :
Basis              : AO
                                X                 Y                 Z
Electronic contribution:      3.615041014       0.988507573       0.187270836
Nuclear contribution   :     -4.111343319      -0.743734189       0.550296924
                        -----------------------------------------
Total Dipole Moment    :     -0.496302305       0.244773385       0.737567760
                        -----------------------------------------
Magnitude (a.u.)       :      0.922082528
Magnitude (Debye)      :      2.343747525

Rotational constants in cm-1:             0.134798             0.093633             0.075715
Rotational constants in MHz :          4041.139600          2807.049048          2269.889954

                             ****ORCA TERMINATED NORMALLY****
TOTAL RUN TIME: 0 days 0 hours 0 minutes 27 seconds 435 msec
