                         Program Version 6.0.0  -   RELEASE  -
|  1> ! r2scan-3c def2/J RI DEFGRID2 scfconv6 printgap
|  2> %output
|  3>     printlevel normal
|  4> end
|  5> * xyz 0 1
|  6> C -2.8116891119 0.229448004 -0.0007685606
|  7> C -1.4444203388 -0.4415116009 -0.0004303551
|  8> C -0.3194369473 0.5892890757 0.0019355796
|  9> C 1.0437500645 -0.0430990908 0.000581086
| 10> O 1.2666453652 -1.2347477495 9.76665e-05
| 11> O 2.0150384265 0.8609928301 -0.0011037153
| 12> H -3.5981964328 -0.5200249918 -0.0022705584
| 13> H -2.9302620017 0.8544372009 -0.8824214729
| 14> H -2.9312400325 0.8520582502 0.8824396921
| 15> H -1.342445229 -1.0826737493 0.8771065519
| 16> H -1.3412344285 -1.0802870477 -0.8795468751
| 17> H -0.3837664903 1.2372945155 -0.8747992816
| 18> H -0.3835645118 1.2327681392 0.8820143966
| 19> H 2.9046499534 0.4576857242 -0.0022555368
| 20> *
| 21>
| 22>                          ****END OF INPUT****

CARTESIAN COORDINATES (ANGSTROEM)
---------------------------------
  C     -2.811689    0.229448   -0.000769
  C     -1.444420   -0.441512   -0.000430
  C     -0.319437    0.589289    0.001936
  C      1.043750   -0.043099    0.000581
  O      1.266645   -1.234748    0.000098
  O      2.015038    0.860993   -0.001104
  H     -3.598196   -0.520025   -0.002271
  H     -2.930262    0.854437   -0.882421
  H     -2.931240    0.852058    0.882440
  H     -1.342445   -1.082674    0.877107
  H     -1.341234   -1.080287   -0.879547
  H     -0.383766    1.237295   -0.874799
  H     -0.383565    1.232768    0.882014
  H      2.904650    0.457686   -0.002256

 Total Charge           Charge          ....    0
 Multiplicity           Mult            ....    1
 Number of Electrons    NEL             ....   48
 Basis Dimension        Dim             ....  164

ORBITAL ENERGIES
----------------

  NO   OCC          E(Eh)            E(eV)
   0   2.0000     -19.002332      -517.0797
   1   2.0000     -18.935305      -515.2559
   2   2.0000     -10.161895      -276.5192
   3   2.0000     -10.048203      -273.4255
   4   2.0000     -10.032457      -272.9970
   5   2.0000     -10.022153      -272.7166
   6   2.0000      -1.077204       -29.3122
   7   2.0000      -0.979258       -26.6470
   8   2.0000      -0.771921       -21.0050
   9   2.0000      -0.693141       -18.8613
  10   2.0000      -0.605507       -16.4767
  11   2.0000      -0.550008       -14.9665
  12   2.0000      -0.465218       -12.6592
  13   2.0000      -0.459566       -12.5054
  14   2.0000      -0.445005       -12.1092
  15   2.0000      -0.409979       -11.1561
  16   2.0000      -0.391779       -10.6608
  17   2.0000      -0.362869        -9.8742
  18   2.0000      -0.357019        -9.7150
  19   2.0000      -0.324872        -8.8402
  20   2.0000      -0.317141        -8.6299
  21   2.0000      -0.307324        -8.3627
  22   2.0000      -0.292631        -7.9629
  23   2.0000      -0.241852        -6.5811
  24   0.0000      -0.018582        -0.5056
  25   0.0000       0.058886         1.6024
  26   0.0000       0.088935         2.4200
  27   0.0000       0.113305         3.0832
  28   0.0000       0.139873         3.8061

MULLIKEN ATOMIC CHARGES
-----------------------
   0 C :   -0.457792
   1 C :   -0.244783
   2 C :   -0.275845
   3 C :    0.336279
   4 O :   -0.397219
   5 O :   -0.345205
   6 H :    0.151148
   7 H :    0.139971
   8 H :    0.139895
   9 H :    0.151525
  10 H :    0.151479
  11 H :    0.160925
  12 H :    0.160956
  13 H :    0.328667
Sum of atomic charges:   -0.0000000

LOEWDIN ATOMIC CHARGES
----------------------
   0 C :   -0.421342
   1 C :   -0.296371
   2 C :   -0.239248
   3 C :    0.343417
   4 O :   -0.424174
   5 O :   -0.405734
   6 H :    0.153382
   7 H :    0.149881
   8 H :    0.149884
   9 H :    0.162814
  10 H :    0.162794
  11 H :    0.182887
  12 H :    0.182904
  13 H :    0.298905

  Mayer bond orders larger than 0.100000
B(  0-C ,  1-C ) :   0.8812 B(  0-C ,  6-H ) :   0.9745 B(  0-C ,  7-H ) :   0.9816
B(  0-C ,  8-H ) :   0.9816 B(  1-C ,  2-C ) :   0.9596 B(  1-C ,  9-H ) :   0.9661
B(  1-C , 10-H ) :   0.9663 B(  2-C ,  3-C ) :   1.0076 B(  2-C , 11-H ) :   0.9380
B(  2-C , 12-H ) :   0.9375 B(  3-C ,  4-O ) :   1.9304 B(  3-C ,  5-O ) :   1.0513
B(  5-O , 13-H ) :   0.8587

Dispersion correction           -0.003010379
FINAL SINGLE POINT ENERGY      -307.649162456186

DIPOLE MOMENT
-------------

Method             : SCF
Type of density    : Electron Density
Multiplicity       :   1
Irrep              :   0
Energy             :  -307.6538144434242099 Eh
Relativity type    :
Basis              : AO
                                X                 Y                 Z
Electronic contribution:      9.269758605      -1.142469083      -0.000163918
Nuclear contribution   :     -9.338670822       1.825066327       0.000235469
                        -----------------------------------------
Total Dipole Moment    :     -0.068912217       0.682597243       0.000071551
                        -----------------------------------------
Magnitude (a.u.)       :      0.686066976
Magnitude (Debye)      :      1.743843667

Rotational constants in cm-1:             0.303827             0.061878             0.052919
Rotational constants in MHz :          9108.499664          1855.059923          1586.470523

                             ****ORCA TERMINATED NORMALLY****
TOTAL RUN TIME: 0 days 0 hours 0 minutes 18 seconds 437 msec
