                         Program Version 6.0.0  -   RELEASE  -
|  1> ! r2scan-3c def2/J RI DEFGRID2 scfconv6 printgap
|  2> %output
|  3>     printlevel normal
|  4> end
|  5> %cpcm
|  6>     smd true
|  7>     smdsolvent "water"
|  8> end
|  9> * xyz 0 1
| 10> C -2.8116891119 0.229448004 -0.0007685606
| 11> C -1.4444203388 -0.4415116009 -0.0004303551
| 12> C -0.3194369473 0.5892890757 0.0019355796
| 13> C 1.0437500645 -0.0430990908 0.000581086
| 14> O 1.2666453652 -1.2347477495 9.76665e-05
| 15> O 2.0150384265 0.8609928301 -0.0011037153
| 16> H -3.5981964328 -0.5200249918 -0.0022705584
| 17> H -2.9302620017 0.8544372009 -0.8824214729
| 18> H -2.9312400325 0.8520582502 0.8824396921
| 19> H -1.342445229 -1.0826737493 0.8771065519
| 20> H -1.3412344285 -1.0802870477 -0.8795468751
| 21> H -0.3837664903 1.2372945155 -0.8747992816
| 22> H -0.3835645118 1.2327681392 0.8820143966
| 23> H 2.9046499534 0.4576857242 -0.0022555368
| 24> *
| 25>
| 26>                          ****END OF INPUT****

CARTESIAN COORDINATES (ANGSTROEM)
---------------------------------
  C     -2.811689    0.229448   -0.000769
  C     -1.444420   -0.441512   -0.000430
  C     -0.319437    0.589289    0.001936
  C      1.043750   -0.043099    0.000581
  O      1.266645   -1.234748    0.000098
  O      2.015038    0.860993   -0.001104
  H     -3.598196   -0.520025   -0.002271
  H     -2.930262    0.854437   -0.882421
  H     -2.931240    0.852058    0.882440
  H     -1.342445   -1.082674    0.877107
  H     -1.341234   -1.080287   -0.879547
  H     -0.383766    1.237295   -0.874799
  H     -0.383565    1.232768    0.882014
  H      2.904650    0.457686   -0.002256

 Total Charge           Charge          ....    0
 Multiplicity           Mult            ....    1
 Number of Electrons    NEL             ....   48
 Basis Dimension        Dim             ....  164

ORBITAL ENERGIES
----------------

  NO   OCC          E(Eh)            E(eV)
   0   2.0000     -18.999491      -517.0024
   1   2.0000     -18.945165      -515.5242
   2   2.0000     -10.167174      -276.6629
   3   2.0000     -10.037210      -273.1264
   4   2.0000     -10.024612      -272.7836
   5   2.0000     -10.010854      -272.4092
   6   2.0000      -1.077419       -29.3181
   7   2.0000      -0.986303       -26.8387
   8   2.0000      -0.763105       -20.7651
   9   2.0000      -0.684383       -18.6230
  10   2.0000      -0.597081       -16.2474
  11   2.0000      -0.541409       -14.7325
  12   2.0000      -0.467711       -12.7271
  13   2.0000      -0.452961       -12.3257
  14   2.0000      -0.451945       -12.2980
  15   2.0000      -0.405572       -11.0362
  16   2.0000      -0.382388       -10.4053
  17   2.0000      -0.364576        -9.9206
  18   2.0000      -0.346856        -9.4384
  19   2.0000      -0.318355        -8.6629
  20   2.0000      -0.307418        -8.3653
  21   2.0000      -0.302995        -8.2449
  22   2.0000      -0.294204        -8.0057
  23   2.0000      -0.253571        -6.9000
  24   0.0000      -0.021538        -0.5861
  25   0.0000       0.078482         2.1356
  26   0.0000       0.103508         2.8166
  27   0.0000       0.125444         3.4135
  28   0.0000       0.146055         3.9744

MULLIKEN ATOMIC CHARGES
-----------------------
   0 C :   -0.508293
   1 C :   -0.264578
   2 C :   -0.276909
   3 C :    0.368669
   4 O :   -0.485159
   5 O :   -0.371510
   6 H :    0.160017
   7 H :    0.155770
   8 H :    0.155687
   9 H :    0.155710
  10 H :    0.155680
  11 H :    0.188495
  12 H :    0.188632
  13 H :    0.377789
Sum of atomic charges:   -0.0000000

LOEWDIN ATOMIC CHARGES
----------------------
   0 C :   -0.426667
   1 C :   -0.300205
   2 C :   -0.237092
   3 C :    0.356802
   4 O :   -0.488582
   5 O :   -0.398312
   6 H :    0.155110
   7 H :    0.154538
   8 H :    0.154536
   9 H :    0.161131
  10 H :    0.161115
  11 H :    0.194196
  12 H :    0.194245
  13 H :    0.319186

  Mayer bond orders larger than 0.100000
B(  0-C ,  1-C ) :   0.8835 B(  0-C ,  6-H ) :   0.9719 B(  0-C ,  7-H ) :   0.9793
B(  0-C ,  8-H ) :   0.9792 B(  1-C ,  2-C ) :   0.9328 B(  1-C ,  9-H ) :   0.9683
B(  1-C , 10-H ) :   0.9685 B(  2-C ,  3-C ) :   1.0147 B(  2-C , 11-H ) :   0.9262
B(  2-C , 12-H ) :   0.9256 B(  3-C ,  4-O ) :   1.8632 B(  3-C ,  5-O ) :   1.0859
B(  5-O , 13-H ) :   0.8344

Dispersion correction           -0.003010379
FINAL SINGLE POINT ENERGY      -307.659202690351

DIPOLE MOMENT
-------------

Method             : SCF
Type of density    : Electron Density
Multiplicity       :   1
Irrep              :   0
Energy             :  -307.6638546775893133 Eh
Relativity type    :
Basis              : AO
                                X                 Y                 Z
Electronic contribution:      9.284131896      -0.788995984       0.000025934
Nuclear contribution   :     -9.338670822       1.825066327       0.000235469
                        -----------------------------------------
Total Dipole Moment    :     -0.054538925       1.036070342       0.000261404
                        -----------------------------------------
Magnitude (a.u.)       :      1.037504852
Magnitude (Debye)      :      2.637127757

Rotational constants in cm-1:             0.303827             0.061878             0.052919
Rotational constants in MHz :          9108.499664          1855.059923          1586.470523

                             ****ORCA TERMINATED NORMALLY****
TOTAL RUN TIME: 0 days 0 hours 0 minutes 20 seconds 408 msec
