                         Program Version 6.0.0  -   RELEASE  -
|  1> ! r2scan-3c def2/J RI DEFGRID2 scfconv6 printgap
|  2> %output
|  3>     printlevel normal
|  4> end
|  5> * xyz 0 1
|  6> C 2.0591961196 -0.9497218807 0.1725676772
|  7> C 1.1892033815 0.0539089063 0.923594823
|  8> C 0.167201499 0.812758369 0.0560369128
|  9> H -0.0500309927 1.7611139432 0.5806760186
| 10> C -1.1985558046 0.1183486757 -0.1540556934
| 11> C -1.0870746722 -1.2657874122 -0.7867075966
| 12> C -2.0024430729 0.0573003431 1.1428212017
| 13> O 0.7850462166 1.1157927046 -1.1837719465
| 14> H 1.4882487681 -1.805726709 -0.1692559478
| 15> H 2.8503222493 -1.3036043057 0.8295045698
| 16> H 2.511113713 -0.4698309526 -0.6908030575
| 17> H 0.6605574239 -0.441287549 1.7371990489
| 18> H 1.8523195219 0.8007389945 1.365409047
| 19> H -1.7501068452 0.7605160483 -0.8542767766
| 20> H -0.7255149573 -1.9908162434 -0.0628013363
| 21> H -2.0638130447 -1.5937549434 -1.1356460603
| 22> H -0.4065758707 -1.238963793 -1.6340123225
| 23> H -3.0007706179 -0.3216332205 0.9391675206
| 24> H -2.0920728304 1.0451215092 1.5890993299
| 25> H -1.5303127245 -0.6047527828 1.8640140281
| 26> H 0.1919466095 1.6715647046 -1.7055742341
| 27> *
| 28>
| 29>                          ****END OF INPUT****

CARTESIAN COORDINATES (ANGSTROEM)
---------------------------------
  C      2.059196   -0.949722    0.172568
  C      1.189203    0.053909    0.923595
  C      0.167201    0.812758    0.056037
  H     -0.050031    1.761114    0.580676
  C     -1.198556    0.118349   -0.154056
  C     -1.087075   -1.265787   -0.786708
  C     -2.002443    0.057300    1.142821
  O      0.785046    1.115793   -1.183772
  H      1.488249   -1.805727   -0.169256
  H      2.850322   -1.303604    0.829505
  H      2.511114   -0.469831   -0.690803
  H      0.660557   -0.441288    1.737199
  H      1.852320    0.800739    1.365409
  H     -1.750107    0.760516   -0.854277
  H     -0.725515   -1.990816   -0.062801
  H     -2.063813   -1.593755   -1.135646
  H     -0.406576   -1.238964   -1.634012
  H     -3.000771   -0.321633    0.939168
  H     -2.092073    1.045122    1.589099
  H     -1.530313   -0.604753    1.864014
  H      0.191947    1.671565   -1.705574

 Total Charge           Charge          ....    0
 Multiplicity           Mult            ....    1
 Number of Electrons    NEL             ....   58
 Basis Dimension        Dim             ....  208

ORBITAL ENERGIES
----------------

  NO   OCC          E(Eh)            E(eV)
   0   2.0000     -18.945565      -515.5350
   1   2.0000     -10.077220      -274.2151
   2   2.0000     -10.034792      -273.0606
   3   2.0000     -10.022942      -272.7381
   4   2.0000     -10.019377      -272.6411
   5   2.0000     -10.012990      -272.4673
   6   2.0000     -10.005912      -272.2747
   7   2.0000      -0.983922       -26.7739
   8   2.0000      -0.772086       -21.0095
   9   2.0000      -0.724487       -19.7143
  10   2.0000      -0.652760       -17.7625
  11   2.0000      -0.636745       -17.3267
  12   2.0000      -0.566664       -15.4197
  13   2.0000      -0.523590       -14.2476
  14   2.0000      -0.468610       -12.7515
  15   2.0000      -0.449593       -12.2340
  16   2.0000      -0.412152       -11.2152
  17   2.0000      -0.391866       -10.6632
  18   2.0000      -0.383926       -10.4472
  19   2.0000      -0.370715       -10.0877
  20   2.0000      -0.356172        -9.6919
  21   2.0000      -0.344130        -9.3643
  22   2.0000      -0.332716        -9.0536
  23   2.0000      -0.317150        -8.6301
  24   2.0000      -0.310550        -8.4505
  25   2.0000      -0.296563        -8.0699
  26   2.0000      -0.294603        -8.0165
  27   2.0000      -0.272032        -7.4024
  28   2.0000      -0.229685        -6.2501
  29   0.0000       0.058000         1.5783
  30   0.0000       0.092719         2.5230
  31   0.0000       0.108743         2.9590
  32   0.0000       0.122565         3.3352
  33   0.0000       0.127879         3.4798

MULLIKEN ATOMIC CHARGES
-----------------------
   0 C :   -0.489875
   1 C :   -0.290261
   2 C :    0.055067
   3 H :    0.130446
   4 C :   -0.022536
   5 C :   -0.538277
   6 C :   -0.512514
   7 O :   -0.429136
   8 H :    0.146494
   9 H :    0.141226
  10 H :    0.177040
  11 H :    0.138642
  12 H :    0.149528
  13 H :    0.129155
  14 H :    0.153981
  15 H :    0.147537
  16 H :    0.176828
  17 H :    0.149722
  18 H :    0.147869
  19 H :    0.152546
  20 H :    0.286519
Sum of atomic charges:   -0.0000000

LOEWDIN ATOMIC CHARGES
----------------------
   0 C :   -0.412805
   1 C :   -0.276766
   2 C :    0.059938
   3 H :    0.165231
   4 C :   -0.226686
   5 C :   -0.413067
   6 C :   -0.414768
   7 O :   -0.626090
   8 H :    0.150951
   9 H :    0.147825
  10 H :    0.169598
  11 H :    0.159043
  12 H :    0.160550
  13 H :    0.156041
  14 H :    0.153354
  15 H :    0.152514
  16 H :    0.164562
  17 H :    0.155799
  18 H :    0.154142
  19 H :    0.152574
  20 H :    0.268061

  Mayer bond orders larger than 0.100000
B(  0-C ,  1-C ) :   0.8954 B(  0-C ,  8-H ) :   0.9665 B(  0-C ,  9-H ) :   0.9756
B(  0-C , 10-H ) :   0.9803 B(  1-C ,  2-C ) :   0.9215 B(  1-C , 11-H ) :   0.9824
B(  1-C , 12-H ) :   0.9620 B(  2-C ,  3-H ) :   0.9745 B(  2-C ,  4-C ) :   0.9004
B(  2-C ,  7-O ) :   0.8806 B(  4-C ,  5-C ) :   0.8649 B(  4-C ,  6-C ) :   0.9185
B(  4-C , 13-H ) :   0.9712 B(  5-C , 14-H ) :   0.9810 B(  5-C , 15-H ) :   0.9678
B(  5-C , 16-H ) :   0.9713 B(  6-C , 17-H ) :   0.9686 B(  6-C , 18-H ) :   0.9750
B(  6-C , 19-H ) :   0.9818 B(  7-O , 20-H ) :   0.8979

Dispersion correction           -0.005848824
FINAL SINGLE POINT ENERGY      -312.198392644012

DIPOLE MOMENT
-------------

Method             : SCF
Type of density    : Electron Density
Multiplicity       :   1
Irrep              :   0
Energy             :  -312.2039391301372007 Eh
Relativity type    :
Basis              : AO
                                X                 Y                 Z
Electronic contribution:      1.389347176       3.685078430      -2.368691772
Nuclear contribution   :     -1.925365823      -3.484024770       2.471098188
                        -----------------------------------------
Total Dipole Moment    :     -0.536018647       0.201053660       0.102406415
                        -----------------------------------------
Magnitude (a.u.)       :      0.581571697
Magnitude (Debye)      :      1.478237776

Rotational constants in cm-1:             0.107750             0.061425             0.058175
Rotational constants in MHz :          3230.261117          1841.463429          1744.031793

                             ****ORCA TERMINATED NORMALLY****
TOTAL RUN TIME: 0 days 0 hours 0 minutes 27 seconds 950 msec
