                         Program Version 6.0.0  -   RELEASE  -
|  1> ! r2scan-3c def2/J RI DEFGRID2 scfconv6 printgap
|  2> %output
|  3>     printlevel normal
|  4> end
|  5> %cpcm
|  6>     smd true
|  7>     smdsolvent "water"
|  8> end
|  9> * xyz 0 1
| 10> C 2.0591961196 -0.9497218807 0.1725676772
| 11> C 1.1892033815 0.0539089063 0.923594823
| 12> C 0.167201499 0.812758369 0.0560369128
| 13> H -0.0500309927 1.7611139432 0.5806760186
| 14> C -1.1985558046 0.1183486757 -0.1540556934
| 15> C -1.0870746722 -1.2657874122 -0.7867075966
| 16> C -2.0024430729 0.0573003431 1.1428212017
| 17> O 0.7850462166 1.1157927046 -1.1837719465
| 18> H 1.4882487681 -1.805726709 -0.1692559478
| 19> H 2.8503222493 -1.3036043057 0.8295045698
| 20> H 2.511113713 -0.4698309526 -0.6908030575
| 21> H 0.6605574239 -0.441287549 1.7371990489
| 22> H 1.8523195219 0.8007389945 1.365409047
| 23> H -1.7501068452 0.7605160483 -0.8542767766
| 24> H -0.7255149573 -1.9908162434 -0.0628013363
| 25> H -2.0638130447 -1.5937549434 -1.1356460603
| 26> H -0.4065758707 -1.238963793 -1.6340123225
| 27> H -3.0007706179 -0.3216332205 0.9391675206
| 28> H -2.0920728304 1.0451215092 1.5890993299
| 29> H -1.5303127245 -0.6047527828 1.8640140281
| 30> H 0.1919466095 1.6715647046 -1.7055742341
| 31> *
| 32>
| 33>                          ****END OF INPUT****

CARTESIAN COORDINATES (ANGSTROEM)
---------------------------------
  C      2.059196   -0.949722    0.172568
  C      1.189203    0.053909    0.923595
  C      0.167201    0.812758    0.056037
  H     -0.050031    1.761114    0.580676
  C     -1.198556    0.118349   -0.154056
  C     -1.087075   -1.265787   -0.786708
  C     -2.002443    0.057300    1.142821
  O      0.785046    1.115793   -1.183772
  H      1.488249   -1.805727   -0.169256
  H      2.850322   -1.303604    0.829505
  H      2.511114   -0.469831   -0.690803
  H      0.660557   -0.441288    1.737199
  H      1.852320    0.800739    1.365409
  H     -1.750107    0.760516   -0.854277
  H     -0.725515   -1.990816   -0.062801
  H     -2.063813   -1.593755   -1.135646
  H     -0.406576   -1.238964   -1.634012
  H     -3.000771   -0.321633    0.939168
  H     -2.092073    1.045122    1.589099
  H     -1.530313   -0.604753    1.864014
  H      0.191947    1.671565   -1.705574

 Total Charge           Charge          ....    0
 Multiplicity           Mult            ....    1
 Number of Electrons    NEL             ....   58
 Basis Dimension        Dim             ....  208

ORBITAL ENERGIES
----------------

  NO   OCC          E(Eh)            E(eV)
   0   2.0000     -18.947036      -515.5750
   1   2.0000     -10.071426      -274.0574
   2   2.0000     -10.024794      -272.7885
   3   2.0000     -10.017775      -272.5975
   4   2.0000     -10.008024      -272.3322
   5   2.0000     -10.005880      -272.2738
   6   2.0000     -10.005773      -272.2709
   7   2.0000      -0.984346       -26.7854
   8   2.0000      -0.764322       -20.7983
   9   2.0000      -0.720332       -19.6012
  10   2.0000      -0.645281       -17.5590
  11   2.0000      -0.632058       -17.1992
  12   2.0000      -0.560958       -15.2644
  13   2.0000      -0.518654       -14.1133
  14   2.0000      -0.462859       -12.5950
  15   2.0000      -0.442937       -12.0529
  16   2.0000      -0.406133       -11.0514
  17   2.0000      -0.390408       -10.6235
  18   2.0000      -0.379043       -10.3143
  19   2.0000      -0.363108        -9.8807
  20   2.0000      -0.349423        -9.5083
  21   2.0000      -0.340485        -9.2651
  22   2.0000      -0.327468        -8.9108
  23   2.0000      -0.314344        -8.5537
  24   2.0000      -0.304292        -8.2802
  25   2.0000      -0.293437        -7.9848
  26   2.0000      -0.289471        -7.8769
  27   2.0000      -0.266764        -7.2590
  28   2.0000      -0.230401        -6.2695
  29   0.0000       0.072833         1.9819
  30   0.0000       0.102591         2.7916
  31   0.0000       0.118587         3.2269
  32   0.0000       0.130731         3.5574
  33   0.0000       0.134551         3.6613

MULLIKEN ATOMIC CHARGES
-----------------------
   0 C :   -0.533035
   1 C :   -0.301405
   2 C :    0.058624
   3 H :    0.143264
   4 C :   -0.006263
   5 C :   -0.576211
   6 C :   -0.558375
   7 O :   -0.513146
   8 H :    0.163398
   9 H :    0.156181
  10 H :    0.166786
  11 H :    0.158571
  12 H :    0.162284
  13 H :    0.153320
  14 H :    0.168678
  15 H :    0.161082
  16 H :    0.166733
  17 H :    0.161130
  18 H :    0.159995
  19 H :    0.166875
  20 H :    0.341513
Sum of atomic charges:   -0.0000000

LOEWDIN ATOMIC CHARGES
----------------------
   0 C :   -0.422695
   1 C :   -0.280875
   2 C :    0.061210
   3 H :    0.172452
   4 C :   -0.222305
   5 C :   -0.420283
   6 C :   -0.421543
   7 O :   -0.659209
   8 H :    0.154795
   9 H :    0.152329
  10 H :    0.162332
  11 H :    0.166637
  12 H :    0.161822
  13 H :    0.164563
  14 H :    0.157072
  15 H :    0.156174
  16 H :    0.159508
  17 H :    0.158513
  18 H :    0.157490
  19 H :    0.156054
  20 H :    0.285959

  Mayer bond orders larger than 0.100000
B(  0-C ,  1-C ) :   0.8712 B(  0-C ,  8-H ) :   0.9670 B(  0-C ,  9-H ) :   0.9716
B(  0-C , 10-H ) :   0.9837 B(  1-C ,  2-C ) :   0.9154 B(  1-C , 11-H ) :   0.9750
B(  1-C , 12-H ) :   0.9669 B(  2-C ,  3-H ) :   0.9703 B(  2-C ,  4-C ) :   0.9051
B(  2-C ,  7-O ) :   0.8708 B(  4-C ,  5-C ) :   0.8519 B(  4-C ,  6-C ) :   0.9080
B(  4-C , 13-H ) :   0.9698 B(  5-C , 14-H ) :   0.9787 B(  5-C , 15-H ) :   0.9655
B(  5-C , 16-H ) :   0.9725 B(  6-C , 17-H ) :   0.9667 B(  6-C , 18-H ) :   0.9727
B(  6-C , 19-H ) :   0.9783 B(  7-O , 20-H ) :   0.8724

Dispersion correction           -0.005848824
FINAL SINGLE POINT ENERGY      -312.203189772788

DIPOLE MOMENT
-------------

Method             : SCF
Type of density    : Electron Density
Multiplicity       :   1
Irrep              :   0
Energy             :  -312.2087362589137456 Eh
Relativity type    :
Basis              : AO
                                X                 Y                 Z
Electronic contribution:      1.114387323       3.767886361      -2.243789639
Nuclear contribution   :     -1.925365823      -3.484024770       2.471098188
                        -----------------------------------------
Total Dipole Moment    :     -0.810978500       0.283861591       0.227308548
                        -----------------------------------------
Magnitude (a.u.)       :      0.888781586
Magnitude (Debye)      :      2.259103257

Rotational constants in cm-1:             0.107750             0.061425             0.058175
Rotational constants in MHz :          3230.261117          1841.463429          1744.031793

                             ****ORCA TERMINATED NORMALLY****
TOTAL RUN TIME: 0 days 0 hours 0 minutes 33 seconds 87 msec
