                         Program Version 6.0.0  -   RELEASE  -
|  1> ! pbe def2-sv(p) def2/J RI DEFGRID1 loosescf d4 GCP(DFT/SV(P)) printgap
|  2> %output
|  3>     printlevel normal
|  4> end
|  5> * xyz 0 1
|  6> C 1.8116063758 -0.6657517138 -0.5288243789
|  7> C 1.3860140012 0.5577559681 0.2750470254
|  8> C -0.0349057962 0.4308883974 0.827717625
|  9> C -1.1213588116 0.5014958153 -0.2594582085
| 10> C -2.0270972991 -0.7252751396 -0.2605489774
| 11> H 2.822319214 -0.5380950922 -0.9092041866
| 12> H 1.1473231543 -0.8269339865 -1.3740188012
| 13> H 1.7898481484 -1.5549686954 0.097490574
| 14> H 2.0783480472 0.6893047334 1.1100059613
| 15> H 1.4518690683 1.4503955619 -0.3512587383
| 16> H -0.1958933154 1.2253909134 1.5587441642
| 17> H -0.1146099193 -0.518617635 1.3608275384
| 18> H -1.7343137643 1.3926961909 -0.1121390565
| 19> H -0.6534999569 0.5957270961 -1.2408579953
| 20> H -2.7800618685 -0.6434787465 -1.0413919444
| 21> H -2.5353681689 -0.8249735947 0.6960728642
| 22> H -1.4458767857 -1.6275660777 -0.4369832387
| 23> *
| 24>
| 25>                          ****END OF INPUT****

CARTESIAN COORDINATES (ANGSTROEM)
---------------------------------
  C      1.811606   -0.665752   -0.528824
  C      1.386014    0.557756    0.275047
  C     -0.034906    0.430888    0.827718
  C     -1.121359    0.501496   -0.259458
  C     -2.027097   -0.725275   -0.260549
  H      2.822319   -0.538095   -0.909204
  H      1.147323   -0.826934   -1.374019
  H      1.789848   -1.554969    0.097491
  H      2.078348    0.689305    1.110006
  H      1.451869    1.450396   -0.351259
  H     -0.195893    1.225391    1.558744
  H     -0.114610   -0.518618    1.360828
  H     -1.734314    1.392696   -0.112139
  H     -0.653500    0.595727   -1.240858
  H     -2.780062   -0.643479   -1.041392
  H     -2.535368   -0.824974    0.696073
  H     -1.445877   -1.627566   -0.436983

 Total Charge           Charge          ....    0
 Multiplicity           Mult            ....    1
 Number of Electrons    NEL             ....   42
 Basis Dimension        Dim             ....   94

ORBITAL ENERGIES
----------------

  NO   OCC          E(Eh)            E(eV)
   0   2.0000      -9.879173      -268.8260
   1   2.0000      -9.878190      -268.7992
   2   2.0000      -9.876010      -268.7399
   3   2.0000      -9.869801      -268.5709
   4   2.0000      -9.869669      -268.5673
   5   2.0000      -0.720561       -19.6075
   6   2.0000      -0.668583       -18.1931
   7   2.0000      -0.601910       -16.3788
   8   2.0000      -0.536832       -14.6079
   9   2.0000      -0.500538       -13.6203
  10   2.0000      -0.417704       -11.3663
  11   2.0000      -0.398754       -10.8506
  12   2.0000      -0.382236       -10.4012
  13   2.0000      -0.364595        -9.9211
  14   2.0000      -0.343410        -9.3447
  15   2.0000      -0.323531        -8.8037
  16   2.0000      -0.308157        -8.3854
  17   2.0000      -0.303418        -8.2564
  18   2.0000      -0.279943        -7.6176
  19   2.0000      -0.270273        -7.3545
  20   2.0000      -0.269280        -7.3275
  21   0.0000       0.037563         1.0222
  22   0.0000       0.064473         1.7544
  23   0.0000       0.068282         1.8581
  24   0.0000       0.072422         1.9707
  25   0.0000       0.101339         2.7576

MULLIKEN ATOMIC CHARGES
-----------------------
   0 C :   -0.286159
   1 C :   -0.199288
   2 C :   -0.152214
   3 C :   -0.186359
   4 C :   -0.296442
   5 H :    0.103117
   6 H :    0.104729
   7 H :    0.097160
   8 H :    0.082610
   9 H :    0.089175
  10 H :    0.081622
  11 H :    0.080897
  12 H :    0.084147
  13 H :    0.091844
  14 H :    0.098926
  15 H :    0.103677
  16 H :    0.102558
Sum of atomic charges:   -0.0000000

LOEWDIN ATOMIC CHARGES
----------------------
   0 C :   -0.343088
   1 C :   -0.233665
   2 C :   -0.228777
   3 C :   -0.236996
   4 C :   -0.341091
   5 H :    0.118825
   6 H :    0.115869
   7 H :    0.116157
   8 H :    0.113796
   9 H :    0.113266
  10 H :    0.116177
  11 H :    0.112446
  12 H :    0.116153
  13 H :    0.112515
  14 H :    0.116518
  15 H :    0.116593
  16 H :    0.115301

  Mayer bond orders larger than 0.100000
B(  0-C ,  1-C ) :   1.1517 B(  0-C ,  5-H ) :   0.9529 B(  0-C ,  6-H ) :   0.9502
B(  0-C ,  7-H ) :   0.9540 B(  1-C ,  2-C ) :   1.1293 B(  1-C ,  8-H ) :   0.9268
B(  1-C ,  9-H ) :   0.9285 B(  2-C ,  3-C ) :   1.0820 B(  2-C , 10-H ) :   0.9255
B(  2-C , 11-H ) :   0.9362 B(  3-C ,  4-C ) :   1.1591 B(  3-C , 12-H ) :   0.9298
B(  3-C , 13-H ) :   0.9354 B(  4-C , 14-H ) :   0.9521 B(  4-C , 15-H ) :   0.9550
B(  4-C , 16-H ) :   0.9550

Dispersion correction           -0.011201690
FINAL SINGLE POINT ENERGY      -197.231785131996

DIPOLE MOMENT
-------------

Method             : SCF
Type of density    : Electron Density
Multiplicity       :   1
Irrep              :   0
Energy             :  -197.2898734118263633 Eh
Relativity type    :
Basis              : AO
                                X                 Y                 Z
Electronic contribution:      0.168719891       1.146795099       0.611835188
Nuclear contribution   :     -0.159408670      -1.108079873      -0.602968018
                        -----------------------------------------
Total Dipole Moment    :      0.009311220       0.038715227       0.008867170
                        -----------------------------------------
Magnitude (a.u.)       :      0.040794538
Magnitude (Debye)      :      0.103691474

Rotational constants in cm-1:             0.281239             0.092636             0.079995
Rotational constants in MHz :          8431.347749          2777.156799          2398.181819

                             ****ORCA TERMINATED NORMALLY****
TOTAL RUN TIME: 0 days 0 hours 0 minutes 6 seconds 918 msec
