                         Program Version 6.0.0  -   RELEASE  -
|  1> ! r2scan-3c def2/J RI DEFGRID2 scfconv6 printgap
|  2> %output
|  3>     printlevel normal
|  4> end
|  5> * xyz 0 1
|  6> C -2.7413597498 -1.2539390512 0.0285295178
|  7> C -2.4782061714 0.2153769505 0.3365491263
|  8> C -1.2380701398 0.7933397225 -0.3503382343
|  9> C 0.1055825331 0.3680257667 0.2455478339
| 10> C 0.6557575073 -0.9796214545 -0.2252931252
| 11> C 2.1285327885 -0.9216797134 0.1761660605
| 12> C 2.5420790691 0.5429472197 -0.0391720238
| 13> C 1.2301187964 1.3365221321 -0.1548456177
| 14> H -2.7588402884 -1.419880431 -1.0461614145
| 15> H -1.9770212567 -1.8906137222 0.4629099267
| 16> H -3.7034804876 -1.5544574973 0.4375763618
| 17> H -3.3446259987 0.7948290876 0.007600355
| 18> H -2.3867270573 0.350036797 1.4167141365
| 19> H -1.2603698158 0.5369231191 -1.4121502977
| 20> H -1.299196113 1.8825711559 -0.2755315778
| 21> H 0.0219052669 0.3518069696 1.3373694453
| 22> H 0.1517651297 -1.8325938397 0.2235255522
| 23> H 0.5617393735 -1.0529532168 -1.310119431
| 24> H 2.2276983 -1.1871684551 1.2298733759
| 25> H 2.7405724392 -1.6121683768 -0.402373128
| 26> H 3.1493676867 0.8997828187 0.7919536152
| 27> H 3.134091844 0.6489069385 -0.9477741341
| 28> H 1.2334094735 2.2289540314 0.4696882774
| 29> H 1.0734932453 1.6527608485 -1.1873981464
| 30> *
| 31>
| 32>                          ****END OF INPUT****

CARTESIAN COORDINATES (ANGSTROEM)
---------------------------------
  C     -2.741360   -1.253939    0.028530
  C     -2.478206    0.215377    0.336549
  C     -1.238070    0.793340   -0.350338
  C      0.105583    0.368026    0.245548
  C      0.655758   -0.979621   -0.225293
  C      2.128533   -0.921680    0.176166
  C      2.542079    0.542947   -0.039172
  C      1.230119    1.336522   -0.154846
  H     -2.758840   -1.419880   -1.046161
  H     -1.977021   -1.890614    0.462910
  H     -3.703480   -1.554457    0.437576
  H     -3.344626    0.794829    0.007600
  H     -2.386727    0.350037    1.416714
  H     -1.260370    0.536923   -1.412150
  H     -1.299196    1.882571   -0.275532
  H      0.021905    0.351807    1.337369
  H      0.151765   -1.832594    0.223526
  H      0.561739   -1.052953   -1.310119
  H      2.227698   -1.187168    1.229873
  H      2.740572   -1.612168   -0.402373
  H      3.149368    0.899783    0.791954
  H      3.134092    0.648907   -0.947774
  H      1.233409    2.228954    0.469688
  H      1.073493    1.652761   -1.187398

 Total Charge           Charge          ....    0
 Multiplicity           Mult            ....    1
 Number of Electrons    NEL             ....   64
 Basis Dimension        Dim             ....  232

ORBITAL ENERGIES
----------------

  NO   OCC          E(Eh)            E(eV)
   0   2.0000     -10.024652      -272.7847
   1   2.0000     -10.020924      -272.6832
   2   2.0000     -10.018400      -272.6145
   3   2.0000     -10.017378      -272.5867
   4   2.0000     -10.016837      -272.5720
   5   2.0000     -10.016244      -272.5559
   6   2.0000     -10.016196      -272.5546
   7   2.0000     -10.011912      -272.4380
   8   2.0000      -0.804507       -21.8917
   9   2.0000      -0.748031       -20.3550
  10   2.0000      -0.686305       -18.6753
  11   2.0000      -0.670343       -18.2409
  12   2.0000      -0.623968       -16.9790
  13   2.0000      -0.547040       -14.8857
  14   2.0000      -0.527283       -14.3481
  15   2.0000      -0.519579       -14.1385
  16   2.0000      -0.450069       -12.2470
  17   2.0000      -0.434782       -11.8310
  18   2.0000      -0.407040       -11.0761
  19   2.0000      -0.398621       -10.8470
  20   2.0000      -0.389201       -10.5907
  21   2.0000      -0.378873       -10.3097
  22   2.0000      -0.348049        -9.4709
  23   2.0000      -0.331550        -9.0219
  24   2.0000      -0.319735        -8.7004
  25   2.0000      -0.301708        -8.2099
  26   2.0000      -0.300004        -8.1635
  27   2.0000      -0.297701        -8.1009
  28   2.0000      -0.285864        -7.7787
  29   2.0000      -0.277842        -7.5605
  30   2.0000      -0.272708        -7.4208
  31   2.0000      -0.269867        -7.3435
  32   0.0000       0.081716         2.2236
  33   0.0000       0.093595         2.5468
  34   0.0000       0.100541         2.7359
  35   0.0000       0.117367         3.1937
  36   0.0000       0.123176         3.3518

MULLIKEN ATOMIC CHARGES
-----------------------
   0 C :   -0.486220
   1 C :   -0.255839
   2 C :   -0.261979
   3 C :   -0.043551
   4 C :   -0.340195
   5 C :   -0.323811
   6 C :   -0.288087
   7 C :   -0.383150
   8 H :    0.144193
   9 H :    0.143511
  10 H :    0.144547
  11 H :    0.139635
  12 H :    0.138888
  13 H :    0.144864
  14 H :    0.143946
  15 H :    0.158002
  16 H :    0.146967
  17 H :    0.165618
  18 H :    0.148658
  19 H :    0.151012
  20 H :    0.148931
  21 H :    0.149569
  22 H :    0.154041
  23 H :    0.160450
Sum of atomic charges:   -0.0000000

LOEWDIN ATOMIC CHARGES
----------------------
   0 C :   -0.425444
   1 C :   -0.313946
   2 C :   -0.300420
   3 C :   -0.224029
   4 C :   -0.298629
   5 C :   -0.305105
   6 C :   -0.307717
   7 C :   -0.300652
   8 H :    0.149847
   9 H :    0.147965
  10 H :    0.149217
  11 H :    0.150762
  12 H :    0.151061
  13 H :    0.156952
  14 H :    0.159760
  15 H :    0.160268
  16 H :    0.156189
  17 H :    0.157679
  18 H :    0.154222
  19 H :    0.154853
  20 H :    0.155347
  21 H :    0.155199
  22 H :    0.157606
  23 H :    0.159017

  Mayer bond orders larger than 0.100000
B(  0-C ,  1-C ) :   0.8814 B(  0-C ,  8-H ) :   0.9804 B(  0-C ,  9-H ) :   0.9854
B(  0-C , 10-H ) :   0.9706 B(  1-C ,  2-C ) :   0.9003 B(  1-C , 11-H ) :   0.9669
B(  1-C , 12-H ) :   1.0054 B(  2-C ,  3-C ) :   0.8781 B(  2-C , 13-H ) :   0.9818
B(  2-C , 14-H ) :   0.9782 B(  3-C ,  4-C ) :   0.8801 B(  3-C ,  7-C ) :   0.9041
B(  3-C , 15-H ) :   0.9594 B(  4-C ,  5-C ) :   0.9064 B(  4-C , 16-H ) :   0.9447
B(  4-C , 17-H ) :   1.0194 B(  5-C ,  6-C ) :   0.9237 B(  5-C , 18-H ) :   0.9835
B(  5-C , 19-H ) :   0.9642 B(  6-C ,  7-C ) :   0.9094 B(  6-C , 20-H ) :   0.9772
B(  6-C , 21-H ) :   0.9845 B(  7-C , 22-H ) :   0.9591 B(  7-C , 23-H ) :   1.0139

Dispersion correction           -0.007023900
FINAL SINGLE POINT ENERGY      -314.379386697446

DIPOLE MOMENT
-------------

Method             : SCF
Type of density    : Electron Density
Multiplicity       :   1
Irrep              :   0
Energy             :  -314.3826392866291712 Eh
Relativity type    :
Basis              : AO
                                X                 Y                 Z
Electronic contribution:      2.267549019       1.152665273       0.215412571
Nuclear contribution   :     -2.285569927      -1.128857598      -0.191663973
                        -----------------------------------------
Total Dipole Moment    :     -0.018020908       0.023807675       0.023748599
                        -----------------------------------------
Magnitude (a.u.)       :      0.038151730
Magnitude (Debye)      :      0.096973990

Rotational constants in cm-1:             0.140235             0.038119             0.032093
Rotational constants in MHz :          4204.141098          1142.767263           962.112596

                             ****ORCA TERMINATED NORMALLY****
TOTAL RUN TIME: 0 days 0 hours 0 minutes 25 seconds 309 msec
