                         Program Version 6.0.0  -   RELEASE  -
|  1> ! r2scan-3c def2/J RI DEFGRID2 scfconv6 printgap
|  2> %output
|  3>     printlevel normal
|  4> end
|  5> %cpcm
|  6>     smd true
|  7>     smdsolvent "water"
|  8> end
|  9> * xyz 0 1
| 10> C -2.7413597498 -1.2539390512 0.0285295178
| 11> C -2.4782061714 0.2153769505 0.3365491263
| 12> C -1.2380701398 0.7933397225 -0.3503382343
| 13> C 0.1055825331 0.3680257667 0.2455478339
| 14> C 0.6557575073 -0.9796214545 -0.2252931252
| 15> C 2.1285327885 -0.9216797134 0.1761660605
| 16> C 2.5420790691 0.5429472197 -0.0391720238
| 17> C 1.2301187964 1.3365221321 -0.1548456177
| 18> H -2.7588402884 -1.419880431 -1.0461614145
| 19> H -1.9770212567 -1.8906137222 0.4629099267
| 20> H -3.7034804876 -1.5544574973 0.4375763618
| 21> H -3.3446259987 0.7948290876 0.007600355
| 22> H -2.3867270573 0.350036797 1.4167141365
| 23> H -1.2603698158 0.5369231191 -1.4121502977
| 24> H -1.299196113 1.8825711559 -0.2755315778
| 25> H 0.0219052669 0.3518069696 1.3373694453
| 26> H 0.1517651297 -1.8325938397 0.2235255522
| 27> H 0.5617393735 -1.0529532168 -1.310119431
| 28> H 2.2276983 -1.1871684551 1.2298733759
| 29> H 2.7405724392 -1.6121683768 -0.402373128
| 30> H 3.1493676867 0.8997828187 0.7919536152
| 31> H 3.134091844 0.6489069385 -0.9477741341
| 32> H 1.2334094735 2.2289540314 0.4696882774
| 33> H 1.0734932453 1.6527608485 -1.1873981464
| 34> *
| 35>
| 36>                          ****END OF INPUT****

CARTESIAN COORDINATES (ANGSTROEM)
---------------------------------
  C     -2.741360   -1.253939    0.028530
  C     -2.478206    0.215377    0.336549
  C     -1.238070    0.793340   -0.350338
  C      0.105583    0.368026    0.245548
  C      0.655758   -0.979621   -0.225293
  C      2.128533   -0.921680    0.176166
  C      2.542079    0.542947   -0.039172
  C      1.230119    1.336522   -0.154846
  H     -2.758840   -1.419880   -1.046161
  H     -1.977021   -1.890614    0.462910
  H     -3.703480   -1.554457    0.437576
  H     -3.344626    0.794829    0.007600
  H     -2.386727    0.350037    1.416714
  H     -1.260370    0.536923   -1.412150
  H     -1.299196    1.882571   -0.275532
  H      0.021905    0.351807    1.337369
  H      0.151765   -1.832594    0.223526
  H      0.561739   -1.052953   -1.310119
  H      2.227698   -1.187168    1.229873
  H      2.740572   -1.612168   -0.402373
  H      3.149368    0.899783    0.791954
  H      3.134092    0.648907   -0.947774
  H      1.233409    2.228954    0.469688
  H      1.073493    1.652761   -1.187398

 Total Charge           Charge          ....    0
 Multiplicity           Mult            ....    1
 Number of Electrons    NEL             ....   64
 Basis Dimension        Dim             ....  232

ORBITAL ENERGIES
----------------

  NO   OCC          E(Eh)            E(eV)
   0   2.0000     -10.017168      -272.5810
   1   2.0000     -10.014072      -272.4968
   2   2.0000     -10.011122      -272.4165
   3   2.0000     -10.010821      -272.4083
   4   2.0000     -10.010411      -272.3971
   5   2.0000     -10.009269      -272.3661
   6   2.0000     -10.008757      -272.3521
   7   2.0000     -10.005251      -272.2567
   8   2.0000      -0.797597       -21.7037
   9   2.0000      -0.741441       -20.1756
  10   2.0000      -0.679816       -18.4987
  11   2.0000      -0.663790       -18.0626
  12   2.0000      -0.617580       -16.8052
  13   2.0000      -0.540615       -14.7109
  14   2.0000      -0.520793       -14.1715
  15   2.0000      -0.512586       -13.9482
  16   2.0000      -0.443159       -12.0590
  17   2.0000      -0.428006       -11.6466
  18   2.0000      -0.400452       -10.8969
  19   2.0000      -0.392019       -10.6674
  20   2.0000      -0.382365       -10.4047
  21   2.0000      -0.371780       -10.1166
  22   2.0000      -0.341332        -9.2881
  23   2.0000      -0.324771        -8.8375
  24   2.0000      -0.313286        -8.5249
  25   2.0000      -0.295388        -8.0379
  26   2.0000      -0.293320        -7.9816
  27   2.0000      -0.290834        -7.9140
  28   2.0000      -0.278179        -7.5696
  29   2.0000      -0.270718        -7.3666
  30   2.0000      -0.265844        -7.2340
  31   2.0000      -0.263106        -7.1595
  32   0.0000       0.089423         2.4333
  33   0.0000       0.101113         2.7514
  34   0.0000       0.107598         2.9279
  35   0.0000       0.123603         3.3634
  36   0.0000       0.128224         3.4892

MULLIKEN ATOMIC CHARGES
-----------------------
   0 C :   -0.529648
   1 C :   -0.267982
   2 C :   -0.279852
   3 C :   -0.035470
   4 C :   -0.364150
   5 C :   -0.344510
   6 C :   -0.305558
   7 C :   -0.400274
   8 H :    0.155117
   9 H :    0.158006
  10 H :    0.153994
  11 H :    0.146951
  12 H :    0.148253
  13 H :    0.155120
  14 H :    0.149548
  15 H :    0.167146
  16 H :    0.159546
  17 H :    0.174678
  18 H :    0.157340
  19 H :    0.158050
  20 H :    0.157172
  21 H :    0.157732
  22 H :    0.162119
  23 H :    0.166674
Sum of atomic charges:   -0.0000000

LOEWDIN ATOMIC CHARGES
----------------------
   0 C :   -0.434650
   1 C :   -0.316822
   2 C :   -0.303527
   3 C :   -0.223149
   4 C :   -0.302874
   5 C :   -0.309767
   6 C :   -0.312569
   7 C :   -0.304403
   8 H :    0.152081
   9 H :    0.151290
  10 H :    0.151160
  11 H :    0.152219
  12 H :    0.153245
  13 H :    0.159422
  14 H :    0.160679
  15 H :    0.162861
  16 H :    0.159136
  17 H :    0.159648
  18 H :    0.156201
  19 H :    0.156212
  20 H :    0.157015
  21 H :    0.156906
  22 H :    0.159364
  23 H :    0.160323

  Mayer bond orders larger than 0.100000
B(  0-C ,  1-C ) :   0.8704 B(  0-C ,  8-H ) :   0.9778 B(  0-C ,  9-H ) :   0.9833
B(  0-C , 10-H ) :   0.9684 B(  1-C ,  2-C ) :   0.8958 B(  1-C , 11-H ) :   0.9671
B(  1-C , 12-H ) :   1.0048 B(  2-C ,  3-C ) :   0.8743 B(  2-C , 13-H ) :   0.9810
B(  2-C , 14-H ) :   0.9784 B(  3-C ,  4-C ) :   0.8719 B(  3-C ,  7-C ) :   0.9019
B(  3-C , 15-H ) :   0.9587 B(  4-C ,  5-C ) :   0.9070 B(  4-C , 16-H ) :   0.9435
B(  4-C , 17-H ) :   1.0167 B(  5-C ,  6-C ) :   0.9184 B(  5-C , 18-H ) :   0.9826
B(  5-C , 19-H ) :   0.9626 B(  6-C ,  7-C ) :   0.9048 B(  6-C , 20-H ) :   0.9765
B(  6-C , 21-H ) :   0.9834 B(  7-C , 22-H ) :   0.9579 B(  7-C , 23-H ) :   1.0119

Dispersion correction           -0.007023900
FINAL SINGLE POINT ENERGY      -314.376802808771

DIPOLE MOMENT
-------------

Method             : SCF
Type of density    : Electron Density
Multiplicity       :   1
Irrep              :   0
Energy             :  -314.3800553979533561 Eh
Relativity type    :
Basis              : AO
                                X                 Y                 Z
Electronic contribution:      2.253383102       1.154231286       0.229557178
Nuclear contribution   :     -2.285569927      -1.128857598      -0.191663973
                        -----------------------------------------
Total Dipole Moment    :     -0.032186825       0.025373688       0.037893205
                        -----------------------------------------
Magnitude (a.u.)       :      0.055818552
Magnitude (Debye)      :      0.141879483

Rotational constants in cm-1:             0.140235             0.038119             0.032093
Rotational constants in MHz :          4204.141098          1142.767263           962.112596

                             ****ORCA TERMINATED NORMALLY****
TOTAL RUN TIME: 0 days 0 hours 0 minutes 30 seconds 286 msec
