                         Program Version 6.0.0  -   RELEASE  -
|  1> ! pbe def2-sv(p) def2/J RI DEFGRID1 loosescf d4 GCP(DFT/SV(P)) printgap
|  2> %output
|  3>     printlevel normal
|  4> end
|  5> * xyz 0 1
|  6> C -2.35898668 0.7224176293 -0.0123050225
|  7> C -0.8448665159 0.8955362227 -0.0049294703
|  8> C -0.0918493639 -0.3330877783 0.5170800023
|  9> H -0.432832107 -0.5485097777 1.5355416586
| 10> C -0.3329147614 -1.568262384 -0.3511801503
| 11> C 1.4107332161 -0.0202533658 0.6177831321
| 12> O 2.0092703826 0.3358702285 -0.6091189729
| 13> H -2.8387398507 1.6574957778 -0.2908057805
| 14> H -2.6642528138 -0.0390057958 -0.7244876285
| 15> H -2.7132557837 0.4360812356 0.9755903572
| 16> H -0.5884805466 1.7482678277 0.6283087896
| 17> H -0.4941844838 1.1237087733 -1.0136280161
| 18> H 0.3230973816 -2.3805014911 -0.0445851539
| 19> H -0.1535595755 -1.3433070138 -1.400228415
| 20> H -1.3587907981 -1.9094053021 -0.2494805751
| 21> H 1.9359830719 -0.8799381639 1.0573165525
| 22> H 1.5646040087 0.8427607266 1.2709123535
| 23> H 1.9554699616 -0.4206995542 -1.2089592859
| 24> *
| 25>
| 26>                          ****END OF INPUT****

CARTESIAN COORDINATES (ANGSTROEM)
---------------------------------
  C     -2.358987    0.722418   -0.012305
  C     -0.844867    0.895536   -0.004929
  C     -0.091849   -0.333088    0.517080
  H     -0.432832   -0.548510    1.535542
  C     -0.332915   -1.568262   -0.351180
  C      1.410733   -0.020253    0.617783
  O      2.009270    0.335870   -0.609119
  H     -2.838740    1.657496   -0.290806
  H     -2.664253   -0.039006   -0.724488
  H     -2.713256    0.436081    0.975590
  H     -0.588481    1.748268    0.628309
  H     -0.494184    1.123709   -1.013628
  H      0.323097   -2.380501   -0.044585
  H     -0.153560   -1.343307   -1.400228
  H     -1.358791   -1.909405   -0.249481
  H      1.935983   -0.879938    1.057317
  H      1.564604    0.842761    1.270912
  H      1.955470   -0.420700   -1.208959

 Total Charge           Charge          ....    0
 Multiplicity           Mult            ....    1
 Number of Electrons    NEL             ....   50
 Basis Dimension        Dim             ....  108

ORBITAL ENERGIES
----------------

  NO   OCC          E(Eh)            E(eV)
   0   2.0000     -18.740314      -509.9499
   1   2.0000      -9.923621      -270.0355
   2   2.0000      -9.892533      -269.1895
   3   2.0000      -9.880237      -268.8549
   4   2.0000      -9.878502      -268.8077
   5   2.0000      -9.871715      -268.6230
   6   2.0000      -0.916960       -24.9518
   7   2.0000      -0.727025       -19.7833
   8   2.0000      -0.653990       -17.7960
   9   2.0000      -0.611579       -16.6419
  10   2.0000      -0.555458       -15.1148
  11   2.0000      -0.501436       -13.6448
  12   2.0000      -0.444650       -12.0995
  13   2.0000      -0.422754       -11.5037
  14   2.0000      -0.397251       -10.8097
  15   2.0000      -0.388712       -10.5774
  16   2.0000      -0.373622       -10.1668
  17   2.0000      -0.341859        -9.3024
  18   2.0000      -0.334933        -9.1140
  19   2.0000      -0.316612        -8.6154
  20   2.0000      -0.302546        -8.2327
  21   2.0000      -0.286460        -7.7950
  22   2.0000      -0.281610        -7.6630
  23   2.0000      -0.264196        -7.1891
  24   2.0000      -0.210478        -5.7274
  25   0.0000       0.021796         0.5931
  26   0.0000       0.047761         1.2996
  27   0.0000       0.064380         1.7519
  28   0.0000       0.081558         2.2193
  29   0.0000       0.087865         2.3909

MULLIKEN ATOMIC CHARGES
-----------------------
   0 C :   -0.260616
   1 C :   -0.156008
   2 C :   -0.192589
   3 H :    0.066507
   4 C :   -0.283110
   5 C :    0.052976
   6 O :   -0.438884
   7 H :    0.102704
   8 H :    0.101404
   9 H :    0.093689
  10 H :    0.079551
  11 H :    0.083461
  12 H :    0.098970
  13 H :    0.092105
  14 H :    0.115135
  15 H :    0.069866
  16 H :    0.079386
  17 H :    0.295453
Sum of atomic charges:    0.0000000

LOEWDIN ATOMIC CHARGES
----------------------
   0 C :   -0.341658
   1 C :   -0.226075
   2 C :   -0.176987
   3 H :    0.117011
   4 C :   -0.340157
   5 C :   -0.113605
   6 O :   -0.336367
   7 H :    0.120286
   8 H :    0.115787
   9 H :    0.115477
  10 H :    0.115077
  11 H :    0.114615
  12 H :    0.117284
  13 H :    0.113180
  14 H :    0.124317
  15 H :    0.091252
  16 H :    0.110146
  17 H :    0.280418

  Mayer bond orders larger than 0.100000
B(  0-C ,  1-C ) :   1.1572 B(  0-C ,  7-H ) :   0.9522 B(  0-C ,  8-H ) :   0.9478
B(  0-C ,  9-H ) :   0.9523 B(  1-C ,  2-C ) :   1.0781 B(  1-C , 10-H ) :   0.9266
B(  1-C , 11-H ) :   0.9151 B(  2-C ,  3-H ) :   0.8876 B(  2-C ,  4-C ) :   1.0932
B(  2-C ,  5-C ) :   1.0524 B(  4-C , 12-H ) :   0.9495 B(  4-C , 13-H ) :   0.9421
B(  4-C , 14-H ) :   0.9457 B(  5-C ,  6-O ) :   1.0697 B(  5-C , 15-H ) :   0.9259
B(  5-C , 16-H ) :   0.9258 B(  6-O , 17-H ) :   0.8497

Dispersion correction           -0.013133419
FINAL SINGLE POINT ENERGY      -272.301002347727

DIPOLE MOMENT
-------------

Method             : SCF
Type of density    : Electron Density
Multiplicity       :   1
Irrep              :   0
Energy             :  -272.3709406087116918 Eh
Relativity type    :
Basis              : AO
                                X                 Y                 Z
Electronic contribution:      4.828422446       1.071090461      -0.443267961
Nuclear contribution   :     -5.097190899      -1.602139324       0.493342197
                        -----------------------------------------
Total Dipole Moment    :     -0.268768453      -0.531048863       0.050074236
                        -----------------------------------------
Magnitude (a.u.)       :      0.597291223
Magnitude (Debye)      :      1.518193637

Rotational constants in cm-1:             0.181106             0.073204             0.062351
Rotational constants in MHz :          5429.421530          2194.609749          1869.243479

                             ****ORCA TERMINATED NORMALLY****
TOTAL RUN TIME: 0 days 0 hours 0 minutes 7 seconds 890 msec
