                         Program Version 6.0.0  -   RELEASE  -
|  1> ! pbe def2-sv(p) def2/J RI DEFGRID1 loosescf d4 GCP(DFT/SV(P)) printgap
|  2> %output
|  3>     printlevel normal
|  4> end
|  5> * xyz 0 1
|  6> C -2.1902324793 0.6841279204 -1.0038589857
|  7> C -1.8705685809 0.1762015532 0.4038790224
|  8> C -0.4502179876 -0.3238928578 0.4691272925
|  9> O -0.1323236228 -1.4853692876 0.6227049814
| 10> O 0.4223163417 0.6658628593 0.3348750322
| 11> C 1.8231912098 0.3472577702 0.3239377498
| 12> C 2.2855642852 -0.0530635254 -1.0687688279
| 13> H -3.2159956425 1.0380945196 -1.0410357809
| 14> H -1.524525665 1.5013665197 -1.2672971015
| 15> H -2.0707330617 -0.1148079367 -1.7317069317
| 16> H -2.5329549383 -0.644671624 0.6764456354
| 17> H -1.9803302101 0.991164694 1.1193315425
| 18> H 2.3144401117 1.2613040043 0.6584652958
| 19> H 2.0020424397 -0.4639134079 1.036243947
| 20> H 3.3567955938 -0.2251241197 -1.0563318523
| 21> H 1.7849204354 -0.9678607259 -1.3781651905
| 22> H 2.0567150057 0.7347803332 -1.7811724655
| 23> *
| 24>
| 25>                          ****END OF INPUT****

CARTESIAN COORDINATES (ANGSTROEM)
---------------------------------
  C     -2.190232    0.684128   -1.003859
  C     -1.870569    0.176202    0.403879
  C     -0.450218   -0.323893    0.469127
  O     -0.132324   -1.485369    0.622705
  O      0.422316    0.665863    0.334875
  C      1.823191    0.347258    0.323938
  C      2.285564   -0.053064   -1.068769
  H     -3.215996    1.038095   -1.041036
  H     -1.524526    1.501367   -1.267297
  H     -2.070733   -0.114808   -1.731707
  H     -2.532955   -0.644672    0.676446
  H     -1.980330    0.991165    1.119332
  H      2.314440    1.261304    0.658465
  H      2.002042   -0.463913    1.036244
  H      3.356796   -0.225124   -1.056332
  H      1.784920   -0.967861   -1.378165
  H      2.056715    0.734780   -1.781172

 Total Charge           Charge          ....    0
 Multiplicity           Mult            ....    1
 Number of Electrons    NEL             ....   56
 Basis Dimension        Dim             ....  118

ORBITAL ENERGIES
----------------

  NO   OCC          E(Eh)            E(eV)
   0   2.0000     -18.797061      -511.4940
   1   2.0000     -18.730008      -509.6694
   2   2.0000     -10.004050      -272.2240
   3   2.0000      -9.946580      -270.6602
   4   2.0000      -9.898455      -269.3507
   5   2.0000      -9.887249      -269.0457
   6   2.0000      -9.886685      -269.0304
   7   2.0000      -1.004020       -27.3208
   8   2.0000      -0.907128       -24.6842
   9   2.0000      -0.721875       -19.6432
  10   2.0000      -0.685918       -18.6648
  11   2.0000      -0.604889       -16.4599
  12   2.0000      -0.566728       -15.4215
  13   2.0000      -0.494832       -13.4651
  14   2.0000      -0.451683       -12.2909
  15   2.0000      -0.434467       -11.8224
  16   2.0000      -0.410654       -11.1745
  17   2.0000      -0.393939       -10.7196
  18   2.0000      -0.389313       -10.5937
  19   2.0000      -0.361945        -9.8490
  20   2.0000      -0.356798        -9.7090
  21   2.0000      -0.341188        -9.2842
  22   2.0000      -0.322434        -8.7739
  23   2.0000      -0.319149        -8.6845
  24   2.0000      -0.310401        -8.4464
  25   2.0000      -0.290234        -7.8977
  26   2.0000      -0.255017        -6.9394
  27   2.0000      -0.213901        -5.8205
  28   0.0000      -0.019107        -0.5199
  29   0.0000       0.040258         1.0955
  30   0.0000       0.061331         1.6689
  31   0.0000       0.077913         2.1201
  32   0.0000       0.086527         2.3545

MULLIKEN ATOMIC CHARGES
-----------------------
   0 C :   -0.306287
   1 C :   -0.131370
   2 C :    0.096737
   3 O :   -0.208742
   4 O :   -0.243765
   5 C :   -0.011611
   6 C :   -0.305142
   7 H :    0.114135
   8 H :    0.116397
   9 H :    0.112269
  10 H :    0.102545
  11 H :    0.106264
  12 H :    0.100567
  13 H :    0.107336
  14 H :    0.111981
  15 H :    0.126525
  16 H :    0.112160
Sum of atomic charges:   -0.0000000

LOEWDIN ATOMIC CHARGES
----------------------
   0 C :   -0.334154
   1 C :   -0.249106
   2 C :    0.035906
   3 O :   -0.171816
   4 O :   -0.069178
   5 C :   -0.112581
   6 C :   -0.356749
   7 H :    0.123550
   8 H :    0.122570
   9 H :    0.123377
  10 H :    0.133078
  11 H :    0.135421
  12 H :    0.116514
  13 H :    0.119146
  14 H :    0.130120
  15 H :    0.130323
  16 H :    0.123578

  Mayer bond orders larger than 0.100000
B(  0-C ,  1-C ) :   1.1375 B(  0-C ,  7-H ) :   0.9520 B(  0-C ,  8-H ) :   0.9524
B(  0-C ,  9-H ) :   0.9549 B(  1-C ,  2-C ) :   1.0317 B(  1-C , 10-H ) :   0.9148
B(  1-C , 11-H ) :   0.9023 B(  2-C ,  3-O ) :   2.0531 B(  2-C ,  4-O ) :   1.1938
B(  4-O ,  5-C ) :   0.9243 B(  5-C ,  6-C ) :   1.1724 B(  5-C , 12-H ) :   0.9374
B(  5-C , 13-H ) :   0.9146 B(  6-C , 14-H ) :   0.9444 B(  6-C , 15-H ) :   0.9457
B(  6-C , 16-H ) :   0.9491

Dispersion correction           -0.012172528
FINAL SINGLE POINT ENERGY      -346.244367752677

DIPOLE MOMENT
-------------

Method             : SCF
Type of density    : Electron Density
Multiplicity       :   1
Irrep              :   0
Energy             :  -346.3089259910206579 Eh
Relativity type    :
Basis              : AO
                                X                 Y                 Z
Electronic contribution:     -0.029539419      -2.198947855       4.237538128
Nuclear contribution   :      0.182902185       2.905861578      -4.456378603
                        -----------------------------------------
Total Dipole Moment    :      0.153362766       0.706913723      -0.218840475
                        -----------------------------------------
Magnitude (a.u.)       :      0.755736927
Magnitude (Debye)      :      1.920930610

Rotational constants in cm-1:             0.148714             0.056051             0.049355
Rotational constants in MHz :          4458.337686          1680.363252          1479.632738

                             ****ORCA TERMINATED NORMALLY****
TOTAL RUN TIME: 0 days 0 hours 0 minutes 8 seconds 536 msec
