                         Program Version 6.0.0  -   RELEASE  -
|  1> ! pbe def2-sv(p) def2/J RI DEFGRID1 loosescf d4 GCP(DFT/SV(P)) printgap
|  2> %output
|  3>     printlevel normal
|  4> end
|  5> * xyz 0 1
|  6> C 1.5858454376 -1.1863903033 -0.6526774489
|  7> C 1.0601357673 -0.2747544128 0.455487878
|  8> C 1.2382451383 1.192118425 0.074420132
|  9> C -0.3937040901 -0.6009618203 0.8288453012
| 10> C -1.4412159102 -0.3384803527 -0.2536776124
| 11> O -1.7688738031 1.0388675266 -0.2848769868
| 12> H 2.6511243944 -1.021604427 -0.7951953948
| 13> H 1.0865322434 -0.9827523938 -1.5965146768
| 14> H 1.4303917796 -2.2317278128 -0.3961180263
| 15> H 1.6575901251 -0.4663408169 1.3552886688
| 16> H 0.6808497939 1.4244090868 -0.8284850189
| 17> H 2.2891022149 1.4126486605 -0.0994959102
| 18> H 0.8725105898 1.8384268705 0.868383849
| 19> H -0.676336852 -0.0063975195 1.699961147
| 20> H -0.4511970435 -1.655637511 1.1042284233
| 21> H -1.0715101656 -0.663692411 -1.2337119211
| 22> H -2.3406893412 -0.9233686193 -0.0155501035
| 23> H -2.4705633542 1.186204189 -0.9318202221
| 24> *
| 25>
| 26>                          ****END OF INPUT****

CARTESIAN COORDINATES (ANGSTROEM)
---------------------------------
  C      1.585845   -1.186390   -0.652677
  C      1.060136   -0.274754    0.455488
  C      1.238245    1.192118    0.074420
  C     -0.393704   -0.600962    0.828845
  C     -1.441216   -0.338480   -0.253678
  O     -1.768874    1.038868   -0.284877
  H      2.651124   -1.021604   -0.795195
  H      1.086532   -0.982752   -1.596515
  H      1.430392   -2.231728   -0.396118
  H      1.657590   -0.466341    1.355289
  H      0.680850    1.424409   -0.828485
  H      2.289102    1.412649   -0.099496
  H      0.872511    1.838427    0.868384
  H     -0.676337   -0.006398    1.699961
  H     -0.451197   -1.655638    1.104228
  H     -1.071510   -0.663692   -1.233712
  H     -2.340689   -0.923369   -0.015550
  H     -2.470563    1.186204   -0.931820

 Total Charge           Charge          ....    0
 Multiplicity           Mult            ....    1
 Number of Electrons    NEL             ....   50
 Basis Dimension        Dim             ....  108

ORBITAL ENERGIES
----------------

  NO   OCC          E(Eh)            E(eV)
   0   2.0000     -18.738524      -509.9012
   1   2.0000      -9.927264      -270.1346
   2   2.0000      -9.887869      -269.0626
   3   2.0000      -9.878079      -268.7962
   4   2.0000      -9.868134      -268.5256
   5   2.0000      -9.858172      -268.2545
   6   2.0000      -0.914536       -24.8858
   7   2.0000      -0.723777       -19.6950
   8   2.0000      -0.646187       -17.5836
   9   2.0000      -0.601926       -16.3792
  10   2.0000      -0.555980       -15.1290
  11   2.0000      -0.477738       -12.9999
  12   2.0000      -0.463830       -12.6214
  13   2.0000      -0.427163       -11.6237
  14   2.0000      -0.386146       -10.5076
  15   2.0000      -0.373714       -10.1693
  16   2.0000      -0.359981        -9.7956
  17   2.0000      -0.343235        -9.3399
  18   2.0000      -0.329160        -8.9569
  19   2.0000      -0.313497        -8.5307
  20   2.0000      -0.294728        -8.0199
  21   2.0000      -0.279194        -7.5973
  22   2.0000      -0.275298        -7.4912
  23   2.0000      -0.256660        -6.9841
  24   2.0000      -0.209138        -5.6909
  25   0.0000       0.024114         0.6562
  26   0.0000       0.047740         1.2991
  27   0.0000       0.069541         1.8923
  28   0.0000       0.082743         2.2516
  29   0.0000       0.098755         2.6873

MULLIKEN ATOMIC CHARGES
-----------------------
   0 C :   -0.256897
   1 C :   -0.183200
   2 C :   -0.228640
   3 C :   -0.137303
   4 C :   -0.007823
   5 O :   -0.436087
   6 H :    0.097982
   7 H :    0.098281
   8 H :    0.092881
   9 H :    0.069278
  10 H :    0.099046
  11 H :    0.087986
  12 H :    0.097236
  13 H :    0.090475
  14 H :    0.079923
  15 H :    0.071778
  16 H :    0.068984
  17 H :    0.296100
Sum of atomic charges:    0.0000000

LOEWDIN ATOMIC CHARGES
----------------------
   0 C :   -0.333360
   1 C :   -0.157042
   2 C :   -0.331296
   3 C :   -0.230436
   4 C :   -0.122585
   5 O :   -0.345843
   6 H :    0.118689
   7 H :    0.113328
   8 H :    0.114226
   9 H :    0.113685
  10 H :    0.116474
  11 H :    0.111431
  12 H :    0.118637
  13 H :    0.122995
  14 H :    0.118052
  15 H :    0.093489
  16 H :    0.095825
  17 H :    0.283733

  Mayer bond orders larger than 0.100000
B(  0-C ,  1-C ) :   1.1110 B(  0-C ,  6-H ) :   0.9496 B(  0-C ,  7-H ) :   0.9430
B(  0-C ,  8-H ) :   0.9517 B(  1-C ,  2-C ) :   1.1201 B(  1-C ,  3-C ) :   1.1002
B(  1-C ,  9-H ) :   0.9029 B(  2-C , 10-H ) :   0.9386 B(  2-C , 11-H ) :   0.9490
B(  2-C , 12-H ) :   0.9502 B(  3-C ,  4-C ) :   1.1096 B(  3-C , 13-H ) :   0.9110
B(  3-C , 14-H ) :   0.9179 B(  4-C ,  5-O ) :   1.0608 B(  4-C , 15-H ) :   0.9200
B(  4-C , 16-H ) :   0.9232 B(  5-O , 17-H ) :   0.8526

Dispersion correction           -0.013327006
FINAL SINGLE POINT ENERGY      -272.298294252097

DIPOLE MOMENT
-------------

Method             : SCF
Type of density    : Electron Density
Multiplicity       :   1
Irrep              :   0
Energy             :  -272.3680751467247205 Eh
Relativity type    :
Basis              : AO
                                X                 Y                 Z
Electronic contribution:     -3.757760715       1.621907118       0.490156953
Nuclear contribution   :      3.405368147      -1.945187769      -0.819519277
                        -----------------------------------------
Total Dipole Moment    :     -0.352392568      -0.323280651      -0.329362324
                        -----------------------------------------
Magnitude (a.u.)       :      0.580663794
Magnitude (Debye)      :      1.475930070

Rotational constants in cm-1:             0.168024             0.079423             0.067362
Rotational constants in MHz :          5037.241434          2381.048692          2019.465172

                             ****ORCA TERMINATED NORMALLY****
TOTAL RUN TIME: 0 days 0 hours 0 minutes 8 seconds 222 msec
