                         Program Version 6.0.0  -   RELEASE  -
|  1> ! r2scan-3c def2/J RI DEFGRID2 scfconv6 printgap
|  2> %output
|  3>     printlevel normal
|  4> end
|  5> * xyz 0 1
|  6> C -1.155952264 -1.0519087971 -1.4597949228
|  7> C -1.2860840418 0.0651981415 -0.4254432366
|  8> C -1.9586899106 -0.4817044255 0.8346322405
|  9> C 0.0257127214 0.8601015307 -0.2101974435
| 10> C -0.2165115035 2.0013137241 0.7851093294
| 11> C 1.3357826961 0.1265689543 0.1710532901
| 12> C 1.2145203729 -0.907844631 1.2868994383
| 13> C 2.049094874 -0.4951723133 -1.0319190447
| 14> H -0.6608640112 -0.6927084292 -2.358484818
| 15> H -0.5970712349 -1.8935563416 -1.0606342563
| 16> H -2.1452511622 -1.4117594246 -1.7365660386
| 17> H -1.980333776 0.8053013961 -0.8477190534
| 18> H -1.4058472088 -1.3110882877 1.261239128
| 19> H -2.9526884924 -0.8425343812 0.5754460862
| 20> H -2.0713725624 0.2895336594 1.5902245696
| 21> H 0.229682298 1.3307575057 -1.1814032128
| 22> H -1.152710669 2.5101491181 0.5665727284
| 23> H 0.5877159787 2.731319364 0.7227749245
| 24> H -0.2545066257 1.6315925131 1.8062077367
| 25> H 1.9994773799 0.9183312172 0.5426831812
| 26> H 2.2093846203 -1.2011613588 1.6176967058
| 27> H 0.6810456318 -0.5033241774 2.1421557985
| 28> H 0.7045220444 -1.8020250611 0.9396342366
| 29> H 2.1428445411 0.2267563423 -1.8401979828
| 30> H 1.5222465247 -1.3660325633 -1.4072309815
| 31> H 3.0499059706 -0.8084867772 -0.74060348
| 32> *
| 33>
| 34>                          ****END OF INPUT****

CARTESIAN COORDINATES (ANGSTROEM)
---------------------------------
  C     -1.155952   -1.051909   -1.459795
  C     -1.286084    0.065198   -0.425443
  C     -1.958690   -0.481704    0.834632
  C      0.025713    0.860102   -0.210197
  C     -0.216512    2.001314    0.785109
  C      1.335783    0.126569    0.171053
  C      1.214520   -0.907845    1.286899
  C      2.049095   -0.495172   -1.031919
  H     -0.660864   -0.692708   -2.358485
  H     -0.597071   -1.893556   -1.060634
  H     -2.145251   -1.411759   -1.736566
  H     -1.980334    0.805301   -0.847719
  H     -1.405847   -1.311088    1.261239
  H     -2.952688   -0.842534    0.575446
  H     -2.071373    0.289534    1.590225
  H      0.229682    1.330758   -1.181403
  H     -1.152711    2.510149    0.566573
  H      0.587716    2.731319    0.722775
  H     -0.254507    1.631593    1.806208
  H      1.999477    0.918331    0.542683
  H      2.209385   -1.201161    1.617697
  H      0.681046   -0.503324    2.142156
  H      0.704522   -1.802025    0.939634
  H      2.142845    0.226756   -1.840198
  H      1.522247   -1.366033   -1.407231
  H      3.049906   -0.808487   -0.740603

 Total Charge           Charge          ....    0
 Multiplicity           Mult            ....    1
 Number of Electrons    NEL             ....   66
 Basis Dimension        Dim             ....  242

ORBITAL ENERGIES
----------------

  NO   OCC          E(Eh)            E(eV)
   0   2.0000     -10.030573      -272.9458
   1   2.0000     -10.029867      -272.9266
   2   2.0000     -10.027678      -272.8670
   3   2.0000     -10.012886      -272.4645
   4   2.0000     -10.011951      -272.4390
   5   2.0000     -10.011853      -272.4364
   6   2.0000     -10.010202      -272.3915
   7   2.0000     -10.009782      -272.3800
   8   2.0000      -0.791594       -21.5404
   9   2.0000      -0.740354       -20.1461
  10   2.0000      -0.694204       -18.8902
  11   2.0000      -0.652731       -17.7617
  12   2.0000      -0.640331       -17.4243
  13   2.0000      -0.593285       -16.1441
  14   2.0000      -0.550391       -14.9769
  15   2.0000      -0.492783       -13.4093
  16   2.0000      -0.443519       -12.0688
  17   2.0000      -0.414820       -11.2878
  18   2.0000      -0.413377       -11.2486
  19   2.0000      -0.393986       -10.7209
  20   2.0000      -0.387067       -10.5326
  21   2.0000      -0.369726       -10.0608
  22   2.0000      -0.359219        -9.7748
  23   2.0000      -0.355144        -9.6640
  24   2.0000      -0.347776        -9.4635
  25   2.0000      -0.334666        -9.1067
  26   2.0000      -0.326749        -8.8913
  27   2.0000      -0.315856        -8.5949
  28   2.0000      -0.302188        -8.2229
  29   2.0000      -0.296952        -8.0805
  30   2.0000      -0.275068        -7.4850
  31   2.0000      -0.272231        -7.4078
  32   2.0000      -0.259235        -7.0541
  33   0.0000       0.072886         1.9833
  34   0.0000       0.105839         2.8800
  35   0.0000       0.110608         3.0098
  36   0.0000       0.112341         3.0569
  37   0.0000       0.120378         3.2757

MULLIKEN ATOMIC CHARGES
-----------------------
   0 C :   -0.532646
   1 C :   -0.018096
   2 C :   -0.507812
   3 C :   -0.059117
   4 C :   -0.553261
   5 C :   -0.025086
   6 C :   -0.531095
   7 C :   -0.506445
   8 H :    0.154423
   9 H :    0.154413
  10 H :    0.146029
  11 H :    0.149420
  12 H :    0.157184
  13 H :    0.143813
  14 H :    0.159488
  15 H :    0.157852
  16 H :    0.150970
  17 H :    0.150739
  18 H :    0.160350
  19 H :    0.142379
  20 H :    0.145049
  21 H :    0.155802
  22 H :    0.153301
  23 H :    0.150027
  24 H :    0.157234
  25 H :    0.145085
Sum of atomic charges:    0.0000000

LOEWDIN ATOMIC CHARGES
----------------------
   0 C :   -0.416020
   1 C :   -0.233791
   2 C :   -0.416337
   3 C :   -0.227771
   4 C :   -0.416035
   5 C :   -0.233202
   6 C :   -0.413952
   7 C :   -0.416999
   8 H :    0.154733
   9 H :    0.149842
  10 H :    0.152304
  11 H :    0.158208
  12 H :    0.155000
  13 H :    0.153016
  14 H :    0.155629
  15 H :    0.162031
  16 H :    0.153577
  17 H :    0.152363
  18 H :    0.152719
  19 H :    0.159521
  20 H :    0.153148
  21 H :    0.153892
  22 H :    0.149645
  23 H :    0.152266
  24 H :    0.154559
  25 H :    0.151654

  Mayer bond orders larger than 0.100000
B(  0-C ,  1-C ) :   0.8784 B(  0-C ,  8-H ) :   0.9730 B(  0-C ,  9-H ) :   0.9892
B(  0-C , 10-H ) :   0.9707 B(  1-C ,  2-C ) :   0.8912 B(  1-C ,  3-C ) :   0.8797
B(  1-C , 11-H ) :   0.9746 B(  2-C , 12-H ) :   0.9746 B(  2-C , 13-H ) :   0.9700
B(  2-C , 14-H ) :   0.9768 B(  3-C ,  4-C ) :   0.8897 B(  3-C ,  5-C ) :   0.8567
B(  3-C , 15-H ) :   0.9850 B(  4-C , 16-H ) :   0.9765 B(  4-C , 17-H ) :   0.9755
B(  4-C , 18-H ) :   0.9842 B(  5-C ,  6-C ) :   0.8626 B(  5-C ,  7-C ) :   0.9017
B(  5-C , 19-H ) :   0.9765 B(  6-C , 20-H ) :   0.9648 B(  6-C , 21-H ) :   0.9767
B(  6-C , 22-H ) :   0.9893 B(  7-C , 23-H ) :   0.9864 B(  7-C , 24-H ) :   0.9709
B(  7-C , 25-H ) :   0.9764

Dispersion correction           -0.008349543
FINAL SINGLE POINT ENERGY      -315.578727249904

DIPOLE MOMENT
-------------

Method             : SCF
Type of density    : Electron Density
Multiplicity       :   1
Irrep              :   0
Energy             :  -315.5834625239330649 Eh
Relativity type    :
Basis              : AO
                                X                 Y                 Z
Electronic contribution:      0.094460682       1.366482780      -0.583633403
Nuclear contribution   :     -0.088019031      -1.303046172       0.555199619
                        -----------------------------------------
Total Dipole Moment    :      0.006441652       0.063436609      -0.028433784
                        -----------------------------------------
Magnitude (a.u.)       :      0.069815315
Magnitude (Debye)      :      0.177456429

Rotational constants in cm-1:             0.072030             0.053894             0.045423
Rotational constants in MHz :          2159.398424          1615.709634          1361.749150

                             ****ORCA TERMINATED NORMALLY****
TOTAL RUN TIME: 0 days 0 hours 0 minutes 28 seconds 129 msec
