                         Program Version 6.0.0  -   RELEASE  -
|  1> ! r2scan-3c def2/J RI DEFGRID2 scfconv6 printgap
|  2> %output
|  3>     printlevel normal
|  4> end
|  5> %cpcm
|  6>     smd true
|  7>     smdsolvent "water"
|  8> end
|  9> * xyz 0 1
| 10> C -1.155952264 -1.0519087971 -1.4597949228
| 11> C -1.2860840418 0.0651981415 -0.4254432366
| 12> C -1.9586899106 -0.4817044255 0.8346322405
| 13> C 0.0257127214 0.8601015307 -0.2101974435
| 14> C -0.2165115035 2.0013137241 0.7851093294
| 15> C 1.3357826961 0.1265689543 0.1710532901
| 16> C 1.2145203729 -0.907844631 1.2868994383
| 17> C 2.049094874 -0.4951723133 -1.0319190447
| 18> H -0.6608640112 -0.6927084292 -2.358484818
| 19> H -0.5970712349 -1.8935563416 -1.0606342563
| 20> H -2.1452511622 -1.4117594246 -1.7365660386
| 21> H -1.980333776 0.8053013961 -0.8477190534
| 22> H -1.4058472088 -1.3110882877 1.261239128
| 23> H -2.9526884924 -0.8425343812 0.5754460862
| 24> H -2.0713725624 0.2895336594 1.5902245696
| 25> H 0.229682298 1.3307575057 -1.1814032128
| 26> H -1.152710669 2.5101491181 0.5665727284
| 27> H 0.5877159787 2.731319364 0.7227749245
| 28> H -0.2545066257 1.6315925131 1.8062077367
| 29> H 1.9994773799 0.9183312172 0.5426831812
| 30> H 2.2093846203 -1.2011613588 1.6176967058
| 31> H 0.6810456318 -0.5033241774 2.1421557985
| 32> H 0.7045220444 -1.8020250611 0.9396342366
| 33> H 2.1428445411 0.2267563423 -1.8401979828
| 34> H 1.5222465247 -1.3660325633 -1.4072309815
| 35> H 3.0499059706 -0.8084867772 -0.74060348
| 36> *
| 37>
| 38>                          ****END OF INPUT****

CARTESIAN COORDINATES (ANGSTROEM)
---------------------------------
  C     -1.155952   -1.051909   -1.459795
  C     -1.286084    0.065198   -0.425443
  C     -1.958690   -0.481704    0.834632
  C      0.025713    0.860102   -0.210197
  C     -0.216512    2.001314    0.785109
  C      1.335783    0.126569    0.171053
  C      1.214520   -0.907845    1.286899
  C      2.049095   -0.495172   -1.031919
  H     -0.660864   -0.692708   -2.358485
  H     -0.597071   -1.893556   -1.060634
  H     -2.145251   -1.411759   -1.736566
  H     -1.980334    0.805301   -0.847719
  H     -1.405847   -1.311088    1.261239
  H     -2.952688   -0.842534    0.575446
  H     -2.071373    0.289534    1.590225
  H      0.229682    1.330758   -1.181403
  H     -1.152711    2.510149    0.566573
  H      0.587716    2.731319    0.722775
  H     -0.254507    1.631593    1.806208
  H      1.999477    0.918331    0.542683
  H      2.209385   -1.201161    1.617697
  H      0.681046   -0.503324    2.142156
  H      0.704522   -1.802025    0.939634
  H      2.142845    0.226756   -1.840198
  H      1.522247   -1.366033   -1.407231
  H      3.049906   -0.808487   -0.740603

 Total Charge           Charge          ....    0
 Multiplicity           Mult            ....    1
 Number of Electrons    NEL             ....   66
 Basis Dimension        Dim             ....  242

ORBITAL ENERGIES
----------------

  NO   OCC          E(Eh)            E(eV)
   0   2.0000     -10.022238      -272.7190
   1   2.0000     -10.021520      -272.6994
   2   2.0000     -10.018996      -272.6308
   3   2.0000     -10.003677      -272.2139
   4   2.0000     -10.003324      -272.2043
   5   2.0000     -10.003179      -272.2003
   6   2.0000     -10.002452      -272.1805
   7   2.0000     -10.001984      -272.1678
   8   2.0000      -0.783099       -21.3092
   9   2.0000      -0.732194       -19.9240
  10   2.0000      -0.686042       -18.6682
  11   2.0000      -0.644906       -17.5488
  12   2.0000      -0.632752       -17.2181
  13   2.0000      -0.585324       -15.9275
  14   2.0000      -0.542391       -14.7592
  15   2.0000      -0.484412       -13.1815
  16   2.0000      -0.434975       -11.8363
  17   2.0000      -0.406788       -11.0693
  18   2.0000      -0.405196       -11.0259
  19   2.0000      -0.385738       -10.4965
  20   2.0000      -0.379033       -10.3140
  21   2.0000      -0.361815        -9.8455
  22   2.0000      -0.350930        -9.5493
  23   2.0000      -0.346741        -9.4353
  24   2.0000      -0.339452        -9.2370
  25   2.0000      -0.326525        -8.8852
  26   2.0000      -0.318586        -8.6692
  27   2.0000      -0.307233        -8.3602
  28   2.0000      -0.294160        -8.0045
  29   2.0000      -0.288950        -7.8627
  30   2.0000      -0.266962        -7.2644
  31   2.0000      -0.263797        -7.1783
  32   2.0000      -0.250541        -6.8176
  33   0.0000       0.082197         2.2367
  34   0.0000       0.114612         3.1187
  35   0.0000       0.118231         3.2172
  36   0.0000       0.119912         3.2630
  37   0.0000       0.127667         3.4740

MULLIKEN ATOMIC CHARGES
-----------------------
   0 C :   -0.572933
   1 C :   -0.003339
   2 C :   -0.549495
   3 C :   -0.051016
   4 C :   -0.594609
   5 C :   -0.007596
   6 C :   -0.572730
   7 C :   -0.554660
   8 H :    0.160913
   9 H :    0.170483
  10 H :    0.155216
  11 H :    0.156188
  12 H :    0.166377
  13 H :    0.153949
  14 H :    0.166807
  15 H :    0.164080
  16 H :    0.159609
  17 H :    0.160740
  18 H :    0.172429
  19 H :    0.148530
  20 H :    0.153948
  21 H :    0.165355
  22 H :    0.168994
  23 H :    0.160538
  24 H :    0.167269
  25 H :    0.154954
Sum of atomic charges:    0.0000000

LOEWDIN ATOMIC CHARGES
----------------------
   0 C :   -0.424280
   1 C :   -0.231857
   2 C :   -0.424554
   3 C :   -0.226453
   4 C :   -0.424325
   5 C :   -0.231162
   6 C :   -0.422339
   7 C :   -0.425947
   8 H :    0.155924
   9 H :    0.154285
  10 H :    0.153563
  11 H :    0.160015
  12 H :    0.157011
  13 H :    0.154521
  14 H :    0.157143
  15 H :    0.163973
  16 H :    0.155212
  17 H :    0.154011
  18 H :    0.155817
  19 H :    0.161004
  20 H :    0.154218
  21 H :    0.156114
  22 H :    0.154017
  23 H :    0.154371
  24 H :    0.156487
  25 H :    0.153230

  Mayer bond orders larger than 0.100000
B(  0-C ,  1-C ) :   0.8697 B(  0-C ,  8-H ) :   0.9710 B(  0-C ,  9-H ) :   0.9851
B(  0-C , 10-H ) :   0.9701 B(  1-C ,  2-C ) :   0.8833 B(  1-C ,  3-C ) :   0.8796
B(  1-C , 11-H ) :   0.9767 B(  2-C , 12-H ) :   0.9743 B(  2-C , 13-H ) :   0.9699
B(  2-C , 14-H ) :   0.9741 B(  3-C ,  4-C ) :   0.8825 B(  3-C ,  5-C ) :   0.8561
B(  3-C , 15-H ) :   0.9852 B(  4-C , 16-H ) :   0.9749 B(  4-C , 17-H ) :   0.9741
B(  4-C , 18-H ) :   0.9808 B(  5-C ,  6-C ) :   0.8529 B(  5-C ,  7-C ) :   0.8906
B(  5-C , 19-H ) :   0.9791 B(  6-C , 20-H ) :   0.9644 B(  6-C , 21-H ) :   0.9744
B(  6-C , 22-H ) :   0.9852 B(  7-C , 23-H ) :   0.9834 B(  7-C , 24-H ) :   0.9713
B(  7-C , 25-H ) :   0.9757

Dispersion correction           -0.008349543
FINAL SINGLE POINT ENERGY      -315.574722366434

DIPOLE MOMENT
-------------

Method             : SCF
Type of density    : Electron Density
Multiplicity       :   1
Irrep              :   0
Energy             :  -315.5794576404633744 Eh
Relativity type    :
Basis              : AO
                                X                 Y                 Z
Electronic contribution:      0.094346342       1.373926500      -0.587539683
Nuclear contribution   :     -0.088019031      -1.303046172       0.555199619
                        -----------------------------------------
Total Dipole Moment    :      0.006327311       0.070880328      -0.032340064
                        -----------------------------------------
Magnitude (a.u.)       :      0.078166077
Magnitude (Debye)      :      0.198682377

Rotational constants in cm-1:             0.072030             0.053894             0.045423
Rotational constants in MHz :          2159.398424          1615.709634          1361.749150

                             ****ORCA TERMINATED NORMALLY****
TOTAL RUN TIME: 0 days 0 hours 0 minutes 33 seconds 649 msec
