                         Program Version 6.0.0  -   RELEASE  -
|  1> ! r2scan-3c def2/J RI DEFGRID2 scfconv6 printgap
|  2> %output
|  3>     printlevel normal
|  4> end
|  5> * xyz 0 1
|  6> C 2.2447865149 -0.9575379775 -0.7239791357
|  7> C 1.5896801922 0.3552265464 -0.3174724167
|  8> C 0.3493584761 0.1823564645 0.5665783543
|  9> H 0.6483666586 -0.3942731474 1.4596458358
| 10> C -0.8085984455 -0.578200429 -0.1155043444
| 11> C -1.9622724388 -0.7960315691 0.8665250523
| 12> C -1.3100605817 0.1506373652 -1.3605946754
| 13> O -0.0306705571 1.4892261405 0.967848205
| 14> H 1.6084379211 -1.5228101377 -1.3993321083
| 15> H 2.4502867266 -1.5684659026 0.1521285132
| 16> H 3.1843883807 -0.7571365834 -1.231844938
| 17> H 2.2992085044 0.9568746851 0.2548838524
| 18> H 1.3153115735 0.9349461876 -1.1986181068
| 19> H -0.420894859 -1.5599739096 -0.4014186557
| 20> H -2.6943100061 -1.4732138696 0.4335164196
| 21> H -1.6023996152 -1.2329145461 1.7960415215
| 22> H -2.4667696687 0.14228768 1.086561513
| 23> H -2.2316755737 -0.304054566 -1.7151789741
| 24> H -0.5782128056 0.106740093 -2.1622141832
| 25> H -1.5029352379 1.1953946349 -1.1259990604
| 26> H -0.7481074121 1.4225756958 1.611411996
| 27> *
| 28>
| 29>                          ****END OF INPUT****

CARTESIAN COORDINATES (ANGSTROEM)
---------------------------------
  C      2.244787   -0.957538   -0.723979
  C      1.589680    0.355227   -0.317472
  C      0.349358    0.182356    0.566578
  H      0.648367   -0.394273    1.459646
  C     -0.808598   -0.578200   -0.115504
  C     -1.962272   -0.796032    0.866525
  C     -1.310061    0.150637   -1.360595
  O     -0.030671    1.489226    0.967848
  H      1.608438   -1.522810   -1.399332
  H      2.450287   -1.568466    0.152129
  H      3.184388   -0.757137   -1.231845
  H      2.299209    0.956875    0.254884
  H      1.315312    0.934946   -1.198618
  H     -0.420895   -1.559974   -0.401419
  H     -2.694310   -1.473214    0.433516
  H     -1.602400   -1.232915    1.796042
  H     -2.466770    0.142288    1.086562
  H     -2.231676   -0.304055   -1.715179
  H     -0.578213    0.106740   -2.162214
  H     -1.502935    1.195395   -1.125999
  H     -0.748107    1.422576    1.611412

 Total Charge           Charge          ....    0
 Multiplicity           Mult            ....    1
 Number of Electrons    NEL             ....   58
 Basis Dimension        Dim             ....  208

ORBITAL ENERGIES
----------------

  NO   OCC          E(Eh)            E(eV)
   0   2.0000     -18.944539      -515.5071
   1   2.0000     -10.076008      -274.1821
   2   2.0000     -10.033374      -273.0220
   3   2.0000     -10.022630      -272.7296
   4   2.0000     -10.021157      -272.6895
   5   2.0000     -10.019180      -272.6358
   6   2.0000     -10.012275      -272.4479
   7   2.0000      -0.982886       -26.7457
   8   2.0000      -0.772346       -21.0166
   9   2.0000      -0.731309       -19.8999
  10   2.0000      -0.652437       -17.7537
  11   2.0000      -0.639238       -17.3946
  12   2.0000      -0.572274       -15.5724
  13   2.0000      -0.516487       -14.0543
  14   2.0000      -0.470547       -12.8042
  15   2.0000      -0.446482       -12.1494
  16   2.0000      -0.427901       -11.6438
  17   2.0000      -0.403443       -10.9782
  18   2.0000      -0.385172       -10.4811
  19   2.0000      -0.364870        -9.9286
  20   2.0000      -0.354252        -9.6397
  21   2.0000      -0.339881        -9.2486
  22   2.0000      -0.333248        -9.0681
  23   2.0000      -0.326984        -8.8977
  24   2.0000      -0.312689        -8.5087
  25   2.0000      -0.303540        -8.2597
  26   2.0000      -0.294057        -8.0017
  27   2.0000      -0.273168        -7.4333
  28   2.0000      -0.232434        -6.3248
  29   0.0000       0.056319         1.5325
  30   0.0000       0.084307         2.2941
  31   0.0000       0.116737         3.1766
  32   0.0000       0.118683         3.2295
  33   0.0000       0.127386         3.4663

MULLIKEN ATOMIC CHARGES
-----------------------
   0 C :   -0.502132
   1 C :   -0.263751
   2 C :    0.002984
   3 H :    0.139316
   4 C :    0.033629
   5 C :   -0.551387
   6 C :   -0.556583
   7 O :   -0.442523
   8 H :    0.150170
   9 H :    0.148713
  10 H :    0.149965
  11 H :    0.156041
  12 H :    0.153273
  13 H :    0.152918
  14 H :    0.155889
  15 H :    0.153924
  16 H :    0.147826
  17 H :    0.143578
  18 H :    0.150171
  19 H :    0.183830
  20 H :    0.294149
Sum of atomic charges:   -0.0000000

LOEWDIN ATOMIC CHARGES
----------------------
   0 C :   -0.420845
   1 C :   -0.274721
   2 C :    0.059499
   3 H :    0.164107
   4 C :   -0.229026
   5 C :   -0.418141
   6 C :   -0.411969
   7 O :   -0.619027
   8 H :    0.149004
   9 H :    0.151893
  10 H :    0.153255
  11 H :    0.165839
  12 H :    0.162427
  13 H :    0.162136
  14 H :    0.157077
  15 H :    0.155011
  16 H :    0.151076
  17 H :    0.152953
  18 H :    0.154046
  19 H :    0.166953
  20 H :    0.268453

  Mayer bond orders larger than 0.100000
B(  0-C ,  1-C ) :   0.8676 B(  0-C ,  8-H ) :   0.9789 B(  0-C ,  9-H ) :   0.9826
B(  0-C , 10-H ) :   0.9678 B(  1-C ,  2-C ) :   0.9373 B(  1-C , 11-H ) :   0.9706
B(  1-C , 12-H ) :   0.9842 B(  2-C ,  3-H ) :   0.9743 B(  2-C ,  4-C ) :   0.8566
B(  2-C ,  7-O ) :   0.8764 B(  4-C ,  5-C ) :   0.8663 B(  4-C ,  6-C ) :   0.8773
B(  4-C , 13-H ) :   0.9526 B(  5-C , 14-H ) :   0.9708 B(  5-C , 15-H ) :   0.9794
B(  5-C , 16-H ) :   0.9895 B(  6-C , 17-H ) :   0.9729 B(  6-C , 18-H ) :   0.9722
B(  6-C , 19-H ) :   0.9818 B(  7-O , 20-H ) :   0.8952

Dispersion correction           -0.005737514
FINAL SINGLE POINT ENERGY      -312.203136807304

DIPOLE MOMENT
-------------

Method             : SCF
Type of density    : Electron Density
Multiplicity       :   1
Irrep              :   0
Energy             :  -312.2086556780008664 Eh
Relativity type    :
Basis              : AO
                                X                 Y                 Z
Electronic contribution:      0.479682253       3.282501023       2.419468098
Nuclear contribution   :     -0.694044564      -3.781235973      -2.275146066
                        -----------------------------------------
Total Dipole Moment    :     -0.214362311      -0.498734950       0.144322031
                        -----------------------------------------
Magnitude (a.u.)       :      0.561708642
Magnitude (Debye)      :      1.427749904

Rotational constants in cm-1:             0.110175             0.060557             0.052374
Rotational constants in MHz :          3302.954876          1815.456590          1570.129272

                             ****ORCA TERMINATED NORMALLY****
TOTAL RUN TIME: 0 days 0 hours 0 minutes 28 seconds 603 msec
