                         Program Version 6.0.0  -   RELEASE  -
|  1> ! r2scan-3c def2/J RI DEFGRID2 scfconv6 printgap
|  2> %output
|  3>     printlevel normal
|  4> end
|  5> %cpcm
|  6>     smd true
|  7>     smdsolvent "water"
|  8> end
|  9> * xyz 0 1
| 10> C 2.2447865149 -0.9575379775 -0.7239791357
| 11> C 1.5896801922 0.3552265464 -0.3174724167
| 12> C 0.3493584761 0.1823564645 0.5665783543
| 13> H 0.6483666586 -0.3942731474 1.4596458358
| 14> C -0.8085984455 -0.578200429 -0.1155043444
| 15> C -1.9622724388 -0.7960315691 0.8665250523
| 16> C -1.3100605817 0.1506373652 -1.3605946754
| 17> O -0.0306705571 1.4892261405 0.967848205
| 18> H 1.6084379211 -1.5228101377 -1.3993321083
| 19> H 2.4502867266 -1.5684659026 0.1521285132
| 20> H 3.1843883807 -0.7571365834 -1.231844938
| 21> H 2.2992085044 0.9568746851 0.2548838524
| 22> H 1.3153115735 0.9349461876 -1.1986181068
| 23> H -0.420894859 -1.5599739096 -0.4014186557
| 24> H -2.6943100061 -1.4732138696 0.4335164196
| 25> H -1.6023996152 -1.2329145461 1.7960415215
| 26> H -2.4667696687 0.14228768 1.086561513
| 27> H -2.2316755737 -0.304054566 -1.7151789741
| 28> H -0.5782128056 0.106740093 -2.1622141832
| 29> H -1.5029352379 1.1953946349 -1.1259990604
| 30> H -0.7481074121 1.4225756958 1.611411996
| 31> *
| 32>
| 33>                          ****END OF INPUT****

CARTESIAN COORDINATES (ANGSTROEM)
---------------------------------
  C      2.244787   -0.957538   -0.723979
  C      1.589680    0.355227   -0.317472
  C      0.349358    0.182356    0.566578
  H      0.648367   -0.394273    1.459646
  C     -0.808598   -0.578200   -0.115504
  C     -1.962272   -0.796032    0.866525
  C     -1.310061    0.150637   -1.360595
  O     -0.030671    1.489226    0.967848
  H      1.608438   -1.522810   -1.399332
  H      2.450287   -1.568466    0.152129
  H      3.184388   -0.757137   -1.231845
  H      2.299209    0.956875    0.254884
  H      1.315312    0.934946   -1.198618
  H     -0.420895   -1.559974   -0.401419
  H     -2.694310   -1.473214    0.433516
  H     -1.602400   -1.232915    1.796042
  H     -2.466770    0.142288    1.086562
  H     -2.231676   -0.304055   -1.715179
  H     -0.578213    0.106740   -2.162214
  H     -1.502935    1.195395   -1.125999
  H     -0.748107    1.422576    1.611412

 Total Charge           Charge          ....    0
 Multiplicity           Mult            ....    1
 Number of Electrons    NEL             ....   58
 Basis Dimension        Dim             ....  208

ORBITAL ENERGIES
----------------

  NO   OCC          E(Eh)            E(eV)
   0   2.0000     -18.948267      -515.6085
   1   2.0000     -10.070899      -274.0431
   2   2.0000     -10.024576      -272.7826
   3   2.0000     -10.017026      -272.5771
   4   2.0000     -10.010726      -272.4057
   5   2.0000     -10.008638      -272.3489
   6   2.0000     -10.006068      -272.2790
   7   2.0000      -0.985472       -26.8160
   8   2.0000      -0.765027       -20.8174
   9   2.0000      -0.724183       -19.7060
  10   2.0000      -0.642979       -17.4963
  11   2.0000      -0.633545       -17.2396
  12   2.0000      -0.565525       -15.3887
  13   2.0000      -0.511584       -13.9209
  14   2.0000      -0.466791       -12.7020
  15   2.0000      -0.440068       -11.9749
  16   2.0000      -0.420420       -11.4402
  17   2.0000      -0.395514       -10.7625
  18   2.0000      -0.378114       -10.2890
  19   2.0000      -0.357570        -9.7300
  20   2.0000      -0.343451        -9.3458
  21   2.0000      -0.338149        -9.2015
  22   2.0000      -0.328458        -8.9378
  23   2.0000      -0.322076        -8.7641
  24   2.0000      -0.304880        -8.2962
  25   2.0000      -0.297283        -8.0895
  26   2.0000      -0.287551        -7.8246
  27   2.0000      -0.269230        -7.3261
  28   2.0000      -0.235030        -6.3955
  29   0.0000       0.071521         1.9462
  30   0.0000       0.094035         2.5588
  31   0.0000       0.124406         3.3853
  32   0.0000       0.127137         3.4596
  33   0.0000       0.137367         3.7379

MULLIKEN ATOMIC CHARGES
-----------------------
   0 C :   -0.540869
   1 C :   -0.266128
   2 C :    0.010095
   3 H :    0.153184
   4 C :    0.037560
   5 C :   -0.572250
   6 C :   -0.598920
   7 O :   -0.527931
   8 H :    0.164771
   9 H :    0.161628
  10 H :    0.160421
  11 H :    0.155572
  12 H :    0.159147
  13 H :    0.165539
  14 H :    0.165797
  15 H :    0.163098
  16 H :    0.163026
  17 H :    0.158684
  18 H :    0.165045
  19 H :    0.174781
  20 H :    0.347751
Sum of atomic charges:   -0.0000000

LOEWDIN ATOMIC CHARGES
----------------------
   0 C :   -0.425581
   1 C :   -0.280202
   2 C :    0.059541
   3 H :    0.172230
   4 C :   -0.225032
   5 C :   -0.422069
   6 C :   -0.420266
   7 O :   -0.655283
   8 H :    0.154010
   9 H :    0.155918
  10 H :    0.155700
  11 H :    0.163768
  12 H :    0.162763
  13 H :    0.167452
  14 H :    0.158423
  15 H :    0.159022
  16 H :    0.157119
  17 H :    0.157377
  18 H :    0.157435
  19 H :    0.161871
  20 H :    0.285804

  Mayer bond orders larger than 0.100000
B(  0-C ,  1-C ) :   0.8747 B(  0-C ,  8-H ) :   0.9754 B(  0-C ,  9-H ) :   0.9799
B(  0-C , 10-H ) :   0.9650 B(  1-C ,  2-C ) :   0.9300 B(  1-C , 11-H ) :   0.9703
B(  1-C , 12-H ) :   0.9768 B(  2-C ,  3-H ) :   0.9679 B(  2-C ,  4-C ) :   0.8735
B(  2-C ,  7-O ) :   0.8613 B(  4-C ,  5-C ) :   0.8744 B(  4-C ,  6-C ) :   0.8602
B(  4-C , 13-H ) :   0.9507 B(  5-C , 14-H ) :   0.9704 B(  5-C , 15-H ) :   0.9743
B(  5-C , 16-H ) :   0.9820 B(  6-C , 17-H ) :   0.9700 B(  6-C , 18-H ) :   0.9700
B(  6-C , 19-H ) :   0.9853 B(  7-O , 20-H ) :   0.8701

Dispersion correction           -0.005737514
FINAL SINGLE POINT ENERGY      -312.208397259536

DIPOLE MOMENT
-------------

Method             : SCF
Type of density    : Electron Density
Multiplicity       :   1
Irrep              :   0
Energy             :  -312.2139161302327466 Eh
Relativity type    :
Basis              : AO
                                X                 Y                 Z
Electronic contribution:      0.376165884       3.003864491       2.512691438
Nuclear contribution   :     -0.694044564      -3.781235973      -2.275146066
                        -----------------------------------------
Total Dipole Moment    :     -0.317878680      -0.777371482       0.237545372
                        -----------------------------------------
Magnitude (a.u.)       :      0.872800710
Magnitude (Debye)      :      2.218483099

Rotational constants in cm-1:             0.110175             0.060557             0.052374
Rotational constants in MHz :          3302.954876          1815.456590          1570.129272

                             ****ORCA TERMINATED NORMALLY****
TOTAL RUN TIME: 0 days 0 hours 0 minutes 30 seconds 25 msec
