                         Program Version 6.0.0  -   RELEASE  -
|  1> ! r2scan-3c def2/J RI DEFGRID2 scfconv6 printgap
|  2> %output
|  3>     printlevel normal
|  4> end
|  5> * xyz 0 1
|  6> C -2.2270042218 0.6865421657 -0.849894353
|  7> C -1.7838968821 0.5347730528 0.6002371131
|  8> C -0.8893932804 -0.696516016 0.796016932
|  9> C 0.4049947771 -0.5499470389 0.0389334681
| 10> O 0.7514901319 -1.251778732 -0.8890143126
| 11> O 1.134045868 0.451220462 0.5162214208
| 12> C 2.3916704171 0.747637988 -0.0962566898
| 13> H -2.7964496903 -0.1836694599 -1.1677084482
| 14> H -2.8499484321 1.5693048698 -0.9664321589
| 15> H -1.3654818276 0.7823543634 -1.5082375117
| 16> H -2.661460195 0.429756235 1.2388477862
| 17> H -1.2353603409 1.4232710448 0.9161559321
| 18> H -1.392221003 -1.5951576811 0.4392836192
| 19> H -0.6499890836 -0.8049876572 1.8541178037
| 20> H 3.0995704621 0.9274091101 0.7090405371
| 21> H 2.2789549809 1.6414306859 -0.7091451184
| 22> H 2.7100431556 -0.091464885 -0.7159873801
| 23> *
| 24>
| 25>                          ****END OF INPUT****

CARTESIAN COORDINATES (ANGSTROEM)
---------------------------------
  C     -2.227004    0.686542   -0.849894
  C     -1.783897    0.534773    0.600237
  C     -0.889393   -0.696516    0.796017
  C      0.404995   -0.549947    0.038933
  O      0.751490   -1.251779   -0.889014
  O      1.134046    0.451220    0.516221
  C      2.391670    0.747638   -0.096257
  H     -2.796450   -0.183669   -1.167708
  H     -2.849948    1.569305   -0.966432
  H     -1.365482    0.782354   -1.508238
  H     -2.661460    0.429756    1.238848
  H     -1.235360    1.423271    0.916156
  H     -1.392221   -1.595158    0.439284
  H     -0.649989   -0.804988    1.854118
  H      3.099570    0.927409    0.709041
  H      2.278955    1.641431   -0.709145
  H      2.710043   -0.091465   -0.715987

 Total Charge           Charge          ....    0
 Multiplicity           Mult            ....    1
 Number of Electrons    NEL             ....   56
 Basis Dimension        Dim             ....  193

ORBITAL ENERGIES
----------------

  NO   OCC          E(Eh)            E(eV)
   0   2.0000     -18.999585      -517.0050
   1   2.0000     -18.928616      -515.0738
   2   2.0000     -10.153036      -276.2782
   3   2.0000     -10.086032      -274.4549
   4   2.0000     -10.041946      -273.2552
   5   2.0000     -10.037804      -273.1425
   6   2.0000     -10.020080      -272.6602
   7   2.0000      -1.073311       -29.2063
   8   2.0000      -0.976087       -26.5607
   9   2.0000      -0.774612       -21.0783
  10   2.0000      -0.709978       -19.3195
  11   2.0000      -0.661078       -17.9889
  12   2.0000      -0.575133       -15.6502
  13   2.0000      -0.533320       -14.5124
  14   2.0000      -0.471408       -12.8277
  15   2.0000      -0.456616       -12.4252
  16   2.0000      -0.440359       -11.9828
  17   2.0000      -0.418545       -11.3892
  18   2.0000      -0.416573       -11.3355
  19   2.0000      -0.383443       -10.4340
  20   2.0000      -0.363932        -9.9031
  21   2.0000      -0.360703        -9.8152
  22   2.0000      -0.328783        -8.9466
  23   2.0000      -0.314400        -8.5552
  24   2.0000      -0.313143        -8.5210
  25   2.0000      -0.310924        -8.4607
  26   2.0000      -0.272388        -7.4120
  27   2.0000      -0.234564        -6.3828
  28   0.0000      -0.015781        -0.4294
  29   0.0000       0.063870         1.7380
  30   0.0000       0.094650         2.5756
  31   0.0000       0.113597         3.0911
  32   0.0000       0.123213         3.3528

MULLIKEN ATOMIC CHARGES
-----------------------
   0 C :   -0.479467
   1 C :   -0.231929
   2 C :   -0.304007
   3 C :    0.371666
   4 O :   -0.428393
   5 O :   -0.191414
   6 C :   -0.296842
   7 H :    0.149090
   8 H :    0.147391
   9 H :    0.155453
  10 H :    0.146135
  11 H :    0.152596
  12 H :    0.167288
  13 H :    0.157746
  14 H :    0.148078
  15 H :    0.149276
  16 H :    0.187334
Sum of atomic charges:    0.0000000

LOEWDIN ATOMIC CHARGES
----------------------
   0 C :   -0.414728
   1 C :   -0.292652
   2 C :   -0.230005
   3 C :    0.350438
   4 O :   -0.434816
   5 O :   -0.606195
   6 C :   -0.045761
   7 H :    0.153470
   8 H :    0.151674
   9 H :    0.156539
  10 H :    0.153437
  11 H :    0.163326
  12 H :    0.177323
  13 H :    0.179380
  14 H :    0.174451
  15 H :    0.171970
  16 H :    0.192151

  Mayer bond orders larger than 0.100000
B(  0-C ,  1-C ) :   0.9139 B(  0-C ,  7-H ) :   0.9780 B(  0-C ,  8-H ) :   0.9704
B(  0-C ,  9-H ) :   0.9703 B(  1-C ,  2-C ) :   0.8826 B(  1-C , 10-H ) :   0.9640
B(  1-C , 11-H ) :   0.9743 B(  2-C ,  3-C ) :   0.9704 B(  2-C , 12-H ) :   0.9986
B(  2-C , 13-H ) :   0.9452 B(  3-C ,  4-O ) :   1.8550 B(  3-C ,  5-O ) :   1.0393
B(  5-O ,  6-C ) :   0.8410 B(  6-C , 14-H ) :   0.9686 B(  6-C , 15-H ) :   0.9609
B(  6-C , 16-H ) :   0.9677

Dispersion correction           -0.004163322
FINAL SINGLE POINT ENERGY      -346.930074910980

DIPOLE MOMENT
-------------

Method             : SCF
Type of density    : Electron Density
Multiplicity       :   1
Irrep              :   0
Energy             :  -346.9366881570983310 Eh
Relativity type    :
Basis              : AO
                                X                 Y                 Z
Electronic contribution:      4.510788177      -3.173023771       0.455401203
Nuclear contribution   :     -4.533734510       3.832971366       0.078847038
                        -----------------------------------------
Total Dipole Moment    :     -0.022946333       0.659947594       0.534248242
                        -----------------------------------------
Magnitude (a.u.)       :      0.849398932
Magnitude (Debye)      :      2.159000506

Rotational constants in cm-1:             0.146408             0.055023             0.051471
Rotational constants in MHz :          4389.205744          1649.536941          1543.055713

                             ****ORCA TERMINATED NORMALLY****
TOTAL RUN TIME: 0 days 0 hours 0 minutes 23 seconds 123 msec
