                         Program Version 6.0.0  -   RELEASE  -
|  1> ! r2scan-3c def2/J RI DEFGRID2 scfconv6 printgap
|  2> %output
|  3>     printlevel normal
|  4> end
|  5> %cpcm
|  6>     smd true
|  7>     smdsolvent "water"
|  8> end
|  9> * xyz 0 1
| 10> C -2.2270042218 0.6865421657 -0.849894353
| 11> C -1.7838968821 0.5347730528 0.6002371131
| 12> C -0.8893932804 -0.696516016 0.796016932
| 13> C 0.4049947771 -0.5499470389 0.0389334681
| 14> O 0.7514901319 -1.251778732 -0.8890143126
| 15> O 1.134045868 0.451220462 0.5162214208
| 16> C 2.3916704171 0.747637988 -0.0962566898
| 17> H -2.7964496903 -0.1836694599 -1.1677084482
| 18> H -2.8499484321 1.5693048698 -0.9664321589
| 19> H -1.3654818276 0.7823543634 -1.5082375117
| 20> H -2.661460195 0.429756235 1.2388477862
| 21> H -1.2353603409 1.4232710448 0.9161559321
| 22> H -1.392221003 -1.5951576811 0.4392836192
| 23> H -0.6499890836 -0.8049876572 1.8541178037
| 24> H 3.0995704621 0.9274091101 0.7090405371
| 25> H 2.2789549809 1.6414306859 -0.7091451184
| 26> H 2.7100431556 -0.091464885 -0.7159873801
| 27> *
| 28>
| 29>                          ****END OF INPUT****

CARTESIAN COORDINATES (ANGSTROEM)
---------------------------------
  C     -2.227004    0.686542   -0.849894
  C     -1.783897    0.534773    0.600237
  C     -0.889393   -0.696516    0.796017
  C      0.404995   -0.549947    0.038933
  O      0.751490   -1.251779   -0.889014
  O      1.134046    0.451220    0.516221
  C      2.391670    0.747638   -0.096257
  H     -2.796450   -0.183669   -1.167708
  H     -2.849948    1.569305   -0.966432
  H     -1.365482    0.782354   -1.508238
  H     -2.661460    0.429756    1.238848
  H     -1.235360    1.423271    0.916156
  H     -1.392221   -1.595158    0.439284
  H     -0.649989   -0.804988    1.854118
  H      3.099570    0.927409    0.709041
  H      2.278955    1.641431   -0.709145
  H      2.710043   -0.091465   -0.715987

 Total Charge           Charge          ....    0
 Multiplicity           Mult            ....    1
 Number of Electrons    NEL             ....   56
 Basis Dimension        Dim             ....  193

ORBITAL ENERGIES
----------------

  NO   OCC          E(Eh)            E(eV)
   0   2.0000     -19.004025      -517.1258
   1   2.0000     -18.943563      -515.4806
   2   2.0000     -10.162704      -276.5412
   3   2.0000     -10.075306      -274.1630
   4   2.0000     -10.035738      -273.0863
   5   2.0000     -10.029046      -272.9042
   6   2.0000     -10.011757      -272.4338
   7   2.0000      -1.079277       -29.3686
   8   2.0000      -0.989010       -26.9123
   9   2.0000      -0.768866       -20.9219
  10   2.0000      -0.704450       -19.1691
  11   2.0000      -0.654139       -17.8000
  12   2.0000      -0.568612       -15.4727
  13   2.0000      -0.530477       -14.4350
  14   2.0000      -0.469674       -12.7805
  15   2.0000      -0.457816       -12.4578
  16   2.0000      -0.450548       -12.2600
  17   2.0000      -0.412293       -11.2191
  18   2.0000      -0.408672       -11.1205
  19   2.0000      -0.382454       -10.4071
  20   2.0000      -0.361294        -9.8313
  21   2.0000      -0.356366        -9.6972
  22   2.0000      -0.324452        -8.8288
  23   2.0000      -0.313993        -8.5442
  24   2.0000      -0.307472        -8.3667
  25   2.0000      -0.302834        -8.2405
  26   2.0000      -0.277894        -7.5619
  27   2.0000      -0.249373        -6.7858
  28   0.0000      -0.023133        -0.6295
  29   0.0000       0.070039         1.9058
  30   0.0000       0.102735         2.7956
  31   0.0000       0.123157         3.3513
  32   0.0000       0.131000         3.5647

MULLIKEN ATOMIC CHARGES
-----------------------
   0 C :   -0.527272
   1 C :   -0.223927
   2 C :   -0.325692
   3 C :    0.405831
   4 O :   -0.514091
   5 O :   -0.205532
   6 C :   -0.314401
   7 H :    0.163208
   8 H :    0.161856
   9 H :    0.161168
  10 H :    0.163779
  11 H :    0.156383
  12 H :    0.177051
  13 H :    0.186247
  14 H :    0.174691
  15 H :    0.177622
  16 H :    0.183080
Sum of atomic charges:    0.0000000

LOEWDIN ATOMIC CHARGES
----------------------
   0 C :   -0.423121
   1 C :   -0.289235
   2 C :   -0.228429
   3 C :    0.359263
   4 O :   -0.496713
   5 O :   -0.606599
   6 C :   -0.040542
   7 H :    0.156210
   8 H :    0.156412
   9 H :    0.156066
  10 H :    0.160466
  11 H :    0.164472
  12 H :    0.181232
  13 H :    0.190482
  14 H :    0.185995
  15 H :    0.183082
  16 H :    0.190958

  Mayer bond orders larger than 0.100000
B(  0-C ,  1-C ) :   0.8975 B(  0-C ,  7-H ) :   0.9770 B(  0-C ,  8-H ) :   0.9663
B(  0-C ,  9-H ) :   0.9695 B(  1-C ,  2-C ) :   0.8748 B(  1-C , 10-H ) :   0.9610
B(  1-C , 11-H ) :   0.9733 B(  2-C ,  3-C ) :   0.9698 B(  2-C , 12-H ) :   0.9937
B(  2-C , 13-H ) :   0.9364 B(  3-C ,  4-O ) :   1.7838 B(  3-C ,  5-O ) :   1.0687
B(  5-O ,  6-C ) :   0.8273 B(  6-C , 14-H ) :   0.9589 B(  6-C , 15-H ) :   0.9523
B(  6-C , 16-H ) :   0.9643

Dispersion correction           -0.004163322
FINAL SINGLE POINT ENERGY      -346.934698981682

DIPOLE MOMENT
-------------

Method             : SCF
Type of density    : Electron Density
Multiplicity       :   1
Irrep              :   0
Energy             :  -346.9413122277999832 Eh
Relativity type    :
Basis              : AO
                                X                 Y                 Z
Electronic contribution:      4.478673097      -2.917025078       0.719211322
Nuclear contribution   :     -4.533734510       3.832971366       0.078847038
                        -----------------------------------------
Total Dipole Moment    :     -0.055061412       0.915946288       0.798058360
                        -----------------------------------------
Magnitude (a.u.)       :      1.216094777
Magnitude (Debye)      :      3.091067273

Rotational constants in cm-1:             0.146408             0.055023             0.051471
Rotational constants in MHz :          4389.205744          1649.536941          1543.055713

                             ****ORCA TERMINATED NORMALLY****
TOTAL RUN TIME: 0 days 0 hours 0 minutes 33 seconds 12 msec
