                         Program Version 6.0.0  -   RELEASE  -
|  1> ! pbe def2-sv(p) def2/J RI DEFGRID1 loosescf d4 GCP(DFT/SV(P)) printgap
|  2> %output
|  3>     printlevel normal
|  4> end
|  5> * xyz 0 1
|  6> C -1.1041042351 -0.1539176323 0.7087013438
|  7> C 0.2147101088 0.5554194937 0.3585534923
|  8> C 1.1246504417 -0.368285209 -0.4671050496
|  9> O 1.6895410109 -1.398890319 0.3025593795
| 10> O -0.0345952793 1.708069035 -0.4209649691
| 11> O -1.8717206686 -0.4157152389 -0.4417814181
| 12> H -1.6830381846 0.4605894051 1.4138438984
| 13> H -0.8860253704 -1.11804091 1.1715495057
| 14> H 0.7317753678 0.8221164966 1.2912676414
| 15> H 1.8946589947 0.2430595811 -0.9525481008
| 16> H 0.5284584427 -0.8573384482 -1.2408774244
| 17> H 2.3291951951 -1.025872523 0.9256154491
| 18> H -0.4335026804 2.3936922147 0.1334047156
| 19> H -1.8439163111 0.3770732273 -1.0016591457
| 20> *
| 21>
| 22>                          ****END OF INPUT****

CARTESIAN COORDINATES (ANGSTROEM)
---------------------------------
  C     -1.104104   -0.153918    0.708701
  C      0.214710    0.555419    0.358553
  C      1.124650   -0.368285   -0.467105
  O      1.689541   -1.398890    0.302559
  O     -0.034595    1.708069   -0.420965
  O     -1.871721   -0.415715   -0.441781
  H     -1.683038    0.460589    1.413844
  H     -0.886025   -1.118041    1.171550
  H      0.731775    0.822116    1.291268
  H      1.894659    0.243060   -0.952548
  H      0.528458   -0.857338   -1.240877
  H      2.329195   -1.025873    0.925615
  H     -0.433503    2.393692    0.133405
  H     -1.843916    0.377073   -1.001659

 Total Charge           Charge          ....    0
 Multiplicity           Mult            ....    1
 Number of Electrons    NEL             ....   50
 Basis Dimension        Dim             ....  100

ORBITAL ENERGIES
----------------

  NO   OCC          E(Eh)            E(eV)
   0   2.0000     -18.767750      -510.6964
   1   2.0000     -18.750385      -510.2239
   2   2.0000     -18.739860      -509.9375
   3   2.0000      -9.943990      -270.5897
   4   2.0000      -9.927572      -270.1430
   5   2.0000      -9.927236      -270.1338
   6   2.0000      -0.948321       -25.8051
   7   2.0000      -0.924132       -25.1469
   8   2.0000      -0.910971       -24.7888
   9   2.0000      -0.680221       -18.5097
  10   2.0000      -0.606131       -16.4937
  11   2.0000      -0.546915       -14.8823
  12   2.0000      -0.485041       -13.1986
  13   2.0000      -0.457379       -12.4459
  14   2.0000      -0.433492       -11.7959
  15   2.0000      -0.428035       -11.6474
  16   2.0000      -0.388613       -10.5747
  17   2.0000      -0.367917       -10.0115
  18   2.0000      -0.348162        -9.4740
  19   2.0000      -0.306861        -8.3501
  20   2.0000      -0.284380        -7.7384
  21   2.0000      -0.271996        -7.4014
  22   2.0000      -0.243362        -6.6222
  23   2.0000      -0.223459        -6.0806
  24   2.0000      -0.208144        -5.6639
  25   0.0000       0.007801         0.2123
  26   0.0000       0.022561         0.6139
  27   0.0000       0.061573         1.6755
  28   0.0000       0.088193         2.3999
  29   0.0000       0.099414         2.7052

MULLIKEN ATOMIC CHARGES
-----------------------
   0 C :    0.050337
   1 C :   -0.072643
   2 C :    0.048443
   3 O :   -0.431681
   4 O :   -0.423958
   5 O :   -0.436445
   6 H :    0.061402
   7 H :    0.092537
   8 H :    0.049124
   9 H :    0.083339
  10 H :    0.089373
  11 H :    0.295034
  12 H :    0.303316
  13 H :    0.291821
Sum of atomic charges:   -0.0000000

LOEWDIN ATOMIC CHARGES
----------------------
   0 C :   -0.135944
   1 C :   -0.104965
   2 C :   -0.129376
   3 O :   -0.329614
   4 O :   -0.323859
   5 O :   -0.337531
   6 H :    0.088132
   7 H :    0.119107
   8 H :    0.093255
   9 H :    0.099382
  10 H :    0.117639
  11 H :    0.281964
  12 H :    0.288802
  13 H :    0.273009

  Mayer bond orders larger than 0.100000
B(  0-C ,  1-C ) :   1.0380 B(  0-C ,  5-O ) :   1.0637 B(  0-C ,  6-H ) :   0.9114
B(  0-C ,  7-H ) :   0.9138 B(  1-C ,  2-C ) :   1.0198 B(  1-C ,  4-O ) :   1.0360
B(  1-C ,  8-H ) :   0.9014 B(  2-C ,  3-O ) :   1.0671 B(  2-C ,  9-H ) :   0.9248
B(  2-C , 10-H ) :   0.9103 B(  3-O , 11-H ) :   0.8527 B(  4-O , 12-H ) :   0.8478
B(  5-O , 13-H ) :   0.8311

Dispersion correction           -0.009272748
FINAL SINGLE POINT ENERGY      -344.008380848553

DIPOLE MOMENT
-------------

Method             : SCF
Type of density    : Electron Density
Multiplicity       :   1
Irrep              :   0
Energy             :  -344.0821982048045697 Eh
Relativity type    :
Basis              : AO
                                X                 Y                 Z
Electronic contribution:     -0.226027368      -0.055427923      -0.902734876
Nuclear contribution   :      0.594965064       1.213614104       1.624661807
                        -----------------------------------------
Total Dipole Moment    :      0.368937696       1.158186181       0.721926932
                        -----------------------------------------
Magnitude (a.u.)       :      1.413749889
Magnitude (Debye)      :      3.593466639

Rotational constants in cm-1:             0.155810             0.088951             0.068080
Rotational constants in MHz :          4671.078439          2666.692416          2040.998362

                             ****ORCA TERMINATED NORMALLY****
TOTAL RUN TIME: 0 days 0 hours 0 minutes 6 seconds 696 msec
