                         Program Version 6.0.0  -   RELEASE  -
|  1> ! pbe def2-sv(p) def2/J RI DEFGRID1 loosescf d4 GCP(DFT/SV(P)) printgap
|  2> %output
|  3>     printlevel normal
|  4> end
|  5> * xyz 0 1
|  6> C -2.4791528476 0.8812285849 -0.6789024078
|  7> C -1.845608203 -0.4932972459 -0.4850794737
|  8> C -1.1774364803 -0.6973997672 0.8823826475
|  9> C 0.3212373574 -0.37651752 0.9978224697
| 10> C 1.1967422925 -1.2394600315 0.0632198837
| 11> C 2.1392300206 -0.2690321478 -0.6544322352
| 12> C 1.35300896 1.0375581204 -0.6997541285
| 13> C 0.6990919406 1.0822337507 0.6784670393
| 14> H -3.0375875077 0.9031310877 -1.6126546543
| 15> H -3.168011624 1.1015165551 0.1340361121
| 16> H -1.730699582 1.6668063842 -0.7188909619
| 17> H -2.6357215266 -1.2411933709 -0.5894786087
| 18> H -1.128813086 -0.6720654053 -1.2866330594
| 19> H -1.7144858198 -0.1044549275 1.6265363997
| 20> H -1.2927209296 -1.746952254 1.1664402018
| 21> H 0.5883234052 -0.5875211015 2.0384939406
| 22> H 1.7491471189 -1.9961626417 0.6192201285
| 23> H 0.5733289875 -1.7598606855 -0.6633666429
| 24> H 3.0481924933 -0.1265142054 -0.0672947705
| 25> H 2.4244423399 -0.6245774831 -1.643819826
| 26> H 1.9882241341 1.9025774858 -0.8876430582
| 27> H 0.5949112065 0.9916852917 -1.4820306072
| 28> H 1.4315648003 1.4346984334 1.4073072498
| 29> H -0.1582308582 1.7489122618 0.7237165409
| 30> *
| 31>
| 32>                          ****END OF INPUT****

CARTESIAN COORDINATES (ANGSTROEM)
---------------------------------
  C     -2.479153    0.881229   -0.678902
  C     -1.845608   -0.493297   -0.485079
  C     -1.177436   -0.697400    0.882383
  C      0.321237   -0.376518    0.997822
  C      1.196742   -1.239460    0.063220
  C      2.139230   -0.269032   -0.654432
  C      1.353009    1.037558   -0.699754
  C      0.699092    1.082234    0.678467
  H     -3.037588    0.903131   -1.612655
  H     -3.168012    1.101517    0.134036
  H     -1.730700    1.666806   -0.718891
  H     -2.635722   -1.241193   -0.589479
  H     -1.128813   -0.672065   -1.286633
  H     -1.714486   -0.104455    1.626536
  H     -1.292721   -1.746952    1.166440
  H      0.588323   -0.587521    2.038494
  H      1.749147   -1.996163    0.619220
  H      0.573329   -1.759861   -0.663367
  H      3.048192   -0.126514   -0.067295
  H      2.424442   -0.624577   -1.643820
  H      1.988224    1.902577   -0.887643
  H      0.594911    0.991685   -1.482031
  H      1.431565    1.434698    1.407307
  H     -0.158231    1.748912    0.723717

 Total Charge           Charge          ....    0
 Multiplicity           Mult            ....    1
 Number of Electrons    NEL             ....   64
 Basis Dimension        Dim             ....  144

ORBITAL ENERGIES
----------------

  NO   OCC          E(Eh)            E(eV)
   0   2.0000      -9.883706      -268.9493
   1   2.0000      -9.879387      -268.8318
   2   2.0000      -9.876702      -268.7587
   3   2.0000      -9.875691      -268.7312
   4   2.0000      -9.875505      -268.7262
   5   2.0000      -9.873078      -268.6601
   6   2.0000      -9.872678      -268.6492
   7   2.0000      -9.870199      -268.5818
   8   2.0000      -0.758078       -20.6284
   9   2.0000      -0.700722       -19.0676
  10   2.0000      -0.646000       -17.5786
  11   2.0000      -0.629798       -17.1377
  12   2.0000      -0.584224       -15.8975
  13   2.0000      -0.524177       -14.2636
  14   2.0000      -0.502662       -13.6781
  15   2.0000      -0.470583       -12.8052
  16   2.0000      -0.438559       -11.9338
  17   2.0000      -0.421504       -11.4697
  18   2.0000      -0.393040       -10.6952
  19   2.0000      -0.390471       -10.6253
  20   2.0000      -0.364486        -9.9182
  21   2.0000      -0.355151        -9.6641
  22   2.0000      -0.348786        -9.4909
  23   2.0000      -0.309927        -8.4336
  24   2.0000      -0.304324        -8.2811
  25   2.0000      -0.302658        -8.2357
  26   2.0000      -0.289569        -7.8796
  27   2.0000      -0.288092        -7.8394
  28   2.0000      -0.276668        -7.5285
  29   2.0000      -0.268505        -7.3064
  30   2.0000      -0.262009        -7.1296
  31   2.0000      -0.254453        -6.9240
  32   0.0000       0.028490         0.7753
  33   0.0000       0.044788         1.2187
  34   0.0000       0.056826         1.5463
  35   0.0000       0.068612         1.8670
  36   0.0000       0.081563         2.2194

MULLIKEN ATOMIC CHARGES
-----------------------
   0 C :   -0.295283
   1 C :   -0.191338
   2 C :   -0.130915
   3 C :   -0.169127
   4 C :   -0.127164
   5 C :   -0.163219
   6 C :   -0.178876
   7 C :   -0.118354
   8 H :    0.098809
   9 H :    0.098358
  10 H :    0.117145
  11 H :    0.082359
  12 H :    0.094672
  13 H :    0.077872
  14 H :    0.078554
  15 H :    0.060120
  16 H :    0.079175
  17 H :    0.086614
  18 H :    0.078562
  19 H :    0.084402
  20 H :    0.086514
  21 H :    0.092202
  22 H :    0.071016
  23 H :    0.087903
Sum of atomic charges:    0.0000000

LOEWDIN ATOMIC CHARGES
----------------------
   0 C :   -0.343146
   1 C :   -0.239499
   2 C :   -0.217973
   3 C :   -0.143609
   4 C :   -0.224214
   5 C :   -0.226497
   6 C :   -0.229615
   7 C :   -0.223714
   8 H :    0.118188
   9 H :    0.116280
  10 H :    0.116496
  11 H :    0.117323
  12 H :    0.112557
  13 H :    0.113421
  14 H :    0.115182
  15 H :    0.115680
  16 H :    0.117856
  17 H :    0.115959
  18 H :    0.114541
  19 H :    0.115190
  20 H :    0.115161
  21 H :    0.114091
  22 H :    0.116352
  23 H :    0.113992

  Mayer bond orders larger than 0.100000
B(  0-C ,  1-C ) :   1.1602 B(  0-C ,  8-H ) :   0.9499 B(  0-C ,  9-H ) :   0.9527
B(  0-C , 10-H ) :   0.9417 B(  1-C ,  2-C ) :   1.1040 B(  1-C , 11-H ) :   0.9274
B(  1-C , 12-H ) :   0.9163 B(  2-C ,  3-C ) :   1.1102 B(  2-C , 13-H ) :   0.9198
B(  2-C , 14-H ) :   0.9193 B(  3-C ,  4-C ) :   1.1064 B(  3-C ,  7-C ) :   1.1136
B(  3-C , 15-H ) :   0.8926 B(  4-C ,  5-C ) :   1.1556 B(  4-C , 16-H ) :   0.9164
B(  4-C , 17-H ) :   0.9121 B(  5-C ,  6-C ) :   1.1253 B(  5-C , 18-H ) :   0.9196
B(  5-C , 19-H ) :   0.9266 B(  6-C ,  7-C ) :   1.1308 B(  6-C , 20-H ) :   0.9260
B(  6-C , 21-H ) :   0.9145 B(  7-C , 22-H ) :   0.9094 B(  7-C , 23-H ) :   0.9162

Dispersion correction           -0.022037221
FINAL SINGLE POINT ENERGY      -313.687902833552

DIPOLE MOMENT
-------------

Method             : SCF
Type of density    : Electron Density
Multiplicity       :   1
Irrep              :   0
Energy             :  -313.7684943503218733 Eh
Relativity type    :
Basis              : AO
                                X                 Y                 Z
Electronic contribution:      2.317920247      -0.861655614       1.176538006
Nuclear contribution   :     -2.315514392       0.834988958      -1.159627322
                        -----------------------------------------
Total Dipole Moment    :      0.002405855      -0.026666656       0.016910683
                        -----------------------------------------
Magnitude (a.u.)       :      0.031668121
Magnitude (Debye)      :      0.080493967

Rotational constants in cm-1:             0.104007             0.047739             0.042478
Rotational constants in MHz :          3118.060634          1431.174220          1273.450457

                             ****ORCA TERMINATED NORMALLY****
TOTAL RUN TIME: 0 days 0 hours 0 minutes 11 seconds 14 msec
