                         Program Version 6.0.0  -   RELEASE  -
|  1> ! pbe def2-sv(p) def2/J RI DEFGRID1 loosescf d4 GCP(DFT/SV(P)) printgap
|  2> %output
|  3>     printlevel normal
|  4> end
|  5> * xyz 0 1
|  6> C -2.1561646512 -0.4321587198 -0.9236079164
|  7> C -2.0730306451 0.5657388402 0.2255288089
|  8> C -0.816868223 0.3705536824 1.0703591449
|  9> O 0.3532635613 0.7391661917 0.3260456643
| 10> C 1.2139131651 -0.2008957594 -0.0462122309
| 11> O 1.094817603 -1.3768912303 0.2298596142
| 12> C 2.3444579091 0.383587006 -0.8405249751
| 13> H -3.0687347253 -0.2785539915 -1.4925363373
| 14> H -1.308741159 -0.3158013211 -1.5964549931
| 15> H -2.1482026223 -1.4519734303 -0.544752225
| 16> H -2.9356480211 0.4468836634 0.8810389599
| 17> H -2.0731819499 1.5834032739 -0.1671838278
| 18> H -0.8319675989 1.0272787064 1.9428491665
| 19> H -0.7155367918 -0.6717819816 1.3881142858
| 20> H 3.0904407914 -0.3809258592 -1.0297573698
| 21> H 2.7771349161 1.2158308419 -0.2931280432
| 22> H 1.9562212455 0.7640886687 -1.7819150452
| 23> *
| 24>
| 25>                          ****END OF INPUT****

CARTESIAN COORDINATES (ANGSTROEM)
---------------------------------
  C     -2.156165   -0.432159   -0.923608
  C     -2.073031    0.565739    0.225529
  C     -0.816868    0.370554    1.070359
  O      0.353264    0.739166    0.326046
  C      1.213913   -0.200896   -0.046212
  O      1.094818   -1.376891    0.229860
  C      2.344458    0.383587   -0.840525
  H     -3.068735   -0.278554   -1.492536
  H     -1.308741   -0.315801   -1.596455
  H     -2.148203   -1.451973   -0.544752
  H     -2.935648    0.446884    0.881039
  H     -2.073182    1.583403   -0.167184
  H     -0.831968    1.027279    1.942849
  H     -0.715537   -0.671782    1.388114
  H      3.090441   -0.380926   -1.029757
  H      2.777135    1.215831   -0.293128
  H      1.956221    0.764089   -1.781915

 Total Charge           Charge          ....    0
 Multiplicity           Mult            ....    1
 Number of Electrons    NEL             ....   56
 Basis Dimension        Dim             ....  118

ORBITAL ENERGIES
----------------

  NO   OCC          E(Eh)            E(eV)
   0   2.0000     -18.796133      -511.4688
   1   2.0000     -18.730012      -509.6695
   2   2.0000     -10.008049      -272.3329
   3   2.0000      -9.941562      -270.5236
   4   2.0000      -9.895531      -269.2711
   5   2.0000      -9.893416      -269.2135
   6   2.0000      -9.879143      -268.8252
   7   2.0000      -1.002973       -27.2923
   8   2.0000      -0.907857       -24.7041
   9   2.0000      -0.723264       -19.6810
  10   2.0000      -0.677805       -18.4440
  11   2.0000      -0.623306       -16.9610
  12   2.0000      -0.549050       -14.9404
  13   2.0000      -0.498412       -13.5625
  14   2.0000      -0.445767       -12.1299
  15   2.0000      -0.435554       -11.8520
  16   2.0000      -0.410927       -11.1819
  17   2.0000      -0.396763       -10.7965
  18   2.0000      -0.396119       -10.7790
  19   2.0000      -0.363138        -9.8815
  20   2.0000      -0.359474        -9.7818
  21   2.0000      -0.342458        -9.3188
  22   2.0000      -0.316398        -8.6096
  23   2.0000      -0.313981        -8.5439
  24   2.0000      -0.310135        -8.4392
  25   2.0000      -0.287380        -7.8200
  26   2.0000      -0.251203        -6.8356
  27   2.0000      -0.217316        -5.9135
  28   0.0000      -0.017964        -0.4888
  29   0.0000       0.037141         1.0106
  30   0.0000       0.055517         1.5107
  31   0.0000       0.077529         2.1097
  32   0.0000       0.085361         2.3228

MULLIKEN ATOMIC CHARGES
-----------------------
   0 C :   -0.293352
   1 C :   -0.198034
   2 C :    0.003013
   3 O :   -0.250145
   4 C :    0.081493
   5 O :   -0.207923
   6 C :   -0.245828
   7 H :    0.107058
   8 H :    0.114589
   9 H :    0.110642
  10 H :    0.095817
  11 H :    0.096844
  12 H :    0.099152
  13 H :    0.109138
  14 H :    0.123510
  15 H :    0.126015
  16 H :    0.128010
Sum of atomic charges:   -0.0000000

LOEWDIN ATOMIC CHARGES
----------------------
   0 C :   -0.342820
   1 C :   -0.246040
   2 C :   -0.109113
   3 O :   -0.072514
   4 C :    0.027902
   5 O :   -0.171319
   6 C :   -0.358587
   7 H :    0.121042
   8 H :    0.119989
   9 H :    0.123438
  10 H :    0.124747
  11 H :    0.120981
  12 H :    0.115911
  13 H :    0.119700
  14 H :    0.138936
  15 H :    0.142800
  16 H :    0.144948

  Mayer bond orders larger than 0.100000
B(  0-C ,  1-C ) :   1.1533 B(  0-C ,  7-H ) :   0.9520 B(  0-C ,  8-H ) :   0.9488
B(  0-C ,  9-H ) :   0.9548 B(  1-C ,  2-C ) :   1.1290 B(  1-C , 10-H ) :   0.9206
B(  1-C , 11-H ) :   0.9231 B(  2-C ,  3-O ) :   0.9225 B(  2-C , 12-H ) :   0.9314
B(  2-C , 13-H ) :   0.9009 B(  3-O ,  4-C ) :   1.1780 B(  4-C ,  5-O ) :   2.0662
B(  4-C ,  6-C ) :   1.0799 B(  6-C , 14-H ) :   0.9430 B(  6-C , 15-H ) :   0.9300
B(  6-C , 16-H ) :   0.9284

Dispersion correction           -0.012266977
FINAL SINGLE POINT ENERGY      -346.244160664863

DIPOLE MOMENT
-------------

Method             : SCF
Type of density    : Electron Density
Multiplicity       :   1
Irrep              :   0
Energy             :  -346.3090172676032807 Eh
Relativity type    :
Basis              : AO
                                X                 Y                 Z
Electronic contribution:      4.628553541      -1.094881731       2.437308537
Nuclear contribution   :     -4.911616232       1.809133859      -2.518922909
                        -----------------------------------------
Total Dipole Moment    :     -0.283062691       0.714252128      -0.081614371
                        -----------------------------------------
Magnitude (a.u.)       :      0.772619890
Magnitude (Debye)      :      1.963843692

Rotational constants in cm-1:             0.157084             0.052624             0.050341
Rotational constants in MHz :          4709.265153          1577.625249          1509.177713

                             ****ORCA TERMINATED NORMALLY****
TOTAL RUN TIME: 0 days 0 hours 0 minutes 9 seconds 19 msec
