                         Program Version 6.0.0  -   RELEASE  -
|  1> ! r2scan-3c def2/J RI DEFGRID2 scfconv6 printgap
|  2> %output
|  3>     printlevel normal
|  4> end
|  5> * xyz 0 1
|  6> C 2.0323217527 -0.1655996371 1.1983378522
|  7> C 1.4603473105 0.7636251208 0.1328695065
|  8> C 0.2628558443 0.1954527174 -0.6476410299
|  9> H -0.0602773134 0.9834709794 -1.3398949885
| 10> C 0.7040490825 -1.0097130398 -1.482681246
| 11> C -0.9419014261 -0.1532882982 0.2480672224
| 12> C -1.3771025564 1.0373080644 1.1038202389
| 13> C -2.1334342158 -0.6180518318 -0.5917380703
| 14> H 2.8959542149 0.3007874738 1.6675859538
| 15> H 1.299230679 -0.3739135597 1.9730293299
| 16> H 2.3522713335 -1.10748705 0.7615578364
| 17> H 2.2488533829 0.9930157521 -0.5887694879
| 18> H 1.1735655264 1.7075075213 0.5987242096
| 19> H 1.655330467 -0.8014749041 -1.9674250156
| 20> H 0.8217581165 -1.8914910111 -0.857577829
| 21> H -0.0221296907 -1.2346244834 -2.2584010191
| 22> H -0.6564576447 -0.9751606085 0.9129170472
| 23> H -0.6187070517 1.3051537958 1.8335142458
| 24> H -2.2887927457 0.7931317826 1.6448791924
| 25> H -1.5756104819 1.9025941728 0.4745673172
| 26> H -2.9975101409 -0.7852179157 0.0476753989
| 27> H -1.9167665273 -1.5475194358 -1.1094772975
| 28> H -2.3957483305 0.1385653079 -1.3285582974
| 29> *
| 30>
| 31>                          ****END OF INPUT****

CARTESIAN COORDINATES (ANGSTROEM)
---------------------------------
  C      2.032322   -0.165600    1.198338
  C      1.460347    0.763625    0.132870
  C      0.262856    0.195453   -0.647641
  H     -0.060277    0.983471   -1.339895
  C      0.704049   -1.009713   -1.482681
  C     -0.941901   -0.153288    0.248067
  C     -1.377103    1.037308    1.103820
  C     -2.133434   -0.618052   -0.591738
  H      2.895954    0.300787    1.667586
  H      1.299231   -0.373914    1.973029
  H      2.352271   -1.107487    0.761558
  H      2.248853    0.993016   -0.588769
  H      1.173566    1.707508    0.598724
  H      1.655330   -0.801475   -1.967425
  H      0.821758   -1.891491   -0.857578
  H     -0.022130   -1.234624   -2.258401
  H     -0.656458   -0.975161    0.912917
  H     -0.618707    1.305154    1.833514
  H     -2.288793    0.793132    1.644879
  H     -1.575610    1.902594    0.474567
  H     -2.997510   -0.785218    0.047675
  H     -1.916767   -1.547519   -1.109477
  H     -2.395748    0.138565   -1.328558

 Total Charge           Charge          ....    0
 Multiplicity           Mult            ....    1
 Number of Electrons    NEL             ....   58
 Basis Dimension        Dim             ....  213

ORBITAL ENERGIES
----------------

  NO   OCC          E(Eh)            E(eV)
   0   2.0000     -10.028934      -272.9012
   1   2.0000     -10.027500      -272.8621
   2   2.0000     -10.019516      -272.6449
   3   2.0000     -10.013321      -272.4763
   4   2.0000     -10.012066      -272.4422
   5   2.0000     -10.011748      -272.4335
   6   2.0000     -10.011543      -272.4279
   7   2.0000      -0.788911       -21.4674
   8   2.0000      -0.727289       -19.7905
   9   2.0000      -0.683890       -18.6096
  10   2.0000      -0.645157       -17.5556
  11   2.0000      -0.604788       -16.4571
  12   2.0000      -0.561940       -15.2912
  13   2.0000      -0.501721       -13.6525
  14   2.0000      -0.434629       -11.8268
  15   2.0000      -0.429289       -11.6815
  16   2.0000      -0.401928       -10.9370
  17   2.0000      -0.400330       -10.8935
  18   2.0000      -0.371650       -10.1131
  19   2.0000      -0.355024        -9.6607
  20   2.0000      -0.353211        -9.6114
  21   2.0000      -0.347461        -9.4549
  22   2.0000      -0.339344        -9.2340
  23   2.0000      -0.319759        -8.7011
  24   2.0000      -0.311147        -8.4668
  25   2.0000      -0.300291        -8.1713
  26   2.0000      -0.281430        -7.6581
  27   2.0000      -0.273436        -7.4406
  28   2.0000      -0.269749        -7.3402
  29   0.0000       0.078064         2.1242
  30   0.0000       0.111532         3.0349
  31   0.0000       0.112841         3.0706
  32   0.0000       0.113785         3.0963
  33   0.0000       0.123249         3.3538

MULLIKEN ATOMIC CHARGES
-----------------------
   0 C :   -0.501583
   1 C :   -0.269192
   2 C :   -0.036625
   3 H :    0.158715
   4 C :   -0.553126
   5 C :   -0.058055
   6 C :   -0.512536
   7 C :   -0.512866
   8 H :    0.147387
   9 H :    0.152300
  10 H :    0.154862
  11 H :    0.144140
  12 H :    0.153095
  13 H :    0.147743
  14 H :    0.162560
  15 H :    0.156967
  16 H :    0.161383
  17 H :    0.153525
  18 H :    0.143496
  19 H :    0.157249
  20 H :    0.142761
  21 H :    0.154315
  22 H :    0.153484
Sum of atomic charges:   -0.0000000

LOEWDIN ATOMIC CHARGES
----------------------
   0 C :   -0.424657
   1 C :   -0.311934
   2 C :   -0.236891
   3 H :    0.160083
   4 C :   -0.417426
   5 C :   -0.242095
   6 C :   -0.416148
   7 C :   -0.414659
   8 H :    0.151297
   9 H :    0.149880
  10 H :    0.152157
  11 H :    0.153842
  12 H :    0.154541
  13 H :    0.154437
  14 H :    0.154578
  15 H :    0.154157
  16 H :    0.157295
  17 H :    0.152658
  18 H :    0.152694
  19 H :    0.155506
  20 H :    0.152082
  21 H :    0.153703
  22 H :    0.154899

  Mayer bond orders larger than 0.100000
B(  0-C ,  1-C ) :   0.8734 B(  0-C ,  8-H ) :   0.9695 B(  0-C ,  9-H ) :   0.9795
B(  0-C , 10-H ) :   0.9826 B(  1-C ,  2-C ) :   0.8821 B(  1-C , 11-H ) :   0.9792
B(  1-C , 12-H ) :   0.9814 B(  2-C ,  3-H ) :   0.9865 B(  2-C ,  4-C ) :   0.8710
B(  2-C ,  5-C ) :   0.8737 B(  4-C , 13-H ) :   0.9754 B(  4-C , 14-H ) :   0.9865
B(  4-C , 15-H ) :   0.9740 B(  5-C ,  6-C ) :   0.8834 B(  5-C ,  7-C ) :   0.8894
B(  5-C , 16-H ) :   0.9631 B(  6-C , 17-H ) :   0.9726 B(  6-C , 18-H ) :   0.9741
B(  6-C , 19-H ) :   0.9901 B(  7-C , 20-H ) :   0.9753 B(  7-C , 21-H ) :   0.9746
B(  7-C , 22-H ) :   0.9900

Dispersion correction           -0.006649647
FINAL SINGLE POINT ENERGY      -276.286457281085

DIPOLE MOMENT
-------------

Method             : SCF
Type of density    : Electron Density
Multiplicity       :   1
Irrep              :   0
Energy             :  -276.2910598858706521 Eh
Relativity type    :
Basis              : AO
                                X                 Y                 Z
Electronic contribution:      0.091204195       0.572038869      -0.438930970
Nuclear contribution   :     -0.079777690      -0.556012804       0.435632070
                        -----------------------------------------
Total Dipole Moment    :      0.011426505       0.016026065      -0.003298900
                        -----------------------------------------
Magnitude (a.u.)       :      0.019957016
Magnitude (Debye)      :      0.050726704

Rotational constants in cm-1:             0.107814             0.065508             0.048333
Rotational constants in MHz :          3232.171450          1963.872353          1448.985349

                             ****ORCA TERMINATED NORMALLY****
TOTAL RUN TIME: 0 days 0 hours 0 minutes 21 seconds 861 msec
