                         Program Version 6.0.0  -   RELEASE  -
|  1> ! r2scan-3c def2/J RI DEFGRID2 scfconv6 printgap
|  2> %output
|  3>     printlevel normal
|  4> end
|  5> %cpcm
|  6>     smd true
|  7>     smdsolvent "water"
|  8> end
|  9> * xyz 0 1
| 10> C 2.0323217527 -0.1655996371 1.1983378522
| 11> C 1.4603473105 0.7636251208 0.1328695065
| 12> C 0.2628558443 0.1954527174 -0.6476410299
| 13> H -0.0602773134 0.9834709794 -1.3398949885
| 14> C 0.7040490825 -1.0097130398 -1.482681246
| 15> C -0.9419014261 -0.1532882982 0.2480672224
| 16> C -1.3771025564 1.0373080644 1.1038202389
| 17> C -2.1334342158 -0.6180518318 -0.5917380703
| 18> H 2.8959542149 0.3007874738 1.6675859538
| 19> H 1.299230679 -0.3739135597 1.9730293299
| 20> H 2.3522713335 -1.10748705 0.7615578364
| 21> H 2.2488533829 0.9930157521 -0.5887694879
| 22> H 1.1735655264 1.7075075213 0.5987242096
| 23> H 1.655330467 -0.8014749041 -1.9674250156
| 24> H 0.8217581165 -1.8914910111 -0.857577829
| 25> H -0.0221296907 -1.2346244834 -2.2584010191
| 26> H -0.6564576447 -0.9751606085 0.9129170472
| 27> H -0.6187070517 1.3051537958 1.8335142458
| 28> H -2.2887927457 0.7931317826 1.6448791924
| 29> H -1.5756104819 1.9025941728 0.4745673172
| 30> H -2.9975101409 -0.7852179157 0.0476753989
| 31> H -1.9167665273 -1.5475194358 -1.1094772975
| 32> H -2.3957483305 0.1385653079 -1.3285582974
| 33> *
| 34>
| 35>                          ****END OF INPUT****

CARTESIAN COORDINATES (ANGSTROEM)
---------------------------------
  C      2.032322   -0.165600    1.198338
  C      1.460347    0.763625    0.132870
  C      0.262856    0.195453   -0.647641
  H     -0.060277    0.983471   -1.339895
  C      0.704049   -1.009713   -1.482681
  C     -0.941901   -0.153288    0.248067
  C     -1.377103    1.037308    1.103820
  C     -2.133434   -0.618052   -0.591738
  H      2.895954    0.300787    1.667586
  H      1.299231   -0.373914    1.973029
  H      2.352271   -1.107487    0.761558
  H      2.248853    0.993016   -0.588769
  H      1.173566    1.707508    0.598724
  H      1.655330   -0.801475   -1.967425
  H      0.821758   -1.891491   -0.857578
  H     -0.022130   -1.234624   -2.258401
  H     -0.656458   -0.975161    0.912917
  H     -0.618707    1.305154    1.833514
  H     -2.288793    0.793132    1.644879
  H     -1.575610    1.902594    0.474567
  H     -2.997510   -0.785218    0.047675
  H     -1.916767   -1.547519   -1.109477
  H     -2.395748    0.138565   -1.328558

 Total Charge           Charge          ....    0
 Multiplicity           Mult            ....    1
 Number of Electrons    NEL             ....   58
 Basis Dimension        Dim             ....  213

ORBITAL ENERGIES
----------------

  NO   OCC          E(Eh)            E(eV)
   0   2.0000     -10.021007      -272.6855
   1   2.0000     -10.019530      -272.6453
   2   2.0000     -10.011750      -272.4336
   3   2.0000     -10.005630      -272.2670
   4   2.0000     -10.004006      -272.2228
   5   2.0000     -10.003967      -272.2218
   6   2.0000     -10.003418      -272.2068
   7   2.0000      -0.781019       -21.2526
   8   2.0000      -0.719751       -19.5854
   9   2.0000      -0.676391       -18.4055
  10   2.0000      -0.637936       -17.3591
  11   2.0000      -0.597441       -16.2572
  12   2.0000      -0.554507       -15.0889
  13   2.0000      -0.493943       -13.4409
  14   2.0000      -0.426986       -11.6189
  15   2.0000      -0.421432       -11.4678
  16   2.0000      -0.394218       -10.7272
  17   2.0000      -0.392684       -10.6855
  18   2.0000      -0.363917        -9.9027
  19   2.0000      -0.347472        -9.4552
  20   2.0000      -0.345707        -9.4072
  21   2.0000      -0.339696        -9.2436
  22   2.0000      -0.331808        -9.0290
  23   2.0000      -0.312010        -8.4902
  24   2.0000      -0.303311        -8.2535
  25   2.0000      -0.292505        -7.9595
  26   2.0000      -0.273425        -7.4403
  27   2.0000      -0.265690        -7.2298
  28   2.0000      -0.261959        -7.1283
  29   0.0000       0.086707         2.3594
  30   0.0000       0.119125         3.2415
  31   0.0000       0.120460         3.2779
  32   0.0000       0.121164         3.2970
  33   0.0000       0.129757         3.5309

MULLIKEN ATOMIC CHARGES
-----------------------
   0 C :   -0.538006
   1 C :   -0.277456
   2 C :   -0.036070
   3 H :    0.164926
   4 C :   -0.587377
   5 C :   -0.039187
   6 C :   -0.556669
   7 C :   -0.554103
   8 H :    0.156137
   9 H :    0.163092
  10 H :    0.163524
  11 H :    0.152184
  12 H :    0.158397
  13 H :    0.157582
  14 H :    0.172103
  15 H :    0.165601
  16 H :    0.168090
  17 H :    0.164267
  18 H :    0.154791
  19 H :    0.166905
  20 H :    0.154292
  21 H :    0.163306
  22 H :    0.163670
Sum of atomic charges:   -0.0000000

LOEWDIN ATOMIC CHARGES
----------------------
   0 C :   -0.432452
   1 C :   -0.314430
   2 C :   -0.236114
   3 H :    0.161788
   4 C :   -0.424993
   5 C :   -0.240066
   6 C :   -0.424487
   7 C :   -0.423258
   8 H :    0.152794
   9 H :    0.152825
  10 H :    0.154044
  11 H :    0.155559
  12 H :    0.155758
  13 H :    0.156364
  14 H :    0.157083
  15 H :    0.155861
  16 H :    0.159367
  17 H :    0.155364
  18 H :    0.154760
  19 H :    0.157366
  20 H :    0.154222
  21 H :    0.155654
  22 H :    0.156991

  Mayer bond orders larger than 0.100000
B(  0-C ,  1-C ) :   0.8683 B(  0-C ,  8-H ) :   0.9679 B(  0-C ,  9-H ) :   0.9769
B(  0-C , 10-H ) :   0.9796 B(  1-C ,  2-C ) :   0.8809 B(  1-C , 11-H ) :   0.9795
B(  1-C , 12-H ) :   0.9812 B(  2-C ,  3-H ) :   0.9868 B(  2-C ,  4-C ) :   0.8687
B(  2-C ,  5-C ) :   0.8747 B(  4-C , 13-H ) :   0.9739 B(  4-C , 14-H ) :   0.9831
B(  4-C , 15-H ) :   0.9713 B(  5-C ,  6-C ) :   0.8751 B(  5-C ,  7-C ) :   0.8813
B(  5-C , 16-H ) :   0.9636 B(  6-C , 17-H ) :   0.9701 B(  6-C , 18-H ) :   0.9727
B(  6-C , 19-H ) :   0.9882 B(  7-C , 20-H ) :   0.9739 B(  7-C , 21-H ) :   0.9717
B(  7-C , 22-H ) :   0.9881

Dispersion correction           -0.006649647
FINAL SINGLE POINT ENERGY      -276.282664224956

DIPOLE MOMENT
-------------

Method             : SCF
Type of density    : Electron Density
Multiplicity       :   1
Irrep              :   0
Energy             :  -276.2872668297421797 Eh
Relativity type    :
Basis              : AO
                                X                 Y                 Z
Electronic contribution:      0.094584986       0.571908887      -0.432785806
Nuclear contribution   :     -0.079777690      -0.556012804       0.435632070
                        -----------------------------------------
Total Dipole Moment    :      0.014807296       0.015896083       0.002846263
                        -----------------------------------------
Magnitude (a.u.)       :      0.021909877
Magnitude (Debye)      :      0.055690480

Rotational constants in cm-1:             0.107814             0.065508             0.048333
Rotational constants in MHz :          3232.171450          1963.872353          1448.985349

                             ****ORCA TERMINATED NORMALLY****
TOTAL RUN TIME: 0 days 0 hours 0 minutes 28 seconds 242 msec
