                         Program Version 6.0.0  -   RELEASE  -
|  1> ! pbe def2-sv(p) def2/J RI DEFGRID1 loosescf d4 GCP(DFT/SV(P)) printgap
|  2> %output
|  3>     printlevel normal
|  4> end
|  5> * xyz 0 1
|  6> C 2.2524862581 0.5341185216 0.295802406
|  7> C 1.3391835298 -0.6865430396 0.2147663506
|  8> C 0.2783512416 -0.5485764236 -0.8848427065
|  9> C -1.0508263851 0.0853173893 -0.4283634372
| 10> H -1.6263917783 0.3448979522 -1.3256928205
| 11> C -1.8789353126 -0.8783261867 0.4224127039
| 12> O -0.8694739465 1.3247905216 0.2343485578
| 13> H 2.855322916 0.6111701974 -0.6066728499
| 14> H 2.9233900941 0.4540150366 1.1482598769
| 15> H 1.6735281114 1.4489429727 0.3903427944
| 16> H 1.9515894219 -1.5662341175 0.0073657812
| 17> H 0.8604335883 -0.8527187564 1.181579165
| 18> H 0.6921765852 0.0573484758 -1.692776282
| 19> H 0.0371190607 -1.5295140078 -1.2960617837
| 20> H -1.3237430581 -1.1953550948 1.3022875418
| 21> H -2.7935850979 -0.3872869234 0.7460305332
| 22> H -2.1406134687 -1.7571320766 -0.159035021
| 23> H -0.5121367565 1.1460478109 1.1154082402
| 24> *
| 25>
| 26>                          ****END OF INPUT****

CARTESIAN COORDINATES (ANGSTROEM)
---------------------------------
  C      2.252486    0.534119    0.295802
  C      1.339184   -0.686543    0.214766
  C      0.278351   -0.548576   -0.884843
  C     -1.050826    0.085317   -0.428363
  H     -1.626392    0.344898   -1.325693
  C     -1.878935   -0.878326    0.422413
  O     -0.869474    1.324791    0.234349
  H      2.855323    0.611170   -0.606673
  H      2.923390    0.454015    1.148260
  H      1.673528    1.448943    0.390343
  H      1.951589   -1.566234    0.007366
  H      0.860434   -0.852719    1.181579
  H      0.692177    0.057348   -1.692776
  H      0.037119   -1.529514   -1.296062
  H     -1.323743   -1.195355    1.302288
  H     -2.793585   -0.387287    0.746031
  H     -2.140613   -1.757132   -0.159035
  H     -0.512137    1.146048    1.115408

 Total Charge           Charge          ....    0
 Multiplicity           Mult            ....    1
 Number of Electrons    NEL             ....   50
 Basis Dimension        Dim             ....  108

ORBITAL ENERGIES
----------------

  NO   OCC          E(Eh)            E(eV)
   0   2.0000     -18.740318      -509.9500
   1   2.0000      -9.935686      -270.3637
   2   2.0000      -9.887668      -269.0571
   3   2.0000      -9.879904      -268.8459
   4   2.0000      -9.876504      -268.7533
   5   2.0000      -9.871263      -268.6107
   6   2.0000      -0.918277       -24.9876
   7   2.0000      -0.715527       -19.4705
   8   2.0000      -0.670199       -18.2371
   9   2.0000      -0.608603       -16.5609
  10   2.0000      -0.555101       -15.1051
  11   2.0000      -0.509451       -13.8629
  12   2.0000      -0.439794       -11.9674
  13   2.0000      -0.422776       -11.5043
  14   2.0000      -0.392589       -10.6829
  15   2.0000      -0.384071       -10.4511
  16   2.0000      -0.365810        -9.9542
  17   2.0000      -0.358526        -9.7560
  18   2.0000      -0.330391        -8.9904
  19   2.0000      -0.320649        -8.7253
  20   2.0000      -0.300771        -8.1844
  21   2.0000      -0.292169        -7.9503
  22   2.0000      -0.288848        -7.8599
  23   2.0000      -0.263272        -7.1640
  24   2.0000      -0.211115        -5.7447
  25   0.0000       0.021229         0.5777
  26   0.0000       0.052482         1.4281
  27   0.0000       0.065956         1.7947
  28   0.0000       0.075255         2.0478
  29   0.0000       0.084618         2.3026

MULLIKEN ATOMIC CHARGES
-----------------------
   0 C :   -0.289067
   1 C :   -0.218811
   2 C :   -0.112809
   3 C :    0.009824
   4 H :    0.071610
   5 C :   -0.277551
   6 O :   -0.424046
   7 H :    0.101890
   8 H :    0.099540
   9 H :    0.099691
  10 H :    0.089022
  11 H :    0.081269
  12 H :    0.086025
  13 H :    0.075636
  14 H :    0.095742
  15 H :    0.112091
  16 H :    0.100793
  17 H :    0.299151
Sum of atomic charges:    0.0000000

LOEWDIN ATOMIC CHARGES
----------------------
   0 C :   -0.347866
   1 C :   -0.241015
   2 C :   -0.238460
   3 C :   -0.058284
   4 H :    0.112144
   5 C :   -0.355292
   6 O :   -0.324119
   7 H :    0.118621
   8 H :    0.116297
   9 H :    0.114403
  10 H :    0.119474
  11 H :    0.105683
  12 H :    0.119217
  13 H :    0.118008
  14 H :    0.114196
  15 H :    0.123318
  16 H :    0.124263
  17 H :    0.279414

  Mayer bond orders larger than 0.100000
B(  0-C ,  1-C ) :   1.1548 B(  0-C ,  7-H ) :   0.9521 B(  0-C ,  8-H ) :   0.9514
B(  0-C ,  9-H ) :   0.9422 B(  1-C ,  2-C ) :   1.0805 B(  1-C , 10-H ) :   0.9279
B(  1-C , 11-H ) :   0.9272 B(  2-C ,  3-C ) :   1.0520 B(  2-C , 12-H ) :   0.9186
B(  2-C , 13-H ) :   0.9150 B(  3-C ,  4-H ) :   0.9070 B(  3-C ,  5-C ) :   1.1230
B(  3-C ,  6-O ) :   1.0571 B(  5-C , 14-H ) :   0.9372 B(  5-C , 15-H ) :   0.9446
B(  5-C , 16-H ) :   0.9399 B(  6-O , 17-H ) :   0.8414

Dispersion correction           -0.013046173
FINAL SINGLE POINT ENERGY      -272.302093769744

DIPOLE MOMENT
-------------

Method             : SCF
Type of density    : Electron Density
Multiplicity       :   1
Irrep              :   0
Energy             :  -272.3723672159509306 Eh
Relativity type    :
Basis              : AO
                                X                 Y                 Z
Electronic contribution:     -2.312847379       2.471102577      -0.528386823
Nuclear contribution   :      2.423591633      -3.006685127       0.764361541
                        -----------------------------------------
Total Dipole Moment    :      0.110744253      -0.535582550       0.235974719
                        -----------------------------------------
Magnitude (a.u.)       :      0.595648407
Magnitude (Debye)      :      1.514017931

Rotational constants in cm-1:             0.180654             0.075998             0.065106
Rotational constants in MHz :          5415.869386          2278.352702          1951.814758

                             ****ORCA TERMINATED NORMALLY****
TOTAL RUN TIME: 0 days 0 hours 0 minutes 7 seconds 495 msec
