                         Program Version 6.0.0  -   RELEASE  -
|  1> ! r2scan-3c def2/J RI DEFGRID2 scfconv6 printgap
|  2> %output
|  3>     printlevel normal
|  4> end
|  5> * xyz 0 1
|  6> C 1.619682321 -0.1414012925 1.7789176083
|  7> C 2.0610916235 -0.3023026133 0.3560131861
|  8> C 3.016594702 -1.1606797835 0.0296395198
|  9> C 1.4065373785 0.5365085993 -0.7256013094
| 10> H 2.2072076714 0.9032391945 -1.3766652003
| 11> C 0.4690212943 -0.3292599958 -1.5832578773
| 12> C -0.6897586816 -0.8633216903 -0.7496953548
| 13> C -1.3697285192 0.2472137053 -0.0029703702
| 14> C -0.7552697429 1.4164678969 0.2416205118
| 15> C 0.62110307 1.7449541287 -0.2070638089
| 16> C -2.7252144382 0.0297080898 0.459722208
| 17> O -3.3851836752 -0.9786991346 0.2778818167
| 18> H 1.9912964174 0.7986255079 2.18542411
| 19> H 0.5357743471 -0.1358677985 1.8615660022
| 20> H 2.0160187179 -0.9493890806 2.388500633
| 21> H 3.3626482131 -1.2720590591 -0.9844242201
| 22> H 3.4926197785 -1.7901895646 0.7619542229
| 23> H 0.0749316718 0.2789988258 -2.3995699403
| 24> H 1.0236467265 -1.1623029045 -2.0147041891
| 25> H -1.4268586479 -1.3665433944 -1.3794834815
| 26> H -0.3251298474 -1.6053452081 -0.0332539385
| 27> H -1.2856681366 2.1960191009 0.7728438942
| 28> H 0.5278855479 2.4806558282 -1.0131841707
| 29> H 1.1609384939 2.2458256832 0.597835678
| 30> H -3.1638187868 0.8774871909 1.0206944173
| 31> *
| 32>
| 33>                          ****END OF INPUT****

CARTESIAN COORDINATES (ANGSTROEM)
---------------------------------
  C      1.619682   -0.141401    1.778918
  C      2.061092   -0.302303    0.356013
  C      3.016595   -1.160680    0.029640
  C      1.406537    0.536509   -0.725601
  H      2.207208    0.903239   -1.376665
  C      0.469021   -0.329260   -1.583258
  C     -0.689759   -0.863322   -0.749695
  C     -1.369729    0.247214   -0.002970
  C     -0.755270    1.416468    0.241621
  C      0.621103    1.744954   -0.207064
  C     -2.725214    0.029708    0.459722
  O     -3.385184   -0.978699    0.277882
  H      1.991296    0.798626    2.185424
  H      0.535774   -0.135868    1.861566
  H      2.016019   -0.949389    2.388501
  H      3.362648   -1.272059   -0.984424
  H      3.492620   -1.790190    0.761954
  H      0.074932    0.278999   -2.399570
  H      1.023647   -1.162303   -2.014704
  H     -1.426859   -1.366543   -1.379483
  H     -0.325130   -1.605345   -0.033254
  H     -1.285668    2.196019    0.772844
  H      0.527886    2.480656   -1.013184
  H      1.160938    2.245826    0.597836
  H     -3.163819    0.877487    1.020694

 Total Charge           Charge          ....    0
 Multiplicity           Mult            ....    1
 Number of Electrons    NEL             ....   82
 Basis Dimension        Dim             ....  284

ORBITAL ENERGIES
----------------

  NO   OCC          E(Eh)            E(eV)
   0   2.0000     -18.939307      -515.3647
   1   2.0000     -10.109251      -275.0867
   2   2.0000     -10.064009      -273.8556
   3   2.0000     -10.052853      -273.5520
   4   2.0000     -10.050682      -273.4930
   5   2.0000     -10.049394      -273.4579
   6   2.0000     -10.046941      -273.3912
   7   2.0000     -10.036820      -273.1158
   8   2.0000     -10.035646      -273.0838
   9   2.0000     -10.029762      -272.9237
  10   2.0000     -10.016521      -272.5634
  11   2.0000      -0.999362       -27.1940
  12   2.0000      -0.835549       -22.7365
  13   2.0000      -0.779934       -21.2231
  14   2.0000      -0.730671       -19.8826
  15   2.0000      -0.727029       -19.7835
  16   2.0000      -0.662077       -18.0160
  17   2.0000      -0.625320       -17.0158
  18   2.0000      -0.596913       -16.2428
  19   2.0000      -0.561536       -15.2802
  20   2.0000      -0.516049       -14.0424
  21   2.0000      -0.476519       -12.9667
  22   2.0000      -0.472091       -12.8462
  23   2.0000      -0.446626       -12.1533
  24   2.0000      -0.431381       -11.7385
  25   2.0000      -0.419174       -11.4063
  26   2.0000      -0.416191       -11.3251
  27   2.0000      -0.393719       -10.7136
  28   2.0000      -0.382363       -10.4046
  29   2.0000      -0.379218       -10.3190
  30   2.0000      -0.373809       -10.1719
  31   2.0000      -0.369797       -10.0627
  32   2.0000      -0.359131        -9.7725
  33   2.0000      -0.344503        -9.3744
  34   2.0000      -0.334614        -9.1053
  35   2.0000      -0.309952        -8.4342
  36   2.0000      -0.298589        -8.1250
  37   2.0000      -0.294057        -8.0017
  38   2.0000      -0.247175        -6.7260
  39   2.0000      -0.227032        -6.1778
  40   2.0000      -0.218072        -5.9340
  41   0.0000      -0.088212        -2.4004
  42   0.0000      -0.019513        -0.5310
  43   0.0000       0.024081         0.6553
  44   0.0000       0.062850         1.7102
  45   0.0000       0.089233         2.4282

MULLIKEN ATOMIC CHARGES
-----------------------
   0 C :   -0.524921
   1 C :    0.019385
   2 C :   -0.369823
   3 C :    0.008579
   4 H :    0.178939
   5 C :   -0.338848
   6 C :   -0.316499
   7 C :    0.128360
   8 C :   -0.169228
   9 C :   -0.381645
  10 C :    0.004632
  11 O :   -0.347972
  12 H :    0.164699
  13 H :    0.175286
  14 H :    0.153622
  15 H :    0.139414
  16 H :    0.141929
  17 H :    0.163436
  18 H :    0.175602
  19 H :    0.184087
  20 H :    0.195021
  21 H :    0.164498
  22 H :    0.180351
  23 H :    0.170408
  24 H :    0.100686
Sum of atomic charges:    0.0000000

LOEWDIN ATOMIC CHARGES
----------------------
   0 C :   -0.389264
   1 C :   -0.121731
   2 C :   -0.317914
   3 C :   -0.202894
   4 H :    0.174586
   5 C :   -0.266372
   6 C :   -0.262590
   7 C :   -0.123300
   8 C :   -0.129025
   9 C :   -0.277584
  10 C :    0.200063
  11 O :   -0.468173
  12 H :    0.162470
  13 H :    0.171388
  14 H :    0.163290
  15 H :    0.158616
  16 H :    0.158270
  17 H :    0.161566
  18 H :    0.165007
  19 H :    0.181845
  20 H :    0.180012
  21 H :    0.171615
  22 H :    0.180879
  23 H :    0.173822
  24 H :    0.155419

  Mayer bond orders larger than 0.100000
B(  0-C ,  1-C ) :   0.8746 B(  0-C , 12-H ) :   0.9682 B(  0-C , 13-H ) :   0.9721
B(  0-C , 14-H ) :   0.9793 B(  1-C ,  2-C ) :   1.8736 B(  1-C ,  3-C ) :   0.8634
B(  2-C , 15-H ) :   0.9788 B(  2-C , 16-H ) :   0.9767 B(  3-C ,  4-H ) :   0.9750
B(  3-C ,  5-C ) :   0.8498 B(  3-C ,  9-C ) :   0.9274 B(  5-C ,  6-C ) :   0.8552
B(  5-C , 17-H ) :   1.0079 B(  5-C , 18-H ) :   0.9846 B(  6-C ,  7-C ) :   0.8553
B(  6-C , 19-H ) :   0.9665 B(  6-C , 20-H ) :   0.9798 B(  7-C ,  8-C ) :   1.7228
B(  7-C , 10-C ) :   0.9209 B(  7-C , 11-O ) :  -0.1049 B(  7-C , 24-H ) :  -0.1383
B(  8-C ,  9-C ) :   0.9045 B(  8-C , 11-O ) :   0.1071 B(  8-C , 21-H ) :   0.9148
B(  9-C , 22-H ) :   0.9359 B(  9-C , 23-H ) :   0.9970 B( 10-C , 11-O ) :   1.9185
B( 10-C , 24-H ) :   1.0476

Dispersion correction           -0.009482789
FINAL SINGLE POINT ENERGY      -464.552870512995

DIPOLE MOMENT
-------------

Method             : SCF
Type of density    : Electron Density
Multiplicity       :   1
Irrep              :   0
Energy             :  -464.5529540007559035 Eh
Relativity type    :
Basis              : AO
                                X                 Y                 Z
Electronic contribution:     -8.412461464      -0.346281661      -0.417693555
Nuclear contribution   :      9.511145374       1.391949566       0.367691102
                        -----------------------------------------
Total Dipole Moment    :      1.098683910       1.045667905      -0.050002453
                        -----------------------------------------
Magnitude (a.u.)       :      1.517573045
Magnitude (Debye)      :      3.857364131

Rotational constants in cm-1:             0.065298             0.023956             0.023325
Rotational constants in MHz :          1957.582365           718.181055           699.268127

                             ****ORCA TERMINATED NORMALLY****
TOTAL RUN TIME: 0 days 0 hours 0 minutes 55 seconds 777 msec
