                         Program Version 6.0.0  -   RELEASE  -
|  1> ! r2scan-3c def2/J RI DEFGRID2 scfconv6 printgap
|  2> %output
|  3>     printlevel normal
|  4> end
|  5> %cpcm
|  6>     smd true
|  7>     smdsolvent "water"
|  8> end
|  9> * xyz 0 1
| 10> C 1.619682321 -0.1414012925 1.7789176083
| 11> C 2.0610916235 -0.3023026133 0.3560131861
| 12> C 3.016594702 -1.1606797835 0.0296395198
| 13> C 1.4065373785 0.5365085993 -0.7256013094
| 14> H 2.2072076714 0.9032391945 -1.3766652003
| 15> C 0.4690212943 -0.3292599958 -1.5832578773
| 16> C -0.6897586816 -0.8633216903 -0.7496953548
| 17> C -1.3697285192 0.2472137053 -0.0029703702
| 18> C -0.7552697429 1.4164678969 0.2416205118
| 19> C 0.62110307 1.7449541287 -0.2070638089
| 20> C -2.7252144382 0.0297080898 0.459722208
| 21> O -3.3851836752 -0.9786991346 0.2778818167
| 22> H 1.9912964174 0.7986255079 2.18542411
| 23> H 0.5357743471 -0.1358677985 1.8615660022
| 24> H 2.0160187179 -0.9493890806 2.388500633
| 25> H 3.3626482131 -1.2720590591 -0.9844242201
| 26> H 3.4926197785 -1.7901895646 0.7619542229
| 27> H 0.0749316718 0.2789988258 -2.3995699403
| 28> H 1.0236467265 -1.1623029045 -2.0147041891
| 29> H -1.4268586479 -1.3665433944 -1.3794834815
| 30> H -0.3251298474 -1.6053452081 -0.0332539385
| 31> H -1.2856681366 2.1960191009 0.7728438942
| 32> H 0.5278855479 2.4806558282 -1.0131841707
| 33> H 1.1609384939 2.2458256832 0.597835678
| 34> H -3.1638187868 0.8774871909 1.0206944173
| 35> *
| 36>
| 37>                          ****END OF INPUT****

CARTESIAN COORDINATES (ANGSTROEM)
---------------------------------
  C      1.619682   -0.141401    1.778918
  C      2.061092   -0.302303    0.356013
  C      3.016595   -1.160680    0.029640
  C      1.406537    0.536509   -0.725601
  H      2.207208    0.903239   -1.376665
  C      0.469021   -0.329260   -1.583258
  C     -0.689759   -0.863322   -0.749695
  C     -1.369729    0.247214   -0.002970
  C     -0.755270    1.416468    0.241621
  C      0.621103    1.744954   -0.207064
  C     -2.725214    0.029708    0.459722
  O     -3.385184   -0.978699    0.277882
  H      1.991296    0.798626    2.185424
  H      0.535774   -0.135868    1.861566
  H      2.016019   -0.949389    2.388501
  H      3.362648   -1.272059   -0.984424
  H      3.492620   -1.790190    0.761954
  H      0.074932    0.278999   -2.399570
  H      1.023647   -1.162303   -2.014704
  H     -1.426859   -1.366543   -1.379483
  H     -0.325130   -1.605345   -0.033254
  H     -1.285668    2.196019    0.772844
  H      0.527886    2.480656   -1.013184
  H      1.160938    2.245826    0.597836
  H     -3.163819    0.877487    1.020694

 Total Charge           Charge          ....    0
 Multiplicity           Mult            ....    1
 Number of Electrons    NEL             ....   82
 Basis Dimension        Dim             ....  284

ORBITAL ENERGIES
----------------

  NO   OCC          E(Eh)            E(eV)
   0   2.0000     -18.949473      -515.6414
   1   2.0000     -10.113820      -275.2110
   2   2.0000     -10.055239      -273.6170
   3   2.0000     -10.040610      -273.2189
   4   2.0000     -10.038098      -273.1505
   5   2.0000     -10.035240      -273.0728
   6   2.0000     -10.033688      -273.0305
   7   2.0000     -10.027064      -272.8503
   8   2.0000     -10.023556      -272.7548
   9   2.0000     -10.015124      -272.5254
  10   2.0000     -10.005444      -272.2620
  11   2.0000      -1.012162       -27.5423
  12   2.0000      -0.823531       -22.4094
  13   2.0000      -0.770288       -20.9606
  14   2.0000      -0.717815       -19.5327
  15   2.0000      -0.715587       -19.4721
  16   2.0000      -0.650169       -17.6920
  17   2.0000      -0.616478       -16.7752
  18   2.0000      -0.585445       -15.9308
  19   2.0000      -0.552975       -15.0472
  20   2.0000      -0.504995       -13.7416
  21   2.0000      -0.468298       -12.7430
  22   2.0000      -0.462979       -12.5983
  23   2.0000      -0.436165       -11.8686
  24   2.0000      -0.424524       -11.5519
  25   2.0000      -0.415198       -11.2981
  26   2.0000      -0.403956       -10.9922
  27   2.0000      -0.390238       -10.6189
  28   2.0000      -0.376184       -10.2365
  29   2.0000      -0.370410       -10.0794
  30   2.0000      -0.363357        -9.8875
  31   2.0000      -0.357934        -9.7399
  32   2.0000      -0.351776        -9.5723
  33   2.0000      -0.337122        -9.1736
  34   2.0000      -0.323447        -8.8015
  35   2.0000      -0.299307        -8.1446
  36   2.0000      -0.285096        -7.7579
  37   2.0000      -0.280612        -7.6358
  38   2.0000      -0.240237        -6.5372
  39   2.0000      -0.229444        -6.2435
  40   2.0000      -0.219327        -5.9682
  41   0.0000      -0.086619        -2.3570
  42   0.0000      -0.011491        -0.3127
  43   0.0000       0.029919         0.8141
  44   0.0000       0.077182         2.1002
  45   0.0000       0.105226         2.8634

MULLIKEN ATOMIC CHARGES
-----------------------
   0 C :   -0.546696
   1 C :   -0.002271
   2 C :   -0.453377
   3 C :    0.033261
   4 H :    0.193942
   5 C :   -0.380332
   6 C :   -0.332036
   7 C :    0.089137
   8 C :   -0.144435
   9 C :   -0.390173
  10 C :    0.043069
  11 O :   -0.459089
  12 H :    0.187573
  13 H :    0.181594
  14 H :    0.167142
  15 H :    0.163492
  16 H :    0.164908
  17 H :    0.179159
  18 H :    0.186753
  19 H :    0.180175
  20 H :    0.203321
  21 H :    0.197001
  22 H :    0.207270
  23 H :    0.196707
  24 H :    0.133904
Sum of atomic charges:   -0.0000000

LOEWDIN ATOMIC CHARGES
----------------------
   0 C :   -0.395368
   1 C :   -0.118925
   2 C :   -0.349256
   3 C :   -0.200980
   4 H :    0.180634
   5 C :   -0.266681
   6 C :   -0.269683
   7 C :   -0.136046
   8 C :   -0.092455
   9 C :   -0.273699
  10 C :    0.211522
  11 O :   -0.556428
  12 H :    0.171484
  13 H :    0.174079
  14 H :    0.166004
  15 H :    0.164404
  16 H :    0.162701
  17 H :    0.167276
  18 H :    0.166799
  19 H :    0.177942
  20 H :    0.180145
  21 H :    0.185329
  22 H :    0.193603
  23 H :    0.185119
  24 H :    0.172480

  Mayer bond orders larger than 0.100000
B(  0-C ,  1-C ) :   0.8724 B(  0-C , 12-H ) :   0.9589 B(  0-C , 13-H ) :   0.9677
B(  0-C , 14-H ) :   0.9774 B(  1-C ,  2-C ) :   1.8545 B(  1-C ,  3-C ) :   0.8502
B(  2-C , 15-H ) :   0.9774 B(  2-C , 16-H ) :   0.9778 B(  3-C ,  4-H ) :   0.9743
B(  3-C ,  5-C ) :   0.8366 B(  3-C ,  9-C ) :   0.9119 B(  5-C ,  6-C ) :   0.8609
B(  5-C , 17-H ) :   1.0056 B(  5-C , 18-H ) :   0.9861 B(  6-C ,  7-C ) :   0.8105
B(  6-C , 19-H ) :   0.9683 B(  6-C , 20-H ) :   0.9779 B(  7-C ,  8-C ) :   1.7203
B(  7-C , 10-C ) :   0.9909 B(  7-C , 24-H ) :  -0.1047 B(  8-C ,  9-C ) :   0.9073
B(  8-C , 21-H ) :   0.9077 B(  9-C , 22-H ) :   0.9270 B(  9-C , 23-H ) :   0.9878
B( 10-C , 11-O ) :   1.8333 B( 10-C , 24-H ) :   1.0164

Dispersion correction           -0.009482789
FINAL SINGLE POINT ENERGY      -464.559959739558

DIPOLE MOMENT
-------------

Method             : SCF
Type of density    : Electron Density
Multiplicity       :   1
Irrep              :   0
Energy             :  -464.5600432273195111 Eh
Relativity type    :
Basis              : AO
                                X                 Y                 Z
Electronic contribution:     -7.971917615       0.404118546      -0.372408950
Nuclear contribution   :      9.511145374       1.391949566       0.367691102
                        -----------------------------------------
Total Dipole Moment    :      1.539227758       1.796068112      -0.004717848
                        -----------------------------------------
Magnitude (a.u.)       :      2.365397433
Magnitude (Debye)      :      6.012362463

Rotational constants in cm-1:             0.065298             0.023956             0.023325
Rotational constants in MHz :          1957.582365           718.181055           699.268127

                             ****ORCA TERMINATED NORMALLY****
TOTAL RUN TIME: 0 days 0 hours 1 minutes 9 seconds 565 msec
