                         Program Version 6.0.0  -   RELEASE  -
|  1> ! pbe def2-sv(p) def2/J RI DEFGRID1 loosescf d4 GCP(DFT/SV(P)) printgap
|  2> %output
|  3>     printlevel normal
|  4> end
|  5> * xyz 0 1
|  6> C -2.2982637839 0.3602618266 -1.0417094745
|  7> C -1.8175600735 0.4119479918 0.411850077
|  8> C -0.4489907636 -0.2121981772 0.4959991923
|  9> O -0.2373529149 -1.3961792407 0.6589480345
| 10> O 0.5074871679 0.6941313542 0.3439986305
| 11> C 1.8758658252 0.2552261651 0.3189740283
| 12> C 2.3141731023 -0.0757107984 -1.0994865943
| 13> H -3.2945478172 0.7856446072 -1.1136054264
| 14> H -1.6268908201 0.9267266519 -1.6819645725
| 15> H -2.3296765288 -0.6693750317 -1.3903435061
| 16> H -2.4968712457 -0.1549056795 1.0473958435
| 17> H -1.7563725171 1.4454211162 0.748785278
| 18> H 2.443915047 1.0929734972 0.7247495104
| 19> H 1.9728408411 -0.620339049 0.9681092134
| 20> H 3.3648763537 -0.3464879117 -1.0975599571
| 21> H 1.7344976377 -0.9125028923 -1.4829304872
| 22> H 2.1662674331 0.7843121637 -1.7469572741
| 23> *
| 24>
| 25>                          ****END OF INPUT****

CARTESIAN COORDINATES (ANGSTROEM)
---------------------------------
  C     -2.298264    0.360262   -1.041709
  C     -1.817560    0.411948    0.411850
  C     -0.448991   -0.212198    0.495999
  O     -0.237353   -1.396179    0.658948
  O      0.507487    0.694131    0.343999
  C      1.875866    0.255226    0.318974
  C      2.314173   -0.075711   -1.099487
  H     -3.294548    0.785645   -1.113605
  H     -1.626891    0.926727   -1.681965
  H     -2.329677   -0.669375   -1.390344
  H     -2.496871   -0.154906    1.047396
  H     -1.756373    1.445421    0.748785
  H      2.443915    1.092973    0.724750
  H      1.972841   -0.620339    0.968109
  H      3.364876   -0.346488   -1.097560
  H      1.734498   -0.912503   -1.482930
  H      2.166267    0.784312   -1.746957

 Total Charge           Charge          ....    0
 Multiplicity           Mult            ....    1
 Number of Electrons    NEL             ....   56
 Basis Dimension        Dim             ....  118

ORBITAL ENERGIES
----------------

  NO   OCC          E(Eh)            E(eV)
   0   2.0000     -18.796874      -511.4889
   1   2.0000     -18.729602      -509.6584
   2   2.0000     -10.003654      -272.2133
   3   2.0000      -9.945779      -270.6384
   4   2.0000      -9.898100      -269.3410
   5   2.0000      -9.888255      -269.0731
   6   2.0000      -9.887558      -269.0541
   7   2.0000      -1.003352       -27.3026
   8   2.0000      -0.907070       -24.6826
   9   2.0000      -0.721200       -19.6248
  10   2.0000      -0.687279       -18.7018
  11   2.0000      -0.606215       -16.4960
  12   2.0000      -0.563996       -15.3471
  13   2.0000      -0.495176       -13.4744
  14   2.0000      -0.451068       -12.2742
  15   2.0000      -0.433334       -11.7916
  16   2.0000      -0.416766       -11.3408
  17   2.0000      -0.391459       -10.6521
  18   2.0000      -0.386073       -10.5056
  19   2.0000      -0.366437        -9.9713
  20   2.0000      -0.356162        -9.6917
  21   2.0000      -0.340988        -9.2788
  22   2.0000      -0.323072        -8.7912
  23   2.0000      -0.314934        -8.5698
  24   2.0000      -0.312788        -8.5114
  25   2.0000      -0.289287        -7.8719
  26   2.0000      -0.254232        -6.9180
  27   2.0000      -0.214991        -5.8502
  28   0.0000      -0.018580        -0.5056
  29   0.0000       0.040129         1.0920
  30   0.0000       0.062289         1.6950
  31   0.0000       0.077368         2.1053
  32   0.0000       0.087527         2.3817

MULLIKEN ATOMIC CHARGES
-----------------------
   0 C :   -0.304135
   1 C :   -0.131206
   2 C :    0.098953
   3 O :   -0.214839
   4 O :   -0.241717
   5 C :   -0.016052
   6 C :   -0.302160
   7 H :    0.116708
   8 H :    0.110610
   9 H :    0.118345
  10 H :    0.106070
  11 H :    0.099527
  12 H :    0.101286
  13 H :    0.109505
  14 H :    0.112413
  15 H :    0.123998
  16 H :    0.112694
Sum of atomic charges:    0.0000000

LOEWDIN ATOMIC CHARGES
----------------------
   0 C :   -0.330311
   1 C :   -0.249392
   2 C :    0.037037
   3 O :   -0.175187
   4 O :   -0.069124
   5 C :   -0.113881
   6 C :   -0.355618
   7 H :    0.124006
   8 H :    0.121550
   9 H :    0.125708
  10 H :    0.135339
  11 H :    0.129908
  12 H :    0.116672
  13 H :    0.119788
  14 H :    0.130223
  15 H :    0.129621
  16 H :    0.123662

  Mayer bond orders larger than 0.100000
B(  0-C ,  1-C ) :   1.1417 B(  0-C ,  7-H ) :   0.9527 B(  0-C ,  8-H ) :   0.9537
B(  0-C ,  9-H ) :   0.9529 B(  1-C ,  2-C ) :   1.0249 B(  1-C , 10-H ) :   0.9094
B(  1-C , 11-H ) :   0.9079 B(  2-C ,  3-O ) :   2.0426 B(  2-C ,  4-O ) :   1.2055
B(  4-O ,  5-C ) :   0.9215 B(  5-C ,  6-C ) :   1.1735 B(  5-C , 12-H ) :   0.9370
B(  5-C , 13-H ) :   0.9111 B(  6-C , 14-H ) :   0.9447 B(  6-C , 15-H ) :   0.9470
B(  6-C , 16-H ) :   0.9494

Dispersion correction           -0.012089841
FINAL SINGLE POINT ENERGY      -346.244375405295

DIPOLE MOMENT
-------------

Method             : SCF
Type of density    : Electron Density
Multiplicity       :   1
Irrep              :   0
Energy             :  -346.3088283923717086 Eh
Relativity type    :
Basis              : AO
                                X                 Y                 Z
Electronic contribution:      0.027211597      -1.514274110       4.443229716
Nuclear contribution   :      0.171034825       2.176897641      -4.698783682
                        -----------------------------------------
Total Dipole Moment    :      0.198246422       0.662623532      -0.255553967
                        -----------------------------------------
Magnitude (a.u.)       :      0.737346200
Magnitude (Debye)      :      1.874185096

Rotational constants in cm-1:             0.154650             0.053299             0.049137
Rotational constants in MHz :          4636.297914          1597.860318          1473.079059

                             ****ORCA TERMINATED NORMALLY****
TOTAL RUN TIME: 0 days 0 hours 0 minutes 8 seconds 882 msec
