                         Program Version 6.0.0  -   RELEASE  -
|  1> ! r2scan-3c def2/J RI DEFGRID2 scfconv6 printgap
|  2> %output
|  3>     printlevel normal
|  4> end
|  5> * xyz 0 1
|  6> C -1.7149967012 -0.5878388484 0.5379942061
|  7> C -1.07958094 0.0641568983 -0.6850111377
|  8> C 0.0285453611 1.0403887488 -0.2939789468
|  9> C 1.2746145911 0.3799707002 0.1904745242
| 10> O 1.5019310677 -0.8055388779 0.1982387696
| 11> H -2.4983313674 -1.2777638555 0.2355365053
| 12> H -0.9681995422 -1.1446361634 1.0994858252
| 13> H -2.1517081514 0.1644486176 1.1912171154
| 14> H -1.8441019125 0.5973092226 -1.2514974729
| 15> H -0.6562100193 -0.7108328308 -1.3267061111
| 16> H 0.3213180952 1.656007197 -1.1492512715
| 17> H -0.3127600935 1.7270940652 0.4841500545
| 18> H 2.0412043876 1.0900707572 0.5555910585
| 19> *
| 20>
| 21>                          ****END OF INPUT****

CARTESIAN COORDINATES (ANGSTROEM)
---------------------------------
  C     -1.714997   -0.587839    0.537994
  C     -1.079581    0.064157   -0.685011
  C      0.028545    1.040389   -0.293979
  C      1.274615    0.379971    0.190475
  O      1.501931   -0.805539    0.198239
  H     -2.498331   -1.277764    0.235537
  H     -0.968200   -1.144636    1.099486
  H     -2.151708    0.164449    1.191217
  H     -1.844102    0.597309   -1.251497
  H     -0.656210   -0.710833   -1.326706
  H      0.321318    1.656007   -1.149251
  H     -0.312760    1.727094    0.484150
  H      2.041204    1.090071    0.555591

 Total Charge           Charge          ....    0
 Multiplicity           Mult            ....    1
 Number of Electrons    NEL             ....   40
 Basis Dimension        Dim             ....  140

ORBITAL ENERGIES
----------------

  NO   OCC          E(Eh)            E(eV)
   0   2.0000     -18.952640      -515.7276
   1   2.0000     -10.121077      -275.4085
   2   2.0000     -10.046368      -273.3756
   3   2.0000     -10.033786      -273.0332
   4   2.0000     -10.017218      -272.5824
   5   2.0000      -1.015951       -27.6454
   6   2.0000      -0.771554       -20.9950
   7   2.0000      -0.687709       -18.7135
   8   2.0000      -0.589857       -16.0508
   9   2.0000      -0.520227       -14.1561
  10   2.0000      -0.464502       -12.6397
  11   2.0000      -0.439754       -11.9663
  12   2.0000      -0.412106       -11.2140
  13   2.0000      -0.386380       -10.5139
  14   2.0000      -0.376940       -10.2571
  15   2.0000      -0.350619        -9.5408
  16   2.0000      -0.317343        -8.6354
  17   2.0000      -0.315933        -8.5970
  18   2.0000      -0.309852        -8.4315
  19   2.0000      -0.223795        -6.0898
  20   0.0000      -0.057488        -1.5643
  21   0.0000       0.078022         2.1231
  22   0.0000       0.105881         2.8812
  23   0.0000       0.126761         3.4493
  24   0.0000       0.131766         3.5855

MULLIKEN ATOMIC CHARGES
-----------------------
   0 C :   -0.509103
   1 C :   -0.199713
   2 C :   -0.216800
   3 C :    0.112875
   4 O :   -0.354677
   5 H :    0.147640
   6 H :    0.172976
   7 H :    0.135301
   8 H :    0.141473
   9 H :    0.148136
  10 H :    0.160495
  11 H :    0.152836
  12 H :    0.108562
Sum of atomic charges:   -0.0000000

LOEWDIN ATOMIC CHARGES
----------------------
   0 C :   -0.418517
   1 C :   -0.305926
   2 C :   -0.304032
   3 C :    0.200977
   4 O :   -0.463050
   5 H :    0.152806
   6 H :    0.162907
   7 H :    0.146845
   8 H :    0.152525
   9 H :    0.166425
  10 H :    0.181621
  11 H :    0.176550
  12 H :    0.150868

  Mayer bond orders larger than 0.100000
B(  0-C ,  1-C ) :   0.9050 B(  0-C ,  5-H ) :   0.9704 B(  0-C ,  6-H ) :   0.9799
B(  0-C ,  7-H ) :   0.9795 B(  1-C ,  2-C ) :   0.9098 B(  1-C ,  8-H ) :   0.9639
B(  1-C ,  9-H ) :   0.9686 B(  2-C ,  3-C ) :   0.9205 B(  2-C ,  4-O ) :  -0.1004
B(  2-C , 10-H ) :   0.9239 B(  2-C , 11-H ) :   0.9492 B(  3-C ,  4-O ) :   1.9301
B(  3-C , 12-H ) :   0.9688

Dispersion correction           -0.002746497
FINAL SINGLE POINT ENERGY      -232.392804090454

DIPOLE MOMENT
-------------

Method             : SCF
Type of density    : Electron Density
Multiplicity       :   1
Irrep              :   0
Energy             :  -232.3960906441624275 Eh
Relativity type    :
Basis              : AO
                                X                 Y                 Z
Electronic contribution:      5.256669739      -1.002421810       0.025319419
Nuclear contribution   :     -5.671239831       1.959777512      -0.148543295
                        -----------------------------------------
Total Dipole Moment    :     -0.414570092       0.957355702      -0.123223876
                        -----------------------------------------
Magnitude (a.u.)       :      1.050515314
Magnitude (Debye)      :      2.670197724

Rotational constants in cm-1:             0.285957             0.120986             0.098857
Rotational constants in MHz :          8572.777903          3627.055153          2963.648544

                             ****ORCA TERMINATED NORMALLY****
TOTAL RUN TIME: 0 days 0 hours 0 minutes 19 seconds 752 msec
