                         Program Version 6.0.0  -   RELEASE  -
|  1> ! r2scan-3c def2/J RI DEFGRID2 scfconv6 printgap
|  2> %output
|  3>     printlevel normal
|  4> end
|  5> %cpcm
|  6>     smd true
|  7>     smdsolvent "water"
|  8> end
|  9> * xyz 0 1
| 10> C -1.7149967012 -0.5878388484 0.5379942061
| 11> C -1.07958094 0.0641568983 -0.6850111377
| 12> C 0.0285453611 1.0403887488 -0.2939789468
| 13> C 1.2746145911 0.3799707002 0.1904745242
| 14> O 1.5019310677 -0.8055388779 0.1982387696
| 15> H -2.4983313674 -1.2777638555 0.2355365053
| 16> H -0.9681995422 -1.1446361634 1.0994858252
| 17> H -2.1517081514 0.1644486176 1.1912171154
| 18> H -1.8441019125 0.5973092226 -1.2514974729
| 19> H -0.6562100193 -0.7108328308 -1.3267061111
| 20> H 0.3213180952 1.656007197 -1.1492512715
| 21> H -0.3127600935 1.7270940652 0.4841500545
| 22> H 2.0412043876 1.0900707572 0.5555910585
| 23> *
| 24>
| 25>                          ****END OF INPUT****

CARTESIAN COORDINATES (ANGSTROEM)
---------------------------------
  C     -1.714997   -0.587839    0.537994
  C     -1.079581    0.064157   -0.685011
  C      0.028545    1.040389   -0.293979
  C      1.274615    0.379971    0.190475
  O      1.501931   -0.805539    0.198239
  H     -2.498331   -1.277764    0.235537
  H     -0.968200   -1.144636    1.099486
  H     -2.151708    0.164449    1.191217
  H     -1.844102    0.597309   -1.251497
  H     -0.656210   -0.710833   -1.326706
  H      0.321318    1.656007   -1.149251
  H     -0.312760    1.727094    0.484150
  H      2.041204    1.090071    0.555591

 Total Charge           Charge          ....    0
 Multiplicity           Mult            ....    1
 Number of Electrons    NEL             ....   40
 Basis Dimension        Dim             ....  140

ORBITAL ENERGIES
----------------

  NO   OCC          E(Eh)            E(eV)
   0   2.0000     -18.956630      -515.8361
   1   2.0000     -10.121658      -275.4243
   2   2.0000     -10.031463      -272.9700
   3   2.0000     -10.023123      -272.7430
   4   2.0000     -10.009200      -272.3642
   5   2.0000      -1.022788       -27.8315
   6   2.0000      -0.760419       -20.6921
   7   2.0000      -0.678017       -18.4498
   8   2.0000      -0.581430       -15.8215
   9   2.0000      -0.513434       -13.9712
  10   2.0000      -0.458927       -12.4880
  11   2.0000      -0.429726       -11.6934
  12   2.0000      -0.416007       -11.3201
  13   2.0000      -0.379617       -10.3299
  14   2.0000      -0.372345       -10.1320
  15   2.0000      -0.348816        -9.4918
  16   2.0000      -0.308774        -8.4022
  17   2.0000      -0.306398        -8.3375
  18   2.0000      -0.300074        -8.1654
  19   2.0000      -0.228064        -6.2059
  20   0.0000      -0.055284        -1.5044
  21   0.0000       0.087935         2.3928
  22   0.0000       0.121434         3.3044
  23   0.0000       0.134481         3.6594
  24   0.0000       0.145904         3.9702

MULLIKEN ATOMIC CHARGES
-----------------------
   0 C :   -0.536394
   1 C :   -0.228737
   2 C :   -0.225856
   3 C :    0.147874
   4 O :   -0.451338
   5 H :    0.158465
   6 H :    0.162813
   7 H :    0.154466
   8 H :    0.158378
   9 H :    0.146694
  10 H :    0.192146
  11 H :    0.182640
  12 H :    0.138848
Sum of atomic charges:   -0.0000000

LOEWDIN ATOMIC CHARGES
----------------------
   0 C :   -0.426692
   1 C :   -0.308384
   2 C :   -0.296008
   3 C :    0.226183
   4 O :   -0.535593
   5 H :    0.154228
   6 H :    0.157334
   7 H :    0.153600
   8 H :    0.158929
   9 H :    0.162155
  10 H :    0.196052
  11 H :    0.190483
  12 H :    0.167715

  Mayer bond orders larger than 0.100000
B(  0-C ,  1-C ) :   0.9022 B(  0-C ,  5-H ) :   0.9694 B(  0-C ,  6-H ) :   0.9805
B(  0-C ,  7-H ) :   0.9748 B(  1-C ,  2-C ) :   0.8889 B(  1-C ,  8-H ) :   0.9605
B(  1-C ,  9-H ) :   0.9779 B(  2-C ,  3-C ) :   0.9475 B(  2-C , 10-H ) :   0.9129
B(  2-C , 11-H ) :   0.9375 B(  3-C ,  4-O ) :   1.8720 B(  3-C , 12-H ) :   0.9549

Dispersion correction           -0.002746497
FINAL SINGLE POINT ENERGY      -232.397577749870

DIPOLE MOMENT
-------------

Method             : SCF
Type of density    : Electron Density
Multiplicity       :   1
Irrep              :   0
Energy             :  -232.4008643035784871 Eh
Relativity type    :
Basis              : AO
                                X                 Y                 Z
Electronic contribution:      5.132736312      -0.494761434      -0.002904360
Nuclear contribution   :     -5.671239831       1.959777512      -0.148543295
                        -----------------------------------------
Total Dipole Moment    :     -0.538503519       1.465016077      -0.151447655
                        -----------------------------------------
Magnitude (a.u.)       :      1.568181922
Magnitude (Debye)      :      3.986001672

Rotational constants in cm-1:             0.285957             0.120986             0.098857
Rotational constants in MHz :          8572.777903          3627.055153          2963.648544

                             ****ORCA TERMINATED NORMALLY****
TOTAL RUN TIME: 0 days 0 hours 0 minutes 17 seconds 213 msec
