                         Program Version 6.0.0  -   RELEASE  -
|  1> ! r2scan-3c def2/J RI DEFGRID2 scfconv6 printgap
|  2> %output
|  3>     printlevel normal
|  4> end
|  5> * xyz 0 1
|  6> C 2.7191553708 0.2707085781 -1.475210231
|  7> C 2.2262385967 0.9713370194 -0.210399815
|  8> C 1.3319332783 0.1252640787 0.7111242858
|  9> H 1.3742460056 0.5915439949 1.704227161
| 10> C 1.8607388484 -1.3071976784 0.856001192
| 11> C -0.131676366 0.0836942073 0.3261031079
| 12> C -1.0448352058 -0.3560787527 1.2822203768
| 13> C -2.3950129571 -0.442209762 1.0019795731
| 14> C -2.8674194778 -0.0823212213 -0.2493287801
| 15> C -1.9754055053 0.3693186321 -1.2041372142
| 16> C -0.6217163863 0.4525505732 -0.9191622149
| 17> H 3.4420400644 -0.5026967131 -1.2306285512
| 18> H 1.9043214129 -0.1902248622 -2.0262519177
| 19> H 3.2077485332 0.9932619348 -2.1256686995
| 20> H 3.1035371274 1.2797274571 0.363718503
| 21> H 1.6849350933 1.8811250081 -0.4790244942
| 22> H 2.9119778191 -1.2931737254 1.1332285039
| 23> H 1.3087887509 -1.8384235231 1.6271342114
| 24> H 1.7477904641 -1.8539407733 -0.0760980959
| 25> H -0.6905818583 -0.6285047481 2.2665630394
| 26> H -3.0815626331 -0.7864046882 1.7616957709
| 27> H -3.9215822072 -0.1477594634 -0.474006932
| 28> H -2.3324336545 0.6617307394 -2.1809994024
| 29> H 0.042110182 0.820023901 -1.6842626032
| 30> *
| 31>
| 32>                          ****END OF INPUT****

CARTESIAN COORDINATES (ANGSTROEM)
---------------------------------
  C      2.719155    0.270709   -1.475210
  C      2.226239    0.971337   -0.210400
  C      1.331933    0.125264    0.711124
  H      1.374246    0.591544    1.704227
  C      1.860739   -1.307198    0.856001
  C     -0.131676    0.083694    0.326103
  C     -1.044835   -0.356079    1.282220
  C     -2.395013   -0.442210    1.001980
  C     -2.867419   -0.082321   -0.249329
  C     -1.975406    0.369319   -1.204137
  C     -0.621716    0.452551   -0.919162
  H      3.442040   -0.502697   -1.230629
  H      1.904321   -0.190225   -2.026252
  H      3.207749    0.993262   -2.125669
  H      3.103537    1.279727    0.363719
  H      1.684935    1.881125   -0.479024
  H      2.911978   -1.293174    1.133229
  H      1.308789   -1.838424    1.627134
  H      1.747790   -1.853941   -0.076098
  H     -0.690582   -0.628505    2.266563
  H     -3.081563   -0.786405    1.761696
  H     -3.921582   -0.147759   -0.474007
  H     -2.332434    0.661731   -2.180999
  H      0.042110    0.820024   -1.684263

 Total Charge           Charge          ....    0
 Multiplicity           Mult            ....    1
 Number of Electrons    NEL             ....   74
 Basis Dimension        Dim             ....  260

ORBITAL ENERGIES
----------------

  NO   OCC          E(Eh)            E(eV)
   0   2.0000     -10.039867      -273.1987
   1   2.0000     -10.037935      -273.1461
   2   2.0000     -10.030842      -272.9531
   3   2.0000     -10.030604      -272.9466
   4   2.0000     -10.028571      -272.8913
   5   2.0000     -10.028179      -272.8806
   6   2.0000     -10.028098      -272.8784
   7   2.0000     -10.027403      -272.8595
   8   2.0000     -10.018960      -272.6298
   9   2.0000     -10.017540      -272.5911
  10   2.0000      -0.828022       -22.5316
  11   2.0000      -0.776384       -21.1265
  12   2.0000      -0.716423       -19.4949
  13   2.0000      -0.710009       -19.3203
  14   2.0000      -0.681926       -18.5561
  15   2.0000      -0.617485       -16.8026
  16   2.0000      -0.575195       -15.6519
  17   2.0000      -0.567966       -15.4551
  18   2.0000      -0.522000       -14.2043
  19   2.0000      -0.478747       -13.0274
  20   2.0000      -0.441481       -12.0133
  21   2.0000      -0.425623       -11.5818
  22   2.0000      -0.418910       -11.3991
  23   2.0000      -0.406656       -11.0657
  24   2.0000      -0.389665       -10.6033
  25   2.0000      -0.378602       -10.3023
  26   2.0000      -0.367301        -9.9948
  27   2.0000      -0.350744        -9.5442
  28   2.0000      -0.349013        -9.4971
  29   2.0000      -0.336138        -9.1468
  30   2.0000      -0.323749        -8.8096
  31   2.0000      -0.312483        -8.5031
  32   2.0000      -0.301253        -8.1975
  33   2.0000      -0.286494        -7.7959
  34   2.0000      -0.283929        -7.7261
  35   2.0000      -0.233181        -6.3452
  36   2.0000      -0.222582        -6.0568
  37   0.0000      -0.029099        -0.7918
  38   0.0000      -0.025095        -0.6829
  39   0.0000       0.073538         2.0011
  40   0.0000       0.096792         2.6339
  41   0.0000       0.104181         2.8349

MULLIKEN ATOMIC CHARGES
-----------------------
   0 C :   -0.497274
   1 C :   -0.316027
   2 C :   -0.036740
   3 H :    0.164221
   4 C :   -0.492289
   5 C :    0.123547
   6 C :   -0.250150
   7 C :   -0.154875
   8 C :   -0.151462
   9 C :   -0.180133
  10 C :   -0.179254
  11 H :    0.152233
  12 H :    0.159113
  13 H :    0.150167
  14 H :    0.154822
  15 H :    0.159861
  16 H :    0.153665
  17 H :    0.149572
  18 H :    0.168238
  19 H :    0.145262
  20 H :    0.143908
  21 H :    0.145118
  22 H :    0.143685
  23 H :    0.144791
Sum of atomic charges:    0.0000000

LOEWDIN ATOMIC CHARGES
----------------------
   0 C :   -0.426883
   1 C :   -0.308663
   2 C :   -0.213893
   3 H :    0.168875
   4 C :   -0.396505
   5 C :   -0.078350
   6 C :   -0.160858
   7 C :   -0.162571
   8 C :   -0.174399
   9 C :   -0.162819
  10 C :   -0.164537
  11 H :    0.152048
  12 H :    0.151365
  13 H :    0.152984
  14 H :    0.157624
  15 H :    0.159554
  16 H :    0.153452
  17 H :    0.156016
  18 H :    0.159768
  19 H :    0.168722
  20 H :    0.166204
  21 H :    0.165929
  22 H :    0.165897
  23 H :    0.171041

  Mayer bond orders larger than 0.100000
B(  0-C ,  1-C ) :   0.8686 B(  0-C , 11-H ) :   0.9669 B(  0-C , 12-H ) :   0.9907
B(  0-C , 13-H ) :   0.9703 B(  1-C ,  2-C ) :   0.8693 B(  1-C , 14-H ) :   0.9682
B(  1-C , 15-H ) :   1.0017 B(  2-C ,  3-H ) :   1.0050 B(  2-C ,  4-C ) :   0.8913
B(  2-C ,  5-C ) :   0.8171 B(  4-C , 16-H ) :   0.9789 B(  4-C , 17-H ) :   0.9654
B(  4-C , 18-H ) :   0.9710 B(  5-C ,  6-C ) :   1.3937 B(  5-C , 10-C ) :   1.4393
B(  6-C ,  7-C ) :   1.4474 B(  6-C , 19-H ) :   0.9486 B(  7-C ,  8-C ) :   1.4129
B(  7-C , 20-H ) :   0.9465 B(  8-C ,  9-C ) :   1.4304 B(  8-C , 21-H ) :   0.9496
B(  9-C , 10-C ) :   1.4339 B(  9-C , 22-H ) :   0.9478 B( 10-C , 23-H ) :   0.9415

Dispersion correction           -0.008462068
FINAL SINGLE POINT ENERGY      -389.374504240085

DIPOLE MOMENT
-------------

Method             : SCF
Type of density    : Electron Density
Multiplicity       :   1
Irrep              :   0
Energy             :  -389.3745789384703357 Eh
Relativity type    :
Basis              : AO
                                X                 Y                 Z
Electronic contribution:     -9.838058291       0.963256365       1.389473874
Nuclear contribution   :     10.039635495      -0.951034019      -1.332547027
                        -----------------------------------------
Total Dipole Moment    :      0.201577204       0.012222346       0.056926847
                        -----------------------------------------
Magnitude (a.u.)       :      0.209817589
Magnitude (Debye)      :      0.533313928

Rotational constants in cm-1:             0.087922             0.029798             0.024427
Rotational constants in MHz :          2635.829553           893.319028           732.304375

                             ****ORCA TERMINATED NORMALLY****
TOTAL RUN TIME: 0 days 0 hours 0 minutes 28 seconds 494 msec
