                         Program Version 6.0.0  -   RELEASE  -
|  1> ! r2scan-3c def2/J RI DEFGRID2 scfconv6 printgap
|  2> %output
|  3>     printlevel normal
|  4> end
|  5> %cpcm
|  6>     smd true
|  7>     smdsolvent "water"
|  8> end
|  9> * xyz 0 1
| 10> C 2.7191553708 0.2707085781 -1.475210231
| 11> C 2.2262385967 0.9713370194 -0.210399815
| 12> C 1.3319332783 0.1252640787 0.7111242858
| 13> H 1.3742460056 0.5915439949 1.704227161
| 14> C 1.8607388484 -1.3071976784 0.856001192
| 15> C -0.131676366 0.0836942073 0.3261031079
| 16> C -1.0448352058 -0.3560787527 1.2822203768
| 17> C -2.3950129571 -0.442209762 1.0019795731
| 18> C -2.8674194778 -0.0823212213 -0.2493287801
| 19> C -1.9754055053 0.3693186321 -1.2041372142
| 20> C -0.6217163863 0.4525505732 -0.9191622149
| 21> H 3.4420400644 -0.5026967131 -1.2306285512
| 22> H 1.9043214129 -0.1902248622 -2.0262519177
| 23> H 3.2077485332 0.9932619348 -2.1256686995
| 24> H 3.1035371274 1.2797274571 0.363718503
| 25> H 1.6849350933 1.8811250081 -0.4790244942
| 26> H 2.9119778191 -1.2931737254 1.1332285039
| 27> H 1.3087887509 -1.8384235231 1.6271342114
| 28> H 1.7477904641 -1.8539407733 -0.0760980959
| 29> H -0.6905818583 -0.6285047481 2.2665630394
| 30> H -3.0815626331 -0.7864046882 1.7616957709
| 31> H -3.9215822072 -0.1477594634 -0.474006932
| 32> H -2.3324336545 0.6617307394 -2.1809994024
| 33> H 0.042110182 0.820023901 -1.6842626032
| 34> *
| 35>
| 36>                          ****END OF INPUT****

CARTESIAN COORDINATES (ANGSTROEM)
---------------------------------
  C      2.719155    0.270709   -1.475210
  C      2.226239    0.971337   -0.210400
  C      1.331933    0.125264    0.711124
  H      1.374246    0.591544    1.704227
  C      1.860739   -1.307198    0.856001
  C     -0.131676    0.083694    0.326103
  C     -1.044835   -0.356079    1.282220
  C     -2.395013   -0.442210    1.001980
  C     -2.867419   -0.082321   -0.249329
  C     -1.975406    0.369319   -1.204137
  C     -0.621716    0.452551   -0.919162
  H      3.442040   -0.502697   -1.230629
  H      1.904321   -0.190225   -2.026252
  H      3.207749    0.993262   -2.125669
  H      3.103537    1.279727    0.363719
  H      1.684935    1.881125   -0.479024
  H      2.911978   -1.293174    1.133229
  H      1.308789   -1.838424    1.627134
  H      1.747790   -1.853941   -0.076098
  H     -0.690582   -0.628505    2.266563
  H     -3.081563   -0.786405    1.761696
  H     -3.921582   -0.147759   -0.474007
  H     -2.332434    0.661731   -2.180999
  H      0.042110    0.820024   -1.684263

 Total Charge           Charge          ....    0
 Multiplicity           Mult            ....    1
 Number of Electrons    NEL             ....   74
 Basis Dimension        Dim             ....  260

ORBITAL ENERGIES
----------------

  NO   OCC          E(Eh)            E(eV)
   0   2.0000     -10.038668      -273.1661
   1   2.0000     -10.033342      -273.0211
   2   2.0000     -10.029815      -272.9251
   3   2.0000     -10.029732      -272.9229
   4   2.0000     -10.027477      -272.8615
   5   2.0000     -10.027326      -272.8574
   6   2.0000     -10.026927      -272.8465
   7   2.0000     -10.018415      -272.6149
   8   2.0000     -10.010919      -272.4110
   9   2.0000     -10.007636      -272.3216
  10   2.0000      -0.828556       -22.5462
  11   2.0000      -0.771117       -20.9832
  12   2.0000      -0.714221       -19.4349
  13   2.0000      -0.707993       -19.2655
  14   2.0000      -0.675973       -18.3942
  15   2.0000      -0.610414       -16.6102
  16   2.0000      -0.572343       -15.5743
  17   2.0000      -0.565076       -15.3765
  18   2.0000      -0.517064       -14.0700
  19   2.0000      -0.474323       -12.9070
  20   2.0000      -0.436261       -11.8713
  21   2.0000      -0.419204       -11.4071
  22   2.0000      -0.412931       -11.2364
  23   2.0000      -0.402861       -10.9624
  24   2.0000      -0.385489       -10.4897
  25   2.0000      -0.373771       -10.1708
  26   2.0000      -0.361638        -9.8407
  27   2.0000      -0.343848        -9.3566
  28   2.0000      -0.341652        -9.2968
  29   2.0000      -0.335849        -9.1389
  30   2.0000      -0.317566        -8.6414
  31   2.0000      -0.307536        -8.3685
  32   2.0000      -0.294005        -8.0003
  33   2.0000      -0.279294        -7.6000
  34   2.0000      -0.278027        -7.5655
  35   2.0000      -0.236586        -6.4378
  36   2.0000      -0.224769        -6.1163
  37   0.0000      -0.031242        -0.8501
  38   0.0000      -0.027200        -0.7401
  39   0.0000       0.082667         2.2495
  40   0.0000       0.103713         2.8222
  41   0.0000       0.109444         2.9781

MULLIKEN ATOMIC CHARGES
-----------------------
   0 C :   -0.528160
   1 C :   -0.319665
   2 C :    0.005576
   3 H :    0.178632
   4 C :   -0.538273
   5 C :    0.057508
   6 C :   -0.264485
   7 C :   -0.196488
   8 C :   -0.185864
   9 C :   -0.224684
  10 C :   -0.190308
  11 H :    0.161644
  12 H :    0.167704
  13 H :    0.159254
  14 H :    0.166194
  15 H :    0.164600
  16 H :    0.168794
  17 H :    0.164135
  18 H :    0.174332
  19 H :    0.177266
  20 H :    0.175386
  21 H :    0.176865
  22 H :    0.174942
  23 H :    0.175096
Sum of atomic charges:    0.0000000

LOEWDIN ATOMIC CHARGES
----------------------
   0 C :   -0.432537
   1 C :   -0.309320
   2 C :   -0.212404
   3 H :    0.174619
   4 C :   -0.402790
   5 C :   -0.087320
   6 C :   -0.169633
   7 C :   -0.175538
   8 C :   -0.188599
   9 C :   -0.175780
  10 C :   -0.173358
  11 H :    0.153960
  12 H :    0.153511
  13 H :    0.155290
  14 H :    0.161236
  15 H :    0.160673
  16 H :    0.159078
  17 H :    0.158956
  18 H :    0.160067
  19 H :    0.180201
  20 H :    0.176499
  21 H :    0.175825
  22 H :    0.176151
  23 H :    0.181215

  Mayer bond orders larger than 0.100000
B(  0-C ,  1-C ) :   0.8589 B(  0-C , 11-H ) :   0.9662 B(  0-C , 12-H ) :   0.9878
B(  0-C , 13-H ) :   0.9677 B(  1-C ,  2-C ) :   0.8581 B(  1-C , 14-H ) :   0.9669
B(  1-C , 15-H ) :   1.0028 B(  2-C ,  3-H ) :   1.0015 B(  2-C ,  4-C ) :   0.8750
B(  2-C ,  5-C ) :   0.8165 B(  4-C , 16-H ) :   0.9733 B(  4-C , 17-H ) :   0.9654
B(  4-C , 18-H ) :   0.9714 B(  5-C ,  6-C ) :   1.3765 B(  5-C , 10-C ) :   1.4044
B(  6-C ,  7-C ) :   1.4088 B(  6-C , 19-H ) :   0.9561 B(  7-C ,  8-C ) :   1.3709
B(  7-C , 20-H ) :   0.9593 B(  8-C ,  9-C ) :   1.3905 B(  8-C , 21-H ) :   0.9579
B(  9-C , 10-C ) :   1.3991 B(  9-C , 22-H ) :   0.9601 B( 10-C , 23-H ) :   0.9458

Dispersion correction           -0.008462068
FINAL SINGLE POINT ENERGY      -389.375319217337

DIPOLE MOMENT
-------------

Method             : SCF
Type of density    : Electron Density
Multiplicity       :   1
Irrep              :   0
Energy             :  -389.3753939157215314 Eh
Relativity type    :
Basis              : AO
                                X                 Y                 Z
Electronic contribution:     -9.728751262       0.974438181       1.437786396
Nuclear contribution   :     10.039635495      -0.951034019      -1.332547027
                        -----------------------------------------
Total Dipole Moment    :      0.310884232       0.023404162       0.105239369
                        -----------------------------------------
Magnitude (a.u.)       :      0.329047239
Magnitude (Debye)      :      0.836371614

Rotational constants in cm-1:             0.087922             0.029798             0.024427
Rotational constants in MHz :          2635.829553           893.319028           732.304375

                             ****ORCA TERMINATED NORMALLY****
TOTAL RUN TIME: 0 days 0 hours 0 minutes 38 seconds 462 msec
