                         Program Version 6.0.0  -   RELEASE  -
|  1> ! pbe def2-sv(p) def2/J RI DEFGRID1 loosescf d4 GCP(DFT/SV(P)) printgap
|  2> %output
|  3>     printlevel normal
|  4> end
|  5> * xyz 0 1
|  6> C 2.154725896 -0.2347684664 -1.1367803337
|  7> C 1.3371919202 -0.2945329464 0.1572686064
|  8> C 1.5613486291 0.9717176188 0.9783570258
|  9> O -0.0094919895 -0.6058036414 -0.2146115147
| 10> C -1.1299163203 0.1580777281 0.2256786407
| 11> C -1.8390202442 0.7412807585 -0.998976214
| 12> C -2.0658972699 -0.7595641231 1.0160425167
| 13> H 3.21606496 -0.1983866867 -0.9108515014
| 14> H 1.9463677833 -1.1163843648 -1.736282198
| 15> H 1.8792396298 0.6465292718 -1.7107684878
| 16> H 1.6854274078 -1.1556856717 0.7522519542
| 17> H 1.2216264875 1.853212831 0.4388046414
| 18> H 2.6287109762 1.0682097615 1.1557208697
| 19> H 1.0623342359 0.9193239874 1.9432680442
| 20> H -0.8126030633 0.9793724689 0.8738252496
| 21> H -2.7151255591 1.30403139 -0.6907730714
| 22> H -1.166912226 1.3995729157 -1.5438378604
| 23> H -2.143527766 -0.0644061545 -1.6615118434
| 24> H -2.9436111028 -0.2084361283 1.3401486383
| 25> H -1.5521990778 -1.1565537251 1.8881493651
| 26> H -2.3747756721 -1.5919956597 0.3896020828
| 27> *
| 28>
| 29>                          ****END OF INPUT****

CARTESIAN COORDINATES (ANGSTROEM)
---------------------------------
  C      2.154726   -0.234768   -1.136780
  C      1.337192   -0.294533    0.157269
  C      1.561349    0.971718    0.978357
  O     -0.009492   -0.605804   -0.214612
  C     -1.129916    0.158078    0.225679
  C     -1.839020    0.741281   -0.998976
  C     -2.065897   -0.759564    1.016043
  H      3.216065   -0.198387   -0.910852
  H      1.946368   -1.116384   -1.736282
  H      1.879240    0.646529   -1.710768
  H      1.685427   -1.155686    0.752252
  H      1.221626    1.853213    0.438805
  H      2.628711    1.068210    1.155721
  H      1.062334    0.919324    1.943268
  H     -0.812603    0.979372    0.873825
  H     -2.715126    1.304031   -0.690773
  H     -1.166912    1.399573   -1.543838
  H     -2.143528   -0.064406   -1.661512
  H     -2.943611   -0.208436    1.340149
  H     -1.552199   -1.156554    1.888149
  H     -2.374776   -1.591996    0.389602

 Total Charge           Charge          ....    0
 Multiplicity           Mult            ....    1
 Number of Electrons    NEL             ....   58
 Basis Dimension        Dim             ....  126

ORBITAL ENERGIES
----------------

  NO   OCC          E(Eh)            E(eV)
   0   2.0000     -18.735373      -509.8154
   1   2.0000      -9.938274      -270.4342
   2   2.0000      -9.934442      -270.3299
   3   2.0000      -9.881322      -268.8844
   4   2.0000      -9.868782      -268.5432
   5   2.0000      -9.868415      -268.5332
   6   2.0000      -9.867980      -268.5214
   7   2.0000      -0.914960       -24.8973
   8   2.0000      -0.716499       -19.4969
   9   2.0000      -0.671973       -18.2853
  10   2.0000      -0.616448       -16.7744
  11   2.0000      -0.609390       -16.5823
  12   2.0000      -0.544247       -14.8097
  13   2.0000      -0.487160       -13.2563
  14   2.0000      -0.451807       -12.2943
  15   2.0000      -0.413071       -11.2402
  16   2.0000      -0.400133       -10.8882
  17   2.0000      -0.373222       -10.1559
  18   2.0000      -0.368890       -10.0380
  19   2.0000      -0.359015        -9.7693
  20   2.0000      -0.345072        -9.3899
  21   2.0000      -0.337851        -9.1934
  22   2.0000      -0.327268        -8.9054
  23   2.0000      -0.315705        -8.5908
  24   2.0000      -0.312280        -8.4976
  25   2.0000      -0.298449        -8.1212
  26   2.0000      -0.290488        -7.9046
  27   2.0000      -0.245936        -6.6922
  28   2.0000      -0.189462        -5.1555
  29   0.0000       0.029969         0.8155
  30   0.0000       0.060213         1.6385
  31   0.0000       0.063056         1.7158
  32   0.0000       0.074688         2.0324
  33   0.0000       0.080919         2.2019

MULLIKEN ATOMIC CHARGES
-----------------------
   0 C :   -0.247681
   1 C :    0.038155
   2 C :   -0.301410
   3 O :   -0.343082
   4 C :   -0.012908
   5 C :   -0.239116
   6 C :   -0.237135
   7 H :    0.089192
   8 H :    0.109135
   9 H :    0.092614
  10 H :    0.064450
  11 H :    0.111462
  12 H :    0.108490
  13 H :    0.121326
  14 H :    0.070077
  15 H :    0.091173
  16 H :    0.096422
  17 H :    0.100357
  18 H :    0.091502
  19 H :    0.096560
  20 H :    0.100416
Sum of atomic charges:    0.0000000

LOEWDIN ATOMIC CHARGES
----------------------
   0 C :   -0.345378
   1 C :   -0.042249
   2 C :   -0.352897
   3 O :   -0.169092
   4 C :   -0.049865
   5 C :   -0.344968
   6 C :   -0.344406
   7 H :    0.116773
   8 H :    0.123385
   9 H :    0.116577
  10 H :    0.101104
  11 H :    0.122002
  12 H :    0.130057
  13 H :    0.121941
  14 H :    0.102801
  15 H :    0.118513
  16 H :    0.116292
  17 H :    0.121644
  18 H :    0.118521
  19 H :    0.117716
  20 H :    0.121529

  Mayer bond orders larger than 0.100000
B(  0-C ,  1-C ) :   1.1113 B(  0-C ,  7-H ) :   0.9411 B(  0-C ,  8-H ) :   0.9466
B(  0-C ,  9-H ) :   0.9476 B(  1-C ,  2-C ) :   1.1141 B(  1-C ,  3-O ) :   1.0017
B(  1-C , 10-H ) :   0.9116 B(  2-C , 11-H ) :   0.9366 B(  2-C , 12-H ) :   0.9354
B(  2-C , 13-H ) :   0.9381 B(  3-O ,  4-C ) :   0.9940 B(  4-C ,  5-C ) :   1.1166
B(  4-C ,  6-C ) :   1.1139 B(  4-C , 14-H ) :   0.8896 B(  5-C , 15-H ) :   0.9434
B(  5-C , 16-H ) :   0.9473 B(  5-C , 17-H ) :   0.9448 B(  6-C , 18-H ) :   0.9441
B(  6-C , 19-H ) :   0.9490 B(  6-C , 20-H ) :   0.9454

Dispersion correction           -0.015824962
FINAL SINGLE POINT ENERGY      -311.515316193696

DIPOLE MOMENT
-------------

Method             : SCF
Type of density    : Electron Density
Multiplicity       :   1
Irrep              :   0
Energy             :  -311.5932568565529550 Eh
Relativity type    :
Basis              : AO
                                X                 Y                 Z
Electronic contribution:      0.205298905      -2.123471079      -0.192540586
Nuclear contribution   :     -0.064858192       2.503790624       0.491926948
                        -----------------------------------------
Total Dipole Moment    :      0.140440713       0.380319544       0.299386362
                        -----------------------------------------
Magnitude (a.u.)       :      0.503982880
Magnitude (Debye)      :      1.281022677

Rotational constants in cm-1:             0.134439             0.051636             0.047702
Rotational constants in MHz :          4030.388262          1547.995799          1430.069671

                             ****ORCA TERMINATED NORMALLY****
TOTAL RUN TIME: 0 days 0 hours 0 minutes 7 seconds 550 msec
