                         Program Version 6.0.0  -   RELEASE  -
|  1> ! pbe def2-sv(p) def2/J RI DEFGRID1 loosescf d4 GCP(DFT/SV(P)) printgap
|  2> %output
|  3>     printlevel normal
|  4> end
|  5> * xyz 0 1
|  6> C -1.8369745847 0.9646972903 0.7885693249
|  7> C -1.139024894 0.3221090793 -0.4038699517
|  8> C 0.0196219363 -0.6074833171 -0.0087337039
|  9> C 1.4025407969 0.0226463436 -0.2198093099
| 10> C 1.6504789886 1.2445922836 0.6549743752
| 11> O -0.113996547 -1.7830152541 -0.7989718957
| 12> H -2.6484566988 1.6005512817 0.4437504111
| 13> H -2.2536697409 0.200950726 1.441038521
| 14> H -1.1457198258 1.5711699309 1.3669745766
| 15> H -1.857186322 -0.2882852539 -0.9552920382
| 16> H -0.7736433675 1.0923887378 -1.0843120428
| 17> H -0.0890245643 -0.8819504549 1.0535812371
| 18> H 2.1623601781 -0.7315625317 0.0033984848
| 19> H 1.5008810389 0.2905257063 -1.2742767122
| 20> H 0.976889551 2.0551041027 0.3924752438
| 21> H 1.5054182536 0.9961335868 1.703903008
| 22> H 2.6712984396 1.5937306607 0.5218499397
| 23> H 0.6087619509 -2.392077337 -0.5963432383
| 24> *
| 25>
| 26>                          ****END OF INPUT****

CARTESIAN COORDINATES (ANGSTROEM)
---------------------------------
  C     -1.836975    0.964697    0.788569
  C     -1.139025    0.322109   -0.403870
  C      0.019622   -0.607483   -0.008734
  C      1.402541    0.022646   -0.219809
  C      1.650479    1.244592    0.654974
  O     -0.113997   -1.783015   -0.798972
  H     -2.648457    1.600551    0.443750
  H     -2.253670    0.200951    1.441039
  H     -1.145720    1.571170    1.366975
  H     -1.857186   -0.288285   -0.955292
  H     -0.773643    1.092389   -1.084312
  H     -0.089025   -0.881950    1.053581
  H      2.162360   -0.731563    0.003398
  H      1.500881    0.290526   -1.274277
  H      0.976890    2.055104    0.392475
  H      1.505418    0.996134    1.703903
  H      2.671298    1.593731    0.521850
  H      0.608762   -2.392077   -0.596343

 Total Charge           Charge          ....    0
 Multiplicity           Mult            ....    1
 Number of Electrons    NEL             ....   50
 Basis Dimension        Dim             ....  108

ORBITAL ENERGIES
----------------

  NO   OCC          E(Eh)            E(eV)
   0   2.0000     -18.734349      -509.7876
   1   2.0000      -9.931514      -270.2502
   2   2.0000      -9.884061      -268.9590
   3   2.0000      -9.878081      -268.7962
   4   2.0000      -9.877455      -268.7792
   5   2.0000      -9.872570      -268.6463
   6   2.0000      -0.911275       -24.7970
   7   2.0000      -0.714957       -19.4550
   8   2.0000      -0.673825       -18.3357
   9   2.0000      -0.599845       -16.3226
  10   2.0000      -0.547811       -14.9067
  11   2.0000      -0.506296       -13.7770
  12   2.0000      -0.455935       -12.4066
  13   2.0000      -0.422426       -11.4948
  14   2.0000      -0.393666       -10.7122
  15   2.0000      -0.366157        -9.9636
  16   2.0000      -0.365302        -9.9404
  17   2.0000      -0.348124        -9.4729
  18   2.0000      -0.331888        -9.0311
  19   2.0000      -0.310605        -8.4520
  20   2.0000      -0.304091        -8.2747
  21   2.0000      -0.296222        -8.0606
  22   2.0000      -0.284317        -7.7366
  23   2.0000      -0.261032        -7.1030
  24   2.0000      -0.206913        -5.6304
  25   0.0000       0.030640         0.8338
  26   0.0000       0.042925         1.1681
  27   0.0000       0.066017         1.7964
  28   0.0000       0.071262         1.9391
  29   0.0000       0.086180         2.3451

MULLIKEN ATOMIC CHARGES
-----------------------
   0 C :   -0.298116
   1 C :   -0.158592
   2 C :    0.039549
   3 C :   -0.188066
   4 C :   -0.290757
   5 O :   -0.427045
   6 H :    0.102998
   7 H :    0.106212
   8 H :    0.103420
   9 H :    0.098931
  10 H :    0.085387
  11 H :    0.054154
  12 H :    0.069327
  13 H :    0.090584
  14 H :    0.115164
  15 H :    0.101317
  16 H :    0.105228
  17 H :    0.290302
Sum of atomic charges:    0.0000000

LOEWDIN ATOMIC CHARGES
----------------------
   0 C :   -0.341770
   1 C :   -0.236766
   2 C :   -0.048649
   3 C :   -0.246491
   4 C :   -0.342335
   5 O :   -0.334712
   6 H :    0.120126
   7 H :    0.118961
   8 H :    0.114939
   9 H :    0.127591
  10 H :    0.115306
  11 H :    0.091272
  12 H :    0.107289
  13 H :    0.117859
  14 H :    0.119758
  15 H :    0.117623
  16 H :    0.122118
  17 H :    0.277883

  Mayer bond orders larger than 0.100000
B(  0-C ,  1-C ) :   1.1489 B(  0-C ,  6-H ) :   0.9510 B(  0-C ,  7-H ) :   0.9526
B(  0-C ,  8-H ) :   0.9486 B(  1-C ,  2-C ) :   1.0407 B(  1-C ,  9-H ) :   0.9156
B(  1-C , 10-H ) :   0.9226 B(  2-C ,  3-C ) :   1.0871 B(  2-C ,  5-O ) :   1.0593
B(  2-C , 11-H ) :   0.9212 B(  3-C ,  4-C ) :   1.1378 B(  3-C , 12-H ) :   0.9196
B(  3-C , 13-H ) :   0.9115 B(  4-C , 14-H ) :   0.9456 B(  4-C , 15-H ) :   0.9503
B(  4-C , 16-H ) :   0.9461 B(  5-O , 17-H ) :   0.8523

Dispersion correction           -0.012867291
FINAL SINGLE POINT ENERGY      -272.301880476018

DIPOLE MOMENT
-------------

Method             : SCF
Type of density    : Electron Density
Multiplicity       :   1
Irrep              :   0
Energy             :  -272.3714709485520302 Eh
Relativity type    :
Basis              : AO
                                X                 Y                 Z
Electronic contribution:     -0.163676477      -4.711309348      -2.483468895
Nuclear contribution   :      0.615534433       4.764439893       2.818345573
                        -----------------------------------------
Total Dipole Moment    :      0.451857956       0.053130545       0.334876679
                        -----------------------------------------
Magnitude (a.u.)       :      0.564925532
Magnitude (Debye)      :      1.435926589

Rotational constants in cm-1:             0.115631             0.103170             0.060497
Rotational constants in MHz :          3466.518652          3092.970200          1813.650407

                             ****ORCA TERMINATED NORMALLY****
TOTAL RUN TIME: 0 days 0 hours 0 minutes 8 seconds 152 msec
