                         Program Version 6.0.0  -   RELEASE  -
|  1> ! r2scan-3c def2/J RI DEFGRID2 scfconv6 printgap
|  2> %output
|  3>     printlevel normal
|  4> end
|  5> * xyz 0 1
|  6> C -1.4704082906 1.2665554256 -0.4680008955
|  7> C -1.3340091609 0.2621863691 0.6724330928
|  8> C -0.1047488134 -0.6594205682 0.6133506114
|  9> H -0.1112752164 -1.2357309196 1.5458270855
| 10> C -0.1718115886 -1.6485029198 -0.5490801099
| 11> C 1.2333598499 0.1048533079 0.6000437671
| 12> O 1.6718062654 0.529920876 -0.6711639398
| 13> H -1.4007663552 0.775290906 -1.434669573
| 14> H -2.4414073245 1.7535731067 -0.4091064581
| 15> H -0.7122559283 2.0433601052 -0.3990678422
| 16> H -2.2217726488 -0.3741111179 0.6886192765
| 17> H -1.3086487515 0.808786618 1.6185106044
| 18> H -0.0892197138 -1.1375336105 -1.5042859406
| 19> H -1.1093011842 -2.1979130938 -0.5244670413
| 20> H 0.6503906816 -2.3567194321 -0.4803048903
| 21> H 2.028039212 -0.5583168638 0.9524486952
| 22> H 1.1739164525 0.9602124334 1.2879284584
| 23> H 1.0218549772 1.1430151279 -1.040106314
| 24> *
| 25>
| 26>                          ****END OF INPUT****

CARTESIAN COORDINATES (ANGSTROEM)
---------------------------------
  C     -1.470408    1.266555   -0.468001
  C     -1.334009    0.262186    0.672433
  C     -0.104749   -0.659421    0.613351
  H     -0.111275   -1.235731    1.545827
  C     -0.171812   -1.648503   -0.549080
  C      1.233360    0.104853    0.600044
  O      1.671806    0.529921   -0.671164
  H     -1.400766    0.775291   -1.434670
  H     -2.441407    1.753573   -0.409106
  H     -0.712256    2.043360   -0.399068
  H     -2.221773   -0.374111    0.688619
  H     -1.308649    0.808787    1.618511
  H     -0.089220   -1.137534   -1.504286
  H     -1.109301   -2.197913   -0.524467
  H      0.650391   -2.356719   -0.480305
  H      2.028039   -0.558317    0.952449
  H      1.173916    0.960212    1.287928
  H      1.021855    1.143015   -1.040106

 Total Charge           Charge          ....    0
 Multiplicity           Mult            ....    1
 Number of Electrons    NEL             ....   50
 Basis Dimension        Dim             ....  179

ORBITAL ENERGIES
----------------

  NO   OCC          E(Eh)            E(eV)
   0   2.0000     -18.944409      -515.5036
   1   2.0000     -10.070620      -274.0355
   2   2.0000     -10.033787      -273.0332
   3   2.0000     -10.030014      -272.9306
   4   2.0000     -10.027772      -272.8695
   5   2.0000     -10.013266      -272.4748
   6   2.0000      -0.982352       -26.7311
   7   2.0000      -0.774633       -21.0788
   8   2.0000      -0.703527       -19.1439
   9   2.0000      -0.643945       -17.5226
  10   2.0000      -0.602770       -16.4022
  11   2.0000      -0.527136       -14.3441
  12   2.0000      -0.464279       -12.6337
  13   2.0000      -0.442545       -12.0423
  14   2.0000      -0.423973       -11.5369
  15   2.0000      -0.407738       -11.0951
  16   2.0000      -0.379046       -10.3144
  17   2.0000      -0.357455        -9.7269
  18   2.0000      -0.355458        -9.6725
  19   2.0000      -0.337304        -9.1785
  20   2.0000      -0.329398        -8.9634
  21   2.0000      -0.298648        -8.1266
  22   2.0000      -0.293115        -7.9761
  23   2.0000      -0.273930        -7.4540
  24   2.0000      -0.232512        -6.3270
  25   0.0000       0.054982         1.4961
  26   0.0000       0.090520         2.4632
  27   0.0000       0.110348         3.0027
  28   0.0000       0.122645         3.3373
  29   0.0000       0.127777         3.4770

MULLIKEN ATOMIC CHARGES
-----------------------
   0 C :   -0.522231
   1 C :   -0.267751
   2 C :   -0.000256
   3 H :    0.146730
   4 C :   -0.511851
   5 C :   -0.211242
   6 O :   -0.418545
   7 H :    0.169840
   8 H :    0.153262
   9 H :    0.135816
  10 H :    0.145621
  11 H :    0.149536
  12 H :    0.161930
  13 H :    0.143448
  14 H :    0.147677
  15 H :    0.142606
  16 H :    0.132059
  17 H :    0.303351
Sum of atomic charges:    0.0000000

LOEWDIN ATOMIC CHARGES
----------------------
   0 C :   -0.427029
   1 C :   -0.310082
   2 C :   -0.236279
   3 H :    0.163423
   4 C :   -0.408770
   5 C :    0.004984
   6 O :   -0.621884
   7 H :    0.152802
   8 H :    0.154885
   9 H :    0.144660
  10 H :    0.155651
  11 H :    0.155297
  12 H :    0.158888
  13 H :    0.151344
  14 H :    0.159194
  15 H :    0.179421
  16 H :    0.159962
  17 H :    0.263533

  Mayer bond orders larger than 0.100000
B(  0-C ,  1-C ) :   0.8499 B(  0-C ,  7-H ) :   0.9884 B(  0-C ,  8-H ) :   0.9624
B(  0-C ,  9-H ) :   0.9667 B(  1-C ,  2-C ) :   0.9161 B(  1-C , 10-H ) :   0.9871
B(  1-C , 11-H ) :   0.9761 B(  2-C ,  3-H ) :   0.9575 B(  2-C ,  4-C ) :   0.9226
B(  2-C ,  5-C ) :   0.8828 B(  4-C , 12-H ) :   0.9777 B(  4-C , 13-H ) :   0.9749
B(  4-C , 14-H ) :   0.9678 B(  5-C ,  6-O ) :   0.9645 B(  5-C , 15-H ) :   0.9711
B(  5-C , 16-H ) :   0.9869 B(  6-O , 17-H ) :   0.8778

Dispersion correction           -0.004577681
FINAL SINGLE POINT ENERGY      -272.895350854250

DIPOLE MOMENT
-------------

Method             : SCF
Type of density    : Electron Density
Multiplicity       :   1
Irrep              :   0
Energy             :  -272.9009453963569740 Eh
Relativity type    :
Basis              : AO
                                X                 Y                 Z
Electronic contribution:      3.593615388       0.472053346       0.009033375
Nuclear contribution   :     -4.216107472      -0.344966636       0.272732774
                        -----------------------------------------
Total Dipole Moment    :     -0.622492084       0.127086709       0.281766150
                        -----------------------------------------
Magnitude (a.u.)       :      0.695010496
Magnitude (Debye)      :      1.766576288

Rotational constants in cm-1:             0.133745             0.094562             0.075640
Rotational constants in MHz :          4009.577358          2834.889100          2267.617493

                             ****ORCA TERMINATED NORMALLY****
TOTAL RUN TIME: 0 days 0 hours 0 minutes 22 seconds 825 msec
