                         Program Version 6.0.0  -   RELEASE  -
|  1> ! r2scan-3c def2/J RI DEFGRID2 scfconv6 printgap
|  2> %output
|  3>     printlevel normal
|  4> end
|  5> %cpcm
|  6>     smd true
|  7>     smdsolvent "water"
|  8> end
|  9> * xyz 0 1
| 10> C -1.4704082906 1.2665554256 -0.4680008955
| 11> C -1.3340091609 0.2621863691 0.6724330928
| 12> C -0.1047488134 -0.6594205682 0.6133506114
| 13> H -0.1112752164 -1.2357309196 1.5458270855
| 14> C -0.1718115886 -1.6485029198 -0.5490801099
| 15> C 1.2333598499 0.1048533079 0.6000437671
| 16> O 1.6718062654 0.529920876 -0.6711639398
| 17> H -1.4007663552 0.775290906 -1.434669573
| 18> H -2.4414073245 1.7535731067 -0.4091064581
| 19> H -0.7122559283 2.0433601052 -0.3990678422
| 20> H -2.2217726488 -0.3741111179 0.6886192765
| 21> H -1.3086487515 0.808786618 1.6185106044
| 22> H -0.0892197138 -1.1375336105 -1.5042859406
| 23> H -1.1093011842 -2.1979130938 -0.5244670413
| 24> H 0.6503906816 -2.3567194321 -0.4803048903
| 25> H 2.028039212 -0.5583168638 0.9524486952
| 26> H 1.1739164525 0.9602124334 1.2879284584
| 27> H 1.0218549772 1.1430151279 -1.040106314
| 28> *
| 29>
| 30>                          ****END OF INPUT****

CARTESIAN COORDINATES (ANGSTROEM)
---------------------------------
  C     -1.470408    1.266555   -0.468001
  C     -1.334009    0.262186    0.672433
  C     -0.104749   -0.659421    0.613351
  H     -0.111275   -1.235731    1.545827
  C     -0.171812   -1.648503   -0.549080
  C      1.233360    0.104853    0.600044
  O      1.671806    0.529921   -0.671164
  H     -1.400766    0.775291   -1.434670
  H     -2.441407    1.753573   -0.409106
  H     -0.712256    2.043360   -0.399068
  H     -2.221773   -0.374111    0.688619
  H     -1.308649    0.808787    1.618511
  H     -0.089220   -1.137534   -1.504286
  H     -1.109301   -2.197913   -0.524467
  H      0.650391   -2.356719   -0.480305
  H      2.028039   -0.558317    0.952449
  H      1.173916    0.960212    1.287928
  H      1.021855    1.143015   -1.040106

 Total Charge           Charge          ....    0
 Multiplicity           Mult            ....    1
 Number of Electrons    NEL             ....   50
 Basis Dimension        Dim             ....  179

ORBITAL ENERGIES
----------------

  NO   OCC          E(Eh)            E(eV)
   0   2.0000     -18.949242      -515.6351
   1   2.0000     -10.064986      -273.8822
   2   2.0000     -10.024457      -272.7794
   3   2.0000     -10.016188      -272.5543
   4   2.0000     -10.010353      -272.3956
   5   2.0000     -10.006326      -272.2860
   6   2.0000      -0.985894       -26.8275
   7   2.0000      -0.763957       -20.7883
   8   2.0000      -0.691338       -18.8123
   9   2.0000      -0.638584       -17.3767
  10   2.0000      -0.591317       -16.0906
  11   2.0000      -0.519270       -14.1301
  12   2.0000      -0.459204       -12.4956
  13   2.0000      -0.434389       -11.8203
  14   2.0000      -0.414321       -11.2743
  15   2.0000      -0.398084       -10.8324
  16   2.0000      -0.373591       -10.1659
  17   2.0000      -0.347463        -9.4549
  18   2.0000      -0.344508        -9.3745
  19   2.0000      -0.329198        -8.9579
  20   2.0000      -0.323170        -8.7939
  21   2.0000      -0.289844        -7.8871
  22   2.0000      -0.282800        -7.6954
  23   2.0000      -0.267884        -7.2895
  24   2.0000      -0.236040        -6.4230
  25   0.0000       0.067499         1.8367
  26   0.0000       0.103586         2.8187
  27   0.0000       0.122329         3.3287
  28   0.0000       0.133595         3.6353
  29   0.0000       0.137900         3.7525

MULLIKEN ATOMIC CHARGES
-----------------------
   0 C :   -0.552103
   1 C :   -0.284852
   2 C :    0.022503
   3 H :    0.159233
   4 C :   -0.575558
   5 C :   -0.213930
   6 O :   -0.505548
   7 H :    0.176261
   8 H :    0.160685
   9 H :    0.158074
  10 H :    0.153516
  11 H :    0.157163
  12 H :    0.169434
  13 H :    0.158691
  14 H :    0.159640
  15 H :    0.154348
  16 H :    0.145499
  17 H :    0.356943
Sum of atomic charges:    0.0000000

LOEWDIN ATOMIC CHARGES
----------------------
   0 C :   -0.432659
   1 C :   -0.311163
   2 C :   -0.231567
   3 H :    0.168519
   4 C :   -0.420119
   5 C :    0.003386
   6 O :   -0.659382
   7 H :    0.155672
   8 H :    0.155828
   9 H :    0.152514
  10 H :    0.157260
  11 H :    0.157692
  12 H :    0.159053
  13 H :    0.156558
  14 H :    0.159149
  15 H :    0.182030
  16 H :    0.167706
  17 H :    0.279522

  Mayer bond orders larger than 0.100000
B(  0-C ,  1-C ) :   0.8490 B(  0-C ,  7-H ) :   0.9839 B(  0-C ,  8-H ) :   0.9608
B(  0-C ,  9-H ) :   0.9647 B(  1-C ,  2-C ) :   0.9103 B(  1-C , 10-H ) :   0.9872
B(  1-C , 11-H ) :   0.9754 B(  2-C ,  3-H ) :   0.9562 B(  2-C ,  4-C ) :   0.8939
B(  2-C ,  5-C ) :   0.8928 B(  4-C , 12-H ) :   0.9792 B(  4-C , 13-H ) :   0.9707
B(  4-C , 14-H ) :   0.9700 B(  5-C ,  6-O ) :   0.9469 B(  5-C , 15-H ) :   0.9689
B(  5-C , 16-H ) :   0.9776 B(  6-O , 17-H ) :   0.8530

Dispersion correction           -0.004577681
FINAL SINGLE POINT ENERGY      -272.901345070079

DIPOLE MOMENT
-------------

Method             : SCF
Type of density    : Electron Density
Multiplicity       :   1
Irrep              :   0
Energy             :  -272.9069396121864770 Eh
Relativity type    :
Basis              : AO
                                X                 Y                 Z
Electronic contribution:      3.387820610       0.561039183       0.132139089
Nuclear contribution   :     -4.216107472      -0.344966636       0.272732774
                        -----------------------------------------
Total Dipole Moment    :     -0.828286862       0.216072547       0.404871864
                        -----------------------------------------
Magnitude (a.u.)       :      0.946925392
Magnitude (Debye)      :      2.406893067

Rotational constants in cm-1:             0.133745             0.094562             0.075640
Rotational constants in MHz :          4009.577358          2834.889100          2267.617493

                             ****ORCA TERMINATED NORMALLY****
TOTAL RUN TIME: 0 days 0 hours 0 minutes 28 seconds 88 msec
