                         Program Version 6.0.0  -   RELEASE  -
|  1> ! r2scan-3c def2/J RI DEFGRID2 scfconv6 printgap
|  2> %output
|  3>     printlevel normal
|  4> end
|  5> %cpcm
|  6>     smd true
|  7>     smdsolvent "water"
|  8> end
|  9> * xyz 0 1
| 10> C 2.2045647721 0.8053215328 0.4396904148
| 11> C 1.41540193 -0.4467070847 0.069203164
| 12> C 0.3166579357 -0.1822948009 -0.9708671494
| 13> C -1.1079157335 -0.014410451 -0.4183673691
| 14> C -1.21460471 1.1149934479 0.6032387125
| 15> C -1.643935292 -1.3186542622 0.1706004696
| 16> H 2.6921980426 1.2193015828 -0.4405288718
| 17> H 1.557022121 1.5681849347 0.8617779409
| 18> H 2.9722329919 0.5639670856 1.1720484526
| 19> H 2.1147833603 -1.1829315248 -0.3329438823
| 20> H 0.9815664714 -0.8787098552 0.9712249858
| 21> H 0.5776604416 0.7160120815 -1.5348978893
| 22> H 0.291733378 -1.0111399148 -1.6822473472
| 23> H -1.743360347 0.246938579 -1.2739839255
| 24> H -2.2543216331 1.2657700894 0.8861322689
| 25> H -0.8363243746 2.0454116078 0.1861920069
| 26> H -0.6516295988 0.8780731363 1.5021641337
| 27> H -2.6833320736 -1.1973341457 0.467006142
| 28> H -1.5868960602 -2.1208430346 -0.5615631079
| 29> H -1.0758397983 -1.6151525654 1.0487852917
| 30> *
| 31>
| 32>                          ****END OF INPUT****

CARTESIAN COORDINATES (ANGSTROEM)
---------------------------------
  C      2.204565    0.805322    0.439690
  C      1.415402   -0.446707    0.069203
  C      0.316658   -0.182295   -0.970867
  C     -1.107916   -0.014410   -0.418367
  C     -1.214605    1.114993    0.603239
  C     -1.643935   -1.318654    0.170600
  H      2.692198    1.219302   -0.440529
  H      1.557022    1.568185    0.861778
  H      2.972233    0.563967    1.172048
  H      2.114783   -1.182932   -0.332944
  H      0.981566   -0.878710    0.971225
  H      0.577660    0.716012   -1.534898
  H      0.291733   -1.011140   -1.682247
  H     -1.743360    0.246939   -1.273984
  H     -2.254322    1.265770    0.886132
  H     -0.836324    2.045412    0.186192
  H     -0.651630    0.878073    1.502164
  H     -2.683332   -1.197334    0.467006
  H     -1.586896   -2.120843   -0.561563
  H     -1.075840   -1.615153    1.048785

 Total Charge           Charge          ....    0
 Multiplicity           Mult            ....    1
 Number of Electrons    NEL             ....   50
 Basis Dimension        Dim             ....  184

ORBITAL ENERGIES
----------------

  NO   OCC          E(Eh)            E(eV)
   0   2.0000     -10.022759      -272.7331
   1   2.0000     -10.013334      -272.4767
   2   2.0000     -10.010230      -272.3922
   3   2.0000     -10.005653      -272.2676
   4   2.0000     -10.004327      -272.2316
   5   2.0000     -10.004230      -272.2289
   6   2.0000      -0.770972       -20.9792
   7   2.0000      -0.716670       -19.5016
   8   2.0000      -0.641569       -17.4580
   9   2.0000      -0.634562       -17.2673
  10   2.0000      -0.559598       -15.2274
  11   2.0000      -0.499072       -13.5804
  12   2.0000      -0.435756       -11.8575
  13   2.0000      -0.408586       -11.1182
  14   2.0000      -0.397738       -10.8230
  15   2.0000      -0.374228       -10.1832
  16   2.0000      -0.367740       -10.0067
  17   2.0000      -0.346381        -9.4255
  18   2.0000      -0.336637        -9.1604
  19   2.0000      -0.317724        -8.6457
  20   2.0000      -0.308920        -8.4061
  21   2.0000      -0.300814        -8.1856
  22   2.0000      -0.277142        -7.5414
  23   2.0000      -0.269819        -7.3421
  24   2.0000      -0.265214        -7.2169
  25   0.0000       0.090638         2.4664
  26   0.0000       0.112168         3.0522
  27   0.0000       0.128181         3.4880
  28   0.0000       0.133679         3.6376
  29   0.0000       0.136219         3.7067

MULLIKEN ATOMIC CHARGES
-----------------------
   0 C :   -0.532346
   1 C :   -0.254276
   2 C :   -0.296527
   3 C :   -0.016094
   4 C :   -0.548668
   5 C :   -0.537150
   6 H :    0.156712
   7 H :    0.160777
   8 H :    0.152130
   9 H :    0.149853
  10 H :    0.152900
  11 H :    0.155007
  12 H :    0.154567
  13 H :    0.148650
  14 H :    0.155400
  15 H :    0.161300
  16 H :    0.166262
  17 H :    0.155679
  18 H :    0.155965
  19 H :    0.159858
Sum of atomic charges:    0.0000000

LOEWDIN ATOMIC CHARGES
----------------------
   0 C :   -0.434645
   1 C :   -0.322585
   2 C :   -0.310419
   3 C :   -0.244239
   4 C :   -0.427402
   5 C :   -0.428687
   6 H :    0.150819
   7 H :    0.152545
   8 H :    0.150999
   9 H :    0.154459
  10 H :    0.155458
  11 H :    0.159117
  12 H :    0.158543
  13 H :    0.156053
  14 H :    0.154486
  15 H :    0.155703
  16 H :    0.155831
  17 H :    0.155103
  18 H :    0.155203
  19 H :    0.153658

  Mayer bond orders larger than 0.100000
B(  0-C ,  1-C ) :   0.8863 B(  0-C ,  6-H ) :   0.9835 B(  0-C ,  7-H ) :   0.9749
B(  0-C ,  8-H ) :   0.9724 B(  1-C ,  2-C ) :   0.8301 B(  1-C ,  9-H ) :   0.9660
B(  1-C , 10-H ) :   0.9832 B(  2-C ,  3-C ) :   0.9018 B(  2-C , 11-H ) :   0.9807
B(  2-C , 12-H ) :   0.9807 B(  3-C ,  4-C ) :   0.8833 B(  3-C ,  5-C ) :   0.9303
B(  3-C , 13-H ) :   0.9687 B(  4-C , 14-H ) :   0.9686 B(  4-C , 15-H ) :   0.9717
B(  4-C , 16-H ) :   0.9755 B(  5-C , 17-H ) :   0.9716 B(  5-C , 18-H ) :   0.9728
B(  5-C , 19-H ) :   0.9770

Dispersion correction           -0.005179881
FINAL SINGLE POINT ENERGY      -236.980689587324

DIPOLE MOMENT
-------------

Method             : SCF
Type of density    : Electron Density
Multiplicity       :   1
Irrep              :   0
Energy             :  -236.9851250628329069 Eh
Relativity type    :
Basis              : AO
                                X                 Y                 Z
Electronic contribution:     -0.359457246      -0.484901244      -1.237217341
Nuclear contribution   :      0.333509657       0.466780269       1.190682452
                        -----------------------------------------
Total Dipole Moment    :     -0.025947590      -0.018120975      -0.046534889
                        -----------------------------------------
Magnitude (a.u.)       :      0.056277376
Magnitude (Debye)      :      0.143045722

Rotational constants in cm-1:             0.171730             0.073220             0.062692
Rotational constants in MHz :          5148.349164          2195.067544          1879.451660

                             ****ORCA TERMINATED NORMALLY****
TOTAL RUN TIME: 0 days 0 hours 0 minutes 20 seconds 145 msec
