                         Program Version 6.0.0  -   RELEASE  -
|  1> ! pbe def2-sv(p) def2/J RI DEFGRID1 loosescf d4 GCP(DFT/SV(P)) printgap
|  2> %output
|  3>     printlevel normal
|  4> end
|  5> * xyz 0 1
|  6> C -0.4867440487 1.9094334136 -1.225996556
|  7> N -0.1344458925 0.508710229 -1.087202239
|  8> C -1.2677357004 -0.3557187824 -0.9497044086
|  9> C -2.0425536427 -0.1928530108 0.3724730743
| 10> F -2.6003030877 -1.3514798704 0.780072861
| 11> F -1.2897226314 0.2404133671 1.3947565707
| 12> F -3.0611810777 0.6851386275 0.2717107524
| 13> C 1.0931487116 0.1385331611 -0.53384742
| 14> C 2.2496341897 0.86317759 -0.8410991268
| 15> C 3.4846576122 0.4744876382 -0.363127694
| 16> C 3.614055785 -0.6518750691 0.4319839039
| 17> C 2.4811673408 -1.3822526004 0.7393428311
| 18> C 1.2391121771 -0.9967401304 0.2685827761
| 19> H -0.8537390743 2.3341638521 -0.284113166
| 20> H -1.2681783172 2.0010435695 -1.9791694594
| 21> H 0.369489449 2.4886262584 -1.5506008501
| 22> H -1.9830845423 -0.1374870813 -1.7498240288
| 23> H -0.9611470088 -1.399952546 -1.0326923798
| 24> H 2.1963768542 1.732037189 -1.4758248168
| 25> H 4.3571234352 1.0561398202 -0.620910179
| 26> H 4.5801349926 -0.9537051065 0.8052953542
| 27> H 2.5559034654 -2.2618421774 1.3616571835
| 28> H 0.3870485446 -1.5904237589 0.5609013878
| 29> *
| 30>
| 31>                          ****END OF INPUT****

CARTESIAN COORDINATES (ANGSTROEM)
---------------------------------
  C     -0.486744    1.909433   -1.225997
  N     -0.134446    0.508710   -1.087202
  C     -1.267736   -0.355719   -0.949704
  C     -2.042554   -0.192853    0.372473
  F     -2.600303   -1.351480    0.780073
  F     -1.289723    0.240413    1.394757
  F     -3.061181    0.685139    0.271711
  C      1.093149    0.138533   -0.533847
  C      2.249634    0.863178   -0.841099
  C      3.484658    0.474488   -0.363128
  C      3.614056   -0.651875    0.431984
  C      2.481167   -1.382253    0.739343
  C      1.239112   -0.996740    0.268583
  H     -0.853739    2.334164   -0.284113
  H     -1.268178    2.001044   -1.979169
  H      0.369489    2.488626   -1.550601
  H     -1.983085   -0.137487   -1.749824
  H     -0.961147   -1.399953   -1.032692
  H      2.196377    1.732037   -1.475825
  H      4.357123    1.056140   -0.620910
  H      4.580135   -0.953705    0.805295
  H      2.555903   -2.261842    1.361657
  H      0.387049   -1.590424    0.560901

 Total Charge           Charge          ....    0
 Multiplicity           Mult            ....    1
 Number of Electrons    NEL             ....   98
 Basis Dimension        Dim             ....  202

ORBITAL ENERGIES
----------------

  NO   OCC          E(Eh)            E(eV)
   0   2.0000     -24.289777      -660.9584
   1   2.0000     -24.286356      -660.8654
   2   2.0000     -24.286070      -660.8576
   3   2.0000     -14.027395      -381.7048
   4   2.0000     -10.124477      -275.5010
   5   2.0000      -9.949545      -270.7409
   6   2.0000      -9.933160      -270.2950
   7   2.0000      -9.923911      -270.0433
   8   2.0000      -9.890253      -269.1275
   9   2.0000      -9.889539      -269.1080
  10   2.0000      -9.886465      -269.0244
  11   2.0000      -9.885860      -269.0079
  12   2.0000      -9.882675      -268.9212
  13   2.0000      -1.191378       -32.4190
  14   2.0000      -1.098755       -29.8986
  15   2.0000      -1.095770       -29.8174
  16   2.0000      -0.879355       -23.9285
  17   2.0000      -0.768856       -20.9216
  18   2.0000      -0.704129       -19.1603
  19   2.0000      -0.676887       -18.4190
  20   2.0000      -0.664611       -18.0850
  21   2.0000      -0.620264       -16.8782
  22   2.0000      -0.591863       -16.1054
  23   2.0000      -0.543952       -14.8017
  24   2.0000      -0.535140       -14.5619
  25   2.0000      -0.526310       -14.3216
  26   2.0000      -0.523774       -14.2526
  27   2.0000      -0.500426       -13.6173
  28   2.0000      -0.480451       -13.0737
  29   2.0000      -0.442465       -12.0401
  30   2.0000      -0.432706       -11.7745
  31   2.0000      -0.406119       -11.0511
  32   2.0000      -0.403502       -10.9798
  33   2.0000      -0.398063       -10.8319
  34   2.0000      -0.395263       -10.7557
  35   2.0000      -0.385300       -10.4845
  36   2.0000      -0.380243       -10.3469
  37   2.0000      -0.369185       -10.0460
  38   2.0000      -0.357292        -9.7224
  39   2.0000      -0.351905        -9.5758
  40   2.0000      -0.344142        -9.3646
  41   2.0000      -0.342210        -9.3120
  42   2.0000      -0.337745        -9.1905
  43   2.0000      -0.330704        -8.9989
  44   2.0000      -0.313803        -8.5390
  45   2.0000      -0.297390        -8.0924
  46   2.0000      -0.257715        -7.0128
  47   2.0000      -0.226119        -6.1530
  48   2.0000      -0.176743        -4.8094
  49   0.0000      -0.031882        -0.8675
  50   0.0000      -0.021021        -0.5720
  51   0.0000       0.030651         0.8341
  52   0.0000       0.043856         1.1934
  53   0.0000       0.056424         1.5354

MULLIKEN ATOMIC CHARGES
-----------------------
   0 C :   -0.181640
   1 N :   -0.243092
   2 C :   -0.130792
   3 C :    0.394625
   4 F :   -0.149389
   5 F :   -0.131240
   6 F :   -0.151215
   7 C :    0.254714
   8 C :   -0.155204
   9 C :   -0.059762
  10 C :   -0.046979
  11 C :   -0.062324
  12 C :   -0.161220
  13 H :    0.116170
  14 H :    0.109116
  15 H :    0.132066
  16 H :    0.121437
  17 H :    0.130867
  18 H :    0.034094
  19 H :    0.048792
  20 H :    0.046448
  21 H :    0.050022
  22 H :    0.034507
Sum of atomic charges:    0.0000000

LOEWDIN ATOMIC CHARGES
----------------------
   0 C :   -0.248909
   1 N :   -0.066505
   2 C :   -0.190571
   3 C :    0.104303
   4 F :   -0.054324
   5 F :   -0.036988
   6 F :   -0.056427
   7 C :    0.007706
   8 C :   -0.150817
   9 C :   -0.116968
  10 C :   -0.150033
  11 C :   -0.115275
  12 C :   -0.163706
  13 H :    0.109507
  14 H :    0.118806
  15 H :    0.123648
  16 H :    0.136286
  17 H :    0.140236
  18 H :    0.122214
  19 H :    0.122783
  20 H :    0.121503
  21 H :    0.123564
  22 H :    0.119966

  Mayer bond orders larger than 0.100000
B(  0-C ,  1-N ) :   1.0166 B(  0-C , 13-H ) :   0.9343 B(  0-C , 14-H ) :   0.9484
B(  0-C , 15-H ) :   0.9424 B(  1-N ,  2-C ) :   1.0920 B(  1-N ,  7-C ) :   1.0626
B(  2-C ,  3-C ) :   0.9991 B(  2-C , 16-H ) :   0.8989 B(  2-C , 17-H ) :   0.8947
B(  3-C ,  4-F ) :   1.1409 B(  3-C ,  5-F ) :   1.1705 B(  3-C ,  6-F ) :   1.1423
B(  7-C ,  8-C ) :   1.3293 B(  7-C , 12-C ) :   1.3267 B(  8-C ,  9-C ) :   1.4125
B(  8-C , 18-H ) :   0.9549 B(  9-C , 10-C ) :   1.3591 B(  9-C , 19-H ) :   0.9598
B( 10-C , 11-C ) :   1.3761 B( 10-C , 20-H ) :   0.9684 B( 11-C , 12-C ) :   1.3834
B( 11-C , 21-H ) :   0.9602 B( 12-C , 22-H ) :   0.9521

Dispersion correction           -0.025963172
FINAL SINGLE POINT ENERGY      -701.824470903416

DIPOLE MOMENT
-------------

Method             : SCF
Type of density    : Electron Density
Multiplicity       :   1
Irrep              :   0
Energy             :  -701.9185159871119595 Eh
Relativity type    :
Basis              : AO
                                X                 Y                 Z
Electronic contribution:    -15.247679639      -3.235074043       7.199980864
Nuclear contribution   :     15.239686123       3.463938609      -7.869208464
                        -----------------------------------------
Total Dipole Moment    :     -0.007993516       0.228864566      -0.669227601
                        -----------------------------------------
Magnitude (a.u.)       :      0.707324867
Magnitude (Debye)      :      1.797876933

Rotational constants in cm-1:             0.054916             0.016746             0.014141
Rotational constants in MHz :          1646.335797           502.024898           423.947435

                             ****ORCA TERMINATED NORMALLY****
TOTAL RUN TIME: 0 days 0 hours 0 minutes 15 seconds 190 msec
