                         Program Version 6.0.0  -   RELEASE  -
|  1> ! pbe def2-sv(p) def2/J RI DEFGRID1 loosescf d4 GCP(DFT/SV(P)) printgap
|  2> %output
|  3>     printlevel normal
|  4> end
|  5> * xyz 0 1
|  6> C 1.9586964535 -0.9520197406 -0.1049788945
|  7> C 1.8730100455 0.5690980608 -0.1555775537
|  8> C 0.5439035135 1.1302412238 0.3529682274
|  9> C -0.6584977399 0.7469828668 -0.5086167462
| 10> S -1.6808417123 -0.6031883956 0.1939901547
| 11> H 1.7468540261 -1.3125188391 0.8993187682
| 12> H 2.9580923812 -1.2794625516 -0.3813355808
| 13> H 1.2557188854 -1.406728717 -0.7989567942
| 14> H 2.0340680955 0.9075764945 -1.1816891543
| 15> H 2.6722081047 0.9888717449 0.4587465405
| 16> H 0.6200155284 2.2195314276 0.3713874245
| 17> H 0.3734272313 0.7983744701 1.3793585167
| 18> H -1.3654656428 1.5724541563 -0.5854167605
| 19> H -0.3609640154 0.448611133 -1.5126207362
| 20> H -0.7562540625 -1.5542510131 0.1395044793
| 21> *
| 22>
| 23>                          ****END OF INPUT****

CARTESIAN COORDINATES (ANGSTROEM)
---------------------------------
  C      1.958696   -0.952020   -0.104979
  C      1.873010    0.569098   -0.155578
  C      0.543904    1.130241    0.352968
  C     -0.658498    0.746983   -0.508617
  S     -1.680842   -0.603188    0.193990
  H      1.746854   -1.312519    0.899319
  H      2.958092   -1.279463   -0.381336
  H      1.255719   -1.406729   -0.798957
  H      2.034068    0.907576   -1.181689
  H      2.672208    0.988872    0.458747
  H      0.620016    2.219531    0.371387
  H      0.373427    0.798374    1.379359
  H     -1.365466    1.572454   -0.585417
  H     -0.360964    0.448611   -1.512621
  H     -0.756254   -1.554251    0.139504

 Total Charge           Charge          ....    0
 Multiplicity           Mult            ....    1
 Number of Electrons    NEL             ....   50
 Basis Dimension        Dim             ....   94

ORBITAL ENERGIES
----------------

  NO   OCC          E(Eh)            E(eV)
   0   2.0000     -88.010417     -2394.8852
   1   2.0000      -9.915989      -269.8278
   2   2.0000      -9.889541      -269.1081
   3   2.0000      -9.888587      -269.0821
   4   2.0000      -9.879621      -268.8382
   5   2.0000      -7.656890      -208.3546
   6   2.0000      -5.685363      -154.7066
   7   2.0000      -5.681390      -154.5985
   8   2.0000      -5.673002      -154.3702
   9   2.0000      -0.737936       -20.0803
  10   2.0000      -0.686020       -18.6676
  11   2.0000      -0.625584       -17.0230
  12   2.0000      -0.558700       -15.2030
  13   2.0000      -0.512244       -13.9389
  14   2.0000      -0.432854       -11.7786
  15   2.0000      -0.410580       -11.1724
  16   2.0000      -0.388084       -10.5603
  17   2.0000      -0.362787        -9.8719
  18   2.0000      -0.350585        -9.5399
  19   2.0000      -0.334042        -9.0898
  20   2.0000      -0.317293        -8.6340
  21   2.0000      -0.293651        -7.9907
  22   2.0000      -0.288099        -7.8396
  23   2.0000      -0.271248        -7.3810
  24   2.0000      -0.191127        -5.2008
  25   0.0000       0.007767         0.2113
  26   0.0000       0.038395         1.0448
  27   0.0000       0.043244         1.1767
  28   0.0000       0.064523         1.7558
  29   0.0000       0.071453         1.9443

MULLIKEN ATOMIC CHARGES
-----------------------
   0 C :   -0.302995
   1 C :   -0.193957
   2 C :   -0.129164
   3 C :   -0.293348
   4 S :   -0.196113
   5 H :    0.106065
   6 H :    0.107421
   7 H :    0.109028
   8 H :    0.090377
   9 H :    0.090765
  10 H :    0.088802
  11 H :    0.098759
  12 H :    0.136303
  13 H :    0.135940
  14 H :    0.152118
Sum of atomic charges:    0.0000000

LOEWDIN ATOMIC CHARGES
----------------------
   0 C :   -0.347310
   1 C :   -0.233486
   2 C :   -0.249667
   3 C :   -0.334542
   4 S :    0.015089
   5 H :    0.118382
   6 H :    0.122086
   7 H :    0.113138
   8 H :    0.114206
   9 H :    0.118012
  10 H :    0.120748
  11 H :    0.116621
  12 H :    0.129622
  13 H :    0.121441
  14 H :    0.075660

  Mayer bond orders larger than 0.100000
B(  0-C ,  1-C ) :   1.1507 B(  0-C ,  5-H ) :   0.9521 B(  0-C ,  6-H ) :   0.9486
B(  0-C ,  7-H ) :   0.9421 B(  1-C ,  2-C ) :   1.1331 B(  1-C ,  8-H ) :   0.9269
B(  1-C ,  9-H ) :   0.9276 B(  2-C ,  3-C ) :   1.0509 B(  2-C , 10-H ) :   0.9184
B(  2-C , 11-H ) :   0.9241 B(  3-C ,  4-S ) :   1.0784 B(  3-C , 12-H ) :   0.9309
B(  3-C , 13-H ) :   0.9276 B(  4-S , 14-H ) :   0.8960

Dispersion correction           -0.011662328
FINAL SINGLE POINT ENERGY      -555.908559167039

DIPOLE MOMENT
-------------

Method             : SCF
Type of density    : Electron Density
Multiplicity       :   1
Irrep              :   0
Energy             :  -555.9603450873137263 Eh
Relativity type    :
Basis              : AO
                                X                 Y                 Z
Electronic contribution:     -8.034372406      -1.120149914       0.936657027
Nuclear contribution   :      8.657968595       1.314102737      -1.142292169
                        -----------------------------------------
Total Dipole Moment    :      0.623596189       0.193952823      -0.205635142
                        -----------------------------------------
Magnitude (a.u.)       :      0.684671977
Magnitude (Debye)      :      1.740297862

Rotational constants in cm-1:             0.218802             0.072450             0.059664
Rotational constants in MHz :          6559.518698          2172.009807          1788.691333

                             ****ORCA TERMINATED NORMALLY****
TOTAL RUN TIME: 0 days 0 hours 0 minutes 5 seconds 637 msec
