                         Program Version 6.0.0  -   RELEASE  -
|  1> ! pbe def2-sv(p) def2/J RI DEFGRID1 loosescf d4 GCP(DFT/SV(P)) printgap
|  2> %output
|  3>     printlevel normal
|  4> end
|  5> * xyz 0 1
|  6> C -2.4365974742 1.0503612986 -0.2479601334
|  7> C -1.8022078405 -0.0767349667 0.5653346913
|  8> C -0.4428303631 -0.4636887322 0.0396908321
|  9> O -0.1036760136 -1.602811586 -0.2108271355
| 10> O 0.3482508727 0.5885073195 -0.1152111226
| 11> C 1.689560272 0.3770448024 -0.5835428066
| 12> C 2.6362422673 0.1097739613 0.5766503467
| 13> H -2.5876467154 0.7375650049 -1.2780898751
| 14> H -3.3996172685 1.3121130299 0.1800961294
| 15> H -1.7957294067 1.9271390105 -0.2401331699
| 16> H -2.4290471973 -0.9683735497 0.5579927948
| 17> H -1.6683699841 0.2506720918 1.5981623792
| 18> H 1.6879404157 -0.4654213056 -1.2819267857
| 19> H 1.9495187337 1.2999033693 -1.1029825765
| 20> H 2.5838337079 0.9220995741 1.2965488423
| 21> H 2.3660544539 -0.8206634805 1.0712769432
| 22> H 3.6510956304 0.0278246745 0.2016244663
| 23> *
| 24>
| 25>                          ****END OF INPUT****

CARTESIAN COORDINATES (ANGSTROEM)
---------------------------------
  C     -2.436597    1.050361   -0.247960
  C     -1.802208   -0.076735    0.565335
  C     -0.442830   -0.463689    0.039691
  O     -0.103676   -1.602812   -0.210827
  O      0.348251    0.588507   -0.115211
  C      1.689560    0.377045   -0.583543
  C      2.636242    0.109774    0.576650
  H     -2.587647    0.737565   -1.278090
  H     -3.399617    1.312113    0.180096
  H     -1.795729    1.927139   -0.240133
  H     -2.429047   -0.968374    0.557993
  H     -1.668370    0.250672    1.598162
  H      1.687940   -0.465421   -1.281927
  H      1.949519    1.299903   -1.102983
  H      2.583834    0.922100    1.296549
  H      2.366054   -0.820663    1.071277
  H      3.651096    0.027825    0.201624

 Total Charge           Charge          ....    0
 Multiplicity           Mult            ....    1
 Number of Electrons    NEL             ....   56
 Basis Dimension        Dim             ....  118

ORBITAL ENERGIES
----------------

  NO   OCC          E(Eh)            E(eV)
   0   2.0000     -18.797628      -511.5094
   1   2.0000     -18.729525      -509.6563
   2   2.0000     -10.004489      -272.2360
   3   2.0000      -9.946709      -270.6637
   4   2.0000      -9.898918      -269.3632
   5   2.0000      -9.887080      -269.0411
   6   2.0000      -9.884591      -268.9734
   7   2.0000      -1.004525       -27.3345
   8   2.0000      -0.906785       -24.6749
   9   2.0000      -0.721849       -19.6425
  10   2.0000      -0.685054       -18.6413
  11   2.0000      -0.604680       -16.4542
  12   2.0000      -0.566541       -15.4164
  13   2.0000      -0.497365       -13.5340
  14   2.0000      -0.453027       -12.3275
  15   2.0000      -0.427262       -11.6264
  16   2.0000      -0.416186       -11.3250
  17   2.0000      -0.394964       -10.7475
  18   2.0000      -0.383853       -10.4452
  19   2.0000      -0.369253       -10.0479
  20   2.0000      -0.347507        -9.4561
  21   2.0000      -0.340990        -9.2788
  22   2.0000      -0.328293        -8.9333
  23   2.0000      -0.317417        -8.6374
  24   2.0000      -0.307951        -8.3798
  25   2.0000      -0.290004        -7.8914
  26   2.0000      -0.255275        -6.9464
  27   2.0000      -0.213573        -5.8116
  28   0.0000      -0.019086        -0.5194
  29   0.0000       0.044482         1.2104
  30   0.0000       0.055177         1.5014
  31   0.0000       0.078592         2.1386
  32   0.0000       0.089160         2.4262

MULLIKEN ATOMIC CHARGES
-----------------------
   0 C :   -0.297555
   1 C :   -0.150110
   2 C :    0.100319
   3 O :   -0.207231
   4 O :   -0.242196
   5 C :   -0.012848
   6 C :   -0.303007
   7 H :    0.110088
   8 H :    0.109043
   9 H :    0.118739
  10 H :    0.104175
  11 H :    0.112198
  12 H :    0.107906
  13 H :    0.100414
  14 H :    0.112099
  15 H :    0.125934
  16 H :    0.112033
Sum of atomic charges:   -0.0000000

LOEWDIN ATOMIC CHARGES
----------------------
   0 C :   -0.337740
   1 C :   -0.250767
   2 C :    0.035027
   3 O :   -0.171912
   4 O :   -0.067213
   5 C :   -0.112926
   6 C :   -0.355938
   7 H :    0.122585
   8 H :    0.122178
   9 H :    0.123633
  10 H :    0.133742
  11 H :    0.139461
  12 H :    0.119485
  13 H :    0.116148
  14 H :    0.123816
  15 H :    0.130359
  16 H :    0.130063

  Mayer bond orders larger than 0.100000
B(  0-C ,  1-C ) :   1.1353 B(  0-C ,  7-H ) :   0.9578 B(  0-C ,  8-H ) :   0.9508
B(  0-C ,  9-H ) :   0.9495 B(  1-C ,  2-C ) :   1.0346 B(  1-C , 10-H ) :   0.9168
B(  1-C , 11-H ) :   0.8999 B(  2-C ,  3-O ) :   2.0572 B(  2-C ,  4-O ) :   1.1936
B(  4-O ,  5-C ) :   0.9230 B(  5-C ,  6-C ) :   1.1746 B(  5-C , 12-H ) :   0.9121
B(  5-C , 13-H ) :   0.9367 B(  6-C , 14-H ) :   0.9494 B(  6-C , 15-H ) :   0.9465
B(  6-C , 16-H ) :   0.9446

Dispersion correction           -0.012038554
FINAL SINGLE POINT ENERGY      -346.244376568459

DIPOLE MOMENT
-------------

Method             : SCF
Type of density    : Electron Density
Multiplicity       :   1
Irrep              :   0
Energy             :  -346.3090995452109837 Eh
Relativity type    :
Basis              : AO
                                X                 Y                 Z
Electronic contribution:     -0.181281539      -3.206397693      -0.831572565
Nuclear contribution   :      0.339520332       3.946709031       0.935743597
                        -----------------------------------------
Total Dipole Moment    :      0.158238792       0.740311339       0.104171032
                        -----------------------------------------
Magnitude (a.u.)       :      0.764167519
Magnitude (Debye)      :      1.942359472

Rotational constants in cm-1:             0.172313             0.052628             0.045491
Rotational constants in MHz :          5165.810921          1577.738014          1363.773603

                             ****ORCA TERMINATED NORMALLY****
TOTAL RUN TIME: 0 days 0 hours 0 minutes 8 seconds 683 msec
