                         Program Version 6.0.0  -   RELEASE  -
|  1> ! r2scan-3c def2/J RI DEFGRID2 scfconv6 printgap
|  2> %output
|  3>     printlevel normal
|  4> end
|  5> * xyz 0 1
|  6> C 2.1235913947 0.5599240798 -0.9658843726
|  7> C 1.6125672184 -0.6273628893 -0.1564724301
|  8> C 0.2951442808 -0.3856503856 0.6041095471
|  9> H 0.2502629816 -1.1608104435 1.3905898104
| 10> C -0.987815328 -0.5607839634 -0.2441910559
| 11> C -2.2133562334 -0.6352152118 0.6716008113
| 12> C -1.1831205586 0.5516767909 -1.272998908
| 13> O 0.3706625235 0.8855089857 1.2221463259
| 14> H 2.115947811 1.4534996534 -0.3481517956
| 15> H 1.5162263642 0.7412616237 -1.8459103187
| 16> H 3.143940331 0.3665934973 -1.2884232347
| 17> H 1.4855330284 -1.4993281911 -0.7993791998
| 18> H 2.3711009472 -0.869934065 0.5911100816
| 19> H -0.8931867349 -1.5211963542 -0.761316627
| 20> H -3.0903766737 -0.918611086 0.0950397025
| 21> H -2.0692322775 -1.3750323788 1.4565728762
| 22> H -2.413225253 0.3312200409 1.1292572699
| 23> H -0.949871525 1.516148542 -0.8279855227
| 24> H -2.2150609513 0.5661153739 -1.6156264839
| 25> H -0.5445374408 0.4042544303 -2.1381515116
| 26> H -0.3848937435 0.9869504341 1.814672969
| 27> *
| 28>
| 29>                          ****END OF INPUT****

CARTESIAN COORDINATES (ANGSTROEM)
---------------------------------
  C      2.123591    0.559924   -0.965884
  C      1.612567   -0.627363   -0.156472
  C      0.295144   -0.385650    0.604110
  H      0.250263   -1.160810    1.390590
  C     -0.987815   -0.560784   -0.244191
  C     -2.213356   -0.635215    0.671601
  C     -1.183121    0.551677   -1.272999
  O      0.370663    0.885509    1.222146
  H      2.115948    1.453500   -0.348152
  H      1.516226    0.741262   -1.845910
  H      3.143940    0.366593   -1.288423
  H      1.485533   -1.499328   -0.799379
  H      2.371101   -0.869934    0.591110
  H     -0.893187   -1.521196   -0.761317
  H     -3.090377   -0.918611    0.095040
  H     -2.069232   -1.375032    1.456573
  H     -2.413225    0.331220    1.129257
  H     -0.949872    1.516149   -0.827986
  H     -2.215061    0.566115   -1.615626
  H     -0.544537    0.404254   -2.138152
  H     -0.384894    0.986950    1.814673

 Total Charge           Charge          ....    0
 Multiplicity           Mult            ....    1
 Number of Electrons    NEL             ....   58
 Basis Dimension        Dim             ....  208

ORBITAL ENERGIES
----------------

  NO   OCC          E(Eh)            E(eV)
   0   2.0000     -18.947657      -515.5920
   1   2.0000     -10.077022      -274.2097
   2   2.0000     -10.033678      -273.0302
   3   2.0000     -10.022540      -272.7272
   4   2.0000     -10.022282      -272.7201
   5   2.0000     -10.011483      -272.4263
   6   2.0000     -10.006585      -272.2930
   7   2.0000      -0.986469       -26.8432
   8   2.0000      -0.770001       -20.9528
   9   2.0000      -0.727431       -19.7944
  10   2.0000      -0.651597       -17.7309
  11   2.0000      -0.640550       -17.4303
  12   2.0000      -0.559052       -15.2126
  13   2.0000      -0.528455       -14.3800
  14   2.0000      -0.470889       -12.8135
  15   2.0000      -0.439820       -11.9681
  16   2.0000      -0.427165       -11.6238
  17   2.0000      -0.390295       -10.6205
  18   2.0000      -0.389397       -10.5960
  19   2.0000      -0.365185        -9.9372
  20   2.0000      -0.353749        -9.6260
  21   2.0000      -0.344160        -9.3651
  22   2.0000      -0.338999        -9.2246
  23   2.0000      -0.312499        -8.5035
  24   2.0000      -0.310206        -8.4411
  25   2.0000      -0.299910        -8.1610
  26   2.0000      -0.294182        -8.0051
  27   2.0000      -0.271440        -7.3863
  28   2.0000      -0.232160        -6.3174
  29   0.0000       0.050663         1.3786
  30   0.0000       0.094323         2.5667
  31   0.0000       0.111880         3.0444
  32   0.0000       0.117220         3.1897
  33   0.0000       0.127020         3.4564

MULLIKEN ATOMIC CHARGES
-----------------------
   0 C :   -0.484506
   1 C :   -0.287119
   2 C :    0.062450
   3 H :    0.131471
   4 C :    0.012042
   5 C :   -0.536151
   6 C :   -0.560395
   7 O :   -0.444940
   8 H :    0.177661
   9 H :    0.135541
  10 H :    0.142952
  11 H :    0.133146
  12 H :    0.149129
  13 H :    0.148987
  14 H :    0.156498
  15 H :    0.150990
  16 H :    0.142649
  17 H :    0.187802
  18 H :    0.141242
  19 H :    0.147454
  20 H :    0.293096
Sum of atomic charges:   -0.0000000

LOEWDIN ATOMIC CHARGES
----------------------
   0 C :   -0.413860
   1 C :   -0.277147
   2 C :    0.059860
   3 H :    0.166606
   4 C :   -0.227894
   5 C :   -0.420008
   6 C :   -0.410560
   7 O :   -0.624645
   8 H :    0.169213
   9 H :    0.148481
  10 H :    0.148330
  11 H :    0.158240
  12 H :    0.159806
  13 H :    0.160754
  14 H :    0.156652
  15 H :    0.154091
  16 H :    0.149514
  17 H :    0.168031
  18 H :    0.152225
  19 H :    0.152660
  20 H :    0.269650

  Mayer bond orders larger than 0.100000
B(  0-C ,  1-C ) :   0.9073 B(  0-C ,  8-H ) :   0.9825 B(  0-C ,  9-H ) :   0.9671
B(  0-C , 10-H ) :   0.9768 B(  1-C ,  2-C ) :   0.9569 B(  1-C , 11-H ) :   0.9786
B(  1-C , 12-H ) :   0.9691 B(  2-C ,  3-H ) :   0.9654 B(  2-C ,  4-C ) :   0.8809
B(  2-C ,  7-O ) :   0.8551 B(  4-C ,  5-C ) :   0.8868 B(  4-C ,  6-C ) :   0.8456
B(  4-C , 13-H ) :   0.9643 B(  5-C , 14-H ) :   0.9727 B(  5-C , 15-H ) :   0.9776
B(  5-C , 16-H ) :   0.9867 B(  6-C , 17-H ) :   0.9835 B(  6-C , 18-H ) :   0.9711
B(  6-C , 19-H ) :   0.9726 B(  7-O , 20-H ) :   0.8966

Dispersion correction           -0.005788708
FINAL SINGLE POINT ENERGY      -312.197859660408

DIPOLE MOMENT
-------------

Method             : SCF
Type of density    : Electron Density
Multiplicity       :   1
Irrep              :   0
Energy             :  -312.2034689502972924 Eh
Relativity type    :
Basis              : AO
                                X                 Y                 Z
Electronic contribution:      1.151641722       0.527431286       3.023723027
Nuclear contribution   :     -1.568149413      -0.905197502      -2.934921661
                        -----------------------------------------
Total Dipole Moment    :     -0.416507691      -0.377766216       0.088801366
                        -----------------------------------------
Magnitude (a.u.)       :      0.569272916
Magnitude (Debye)      :      1.446976760

Rotational constants in cm-1:             0.127040             0.059724             0.052573
Rotational constants in MHz :          3808.572349          1790.477283          1576.110567

                             ****ORCA TERMINATED NORMALLY****
TOTAL RUN TIME: 0 days 0 hours 0 minutes 27 seconds 889 msec
