                         Program Version 6.0.0  -   RELEASE  -
|  1> ! r2scan-3c def2/J RI DEFGRID2 scfconv6 printgap
|  2> %output
|  3>     printlevel normal
|  4> end
|  5> %cpcm
|  6>     smd true
|  7>     smdsolvent "water"
|  8> end
|  9> * xyz 0 1
| 10> C 2.1235913947 0.5599240798 -0.9658843726
| 11> C 1.6125672184 -0.6273628893 -0.1564724301
| 12> C 0.2951442808 -0.3856503856 0.6041095471
| 13> H 0.2502629816 -1.1608104435 1.3905898104
| 14> C -0.987815328 -0.5607839634 -0.2441910559
| 15> C -2.2133562334 -0.6352152118 0.6716008113
| 16> C -1.1831205586 0.5516767909 -1.272998908
| 17> O 0.3706625235 0.8855089857 1.2221463259
| 18> H 2.115947811 1.4534996534 -0.3481517956
| 19> H 1.5162263642 0.7412616237 -1.8459103187
| 20> H 3.143940331 0.3665934973 -1.2884232347
| 21> H 1.4855330284 -1.4993281911 -0.7993791998
| 22> H 2.3711009472 -0.869934065 0.5911100816
| 23> H -0.8931867349 -1.5211963542 -0.761316627
| 24> H -3.0903766737 -0.918611086 0.0950397025
| 25> H -2.0692322775 -1.3750323788 1.4565728762
| 26> H -2.413225253 0.3312200409 1.1292572699
| 27> H -0.949871525 1.516148542 -0.8279855227
| 28> H -2.2150609513 0.5661153739 -1.6156264839
| 29> H -0.5445374408 0.4042544303 -2.1381515116
| 30> H -0.3848937435 0.9869504341 1.814672969
| 31> *
| 32>
| 33>                          ****END OF INPUT****

CARTESIAN COORDINATES (ANGSTROEM)
---------------------------------
  C      2.123591    0.559924   -0.965884
  C      1.612567   -0.627363   -0.156472
  C      0.295144   -0.385650    0.604110
  H      0.250263   -1.160810    1.390590
  C     -0.987815   -0.560784   -0.244191
  C     -2.213356   -0.635215    0.671601
  C     -1.183121    0.551677   -1.272999
  O      0.370663    0.885509    1.222146
  H      2.115948    1.453500   -0.348152
  H      1.516226    0.741262   -1.845910
  H      3.143940    0.366593   -1.288423
  H      1.485533   -1.499328   -0.799379
  H      2.371101   -0.869934    0.591110
  H     -0.893187   -1.521196   -0.761317
  H     -3.090377   -0.918611    0.095040
  H     -2.069232   -1.375032    1.456573
  H     -2.413225    0.331220    1.129257
  H     -0.949872    1.516149   -0.827986
  H     -2.215061    0.566115   -1.615626
  H     -0.544537    0.404254   -2.138152
  H     -0.384894    0.986950    1.814673

 Total Charge           Charge          ....    0
 Multiplicity           Mult            ....    1
 Number of Electrons    NEL             ....   58
 Basis Dimension        Dim             ....  208

ORBITAL ENERGIES
----------------

  NO   OCC          E(Eh)            E(eV)
   0   2.0000     -18.948570      -515.6168
   1   2.0000     -10.071065      -274.0476
   2   2.0000     -10.024294      -272.7749
   3   2.0000     -10.017539      -272.5911
   4   2.0000     -10.007784      -272.3256
   5   2.0000     -10.006041      -272.2782
   6   2.0000     -10.005036      -272.2509
   7   2.0000      -0.986454       -26.8428
   8   2.0000      -0.762072       -20.7370
   9   2.0000      -0.722691       -19.6654
  10   2.0000      -0.643333       -17.5060
  11   2.0000      -0.635205       -17.2848
  12   2.0000      -0.553462       -15.0605
  13   2.0000      -0.523287       -14.2394
  14   2.0000      -0.465161       -12.6577
  15   2.0000      -0.433051       -11.7839
  16   2.0000      -0.420501       -11.4424
  17   2.0000      -0.389266       -10.5925
  18   2.0000      -0.380370       -10.3504
  19   2.0000      -0.357470        -9.7272
  20   2.0000      -0.347203        -9.4479
  21   2.0000      -0.340343        -9.2612
  22   2.0000      -0.334210        -9.0943
  23   2.0000      -0.311432        -8.4745
  24   2.0000      -0.301516        -8.2047
  25   2.0000      -0.295640        -8.0448
  26   2.0000      -0.287982        -7.8364
  27   2.0000      -0.266515        -7.2522
  28   2.0000      -0.232263        -6.3202
  29   0.0000       0.065491         1.7821
  30   0.0000       0.105952         2.8831
  31   0.0000       0.119204         3.2437
  32   0.0000       0.125616         3.4182
  33   0.0000       0.134849         3.6694

MULLIKEN ATOMIC CHARGES
-----------------------
   0 C :   -0.528307
   1 C :   -0.302891
   2 C :    0.068903
   3 H :    0.144809
   4 C :    0.022872
   5 C :   -0.563202
   6 C :   -0.605125
   7 O :   -0.524201
   8 H :    0.167801
   9 H :    0.155450
  10 H :    0.157437
  11 H :    0.152905
  12 H :    0.161268
  13 H :    0.162146
  14 H :    0.165457
  15 H :    0.159614
  16 H :    0.161262
  17 H :    0.177905
  18 H :    0.155364
  19 H :    0.164369
  20 H :    0.346162
Sum of atomic charges:    0.0000000

LOEWDIN ATOMIC CHARGES
----------------------
   0 C :   -0.423872
   1 C :   -0.280980
   2 C :    0.060693
   3 H :    0.174214
   4 C :   -0.223575
   5 C :   -0.424517
   6 C :   -0.418657
   7 O :   -0.656930
   8 H :    0.162212
   9 H :    0.153237
  10 H :    0.152573
  11 H :    0.165394
  12 H :    0.160784
  13 H :    0.165806
  14 H :    0.157668
  15 H :    0.157497
  16 H :    0.156558
  17 H :    0.162906
  18 H :    0.156211
  19 H :    0.156144
  20 H :    0.286636

  Mayer bond orders larger than 0.100000
B(  0-C ,  1-C ) :   0.8782 B(  0-C ,  8-H ) :   0.9855 B(  0-C ,  9-H ) :   0.9682
B(  0-C , 10-H ) :   0.9722 B(  1-C ,  2-C ) :   0.9447 B(  1-C , 11-H ) :   0.9744
B(  1-C , 12-H ) :   0.9738 B(  2-C ,  3-H ) :   0.9613 B(  2-C ,  4-C ) :   0.8943
B(  2-C ,  7-O ) :   0.8471 B(  4-C ,  5-C ) :   0.8892 B(  4-C ,  6-C ) :   0.8279
B(  4-C , 13-H ) :   0.9643 B(  5-C , 14-H ) :   0.9719 B(  5-C , 15-H ) :   0.9735
B(  5-C , 16-H ) :   0.9799 B(  6-C , 17-H ) :   0.9856 B(  6-C , 18-H ) :   0.9689
B(  6-C , 19-H ) :   0.9714 B(  7-O , 20-H ) :   0.8718

Dispersion correction           -0.005788708
FINAL SINGLE POINT ENERGY      -312.202350366367

DIPOLE MOMENT
-------------

Method             : SCF
Type of density    : Electron Density
Multiplicity       :   1
Irrep              :   0
Energy             :  -312.2079596562568327 Eh
Relativity type    :
Basis              : AO
                                X                 Y                 Z
Electronic contribution:      0.962760820       0.290972667       3.049013392
Nuclear contribution   :     -1.568149413      -0.905197502      -2.934921661
                        -----------------------------------------
Total Dipole Moment    :     -0.605388593      -0.614224835       0.114091731
                        -----------------------------------------
Magnitude (a.u.)       :      0.869933572
Magnitude (Debye)      :      2.211195413

Rotational constants in cm-1:             0.127040             0.059724             0.052573
Rotational constants in MHz :          3808.572349          1790.477283          1576.110567

                             ****ORCA TERMINATED NORMALLY****
TOTAL RUN TIME: 0 days 0 hours 0 minutes 32 seconds 669 msec
