                         Program Version 6.0.0  -   RELEASE  -
|  1> ! r2scan-3c def2/J RI DEFGRID2 scfconv6 printgap
|  2> %output
|  3>     printlevel normal
|  4> end
|  5> * xyz 0 1
|  6> C 1.6499851974 -0.9713049669 -0.0479426568
|  7> C 1.3529287821 0.5074925534 0.168681266
|  8> C -0.0328328074 0.8929372994 -0.3604448451
|  9> C -1.1254564392 0.2151317518 0.4025338819
| 10> C -2.0468886435 -0.5636740956 -0.1325924036
| 11> H 1.6277901535 -1.2114847605 -1.108568741
| 12> H 0.9066688817 -1.5850674635 0.4560901229
| 13> H 2.6325677884 -1.2252023111 0.3423766412
| 14> H 1.407249905 0.7373060657 1.2350942968
| 15> H 2.1086380699 1.108204679 -0.3415324978
| 16> H -0.1057201101 0.6367930689 -1.4189751899
| 17> H -0.1564591521 1.975276296 -0.2617335096
| 18> H -1.1218925103 0.3986381624 1.4698621192
| 19> H -2.8172386118 -1.029509991 0.4582662974
| 20> H -2.0714047952 -0.7651844246 -1.1911661057
| 21> *
| 22>
| 23>                          ****END OF INPUT****

CARTESIAN COORDINATES (ANGSTROEM)
---------------------------------
  C      1.649985   -0.971305   -0.047943
  C      1.352929    0.507493    0.168681
  C     -0.032833    0.892937   -0.360445
  C     -1.125456    0.215132    0.402534
  C     -2.046889   -0.563674   -0.132592
  H      1.627790   -1.211485   -1.108569
  H      0.906669   -1.585067    0.456090
  H      2.632568   -1.225202    0.342377
  H      1.407250    0.737306    1.235094
  H      2.108638    1.108205   -0.341532
  H     -0.105720    0.636793   -1.418975
  H     -0.156459    1.975276   -0.261734
  H     -1.121893    0.398638    1.469862
  H     -2.817239   -1.029510    0.458266
  H     -2.071405   -0.765184   -1.191166

 Total Charge           Charge          ....    0
 Multiplicity           Mult            ....    1
 Number of Electrons    NEL             ....   40
 Basis Dimension        Dim             ....  145

ORBITAL ENERGIES
----------------

  NO   OCC          E(Eh)            E(eV)
   0   2.0000     -10.032344      -272.9940
   1   2.0000     -10.029572      -272.9185
   2   2.0000     -10.028121      -272.8791
   3   2.0000     -10.016703      -272.5684
   4   2.0000     -10.013031      -272.4684
   5   2.0000      -0.776813       -21.1381
   6   2.0000      -0.718238       -19.5443
   7   2.0000      -0.645855       -17.5746
   8   2.0000      -0.560779       -15.2596
   9   2.0000      -0.520848       -14.1730
  10   2.0000      -0.432251       -11.7621
  11   2.0000      -0.425731       -11.5847
  12   2.0000      -0.410942       -11.1823
  13   2.0000      -0.374045       -10.1783
  14   2.0000      -0.355121        -9.6633
  15   2.0000      -0.322094        -8.7646
  16   2.0000      -0.316376        -8.6090
  17   2.0000      -0.303140        -8.2489
  18   2.0000      -0.293971        -7.9993
  19   2.0000      -0.235219        -6.4006
  20   0.0000      -0.012010        -0.3268
  21   0.0000       0.094784         2.5792
  22   0.0000       0.123892         3.3713
  23   0.0000       0.126751         3.4491
  24   0.0000       0.129624         3.5273

MULLIKEN ATOMIC CHARGES
-----------------------
   0 C :   -0.479336
   1 C :   -0.230942
   2 C :   -0.261923
   3 C :   -0.110039
   4 C :   -0.367370
   5 H :    0.140900
   6 H :    0.160084
   7 H :    0.143581
   8 H :    0.135985
   9 H :    0.141432
  10 H :    0.143104
  11 H :    0.151681
  12 H :    0.151134
  13 H :    0.140937
  14 H :    0.140773
Sum of atomic charges:   -0.0000000

LOEWDIN ATOMIC CHARGES
----------------------
   0 C :   -0.423279
   1 C :   -0.310955
   2 C :   -0.301592
   3 C :   -0.197672
   4 C :   -0.320181
   5 H :    0.150000
   6 H :    0.156818
   7 H :    0.149808
   8 H :    0.151558
   9 H :    0.151814
  10 H :    0.158649
  11 H :    0.163581
  12 H :    0.160490
  13 H :    0.156184
  14 H :    0.154779

  Mayer bond orders larger than 0.100000
B(  0-C ,  1-C ) :   0.9049 B(  0-C ,  5-H ) :   0.9803 B(  0-C ,  6-H ) :   0.9768
B(  0-C ,  7-H ) :   0.9685 B(  1-C ,  2-C ) :   0.8779 B(  1-C ,  8-H ) :   0.9809
B(  1-C ,  9-H ) :   0.9667 B(  2-C ,  3-C ) :   0.9246 B(  2-C , 10-H ) :   1.0029
B(  2-C , 11-H ) :   0.9594 B(  3-C ,  4-C ) :   1.9262 B(  3-C , 12-H ) :   0.9252
B(  4-C , 13-H ) :   0.9622 B(  4-C , 14-H ) :   0.9890

Dispersion correction           -0.003378808
FINAL SINGLE POINT ENERGY      -196.458470266778

DIPOLE MOMENT
-------------

Method             : SCF
Type of density    : Electron Density
Multiplicity       :   1
Irrep              :   0
Energy             :  -196.4608981023212948 Eh
Relativity type    :
Basis              : AO
                                X                 Y                 Z
Electronic contribution:     -2.112363200       0.991549749       0.353002003
Nuclear contribution   :      2.261180484      -0.900861013      -0.338010572
                        -----------------------------------------
Total Dipole Moment    :      0.148817284       0.090688735       0.014991431
                        -----------------------------------------
Magnitude (a.u.)       :      0.174916477
Magnitude (Debye)      :      0.444602351

Rotational constants in cm-1:             0.306098             0.102756             0.087493
Rotational constants in MHz :          9176.580957          3080.545079          2622.987593

                             ****ORCA TERMINATED NORMALLY****
TOTAL RUN TIME: 0 days 0 hours 0 minutes 13 seconds 634 msec
