                         Program Version 6.0.0  -   RELEASE  -
|  1> ! r2scan-3c def2/J RI DEFGRID2 scfconv6 printgap
|  2> %output
|  3>     printlevel normal
|  4> end
|  5> %cpcm
|  6>     smd true
|  7>     smdsolvent "water"
|  8> end
|  9> * xyz 0 1
| 10> C 1.6499851974 -0.9713049669 -0.0479426568
| 11> C 1.3529287821 0.5074925534 0.168681266
| 12> C -0.0328328074 0.8929372994 -0.3604448451
| 13> C -1.1254564392 0.2151317518 0.4025338819
| 14> C -2.0468886435 -0.5636740956 -0.1325924036
| 15> H 1.6277901535 -1.2114847605 -1.108568741
| 16> H 0.9066688817 -1.5850674635 0.4560901229
| 17> H 2.6325677884 -1.2252023111 0.3423766412
| 18> H 1.407249905 0.7373060657 1.2350942968
| 19> H 2.1086380699 1.108204679 -0.3415324978
| 20> H -0.1057201101 0.6367930689 -1.4189751899
| 21> H -0.1564591521 1.975276296 -0.2617335096
| 22> H -1.1218925103 0.3986381624 1.4698621192
| 23> H -2.8172386118 -1.029509991 0.4582662974
| 24> H -2.0714047952 -0.7651844246 -1.1911661057
| 25> *
| 26>
| 27>                          ****END OF INPUT****

CARTESIAN COORDINATES (ANGSTROEM)
---------------------------------
  C      1.649985   -0.971305   -0.047943
  C      1.352929    0.507493    0.168681
  C     -0.032833    0.892937   -0.360445
  C     -1.125456    0.215132    0.402534
  C     -2.046889   -0.563674   -0.132592
  H      1.627790   -1.211485   -1.108569
  H      0.906669   -1.585067    0.456090
  H      2.632568   -1.225202    0.342377
  H      1.407250    0.737306    1.235094
  H      2.108638    1.108205   -0.341532
  H     -0.105720    0.636793   -1.418975
  H     -0.156459    1.975276   -0.261734
  H     -1.121893    0.398638    1.469862
  H     -2.817239   -1.029510    0.458266
  H     -2.071405   -0.765184   -1.191166

 Total Charge           Charge          ....    0
 Multiplicity           Mult            ....    1
 Number of Electrons    NEL             ....   40
 Basis Dimension        Dim             ....  145

ORBITAL ENERGIES
----------------

  NO   OCC          E(Eh)            E(eV)
   0   2.0000     -10.029836      -272.9257
   1   2.0000     -10.021878      -272.7092
   2   2.0000     -10.020255      -272.6650
   3   2.0000     -10.012866      -272.4639
   4   2.0000     -10.007390      -272.3149
   5   2.0000      -0.771552       -20.9950
   6   2.0000      -0.714055       -19.4304
   7   2.0000      -0.640689       -17.4340
   8   2.0000      -0.554915       -15.1000
   9   2.0000      -0.514977       -14.0132
  10   2.0000      -0.427033       -11.6202
  11   2.0000      -0.419425       -11.4131
  12   2.0000      -0.405064       -11.0223
  13   2.0000      -0.368823       -10.0362
  14   2.0000      -0.349216        -9.5026
  15   2.0000      -0.316043        -8.6000
  16   2.0000      -0.310657        -8.4534
  17   2.0000      -0.295348        -8.0368
  18   2.0000      -0.287428        -7.8213
  19   2.0000      -0.235419        -6.4061
  20   0.0000      -0.011505        -0.3131
  21   0.0000       0.101071         2.7503
  22   0.0000       0.128938         3.5086
  23   0.0000       0.132682         3.6105
  24   0.0000       0.137888         3.7521

MULLIKEN ATOMIC CHARGES
-----------------------
   0 C :   -0.522983
   1 C :   -0.234050
   2 C :   -0.267689
   3 C :   -0.141581
   4 C :   -0.438296
   5 H :    0.155489
   6 H :    0.159854
   7 H :    0.155935
   8 H :    0.149035
   9 H :    0.152563
  10 H :    0.158743
  11 H :    0.164314
  12 H :    0.177127
  13 H :    0.165259
  14 H :    0.166279
Sum of atomic charges:   -0.0000000

LOEWDIN ATOMIC CHARGES
----------------------
   0 C :   -0.431829
   1 C :   -0.311114
   2 C :   -0.304751
   3 C :   -0.201097
   4 C :   -0.345784
   5 H :    0.153178
   6 H :    0.154370
   7 H :    0.153225
   8 H :    0.155465
   9 H :    0.155460
  10 H :    0.162767
  11 H :    0.168768
  12 H :    0.168207
  13 H :    0.161850
  14 H :    0.161287

  Mayer bond orders larger than 0.100000
B(  0-C ,  1-C ) :   0.8929 B(  0-C ,  5-H ) :   0.9775 B(  0-C ,  6-H ) :   0.9773
B(  0-C ,  7-H ) :   0.9660 B(  1-C ,  2-C ) :   0.8727 B(  1-C ,  8-H ) :   0.9805
B(  1-C ,  9-H ) :   0.9657 B(  2-C ,  3-C ) :   0.9159 B(  2-C , 10-H ) :   1.0029
B(  2-C , 11-H ) :   0.9529 B(  3-C ,  4-C ) :   1.8941 B(  3-C , 12-H ) :   0.9239
B(  4-C , 13-H ) :   0.9627 B(  4-C , 14-H ) :   0.9832

Dispersion correction           -0.003378808
FINAL SINGLE POINT ENERGY      -196.456683691790

DIPOLE MOMENT
-------------

Method             : SCF
Type of density    : Electron Density
Multiplicity       :   1
Irrep              :   0
Energy             :  -196.4591115273333344 Eh
Relativity type    :
Basis              : AO
                                X                 Y                 Z
Electronic contribution:     -2.028021413       1.061649520       0.363910654
Nuclear contribution   :      2.261180484      -0.900861013      -0.338010572
                        -----------------------------------------
Total Dipole Moment    :      0.233159071       0.160788507       0.025900081
                        -----------------------------------------
Magnitude (a.u.)       :      0.284406242
Magnitude (Debye)      :      0.722903218

Rotational constants in cm-1:             0.306098             0.102756             0.087493
Rotational constants in MHz :          9176.580957          3080.545079          2622.987593

                             ****ORCA TERMINATED NORMALLY****
TOTAL RUN TIME: 0 days 0 hours 0 minutes 15 seconds 2 msec
