                         Program Version 6.0.0  -   RELEASE  -
|  1> ! r2scan-3c def2/J RI DEFGRID2 scfconv6 printgap
|  2> %output
|  3>     printlevel normal
|  4> end
|  5> * xyz 0 1
|  6> C 2.3950504074 -0.2840656392 -0.6411434576
|  7> O 1.1241568399 -0.8708320525 -0.3083313347
|  8> S -0.0001458899 0.175330432 -0.0004426314
|  9> O -0.3206415198 0.9390695543 -1.1719853459
| 10> O 0.3205084709 0.9368821337 1.1724777775
| 11> O -1.1246564928 -0.871149829 0.3055547436
| 12> C -2.3941360222 -0.2847249666 0.6442392608
| 13> H 2.2803060132 0.328457085 -1.5351947936
| 14> H 3.0665309487 -1.1209009676 -0.8155981317
| 15> H 2.7315359324 0.3303595307 0.1936941812
| 16> H -2.7339099806 0.3310874055 -0.1882177602
| 17> H -2.2756772061 0.3263610484 1.5387975894
| 18> H -3.064997446 -1.1217840906 0.8199673231
| 19> *
| 20>
| 21>                          ****END OF INPUT****

CARTESIAN COORDINATES (ANGSTROEM)
---------------------------------
  C      2.395050   -0.284066   -0.641143
  O      1.124157   -0.870832   -0.308331
  S     -0.000146    0.175330   -0.000443
  O     -0.320642    0.939070   -1.171985
  O      0.320508    0.936882    1.172478
  O     -1.124656   -0.871150    0.305555
  C     -2.394136   -0.284725    0.644239
  H      2.280306    0.328457   -1.535195
  H      3.066531   -1.120901   -0.815598
  H      2.731536    0.330360    0.193694
  H     -2.733910    0.331087   -0.188218
  H     -2.275677    0.326361    1.538798
  H     -3.064997   -1.121784    0.819967

 Total Charge           Charge          ....    0
 Multiplicity           Mult            ....    1
 Number of Electrons    NEL             ....   66
 Basis Dimension        Dim             ....  191

ORBITAL ENERGIES
----------------

  NO   OCC          E(Eh)            E(eV)
   0   2.0000     -88.821137     -2416.9460
   1   2.0000     -19.022865      -517.6385
   2   2.0000     -19.022864      -517.6385
   3   2.0000     -18.953208      -515.7430
   4   2.0000     -18.953176      -515.7422
   5   2.0000     -10.109595      -275.0961
   6   2.0000     -10.109594      -275.0960
   7   2.0000      -8.085159      -220.0084
   8   2.0000      -6.031954      -164.1378
   9   2.0000      -6.031264      -164.1190
  10   2.0000      -6.027851      -164.0262
  11   2.0000      -1.162076       -31.6217
  12   2.0000      -1.052085       -28.6287
  13   2.0000      -1.022446       -27.8222
  14   2.0000      -0.987142       -26.8615
  15   2.0000      -0.748749       -20.3745
  16   2.0000      -0.687668       -18.7124
  17   2.0000      -0.586915       -15.9708
  18   2.0000      -0.546909       -14.8822
  19   2.0000      -0.498779       -13.5725
  20   2.0000      -0.478195       -13.0124
  21   2.0000      -0.454889       -12.3782
  22   2.0000      -0.452140       -12.3034
  23   2.0000      -0.435252       -11.8438
  24   2.0000      -0.420529       -11.4432
  25   2.0000      -0.382800       -10.4165
  26   2.0000      -0.379439       -10.3251
  27   2.0000      -0.327934        -8.9235
  28   2.0000      -0.325396        -8.8545
  29   2.0000      -0.322723        -8.7817
  30   2.0000      -0.314951        -8.5702
  31   2.0000      -0.279148        -7.5960
  32   2.0000      -0.259773        -7.0688
  33   0.0000       0.009258         0.2519
  34   0.0000       0.053769         1.4631
  35   0.0000       0.056852         1.5470
  36   0.0000       0.086235         2.3466
  37   0.0000       0.103691         2.8216

MULLIKEN ATOMIC CHARGES
-----------------------
   0 C :   -0.285971
   1 O :   -0.246855
   2 S :    1.156211
   3 O :   -0.561985
   4 O :   -0.562393
   5 O :   -0.246850
   6 C :   -0.285966
   7 H :    0.176040
   8 H :    0.164127
   9 H :    0.176740
  10 H :    0.176623
  11 H :    0.176151
  12 H :    0.164128
Sum of atomic charges:    0.0000000

LOEWDIN ATOMIC CHARGES
----------------------
   0 C :   -0.035047
   1 O :   -0.555492
   2 S :    0.892717
   3 O :   -0.400360
   4 O :   -0.400601
   5 O :   -0.555501
   6 C :   -0.035043
   7 H :    0.179482
   8 H :    0.185199
   9 H :    0.179982
  10 H :    0.179894
  11 H :    0.179563
  12 H :    0.185206

  Mayer bond orders larger than 0.100000
B(  0-C ,  1-O ) :   0.8045 B(  0-C ,  7-H ) :   0.9618 B(  0-C ,  8-H ) :   0.9598
B(  0-C ,  9-H ) :   0.9619 B(  1-O ,  2-S ) :   1.0527 B(  2-S ,  3-O ) :   1.6358
B(  2-S ,  4-O ) :   1.6352 B(  2-S ,  5-O ) :   1.0527 B(  5-O ,  6-C ) :   0.8045
B(  6-C , 10-H ) :   0.9619 B(  6-C , 11-H ) :   0.9618 B(  6-C , 12-H ) :   0.9598

Dispersion correction           -0.003460580
FINAL SINGLE POINT ENERGY      -778.749646981442

DIPOLE MOMENT
-------------

Method             : SCF
Type of density    : Electron Density
Multiplicity       :   1
Irrep              :   0
Energy             :  -778.7700031096624116 Eh
Relativity type    :
Basis              : AO
                                X                 Y                 Z
Electronic contribution:     -0.002844300       0.267314022      -0.010283474
Nuclear contribution   :      0.003548860      -0.872190453       0.012595803
                        -----------------------------------------
Total Dipole Moment    :      0.000704561      -0.604876431       0.002312329
                        -----------------------------------------
Magnitude (a.u.)       :      0.604881261
Magnitude (Debye)      :      1.537485980

Rotational constants in cm-1:             0.154939             0.058322             0.056780
Rotational constants in MHz :          4644.944874          1748.460088          1702.225804

                             ****ORCA TERMINATED NORMALLY****
TOTAL RUN TIME: 0 days 0 hours 0 minutes 18 seconds 883 msec
