                         Program Version 6.0.0  -   RELEASE  -
|  1> ! r2scan-3c def2/J RI DEFGRID2 scfconv6 printgap
|  2> %output
|  3>     printlevel normal
|  4> end
|  5> %cpcm
|  6>     smd true
|  7>     smdsolvent "water"
|  8> end
|  9> * xyz 0 1
| 10> C 2.3950504074 -0.2840656392 -0.6411434576
| 11> O 1.1241568399 -0.8708320525 -0.3083313347
| 12> S -0.0001458899 0.175330432 -0.0004426314
| 13> O -0.3206415198 0.9390695543 -1.1719853459
| 14> O 0.3205084709 0.9368821337 1.1724777775
| 15> O -1.1246564928 -0.871149829 0.3055547436
| 16> C -2.3941360222 -0.2847249666 0.6442392608
| 17> H 2.2803060132 0.328457085 -1.5351947936
| 18> H 3.0665309487 -1.1209009676 -0.8155981317
| 19> H 2.7315359324 0.3303595307 0.1936941812
| 20> H -2.7339099806 0.3310874055 -0.1882177602
| 21> H -2.2756772061 0.3263610484 1.5387975894
| 22> H -3.064997446 -1.1217840906 0.8199673231
| 23> *
| 24>
| 25>                          ****END OF INPUT****

CARTESIAN COORDINATES (ANGSTROEM)
---------------------------------
  C      2.395050   -0.284066   -0.641143
  O      1.124157   -0.870832   -0.308331
  S     -0.000146    0.175330   -0.000443
  O     -0.320642    0.939070   -1.171985
  O      0.320508    0.936882    1.172478
  O     -1.124656   -0.871150    0.305555
  C     -2.394136   -0.284725    0.644239
  H      2.280306    0.328457   -1.535195
  H      3.066531   -1.120901   -0.815598
  H      2.731536    0.330360    0.193694
  H     -2.733910    0.331087   -0.188218
  H     -2.275677    0.326361    1.538798
  H     -3.064997   -1.121784    0.819967

 Total Charge           Charge          ....    0
 Multiplicity           Mult            ....    1
 Number of Electrons    NEL             ....   66
 Basis Dimension        Dim             ....  191

ORBITAL ENERGIES
----------------

  NO   OCC          E(Eh)            E(eV)
   0   2.0000     -88.835133     -2417.3269
   1   2.0000     -19.027359      -517.7608
   2   2.0000     -19.027358      -517.7607
   3   2.0000     -18.970901      -516.2245
   4   2.0000     -18.970888      -516.2241
   5   2.0000     -10.093678      -274.6629
   6   2.0000     -10.093675      -274.6629
   7   2.0000      -8.098968      -220.3841
   8   2.0000      -6.045556      -164.5080
   9   2.0000      -6.044984      -164.4924
  10   2.0000      -6.042083      -164.4134
  11   2.0000      -1.172418       -31.9031
  12   2.0000      -1.054603       -28.6972
  13   2.0000      -1.033760       -28.1300
  14   2.0000      -1.005555       -27.3625
  15   2.0000      -0.744550       -20.2602
  16   2.0000      -0.676270       -18.4023
  17   2.0000      -0.584960       -15.9176
  18   2.0000      -0.547969       -14.9110
  19   2.0000      -0.508819       -13.8457
  20   2.0000      -0.487224       -13.2580
  21   2.0000      -0.449508       -12.2317
  22   2.0000      -0.447986       -12.1903
  23   2.0000      -0.428785       -11.6678
  24   2.0000      -0.423918       -11.5354
  25   2.0000      -0.383837       -10.4447
  26   2.0000      -0.376692       -10.2503
  27   2.0000      -0.334852        -9.1118
  28   2.0000      -0.333289        -9.0692
  29   2.0000      -0.327988        -8.9250
  30   2.0000      -0.324309        -8.8249
  31   2.0000      -0.287559        -7.8249
  32   2.0000      -0.275757        -7.5037
  33   0.0000       0.011207         0.3049
  34   0.0000       0.043417         1.1814
  35   0.0000       0.052632         1.4322
  36   0.0000       0.098443         2.6788
  37   0.0000       0.107092         2.9141

MULLIKEN ATOMIC CHARGES
-----------------------
   0 C :   -0.293749
   1 O :   -0.268636
   2 S :    1.180015
   3 O :   -0.602586
   4 O :   -0.602859
   5 O :   -0.268619
   6 C :   -0.293745
   7 H :    0.188624
   8 H :    0.197813
   9 H :    0.188657
  10 H :    0.188633
  11 H :    0.188642
  12 H :    0.197811
Sum of atomic charges:    0.0000000

LOEWDIN ATOMIC CHARGES
----------------------
   0 C :   -0.026585
   1 O :   -0.562059
   2 S :    0.896647
   3 O :   -0.431223
   4 O :   -0.431360
   5 O :   -0.562064
   6 C :   -0.026580
   7 H :    0.185469
   8 H :    0.200418
   9 H :    0.185725
  10 H :    0.185672
  11 H :    0.185516
  12 H :    0.200423

  Mayer bond orders larger than 0.100000
B(  0-C ,  1-O ) :   0.7928 B(  0-C ,  7-H ) :   0.9521 B(  0-C ,  8-H ) :   0.9463
B(  0-C ,  9-H ) :   0.9524 B(  1-O ,  2-S ) :   1.0755 B(  2-S ,  3-O ) :   1.6004
B(  2-S ,  4-O ) :   1.6000 B(  2-S ,  5-O ) :   1.0756 B(  5-O ,  6-C ) :   0.7928
B(  6-C , 10-H ) :   0.9524 B(  6-C , 11-H ) :   0.9521 B(  6-C , 12-H ) :   0.9463

Dispersion correction           -0.003460580
FINAL SINGLE POINT ENERGY      -778.761331362674

DIPOLE MOMENT
-------------

Method             : SCF
Type of density    : Electron Density
Multiplicity       :   1
Irrep              :   0
Energy             :  -778.7816874908942282 Eh
Relativity type    :
Basis              : AO
                                X                 Y                 Z
Electronic contribution:     -0.002634938       0.080551039      -0.009593084
Nuclear contribution   :      0.003548860      -0.872190453       0.012595803
                        -----------------------------------------
Total Dipole Moment    :      0.000913923      -0.791639414       0.003002719
                        -----------------------------------------
Magnitude (a.u.)       :      0.791645636
Magnitude (Debye)      :      2.012203294

Rotational constants in cm-1:             0.154939             0.058322             0.056780
Rotational constants in MHz :          4644.944874          1748.460088          1702.225804

                             ****ORCA TERMINATED NORMALLY****
TOTAL RUN TIME: 0 days 0 hours 0 minutes 24 seconds 642 msec
