                         Program Version 6.0.0  -   RELEASE  -
|  1> ! pbe def2-sv(p) def2/J RI DEFGRID1 loosescf d4 GCP(DFT/SV(P)) printgap
|  2> %output
|  3>     printlevel normal
|  4> end
|  5> * xyz 0 1
|  6> C 1.6098269941 -0.9528543982 -0.2583379977
|  7> C 1.1415383564 0.295509483 0.4812233203
|  8> C 0.0427524637 1.0381047823 -0.2778219536
|  9> C -1.292126481 0.3578123645 -0.3378718565
| 10> C -1.7088237583 -0.6587508797 0.3940462913
| 11> H 2.3732674292 -1.472619738 0.3157248555
| 12> H 2.0313544036 -0.6835187176 -1.2244598591
| 13> H 0.7796965439 -1.6336051699 -0.4278869034
| 14> H 0.7851323682 0.0282589102 1.4770125622
| 15> H 1.9906885155 0.9706858871 0.6092344963
| 16> H 0.3799452459 1.2213164405 -1.3021353346
| 17> H -0.1114427744 2.0196915248 0.1830780651
| 18> H -1.9700600364 0.7969899517 -1.0606159987
| 19> H -2.7013400428 -1.0611082069 0.280017077
| 20> H -1.0926030986 -1.1372511333 1.1352812294
| 21> *
| 22>
| 23>                          ****END OF INPUT****

CARTESIAN COORDINATES (ANGSTROEM)
---------------------------------
  C      1.609827   -0.952854   -0.258338
  C      1.141538    0.295509    0.481223
  C      0.042752    1.038105   -0.277822
  C     -1.292126    0.357812   -0.337872
  C     -1.708824   -0.658751    0.394046
  H      2.373267   -1.472620    0.315725
  H      2.031354   -0.683519   -1.224460
  H      0.779697   -1.633605   -0.427887
  H      0.785132    0.028259    1.477013
  H      1.990689    0.970686    0.609234
  H      0.379945    1.221316   -1.302135
  H     -0.111443    2.019692    0.183078
  H     -1.970060    0.796990   -1.060616
  H     -2.701340   -1.061108    0.280017
  H     -1.092603   -1.137251    1.135281

 Total Charge           Charge          ....    0
 Multiplicity           Mult            ....    1
 Number of Electrons    NEL             ....   40
 Basis Dimension        Dim             ....   90

ORBITAL ENERGIES
----------------

  NO   OCC          E(Eh)            E(eV)
   0   2.0000      -9.889108      -269.0963
   1   2.0000      -9.887646      -269.0565
   2   2.0000      -9.883588      -268.9461
   3   2.0000      -9.873062      -268.6597
   4   2.0000      -9.869331      -268.5582
   5   2.0000      -0.727526       -19.7970
   6   2.0000      -0.668325       -18.1860
   7   2.0000      -0.608461       -16.5571
   8   2.0000      -0.537086       -14.6149
   9   2.0000      -0.472848       -12.8669
  10   2.0000      -0.431827       -11.7506
  11   2.0000      -0.402128       -10.9425
  12   2.0000      -0.381312       -10.3760
  13   2.0000      -0.366048        -9.9607
  14   2.0000      -0.338744        -9.2177
  15   2.0000      -0.319874        -8.7042
  16   2.0000      -0.301999        -8.2178
  17   2.0000      -0.287789        -7.8311
  18   2.0000      -0.278806        -7.5867
  19   2.0000      -0.223887        -6.0923
  20   0.0000      -0.012003        -0.3266
  21   0.0000       0.040669         1.1067
  22   0.0000       0.063173         1.7190
  23   0.0000       0.083424         2.2701
  24   0.0000       0.088767         2.4155

MULLIKEN ATOMIC CHARGES
-----------------------
   0 C :   -0.285629
   1 C :   -0.192308
   2 C :   -0.113837
   3 C :   -0.149859
   4 C :   -0.199547
   5 H :    0.101807
   6 H :    0.095462
   7 H :    0.111402
   8 H :    0.095176
   9 H :    0.084148
  10 H :    0.086518
  11 H :    0.102064
  12 H :    0.071952
  13 H :    0.095312
  14 H :    0.097338
Sum of atomic charges:    0.0000000

LOEWDIN ATOMIC CHARGES
----------------------
   0 C :   -0.343151
   1 C :   -0.233995
   2 C :   -0.226780
   3 C :   -0.132466
   4 C :   -0.265357
   5 H :    0.118312
   6 H :    0.116259
   7 H :    0.119946
   8 H :    0.116092
   9 H :    0.117483
  10 H :    0.123425
  11 H :    0.131156
  12 H :    0.118866
  13 H :    0.121886
  14 H :    0.118323

  Mayer bond orders larger than 0.100000
B(  0-C ,  1-C ) :   1.1512 B(  0-C ,  5-H ) :   0.9538 B(  0-C ,  6-H ) :   0.9542
B(  0-C ,  7-H ) :   0.9531 B(  1-C ,  2-C ) :   1.1381 B(  1-C ,  8-H ) :   0.9179
B(  1-C ,  9-H ) :   0.9242 B(  2-C ,  3-C ) :   1.0790 B(  2-C , 10-H ) :   0.9101
B(  2-C , 11-H ) :   0.8989 B(  3-C ,  4-C ) :   2.0809 B(  3-C , 12-H ) :   0.9311
B(  4-C , 13-H ) :   0.9209 B(  4-C , 14-H ) :   0.9051

Dispersion correction           -0.010405825
FINAL SINGLE POINT ENERGY      -196.025075727148

DIPOLE MOMENT
-------------

Method             : SCF
Type of density    : Electron Density
Multiplicity       :   1
Irrep              :   0
Energy             :  -196.0735389307209005 Eh
Relativity type    :
Basis              : AO
                                X                 Y                 Z
Electronic contribution:     -2.224478901       1.024828128      -0.015264487
Nuclear contribution   :      2.312253539      -0.892351397      -0.013837851
                        -----------------------------------------
Total Dipole Moment    :      0.087774638       0.132476730      -0.029102338
                        -----------------------------------------
Magnitude (a.u.)       :      0.161559330
Magnitude (Debye)      :      0.410651183

Rotational constants in cm-1:             0.270318             0.115731             0.095112
Rotational constants in MHz :          8103.943215          3469.523357          2851.390536

                             ****ORCA TERMINATED NORMALLY****
TOTAL RUN TIME: 0 days 0 hours 0 minutes 6 seconds 587 msec
