                         Program Version 6.0.0  -   RELEASE  -
|  1> ! pbe def2-sv(p) def2/J RI DEFGRID1 loosescf d4 GCP(DFT/SV(P)) printgap
|  2> %output
|  3>     printlevel normal
|  4> end
|  5> * xyz 0 1
|  6> C -2.280217205 0.6409616634 0.7231525375
|  7> C -1.7410930993 0.3241819375 -0.6688439873
|  8> C -0.5520544026 -0.6415103907 -0.6939669929
|  9> C 0.7713464471 -0.1807016447 -0.0421769877
| 10> C 1.1006135553 1.2803224115 -0.3653593896
| 11> C 1.9047355487 -1.0812915546 -0.5485035663
| 12> O 0.7434429509 -0.3836207249 1.3689643263
| 13> H -3.2444590404 1.1383272762 0.6424625233
| 14> H -1.6153898481 1.3061956968 1.2694428907
| 15> H -2.4164296222 -0.2727150155 1.2973567726
| 16> H -2.5409019828 -0.1450909612 -1.2470322357
| 17> H -1.4771946657 1.2512009599 -1.1794225625
| 18> H -0.841485375 -1.5742434633 -0.2025758653
| 19> H -0.3383800944 -0.8731496825 -1.7390352241
| 20> H 0.3743301793 1.9553023805 0.079620839
| 21> H 1.1100579879 1.4312557038 -1.440814546
| 22> H 2.0823205039 1.525759945 0.033162642
| 23> H 1.6544833028 -2.1238118604 -0.3708514518
| 24> H 2.8169941996 -0.8524670912 -0.0038283093
| 25> H 2.0717279948 -0.9261542692 -1.6095821218
| 26> H 0.0567087225 0.1740667883 1.7558723963
| 27> *
| 28>
| 29>                          ****END OF INPUT****

CARTESIAN COORDINATES (ANGSTROEM)
---------------------------------
  C     -2.280217    0.640962    0.723153
  C     -1.741093    0.324182   -0.668844
  C     -0.552054   -0.641510   -0.693967
  C      0.771346   -0.180702   -0.042177
  C      1.100614    1.280322   -0.365359
  C      1.904736   -1.081292   -0.548504
  O      0.743443   -0.383621    1.368964
  H     -3.244459    1.138327    0.642463
  H     -1.615390    1.306196    1.269443
  H     -2.416430   -0.272715    1.297357
  H     -2.540902   -0.145091   -1.247032
  H     -1.477195    1.251201   -1.179423
  H     -0.841485   -1.574243   -0.202576
  H     -0.338380   -0.873150   -1.739035
  H      0.374330    1.955302    0.079621
  H      1.110058    1.431256   -1.440815
  H      2.082321    1.525760    0.033163
  H      1.654483   -2.123812   -0.370851
  H      2.816994   -0.852467   -0.003828
  H      2.071728   -0.926154   -1.609582
  H      0.056709    0.174067    1.755872

 Total Charge           Charge          ....    0
 Multiplicity           Mult            ....    1
 Number of Electrons    NEL             ....   58
 Basis Dimension        Dim             ....  126

ORBITAL ENERGIES
----------------

  NO   OCC          E(Eh)            E(eV)
   0   2.0000     -18.732784      -509.7450
   1   2.0000      -9.943396      -270.5736
   2   2.0000      -9.888164      -269.0706
   3   2.0000      -9.883015      -268.9305
   4   2.0000      -9.878897      -268.8184
   5   2.0000      -9.873142      -268.6619
   6   2.0000      -9.866033      -268.4684
   7   2.0000      -0.912059       -24.8184
   8   2.0000      -0.722113       -19.6497
   9   2.0000      -0.685012       -18.6401
  10   2.0000      -0.618124       -16.8200
  11   2.0000      -0.608979       -16.5712
  12   2.0000      -0.534762       -14.5516
  13   2.0000      -0.501918       -13.6579
  14   2.0000      -0.442180       -12.0323
  15   2.0000      -0.414143       -11.2694
  16   2.0000      -0.402587       -10.9549
  17   2.0000      -0.387212       -10.5366
  18   2.0000      -0.369703       -10.0601
  19   2.0000      -0.358351        -9.7512
  20   2.0000      -0.340586        -9.2678
  21   2.0000      -0.334070        -9.0905
  22   2.0000      -0.319328        -8.6894
  23   2.0000      -0.316178        -8.6036
  24   2.0000      -0.307349        -8.3634
  25   2.0000      -0.288477        -7.8499
  26   2.0000      -0.285384        -7.7657
  27   2.0000      -0.255722        -6.9585
  28   2.0000      -0.207413        -5.6440
  29   0.0000       0.019413         0.5283
  30   0.0000       0.055445         1.5087
  31   0.0000       0.064194         1.7468
  32   0.0000       0.070846         1.9278
  33   0.0000       0.075495         2.0543

MULLIKEN ATOMIC CHARGES
-----------------------
   0 C :   -0.313362
   1 C :   -0.172008
   2 C :   -0.126019
   3 C :   -0.064162
   4 C :   -0.228311
   5 C :   -0.207037
   6 O :   -0.423688
   7 H :    0.108018
   8 H :    0.103355
   9 H :    0.109016
  10 H :    0.087151
  11 H :    0.090423
  12 H :    0.083715
  13 H :    0.075814
  14 H :    0.095947
  15 H :    0.094254
  16 H :    0.103689
  17 H :    0.099853
  18 H :    0.101148
  19 H :    0.092003
  20 H :    0.290198
Sum of atomic charges:   -0.0000000

LOEWDIN ATOMIC CHARGES
----------------------
   0 C :   -0.349991
   1 C :   -0.237265
   2 C :   -0.230799
   3 C :   -0.014635
   4 C :   -0.338163
   5 C :   -0.325375
   6 O :   -0.322610
   7 H :    0.123525
   8 H :    0.108157
   9 H :    0.120189
  10 H :    0.120109
  11 H :    0.115579
  12 H :    0.118874
  13 H :    0.119170
  14 H :    0.113918
  15 H :    0.121500
  16 H :    0.123074
  17 H :    0.121429
  18 H :    0.121675
  19 H :    0.118213
  20 H :    0.273426

  Mayer bond orders larger than 0.100000
B(  0-C ,  1-C ) :   1.1516 B(  0-C ,  7-H ) :   0.9464 B(  0-C ,  8-H ) :   0.9336
B(  0-C ,  9-H ) :   0.9504 B(  1-C ,  2-C ) :   1.1442 B(  1-C , 10-H ) :   0.9232
B(  1-C , 11-H ) :   0.9142 B(  2-C ,  3-C ) :   1.0328 B(  2-C , 12-H ) :   0.9076
B(  2-C , 13-H ) :   0.9071 B(  3-C ,  4-C ) :   1.0925 B(  3-C ,  5-C ) :   1.0836
B(  3-C ,  6-O ) :   1.0322 B(  4-C , 14-H ) :   0.9280 B(  4-C , 15-H ) :   0.9370
B(  4-C , 16-H ) :   0.9413 B(  5-C , 17-H ) :   0.9443 B(  5-C , 18-H ) :   0.9411
B(  5-C , 19-H ) :   0.9449 B(  6-O , 20-H ) :   0.8452

Dispersion correction           -0.017228746
FINAL SINGLE POINT ENERGY      -311.519124086256

DIPOLE MOMENT
-------------

Method             : SCF
Type of density    : Electron Density
Multiplicity       :   1
Irrep              :   0
Energy             :  -311.5985544899430124 Eh
Relativity type    :
Basis              : AO
                                X                 Y                 Z
Electronic contribution:      1.710621368      -1.510572570       2.239227576
Nuclear contribution   :     -2.153889574       1.884215103      -2.527007926
                        -----------------------------------------
Total Dipole Moment    :     -0.443268205       0.373642533      -0.287780350
                        -----------------------------------------
Magnitude (a.u.)       :      0.647234868
Magnitude (Debye)      :      1.645140293

Rotational constants in cm-1:             0.130265             0.056890             0.054835
Rotational constants in MHz :          3905.248916          1705.507698          1643.899120

                             ****ORCA TERMINATED NORMALLY****
TOTAL RUN TIME: 0 days 0 hours 0 minutes 8 seconds 483 msec
