                         Program Version 6.0.0  -   RELEASE  -
|  1> ! r2scan-3c def2/J RI DEFGRID2 scfconv6 printgap
|  2> %output
|  3>     printlevel normal
|  4> end
|  5> * xyz 0 1
|  6> C -1.1041701143 -0.5402867848 -0.2156789908
|  7> C -0.0018323376 0.187320832 0.5736390965
|  8> C 1.3064372171 -0.618008076 0.625315436
|  9> O 1.8991791834 -0.7307491377 -0.6505762161
| 10> O 0.2239133131 1.4642741691 0.0114595452
| 11> O -2.3294577684 0.1507874627 -0.1411033901
| 12> H -1.2851897154 -1.5298877141 0.207891124
| 13> H -0.8024510382 -0.6409391548 -1.2676690168
| 14> H -0.3612601504 0.3618886044 1.5933735442
| 15> H 1.1253047281 -1.5972964769 1.076359124
| 16> H 2.0274883198 -0.0722994662 1.238954872
| 17> H 1.4712564437 -1.4362949688 -1.1529194358
| 18> H 0.8650381251 1.3603183614 -0.7102056727
| 19> H -2.1528800743 1.0877377998 -0.317894255
| 20> *
| 21>
| 22>                          ****END OF INPUT****

CARTESIAN COORDINATES (ANGSTROEM)
---------------------------------
  C     -1.104170   -0.540287   -0.215679
  C     -0.001832    0.187321    0.573639
  C      1.306437   -0.618008    0.625315
  O      1.899179   -0.730749   -0.650576
  O      0.223913    1.464274    0.011460
  O     -2.329458    0.150787   -0.141103
  H     -1.285190   -1.529888    0.207891
  H     -0.802451   -0.640939   -1.267669
  H     -0.361260    0.361889    1.593374
  H      1.125305   -1.597296    1.076359
  H      2.027488   -0.072299    1.238955
  H      1.471256   -1.436295   -1.152919
  H      0.865038    1.360318   -0.710206
  H     -2.152880    1.087738   -0.317894

 Total Charge           Charge          ....    0
 Multiplicity           Mult            ....    1
 Number of Electrons    NEL             ....   50
 Basis Dimension        Dim             ....  169

ORBITAL ENERGIES
----------------

  NO   OCC          E(Eh)            E(eV)
   0   2.0000     -18.973104      -516.2844
   1   2.0000     -18.957614      -515.8629
   2   2.0000     -18.946963      -515.5731
   3   2.0000     -10.091910      -274.6148
   4   2.0000     -10.088597      -274.5247
   5   2.0000     -10.080671      -274.3090
   6   2.0000      -1.017187       -27.6791
   7   2.0000      -0.995727       -27.0951
   8   2.0000      -0.977471       -26.5983
   9   2.0000      -0.729376       -19.8473
  10   2.0000      -0.653136       -17.7727
  11   2.0000      -0.584955       -15.9174
  12   2.0000      -0.504369       -13.7246
  13   2.0000      -0.489498       -13.3199
  14   2.0000      -0.458879       -12.4867
  15   2.0000      -0.439996       -11.9729
  16   2.0000      -0.418512       -11.3883
  17   2.0000      -0.405581       -11.0364
  18   2.0000      -0.367812       -10.0087
  19   2.0000      -0.329032        -8.9534
  20   2.0000      -0.318259        -8.6603
  21   2.0000      -0.305970        -8.3259
  22   2.0000      -0.270284        -7.3548
  23   2.0000      -0.258089        -7.0229
  24   2.0000      -0.225502        -6.1362
  25   0.0000       0.030305         0.8246
  26   0.0000       0.062213         1.6929
  27   0.0000       0.097202         2.6450
  28   0.0000       0.102339         2.7848
  29   0.0000       0.125245         3.4081

MULLIKEN ATOMIC CHARGES
-----------------------
   0 C :   -0.202317
   1 C :    0.085121
   2 C :   -0.216239
   3 O :   -0.448426
   4 O :   -0.441338
   5 O :   -0.422512
   6 H :    0.135461
   7 H :    0.126454
   8 H :    0.148646
   9 H :    0.136719
  10 H :    0.155966
  11 H :    0.308228
  12 H :    0.317699
  13 H :    0.316538
Sum of atomic charges:    0.0000000

LOEWDIN ATOMIC CHARGES
----------------------
   0 C :    0.012324
   1 C :    0.061220
   2 C :    0.021916
   3 O :   -0.611065
   4 O :   -0.588143
   5 O :   -0.598707
   6 H :    0.177536
   7 H :    0.159367
   8 H :    0.189466
   9 H :    0.166269
  10 H :    0.185997
  11 H :    0.267920
  12 H :    0.280049
  13 H :    0.275851

  Mayer bond orders larger than 0.100000
B(  0-C ,  1-C ) :   0.9017 B(  0-C ,  5-O ) :   0.9616 B(  0-C ,  6-H ) :   0.9705
B(  0-C ,  7-H ) :   0.9787 B(  1-C ,  2-C ) :   0.9069 B(  1-C ,  4-O ) :   0.9386
B(  1-C ,  8-H ) :   0.9429 B(  2-C ,  3-O ) :   0.9702 B(  2-C ,  9-H ) :   0.9824
B(  2-C , 10-H ) :   0.9703 B(  3-O , 11-H ) :   0.8930 B(  4-O , 12-H ) :   0.8683
B(  5-O , 13-H ) :   0.8708

Dispersion correction           -0.003059522
FINAL SINGLE POINT ENERGY      -344.726267549523

DIPOLE MOMENT
-------------

Method             : SCF
Type of density    : Electron Density
Multiplicity       :   1
Irrep              :   0
Energy             :  -344.7339307659218548 Eh
Relativity type    :
Basis              : AO
                                X                 Y                 Z
Electronic contribution:     -0.358576319       1.689287831      -0.717716841
Nuclear contribution   :      0.829382665      -2.301127548       0.615009574
                        -----------------------------------------
Total Dipole Moment    :      0.470806346      -0.611839716      -0.102707267
                        -----------------------------------------
Magnitude (a.u.)       :      0.778816562
Magnitude (Debye)      :      1.979594379

Rotational constants in cm-1:             0.205841             0.074612             0.065058
Rotational constants in MHz :          6170.951794          2236.824013          1950.376854

                             ****ORCA TERMINATED NORMALLY****
TOTAL RUN TIME: 0 days 0 hours 0 minutes 20 seconds 861 msec
