                         Program Version 6.0.0  -   RELEASE  -
|  1> ! r2scan-3c def2/J RI DEFGRID2 scfconv6 printgap
|  2> %output
|  3>     printlevel normal
|  4> end
|  5> %cpcm
|  6>     smd true
|  7>     smdsolvent "water"
|  8> end
|  9> * xyz 0 1
| 10> C -1.1041701143 -0.5402867848 -0.2156789908
| 11> C -0.0018323376 0.187320832 0.5736390965
| 12> C 1.3064372171 -0.618008076 0.625315436
| 13> O 1.8991791834 -0.7307491377 -0.6505762161
| 14> O 0.2239133131 1.4642741691 0.0114595452
| 15> O -2.3294577684 0.1507874627 -0.1411033901
| 16> H -1.2851897154 -1.5298877141 0.207891124
| 17> H -0.8024510382 -0.6409391548 -1.2676690168
| 18> H -0.3612601504 0.3618886044 1.5933735442
| 19> H 1.1253047281 -1.5972964769 1.076359124
| 20> H 2.0274883198 -0.0722994662 1.238954872
| 21> H 1.4712564437 -1.4362949688 -1.1529194358
| 22> H 0.8650381251 1.3603183614 -0.7102056727
| 23> H -2.1528800743 1.0877377998 -0.317894255
| 24> *
| 25>
| 26>                          ****END OF INPUT****

CARTESIAN COORDINATES (ANGSTROEM)
---------------------------------
  C     -1.104170   -0.540287   -0.215679
  C     -0.001832    0.187321    0.573639
  C      1.306437   -0.618008    0.625315
  O      1.899179   -0.730749   -0.650576
  O      0.223913    1.464274    0.011460
  O     -2.329458    0.150787   -0.141103
  H     -1.285190   -1.529888    0.207891
  H     -0.802451   -0.640939   -1.267669
  H     -0.361260    0.361889    1.593374
  H      1.125305   -1.597296    1.076359
  H      2.027488   -0.072299    1.238955
  H      1.471256   -1.436295   -1.152919
  H      0.865038    1.360318   -0.710206
  H     -2.152880    1.087738   -0.317894

 Total Charge           Charge          ....    0
 Multiplicity           Mult            ....    1
 Number of Electrons    NEL             ....   50
 Basis Dimension        Dim             ....  169

ORBITAL ENERGIES
----------------

  NO   OCC          E(Eh)            E(eV)
   0   2.0000     -18.958653      -515.8912
   1   2.0000     -18.955364      -515.8017
   2   2.0000     -18.952171      -515.7148
   3   2.0000     -10.078388      -274.2469
   4   2.0000     -10.074788      -274.1489
   5   2.0000     -10.069556      -274.0066
   6   2.0000      -1.008372       -27.4392
   7   2.0000      -0.990350       -26.9488
   8   2.0000      -0.977091       -26.5880
   9   2.0000      -0.717463       -19.5231
  10   2.0000      -0.640725       -17.4350
  11   2.0000      -0.576108       -15.6767
  12   2.0000      -0.491702       -13.3799
  13   2.0000      -0.481515       -13.1027
  14   2.0000      -0.448313       -12.1992
  15   2.0000      -0.431457       -11.7406
  16   2.0000      -0.407990       -11.1020
  17   2.0000      -0.400197       -10.8899
  18   2.0000      -0.361472        -9.8361
  19   2.0000      -0.325438        -8.8556
  20   2.0000      -0.313125        -8.5206
  21   2.0000      -0.302320        -8.2265
  22   2.0000      -0.264953        -7.2097
  23   2.0000      -0.255379        -6.9492
  24   2.0000      -0.224546        -6.1102
  25   0.0000       0.056785         1.5452
  26   0.0000       0.072921         1.9843
  27   0.0000       0.113660         3.0928
  28   0.0000       0.119353         3.2477
  29   0.0000       0.140344         3.8190

MULLIKEN ATOMIC CHARGES
-----------------------
   0 C :   -0.195820
   1 C :    0.071314
   2 C :   -0.213223
   3 O :   -0.509555
   4 O :   -0.501202
   5 O :   -0.503619
   6 H :    0.156621
   7 H :    0.148763
   8 H :    0.161079
   9 H :    0.160422
  10 H :    0.164163
  11 H :    0.358247
  12 H :    0.350785
  13 H :    0.352027
Sum of atomic charges:    0.0000000

LOEWDIN ATOMIC CHARGES
----------------------
   0 C :    0.016924
   1 C :    0.064822
   2 C :    0.026563
   3 O :   -0.633457
   4 O :   -0.617063
   5 O :   -0.640999
   6 H :    0.187466
   7 H :    0.171354
   8 H :    0.194155
   9 H :    0.179057
  10 H :    0.187869
  11 H :    0.286317
  12 H :    0.290515
  13 H :    0.286476

  Mayer bond orders larger than 0.100000
B(  0-C ,  1-C ) :   0.9339 B(  0-C ,  5-O ) :   0.9369 B(  0-C ,  6-H ) :   0.9613
B(  0-C ,  7-H ) :   0.9665 B(  1-C ,  2-C ) :   0.9302 B(  1-C ,  4-O ) :   0.9228
B(  1-C ,  8-H ) :   0.9361 B(  2-C ,  3-O ) :   0.9634 B(  2-C ,  9-H ) :   0.9690
B(  2-C , 10-H ) :   0.9675 B(  3-O , 11-H ) :   0.8668 B(  4-O , 12-H ) :   0.8517
B(  5-O , 13-H ) :   0.8540

Dispersion correction           -0.003059522
FINAL SINGLE POINT ENERGY      -344.746061725883

DIPOLE MOMENT
-------------

Method             : SCF
Type of density    : Electron Density
Multiplicity       :   1
Irrep              :   0
Energy             :  -344.7537249422811101 Eh
Relativity type    :
Basis              : AO
                                X                 Y                 Z
Electronic contribution:     -0.234154194       1.396343450      -0.783817680
Nuclear contribution   :      0.829382665      -2.301127548       0.615009574
                        -----------------------------------------
Total Dipole Moment    :      0.595228471      -0.904784098      -0.168808106
                        -----------------------------------------
Magnitude (a.u.)       :      1.096096425
Magnitude (Debye)      :      2.786055700

Rotational constants in cm-1:             0.205841             0.074612             0.065058
Rotational constants in MHz :          6170.951794          2236.824013          1950.376854

                             ****ORCA TERMINATED NORMALLY****
TOTAL RUN TIME: 0 days 0 hours 0 minutes 23 seconds 880 msec
