                         Program Version 6.0.0  -   RELEASE  -
|  1> ! r2scan-3c def2/J RI DEFGRID2 scfconv6 printgap
|  2> %output
|  3>     printlevel normal
|  4> end
|  5> * xyz 0 1
|  6> C 1.7757891496 -0.8598276501 1.1899079347
|  7> C 1.4802530728 -0.2639238964 -0.1806061946
|  8> C 0.2973368542 0.7142521972 -0.2176461174
|  9> H 0.4567694763 1.4828796459 0.5485908468
| 10> C -1.1156353636 0.1165984052 -0.0107110775
| 11> C -1.3073754053 -1.2484938861 -0.6700304761
| 12> C -1.5115507069 0.0567076627 1.4638154456
| 13> O 0.3369704956 1.4479068138 -1.437074734
| 14> H 1.0129133327 -1.5739303791 1.4855123287
| 15> H 1.8305656208 -0.0775713045 1.9430265369
| 16> H 2.7304849414 -1.3798943939 1.1645583672
| 17> H 2.3531100476 0.3062279954 -0.5105587005
| 18> H 1.3191026747 -1.0641214852 -0.9047044656
| 19> H -1.7928283553 0.8284107781 -0.5006463314
| 20> H -1.0156883335 -1.2278561937 -1.7175372651
| 21> H -0.7279642821 -2.0127655992 -0.1592639198
| 22> H -2.3564227515 -1.5308848997 -0.6201008962
| 23> H -1.4027155988 1.0334372707 1.9291193694
| 24> H -0.8997568297 -0.6544154553 2.0094995632
| 25> H -2.5513790014 -0.2496910814 1.5520032609
| 26> H 0.2372370273 0.8289133613 -2.1732071011
| 27> *
| 28>
| 29>                          ****END OF INPUT****

CARTESIAN COORDINATES (ANGSTROEM)
---------------------------------
  C      1.775789   -0.859828    1.189908
  C      1.480253   -0.263924   -0.180606
  C      0.297337    0.714252   -0.217646
  H      0.456769    1.482880    0.548591
  C     -1.115635    0.116598   -0.010711
  C     -1.307375   -1.248494   -0.670030
  C     -1.511551    0.056708    1.463815
  O      0.336970    1.447907   -1.437075
  H      1.012913   -1.573930    1.485512
  H      1.830566   -0.077571    1.943027
  H      2.730485   -1.379894    1.164558
  H      2.353110    0.306228   -0.510559
  H      1.319103   -1.064121   -0.904704
  H     -1.792828    0.828411   -0.500646
  H     -1.015688   -1.227856   -1.717537
  H     -0.727964   -2.012766   -0.159264
  H     -2.356423   -1.530885   -0.620101
  H     -1.402716    1.033437    1.929119
  H     -0.899757   -0.654415    2.009500
  H     -2.551379   -0.249691    1.552003
  H      0.237237    0.828913   -2.173207

 Total Charge           Charge          ....    0
 Multiplicity           Mult            ....    1
 Number of Electrons    NEL             ....   58
 Basis Dimension        Dim             ....  208

ORBITAL ENERGIES
----------------

  NO   OCC          E(Eh)            E(eV)
   0   2.0000     -18.940424      -515.3951
   1   2.0000     -10.075385      -274.1652
   2   2.0000     -10.033041      -273.0129
   3   2.0000     -10.025917      -272.8191
   4   2.0000     -10.022090      -272.7149
   5   2.0000     -10.021483      -272.6984
   6   2.0000     -10.017232      -272.5827
   7   2.0000      -0.978980       -26.6394
   8   2.0000      -0.773332       -21.0434
   9   2.0000      -0.730583       -19.8802
  10   2.0000      -0.655690       -17.8422
  11   2.0000      -0.639804       -17.4100
  12   2.0000      -0.576412       -15.6850
  13   2.0000      -0.528495       -14.3811
  14   2.0000      -0.466920       -12.7055
  15   2.0000      -0.435340       -11.8462
  16   2.0000      -0.418932       -11.3997
  17   2.0000      -0.405659       -11.0385
  18   2.0000      -0.387113       -10.5339
  19   2.0000      -0.367125        -9.9900
  20   2.0000      -0.356450        -9.6995
  21   2.0000      -0.353871        -9.6293
  22   2.0000      -0.345378        -9.3982
  23   2.0000      -0.325533        -8.8582
  24   2.0000      -0.318043        -8.6544
  25   2.0000      -0.305503        -8.3132
  26   2.0000      -0.282565        -7.6890
  27   2.0000      -0.275680        -7.5016
  28   2.0000      -0.228295        -6.2122
  29   0.0000       0.061203         1.6654
  30   0.0000       0.075848         2.0639
  31   0.0000       0.108562         2.9541
  32   0.0000       0.115984         3.1561
  33   0.0000       0.118928         3.2362

MULLIKEN ATOMIC CHARGES
-----------------------
   0 C :   -0.503620
   1 C :   -0.230453
   2 C :   -0.055271
   3 H :    0.146803
   4 C :   -0.028907
   5 C :   -0.516293
   6 C :   -0.501803
   7 O :   -0.412990
   8 H :    0.143502
   9 H :    0.154232
  10 H :    0.148307
  11 H :    0.160694
  12 H :    0.143825
  13 H :    0.168641
  14 H :    0.139697
  15 H :    0.156973
  16 H :    0.152132
  17 H :    0.151912
  18 H :    0.150233
  19 H :    0.145461
  20 H :    0.286925
Sum of atomic charges:    0.0000000

LOEWDIN ATOMIC CHARGES
----------------------
   0 C :   -0.420769
   1 C :   -0.288108
   2 C :    0.058154
   3 H :    0.183121
   4 C :   -0.225078
   5 C :   -0.413669
   6 C :   -0.411758
   7 O :   -0.616801
   8 H :    0.146383
   9 H :    0.153149
  10 H :    0.152568
  11 H :    0.166920
  12 H :    0.155989
  13 H :    0.172975
  14 H :    0.148563
  15 H :    0.154089
  16 H :    0.156525
  17 H :    0.155216
  18 H :    0.153484
  19 H :    0.153588
  20 H :    0.265460

  Mayer bond orders larger than 0.100000
B(  0-C ,  1-C ) :   0.8628 B(  0-C ,  8-H ) :   0.9787 B(  0-C ,  9-H ) :   0.9854
B(  0-C , 10-H ) :   0.9657 B(  1-C ,  2-C ) :   0.9184 B(  1-C , 11-H ) :   0.9680
B(  1-C , 12-H ) :   0.9569 B(  2-C ,  3-H ) :   0.9892 B(  2-C ,  4-C ) :   0.8629
B(  2-C ,  7-O ) :   0.9374 B(  4-C ,  5-C ) :   0.8679 B(  4-C ,  6-C ) :   0.9066
B(  4-C , 13-H ) :   0.9765 B(  5-C , 14-H ) :   0.9772 B(  5-C , 15-H ) :   0.9781
B(  5-C , 16-H ) :   0.9677 B(  6-C , 17-H ) :   0.9802 B(  6-C , 18-H ) :   0.9720
B(  6-C , 19-H ) :   0.9710 B(  7-O , 20-H ) :   0.8978

Dispersion correction           -0.005873472
FINAL SINGLE POINT ENERGY      -312.198295871385

DIPOLE MOMENT
-------------

Method             : SCF
Type of density    : Electron Density
Multiplicity       :   1
Irrep              :   0
Energy             :  -312.2038062484210172 Eh
Relativity type    :
Basis              : AO
                                X                 Y                 Z
Electronic contribution:      0.670078366       4.338378862      -3.690007223
Nuclear contribution   :     -0.751695575      -4.942580826       3.774755973
                        -----------------------------------------
Total Dipole Moment    :     -0.081617209      -0.604201964       0.084748750
                        -----------------------------------------
Magnitude (a.u.)       :      0.615551568
Magnitude (Debye)      :      1.564607743

Rotational constants in cm-1:             0.085846             0.073503             0.055048
Rotational constants in MHz :          2573.593190          2203.565881          1650.301579

                             ****ORCA TERMINATED NORMALLY****
TOTAL RUN TIME: 0 days 0 hours 0 minutes 27 seconds 913 msec
