                         Program Version 6.0.0  -   RELEASE  -
|  1> ! r2scan-3c def2/J RI DEFGRID2 scfconv6 printgap
|  2> %output
|  3>     printlevel normal
|  4> end
|  5> %cpcm
|  6>     smd true
|  7>     smdsolvent "water"
|  8> end
|  9> * xyz 0 1
| 10> C 1.7757891496 -0.8598276501 1.1899079347
| 11> C 1.4802530728 -0.2639238964 -0.1806061946
| 12> C 0.2973368542 0.7142521972 -0.2176461174
| 13> H 0.4567694763 1.4828796459 0.5485908468
| 14> C -1.1156353636 0.1165984052 -0.0107110775
| 15> C -1.3073754053 -1.2484938861 -0.6700304761
| 16> C -1.5115507069 0.0567076627 1.4638154456
| 17> O 0.3369704956 1.4479068138 -1.437074734
| 18> H 1.0129133327 -1.5739303791 1.4855123287
| 19> H 1.8305656208 -0.0775713045 1.9430265369
| 20> H 2.7304849414 -1.3798943939 1.1645583672
| 21> H 2.3531100476 0.3062279954 -0.5105587005
| 22> H 1.3191026747 -1.0641214852 -0.9047044656
| 23> H -1.7928283553 0.8284107781 -0.5006463314
| 24> H -1.0156883335 -1.2278561937 -1.7175372651
| 25> H -0.7279642821 -2.0127655992 -0.1592639198
| 26> H -2.3564227515 -1.5308848997 -0.6201008962
| 27> H -1.4027155988 1.0334372707 1.9291193694
| 28> H -0.8997568297 -0.6544154553 2.0094995632
| 29> H -2.5513790014 -0.2496910814 1.5520032609
| 30> H 0.2372370273 0.8289133613 -2.1732071011
| 31> *
| 32>
| 33>                          ****END OF INPUT****

CARTESIAN COORDINATES (ANGSTROEM)
---------------------------------
  C      1.775789   -0.859828    1.189908
  C      1.480253   -0.263924   -0.180606
  C      0.297337    0.714252   -0.217646
  H      0.456769    1.482880    0.548591
  C     -1.115635    0.116598   -0.010711
  C     -1.307375   -1.248494   -0.670030
  C     -1.511551    0.056708    1.463815
  O      0.336970    1.447907   -1.437075
  H      1.012913   -1.573930    1.485512
  H      1.830566   -0.077571    1.943027
  H      2.730485   -1.379894    1.164558
  H      2.353110    0.306228   -0.510559
  H      1.319103   -1.064121   -0.904704
  H     -1.792828    0.828411   -0.500646
  H     -1.015688   -1.227856   -1.717537
  H     -0.727964   -2.012766   -0.159264
  H     -2.356423   -1.530885   -0.620101
  H     -1.402716    1.033437    1.929119
  H     -0.899757   -0.654415    2.009500
  H     -2.551379   -0.249691    1.552003
  H      0.237237    0.828913   -2.173207

 Total Charge           Charge          ....    0
 Multiplicity           Mult            ....    1
 Number of Electrons    NEL             ....   58
 Basis Dimension        Dim             ....  208

ORBITAL ENERGIES
----------------

  NO   OCC          E(Eh)            E(eV)
   0   2.0000     -18.945169      -515.5243
   1   2.0000     -10.070240      -274.0252
   2   2.0000     -10.024905      -272.7915
   3   2.0000     -10.016734      -272.5692
   4   2.0000     -10.009707      -272.3780
   5   2.0000     -10.007667      -272.3225
   6   2.0000     -10.006819      -272.2994
   7   2.0000      -0.982391       -26.7322
   8   2.0000      -0.764279       -20.7971
   9   2.0000      -0.720521       -19.6064
  10   2.0000      -0.643801       -17.5187
  11   2.0000      -0.632757       -17.2182
  12   2.0000      -0.567722       -15.4485
  13   2.0000      -0.522006       -14.2045
  14   2.0000      -0.459972       -12.5165
  15   2.0000      -0.427937       -11.6448
  16   2.0000      -0.408208       -11.1079
  17   2.0000      -0.400331       -10.8935
  18   2.0000      -0.376410       -10.2426
  19   2.0000      -0.359624        -9.7859
  20   2.0000      -0.345808        -9.4099
  21   2.0000      -0.343781        -9.3548
  22   2.0000      -0.338714        -9.2169
  23   2.0000      -0.316268        -8.6061
  24   2.0000      -0.308331        -8.3901
  25   2.0000      -0.296952        -8.0805
  26   2.0000      -0.274678        -7.4744
  27   2.0000      -0.271980        -7.4009
  28   2.0000      -0.232211        -6.3188
  29   0.0000       0.077058         2.0969
  30   0.0000       0.087580         2.3832
  31   0.0000       0.118213         3.2167
  32   0.0000       0.125670         3.4197
  33   0.0000       0.129653         3.5280

MULLIKEN ATOMIC CHARGES
-----------------------
   0 C :   -0.544142
   1 C :   -0.239604
   2 C :   -0.033493
   3 H :    0.157149
   4 C :   -0.010389
   5 C :   -0.557588
   6 C :   -0.546293
   7 O :   -0.509460
   8 H :    0.163344
   9 H :    0.163080
  10 H :    0.157956
  11 H :    0.153552
  12 H :    0.163041
  13 H :    0.158852
  14 H :    0.163499
  15 H :    0.169443
  16 H :    0.161631
  17 H :    0.161225
  18 H :    0.164788
  19 H :    0.157913
  20 H :    0.345494
Sum of atomic charges:    0.0000000

LOEWDIN ATOMIC CHARGES
----------------------
   0 C :   -0.427079
   1 C :   -0.286855
   2 C :    0.057327
   3 H :    0.186191
   4 C :   -0.220517
   5 C :   -0.420131
   6 C :   -0.419241
   7 O :   -0.657316
   8 H :    0.152549
   9 H :    0.155186
  10 H :    0.154855
  11 H :    0.164341
  12 H :    0.162636
  13 H :    0.170392
  14 H :    0.156805
  15 H :    0.158016
  16 H :    0.157878
  17 H :    0.156932
  18 H :    0.157546
  19 H :    0.156542
  20 H :    0.283943

  Mayer bond orders larger than 0.100000
B(  0-C ,  1-C ) :   0.8537 B(  0-C ,  8-H ) :   0.9761 B(  0-C ,  9-H ) :   0.9818
B(  0-C , 10-H ) :   0.9632 B(  1-C ,  2-C ) :   0.9134 B(  1-C , 11-H ) :   0.9660
B(  1-C , 12-H ) :   0.9615 B(  2-C ,  3-H ) :   0.9869 B(  2-C ,  4-C ) :   0.8697
B(  2-C ,  7-O ) :   0.9171 B(  4-C ,  5-C ) :   0.8691 B(  4-C ,  6-C ) :   0.8984
B(  4-C , 13-H ) :   0.9777 B(  5-C , 14-H ) :   0.9714 B(  5-C , 15-H ) :   0.9752
B(  5-C , 16-H ) :   0.9671 B(  6-C , 17-H ) :   0.9769 B(  6-C , 18-H ) :   0.9714
B(  6-C , 19-H ) :   0.9693 B(  7-O , 20-H ) :   0.8699

Dispersion correction           -0.005873472
FINAL SINGLE POINT ENERGY      -312.204530868586

DIPOLE MOMENT
-------------

Method             : SCF
Type of density    : Electron Density
Multiplicity       :   1
Irrep              :   0
Energy             :  -312.2100412456215963 Eh
Relativity type    :
Basis              : AO
                                X                 Y                 Z
Electronic contribution:      0.641496578       4.048378592      -3.687982730
Nuclear contribution   :     -0.751695575      -4.942580826       3.774755973
                        -----------------------------------------
Total Dipole Moment    :     -0.110198997      -0.894202233       0.086773243
                        -----------------------------------------
Magnitude (a.u.)       :      0.905135928
Magnitude (Debye)      :      2.300672693

Rotational constants in cm-1:             0.085846             0.073503             0.055048
Rotational constants in MHz :          2573.593190          2203.565881          1650.301579

                             ****ORCA TERMINATED NORMALLY****
TOTAL RUN TIME: 0 days 0 hours 0 minutes 30 seconds 148 msec
