                         Program Version 6.0.0  -   RELEASE  -
|  1> ! r2scan-3c def2/J RI DEFGRID2 scfconv6 printgap
|  2> %output
|  3>     printlevel normal
|  4> end
|  5> * xyz 0 1
|  6> C -1.9432894125 1.4694006252 0.0798402315
|  7> C -1.4824597193 0.0912501671 -0.3816979164
|  8> C -0.1579494291 -0.3598507289 0.2464028002
|  9> H -0.1830173117 -0.1467460489 1.3207557745
| 10> C 0.0326817235 -1.8640170746 0.0460669232
| 11> C 1.020379667 0.4191180758 -0.356123282
| 12> O 2.2345237892 0.248161578 0.344432749
| 13> H -2.0341364898 1.4957936467 1.1633019347
| 14> H -1.2445070526 2.2442668204 -0.2238528255
| 15> H -2.9137529408 1.7016676514 -0.3517693171
| 16> H -1.3812238556 0.0841300759 -1.4693233292
| 17> H -2.2525130116 -0.6361888928 -0.1169677998
| 18> H -0.8052996991 -2.4086478484 0.4738498786
| 19> H 0.9393025558 -2.2144525615 0.5333467754
| 20> H 0.0899916211 -2.0997567426 -1.0148204487
| 21> H 0.8250526705 1.4920339448 -0.3090085042
| 22> H 1.1476594105 0.1376997971 -1.4108666659
| 23> H 2.4988645228 -0.6802235338 0.2935758004
| 24> *
| 25>
| 26>                          ****END OF INPUT****

CARTESIAN COORDINATES (ANGSTROEM)
---------------------------------
  C     -1.943289    1.469401    0.079840
  C     -1.482460    0.091250   -0.381698
  C     -0.157949   -0.359851    0.246403
  H     -0.183017   -0.146746    1.320756
  C      0.032682   -1.864017    0.046067
  C      1.020380    0.419118   -0.356123
  O      2.234524    0.248162    0.344433
  H     -2.034136    1.495794    1.163302
  H     -1.244507    2.244267   -0.223853
  H     -2.913753    1.701668   -0.351769
  H     -1.381224    0.084130   -1.469323
  H     -2.252513   -0.636189   -0.116968
  H     -0.805300   -2.408648    0.473850
  H      0.939303   -2.214453    0.533347
  H      0.089992   -2.099757   -1.014820
  H      0.825053    1.492034   -0.309009
  H      1.147659    0.137700   -1.410867
  H      2.498865   -0.680224    0.293576

 Total Charge           Charge          ....    0
 Multiplicity           Mult            ....    1
 Number of Electrons    NEL             ....   50
 Basis Dimension        Dim             ....  179

ORBITAL ENERGIES
----------------

  NO   OCC          E(Eh)            E(eV)
   0   2.0000     -18.945623      -515.5366
   1   2.0000     -10.070786      -274.0400
   2   2.0000     -10.033421      -273.0233
   3   2.0000     -10.028556      -272.8909
   4   2.0000     -10.023330      -272.7487
   5   2.0000     -10.018598      -272.6199
   6   2.0000      -0.982465       -26.7342
   7   2.0000      -0.777665       -21.1613
   8   2.0000      -0.701182       -19.0801
   9   2.0000      -0.647048       -17.6071
  10   2.0000      -0.592798       -16.1309
  11   2.0000      -0.534734       -14.5508
  12   2.0000      -0.482014       -13.1163
  13   2.0000      -0.425089       -11.5673
  14   2.0000      -0.418676       -11.3927
  15   2.0000      -0.405656       -11.0385
  16   2.0000      -0.383493       -10.4354
  17   2.0000      -0.371985       -10.1222
  18   2.0000      -0.345995        -9.4150
  19   2.0000      -0.335388        -9.1264
  20   2.0000      -0.323034        -8.7902
  21   2.0000      -0.302609        -8.2344
  22   2.0000      -0.294813        -8.0223
  23   2.0000      -0.280417        -7.6305
  24   2.0000      -0.232678        -6.3315
  25   0.0000       0.056963         1.5500
  26   0.0000       0.084857         2.3091
  27   0.0000       0.108441         2.9508
  28   0.0000       0.125356         3.4111
  29   0.0000       0.126574         3.4443

MULLIKEN ATOMIC CHARGES
-----------------------
   0 C :   -0.485278
   1 C :   -0.253258
   2 C :   -0.006576
   3 H :    0.155641
   4 C :   -0.499425
   5 C :   -0.220262
   6 O :   -0.416106
   7 H :    0.148556
   8 H :    0.140515
   9 H :    0.148251
  10 H :    0.138367
  11 H :    0.139877
  12 H :    0.152182
  13 H :    0.136330
  14 H :    0.152471
  15 H :    0.137757
  16 H :    0.138687
  17 H :    0.292272
Sum of atomic charges:    0.0000000

LOEWDIN ATOMIC CHARGES
----------------------
   0 C :   -0.422102
   1 C :   -0.308566
   2 C :   -0.233259
   3 H :    0.164659
   4 C :   -0.416761
   5 C :    0.007312
   6 O :   -0.616851
   7 H :    0.151715
   8 H :    0.148502
   9 H :    0.151568
  10 H :    0.156484
  11 H :    0.155505
  12 H :    0.156767
  13 H :    0.147857
  14 H :    0.156125
  15 H :    0.179074
  16 H :    0.157879
  17 H :    0.264092

  Mayer bond orders larger than 0.100000
B(  0-C ,  1-C ) :   0.9117 B(  0-C ,  7-H ) :   0.9893 B(  0-C ,  8-H ) :   0.9780
B(  0-C ,  9-H ) :   0.9741 B(  1-C ,  2-C ) :   0.8832 B(  1-C , 10-H ) :   0.9635
B(  1-C , 11-H ) :   0.9699 B(  2-C ,  3-H ) :   0.9633 B(  2-C ,  4-C ) :   0.8891
B(  2-C ,  5-C ) :   0.8737 B(  4-C , 12-H ) :   0.9753 B(  4-C , 13-H ) :   0.9779
B(  4-C , 14-H ) :   0.9826 B(  5-C ,  6-O ) :   0.9529 B(  5-C , 15-H ) :   0.9770
B(  5-C , 16-H ) :   0.9948 B(  6-O , 17-H ) :   0.8942

Dispersion correction           -0.004351451
FINAL SINGLE POINT ENERGY      -272.897701034762

DIPOLE MOMENT
-------------

Method             : SCF
Type of density    : Electron Density
Multiplicity       :   1
Irrep              :   0
Energy             :  -272.9033053065409717 Eh
Relativity type    :
Basis              : AO
                                X                 Y                 Z
Electronic contribution:      4.536079397       0.503133095       0.805799251
Nuclear contribution   :     -4.951845756      -0.963023199      -1.037918826
                        -----------------------------------------
Total Dipole Moment    :     -0.415766359      -0.459890104      -0.232119576
                        -----------------------------------------
Magnitude (a.u.)       :      0.661997032
Magnitude (Debye)      :      1.682662733

Rotational constants in cm-1:             0.159617             0.076362             0.056649
Rotational constants in MHz :          4785.191073          2289.270271          1698.283269

                             ****ORCA TERMINATED NORMALLY****
TOTAL RUN TIME: 0 days 0 hours 0 minutes 23 seconds 414 msec
