                         Program Version 6.0.0  -   RELEASE  -
|  1> ! r2scan-3c def2/J RI DEFGRID2 scfconv6 printgap
|  2> %output
|  3>     printlevel normal
|  4> end
|  5> %cpcm
|  6>     smd true
|  7>     smdsolvent "water"
|  8> end
|  9> * xyz 0 1
| 10> C -1.9432894125 1.4694006252 0.0798402315
| 11> C -1.4824597193 0.0912501671 -0.3816979164
| 12> C -0.1579494291 -0.3598507289 0.2464028002
| 13> H -0.1830173117 -0.1467460489 1.3207557745
| 14> C 0.0326817235 -1.8640170746 0.0460669232
| 15> C 1.020379667 0.4191180758 -0.356123282
| 16> O 2.2345237892 0.248161578 0.344432749
| 17> H -2.0341364898 1.4957936467 1.1633019347
| 18> H -1.2445070526 2.2442668204 -0.2238528255
| 19> H -2.9137529408 1.7016676514 -0.3517693171
| 20> H -1.3812238556 0.0841300759 -1.4693233292
| 21> H -2.2525130116 -0.6361888928 -0.1169677998
| 22> H -0.8052996991 -2.4086478484 0.4738498786
| 23> H 0.9393025558 -2.2144525615 0.5333467754
| 24> H 0.0899916211 -2.0997567426 -1.0148204487
| 25> H 0.8250526705 1.4920339448 -0.3090085042
| 26> H 1.1476594105 0.1376997971 -1.4108666659
| 27> H 2.4988645228 -0.6802235338 0.2935758004
| 28> *
| 29>
| 30>                          ****END OF INPUT****

CARTESIAN COORDINATES (ANGSTROEM)
---------------------------------
  C     -1.943289    1.469401    0.079840
  C     -1.482460    0.091250   -0.381698
  C     -0.157949   -0.359851    0.246403
  H     -0.183017   -0.146746    1.320756
  C      0.032682   -1.864017    0.046067
  C      1.020380    0.419118   -0.356123
  O      2.234524    0.248162    0.344433
  H     -2.034136    1.495794    1.163302
  H     -1.244507    2.244267   -0.223853
  H     -2.913753    1.701668   -0.351769
  H     -1.381224    0.084130   -1.469323
  H     -2.252513   -0.636189   -0.116968
  H     -0.805300   -2.408648    0.473850
  H      0.939303   -2.214453    0.533347
  H      0.089992   -2.099757   -1.014820
  H      0.825053    1.492034   -0.309009
  H      1.147659    0.137700   -1.410867
  H      2.498865   -0.680224    0.293576

 Total Charge           Charge          ....    0
 Multiplicity           Mult            ....    1
 Number of Electrons    NEL             ....   50
 Basis Dimension        Dim             ....  179

ORBITAL ENERGIES
----------------

  NO   OCC          E(Eh)            E(eV)
   0   2.0000     -18.949941      -515.6541
   1   2.0000     -10.064480      -273.8684
   2   2.0000     -10.024150      -272.7710
   3   2.0000     -10.017096      -272.5790
   4   2.0000     -10.008590      -272.3476
   5   2.0000     -10.007716      -272.3238
   6   2.0000      -0.985574       -26.8188
   7   2.0000      -0.767252       -20.8780
   8   2.0000      -0.690149       -18.7799
   9   2.0000      -0.639182       -17.3930
  10   2.0000      -0.582644       -15.8546
  11   2.0000      -0.526073       -14.3152
  12   2.0000      -0.477251       -12.9866
  13   2.0000      -0.418506       -11.3881
  14   2.0000      -0.409844       -11.1524
  15   2.0000      -0.394534       -10.7358
  16   2.0000      -0.372260       -10.1297
  17   2.0000      -0.365946        -9.9579
  18   2.0000      -0.340456        -9.2643
  19   2.0000      -0.325814        -8.8659
  20   2.0000      -0.312850        -8.5131
  21   2.0000      -0.293611        -7.9896
  22   2.0000      -0.284439        -7.7400
  23   2.0000      -0.275709        -7.5024
  24   2.0000      -0.236114        -6.4250
  25   0.0000       0.072797         1.9809
  26   0.0000       0.097147         2.6435
  27   0.0000       0.116746         3.1768
  28   0.0000       0.135314         3.6821
  29   0.0000       0.137505         3.7417

MULLIKEN ATOMIC CHARGES
-----------------------
   0 C :   -0.531906
   1 C :   -0.265504
   2 C :   -0.008472
   3 H :    0.156896
   4 C :   -0.531027
   5 C :   -0.221987
   6 O :   -0.507845
   7 H :    0.158103
   8 H :    0.154895
   9 H :    0.157680
  10 H :    0.150298
  11 H :    0.151909
  12 H :    0.163135
  13 H :    0.157546
  14 H :    0.161825
  15 H :    0.152514
  16 H :    0.151986
  17 H :    0.349953
Sum of atomic charges:    0.0000000

LOEWDIN ATOMIC CHARGES
----------------------
   0 C :   -0.431384
   1 C :   -0.309191
   2 C :   -0.230742
   3 H :    0.163966
   4 C :   -0.422335
   5 C :    0.005011
   6 O :   -0.656384
   7 H :    0.153334
   8 H :    0.151689
   9 H :    0.153503
  10 H :    0.159875
  11 H :    0.158812
  12 H :    0.158330
  13 H :    0.155330
  14 H :    0.159467
  15 H :    0.182201
  16 H :    0.165963
  17 H :    0.282556

  Mayer bond orders larger than 0.100000
B(  0-C ,  1-C ) :   0.8992 B(  0-C ,  7-H ) :   0.9873 B(  0-C ,  8-H ) :   0.9763
B(  0-C ,  9-H ) :   0.9715 B(  1-C ,  2-C ) :   0.8810 B(  1-C , 10-H ) :   0.9645
B(  1-C , 11-H ) :   0.9696 B(  2-C ,  3-H ) :   0.9661 B(  2-C ,  4-C ) :   0.8904
B(  2-C ,  5-C ) :   0.8861 B(  4-C , 12-H ) :   0.9748 B(  4-C , 13-H ) :   0.9708
B(  4-C , 14-H ) :   0.9791 B(  5-C ,  6-O ) :   0.9362 B(  5-C , 15-H ) :   0.9736
B(  5-C , 16-H ) :   0.9838 B(  6-O , 17-H ) :   0.8671

Dispersion correction           -0.004351451
FINAL SINGLE POINT ENERGY      -272.904167316855

DIPOLE MOMENT
-------------

Method             : SCF
Type of density    : Electron Density
Multiplicity       :   1
Irrep              :   0
Energy             :  -272.9097715886347260 Eh
Relativity type    :
Basis              : AO
                                X                 Y                 Z
Electronic contribution:      4.441835278       0.306879258       0.676860153
Nuclear contribution   :     -4.951845756      -0.963023199      -1.037918826
                        -----------------------------------------
Total Dipole Moment    :     -0.510010478      -0.656143941      -0.361058674
                        -----------------------------------------
Magnitude (a.u.)       :      0.906089910
Magnitude (Debye)      :      2.303097521

Rotational constants in cm-1:             0.159617             0.076362             0.056649
Rotational constants in MHz :          4785.191073          2289.270271          1698.283269

                             ****ORCA TERMINATED NORMALLY****
TOTAL RUN TIME: 0 days 0 hours 0 minutes 27 seconds 91 msec
