                         Program Version 6.0.0  -   RELEASE  -
|  1> ! r2scan-3c def2/J RI DEFGRID2 scfconv6 printgap
|  2> %output
|  3>     printlevel normal
|  4> end
|  5> %cpcm
|  6>     smd true
|  7>     smdsolvent "water"
|  8> end
|  9> * xyz 0 1
| 10> C 2.4633240037 -0.0798835378 -0.905016393
| 11> C 1.2602949346 -0.2710152752 0.0196613456
| 12> H 1.1266987726 -1.3393082396 0.2197941483
| 13> C -0.0117057936 0.3047458437 -0.6169321541
| 14> C -1.2744750163 0.0580969564 0.2179076608
| 15> C -2.3891599483 1.0075446123 -0.2182784411
| 16> C -1.7479988864 -1.3886854303 0.0961329148
| 17> O 1.5014664149 0.2909491714 1.2983016872
| 18> H 2.5876546897 0.9723846902 -1.1526528123
| 19> H 3.3665826333 -0.434100863 -0.4144030495
| 20> H 2.3200973987 -0.6402505094 -1.8238143457
| 21> H 0.128658889 1.3818036296 -0.7415335138
| 22> H -0.1370527261 -0.1330041583 -1.6082078444
| 23> H -1.0300761487 0.2572804614 1.2674759355
| 24> H -2.0894462312 2.0447363437 -0.0874052401
| 25> H -3.2867128724 0.83461412 0.3705230332
| 26> H -2.6302671913 0.8476909874 -1.2671278598
| 27> H -2.6370763362 -1.5462650699 0.7020702238
| 28> H -1.9910817659 -1.6214534384 -0.9386397871
| 29> H -0.9812646497 -2.0800140955 0.4356139281
| 30> H 1.6743428299 1.2370260996 1.1904299806
| 31> *
| 32>
| 33>                          ****END OF INPUT****

CARTESIAN COORDINATES (ANGSTROEM)
---------------------------------
  C      2.463324   -0.079884   -0.905016
  C      1.260295   -0.271015    0.019661
  H      1.126699   -1.339308    0.219794
  C     -0.011706    0.304746   -0.616932
  C     -1.274475    0.058097    0.217908
  C     -2.389160    1.007545   -0.218278
  C     -1.747999   -1.388685    0.096133
  O      1.501466    0.290949    1.298302
  H      2.587655    0.972385   -1.152653
  H      3.366583   -0.434101   -0.414403
  H      2.320097   -0.640251   -1.823814
  H      0.128659    1.381804   -0.741534
  H     -0.137053   -0.133004   -1.608208
  H     -1.030076    0.257280    1.267476
  H     -2.089446    2.044736   -0.087405
  H     -3.286713    0.834614    0.370523
  H     -2.630267    0.847691   -1.267128
  H     -2.637076   -1.546265    0.702070
  H     -1.991082   -1.621453   -0.938640
  H     -0.981265   -2.080014    0.435614
  H      1.674343    1.237026    1.190430

 Total Charge           Charge          ....    0
 Multiplicity           Mult            ....    1
 Number of Electrons    NEL             ....   58
 Basis Dimension        Dim             ....  208

ORBITAL ENERGIES
----------------

  NO   OCC          E(Eh)            E(eV)
   0   2.0000     -18.947236      -515.5805
   1   2.0000     -10.073130      -274.1038
   2   2.0000     -10.022799      -272.7342
   3   2.0000     -10.012262      -272.4475
   4   2.0000     -10.008924      -272.3567
   5   2.0000     -10.005526      -272.2642
   6   2.0000     -10.005253      -272.2568
   7   2.0000      -0.984893       -26.8003
   8   2.0000      -0.768182       -20.9033
   9   2.0000      -0.713809       -19.4237
  10   2.0000      -0.641008       -17.4427
  11   2.0000      -0.639392       -17.3987
  12   2.0000      -0.567020       -15.4294
  13   2.0000      -0.521858       -14.2005
  14   2.0000      -0.444891       -12.1061
  15   2.0000      -0.437684       -11.9100
  16   2.0000      -0.412091       -11.2136
  17   2.0000      -0.390169       -10.6170
  18   2.0000      -0.387373       -10.5409
  19   2.0000      -0.364275        -9.9124
  20   2.0000      -0.352188        -9.5835
  21   2.0000      -0.344702        -9.3798
  22   2.0000      -0.331486        -9.0202
  23   2.0000      -0.320683        -8.7262
  24   2.0000      -0.301022        -8.1912
  25   2.0000      -0.284716        -7.7475
  26   2.0000      -0.283804        -7.7227
  27   2.0000      -0.271955        -7.4003
  28   2.0000      -0.235393        -6.4054
  29   0.0000       0.080852         2.2001
  30   0.0000       0.104584         2.8459
  31   0.0000       0.117087         3.1861
  32   0.0000       0.121223         3.2986
  33   0.0000       0.136693         3.7196

MULLIKEN ATOMIC CHARGES
-----------------------
   0 C :   -0.538106
   1 C :    0.011288
   2 H :    0.149674
   3 C :   -0.303184
   4 C :   -0.006600
   5 C :   -0.519352
   6 C :   -0.559673
   7 O :   -0.499266
   8 H :    0.162127
   9 H :    0.163350
  10 H :    0.164504
  11 H :    0.164439
  12 H :    0.156333
  13 H :    0.159061
  14 H :    0.157469
  15 H :    0.157567
  16 H :    0.155315
  17 H :    0.156943
  18 H :    0.163318
  19 H :    0.158074
  20 H :    0.346719
Sum of atomic charges:   -0.0000000

LOEWDIN ATOMIC CHARGES
----------------------
   0 C :   -0.404521
   1 C :    0.044089
   2 H :    0.183248
   3 C :   -0.283126
   4 C :   -0.244021
   5 C :   -0.424554
   6 C :   -0.424296
   7 O :   -0.648563
   8 H :    0.160820
   9 H :    0.159771
  10 H :    0.163742
  11 H :    0.168065
  12 H :    0.170026
  13 H :    0.162761
  14 H :    0.154744
  15 H :    0.154407
  16 H :    0.156153
  17 H :    0.155248
  18 H :    0.155855
  19 H :    0.154871
  20 H :    0.285281

  Mayer bond orders larger than 0.100000
B(  0-C ,  1-C ) :   0.9301 B(  0-C ,  8-H ) :   0.9745 B(  0-C ,  9-H ) :   0.9733
B(  0-C , 10-H ) :   0.9725 B(  1-C ,  2-H ) :   0.9543 B(  1-C ,  3-C ) :   0.9450
B(  1-C ,  7-O ) :   0.9231 B(  3-C ,  4-C ) :   0.8592 B(  3-C , 11-H ) :   0.9801
B(  3-C , 12-H ) :   0.9614 B(  4-C ,  5-C ) :   0.8849 B(  4-C ,  6-C ) :   0.8968
B(  4-C , 13-H ) :   0.9704 B(  5-C , 14-H ) :   0.9793 B(  5-C , 15-H ) :   0.9772
B(  5-C , 16-H ) :   0.9800 B(  6-C , 17-H ) :   0.9716 B(  6-C , 18-H ) :   0.9885
B(  6-C , 19-H ) :   0.9696 B(  7-O , 20-H ) :   0.8688

Dispersion correction           -0.005479866
FINAL SINGLE POINT ENERGY      -312.209490321013

DIPOLE MOMENT
-------------

Method             : SCF
Type of density    : Electron Density
Multiplicity       :   1
Irrep              :   0
Energy             :  -312.2150676772979523 Eh
Relativity type    :
Basis              : AO
                                X                 Y                 Z
Electronic contribution:      3.350174654       0.632632606       2.845806603
Nuclear contribution   :     -3.335350662      -0.201008603      -3.590670324
                        -----------------------------------------
Total Dipole Moment    :      0.014823992       0.431624003      -0.744863722
                        -----------------------------------------
Magnitude (a.u.)       :      0.861011611
Magnitude (Debye)      :      2.188517591

Rotational constants in cm-1:             0.142980             0.045201             0.044757
Rotational constants in MHz :          4286.446112          1355.094681          1341.768674

                             ****ORCA TERMINATED NORMALLY****
TOTAL RUN TIME: 0 days 0 hours 0 minutes 35 seconds 653 msec
