                         Program Version 6.0.0  -   RELEASE  -
|  1> ! r2scan-3c def2/J RI DEFGRID2 scfconv6 printgap
|  2> %output
|  3>     printlevel normal
|  4> end
|  5> * xyz 0 1
|  6> C 2.2786279699 0.993098556 0.5734610361
|  7> C 1.1926698639 -0.080697105 0.5142372047
|  8> C 1.6904954236 -1.2997674418 -0.2741376378
|  9> C -0.0297963142 0.4482169117 -0.2125984138
| 10> O 0.0948588016 1.1643425718 -1.1882578207
| 11> C -1.420076643 0.0812575488 0.2857344507
| 12> C -1.5037917472 -1.05342904 1.3021059463
| 13> C -2.3308316088 -0.2013246623 -0.9142647612
| 14> H 3.1870950396 0.5851070096 1.0076010528
| 15> H 1.9476709921 1.8352842507 1.1770987991
| 16> H 2.4966747819 1.3565449149 -0.4282022891
| 17> H 0.9322830399 -0.3894794897 1.5259348206
| 18> H 2.5774909051 -1.7077125201 0.2027768703
| 19> H 0.9305129692 -2.075289744 -0.3195217401
| 20> H 1.9426023157 -1.0031928174 -1.2900824848
| 21> H -1.7776712717 1.0035704252 0.7643741363
| 22> H -1.0594175159 -1.9640895469 0.9103745351
| 23> H -1.0182093663 -0.7952267681 2.2386392133
| 24> H -2.5506995335 -1.2547873272 1.5162214476
| 25> H -2.2238522333 0.5849912343 -1.6574343323
| 26> H -2.0587730638 -1.1487434921 -1.3741799268
| 27> H -3.3692604942 -0.2505108591 -0.5996856642
| 28> *
| 29>
| 30>                          ****END OF INPUT****

CARTESIAN COORDINATES (ANGSTROEM)
---------------------------------
  C      2.278628    0.993099    0.573461
  C      1.192670   -0.080697    0.514237
  C      1.690495   -1.299767   -0.274138
  C     -0.029796    0.448217   -0.212598
  O      0.094859    1.164343   -1.188258
  C     -1.420077    0.081258    0.285734
  C     -1.503792   -1.053429    1.302106
  C     -2.330832   -0.201325   -0.914265
  H      3.187095    0.585107    1.007601
  H      1.947671    1.835284    1.177099
  H      2.496675    1.356545   -0.428202
  H      0.932283   -0.389479    1.525935
  H      2.577491   -1.707713    0.202777
  H      0.930513   -2.075290   -0.319522
  H      1.942602   -1.003193   -1.290082
  H     -1.777671    1.003570    0.764374
  H     -1.059418   -1.964090    0.910375
  H     -1.018209   -0.795227    2.238639
  H     -2.550700   -1.254787    1.516221
  H     -2.223852    0.584991   -1.657434
  H     -2.058773   -1.148743   -1.374180
  H     -3.369260   -0.250511   -0.599686

 Total Charge           Charge          ....    0
 Multiplicity           Mult            ....    1
 Number of Electrons    NEL             ....   64
 Basis Dimension        Dim             ....  227

ORBITAL ENERGIES
----------------

  NO   OCC          E(Eh)            E(eV)
   0   2.0000     -18.932730      -515.1858
   1   2.0000     -10.112267      -275.1688
   2   2.0000     -10.047441      -273.4048
   3   2.0000     -10.043983      -273.3107
   4   2.0000     -10.030632      -272.9474
   5   2.0000     -10.029761      -272.9237
   6   2.0000     -10.019851      -272.6540
   7   2.0000     -10.018547      -272.6185
   8   2.0000      -1.001682       -27.2572
   9   2.0000      -0.782938       -21.3048
  10   2.0000      -0.760531       -20.6951
  11   2.0000      -0.658744       -17.9253
  12   2.0000      -0.657309       -17.8863
  13   2.0000      -0.620182       -16.8760
  14   2.0000      -0.563446       -15.3321
  15   2.0000      -0.484548       -13.1852
  16   2.0000      -0.461100       -12.5472
  17   2.0000      -0.432825       -11.7778
  18   2.0000      -0.419562       -11.4169
  19   2.0000      -0.404526       -11.0077
  20   2.0000      -0.388028       -10.5588
  21   2.0000      -0.378413       -10.2971
  22   2.0000      -0.367278        -9.9941
  23   2.0000      -0.356921        -9.7123
  24   2.0000      -0.351826        -9.5737
  25   2.0000      -0.342906        -9.3309
  26   2.0000      -0.328740        -8.9455
  27   2.0000      -0.315497        -8.5851
  28   2.0000      -0.308434        -8.3929
  29   2.0000      -0.305697        -8.3184
  30   2.0000      -0.298485        -8.1222
  31   2.0000      -0.208394        -5.6707
  32   0.0000      -0.048382        -1.3165
  33   0.0000       0.067274         1.8306
  34   0.0000       0.107816         2.9338
  35   0.0000       0.111020         3.0210
  36   0.0000       0.115747         3.1496

MULLIKEN ATOMIC CHARGES
-----------------------
   0 C :   -0.506602
   1 C :    0.000706
   2 C :   -0.506208
   3 C :    0.198474
   4 O :   -0.367893
   5 C :   -0.006385
   6 C :   -0.517358
   7 C :   -0.497933
   8 H :    0.144852
   9 H :    0.146615
  10 H :    0.180702
  11 H :    0.149317
  12 H :    0.157120
  13 H :    0.143137
  14 H :    0.175344
  15 H :    0.166007
  16 H :    0.158932
  17 H :    0.150945
  18 H :    0.151055
  19 H :    0.182616
  20 H :    0.147355
  21 H :    0.149200
Sum of atomic charges:   -0.0000000

LOEWDIN ATOMIC CHARGES
----------------------
   0 C :   -0.392170
   1 C :   -0.220091
   2 C :   -0.385423
   3 C :    0.243351
   4 O :   -0.482595
   5 C :   -0.216292
   6 C :   -0.412543
   7 C :   -0.390497
   8 H :    0.152100
   9 H :    0.156992
  10 H :    0.172139
  11 H :    0.164214
  12 H :    0.156758
  13 H :    0.153768
  14 H :    0.165782
  15 H :    0.184642
  16 H :    0.156337
  17 H :    0.152983
  18 H :    0.158460
  19 H :    0.175065
  20 H :    0.155738
  21 H :    0.151282

  Mayer bond orders larger than 0.100000
B(  0-C ,  1-C ) :   0.9130 B(  0-C ,  8-H ) :   0.9766 B(  0-C ,  9-H ) :   0.9765
B(  0-C , 10-H ) :   0.9790 B(  1-C ,  2-C ) :   0.8811 B(  1-C ,  3-C ) :   0.8786
B(  1-C , 11-H ) :   0.9519 B(  2-C , 12-H ) :   0.9735 B(  2-C , 13-H ) :   0.9694
B(  2-C , 14-H ) :   0.9789 B(  3-C ,  4-O ) :   1.8834 B(  3-C ,  5-C ) :   0.9120
B(  5-C ,  6-C ) :   0.8531 B(  5-C ,  7-C ) :   0.9157 B(  5-C , 15-H ) :   0.9196
B(  6-C , 16-H ) :   0.9926 B(  6-C , 17-H ) :   0.9739 B(  6-C , 18-H ) :   0.9605
B(  7-C , 19-H ) :   0.9645 B(  7-C , 20-H ) :   0.9779 B(  7-C , 21-H ) :   0.9792

Dispersion correction           -0.006459443
FINAL SINGLE POINT ENERGY      -350.300587587797

DIPOLE MOMENT
-------------

Method             : SCF
Type of density    : Electron Density
Multiplicity       :   1
Irrep              :   0
Energy             :  -350.3047328423804743 Eh
Relativity type    :
Basis              : AO
                                X                 Y                 Z
Electronic contribution:     -0.083142687       4.255275011      -2.602528328
Nuclear contribution   :     -0.039453040      -4.883263501       3.429109342
                        -----------------------------------------
Total Dipole Moment    :     -0.122595727      -0.627988490       0.826581014
                        -----------------------------------------
Magnitude (a.u.)       :      1.045292031
Magnitude (Debye)      :      2.656921193

Rotational constants in cm-1:             0.098625             0.047231             0.040498
Rotational constants in MHz :          2956.716143          1415.963399          1214.096437

                             ****ORCA TERMINATED NORMALLY****
TOTAL RUN TIME: 0 days 0 hours 0 minutes 38 seconds 934 msec
