                         Program Version 6.0.0  -   RELEASE  -
|  1> ! r2scan-3c def2/J RI DEFGRID2 scfconv6 printgap
|  2> %output
|  3>     printlevel normal
|  4> end
|  5> %cpcm
|  6>     smd true
|  7>     smdsolvent "water"
|  8> end
|  9> * xyz 0 1
| 10> C 2.2786279699 0.993098556 0.5734610361
| 11> C 1.1926698639 -0.080697105 0.5142372047
| 12> C 1.6904954236 -1.2997674418 -0.2741376378
| 13> C -0.0297963142 0.4482169117 -0.2125984138
| 14> O 0.0948588016 1.1643425718 -1.1882578207
| 15> C -1.420076643 0.0812575488 0.2857344507
| 16> C -1.5037917472 -1.05342904 1.3021059463
| 17> C -2.3308316088 -0.2013246623 -0.9142647612
| 18> H 3.1870950396 0.5851070096 1.0076010528
| 19> H 1.9476709921 1.8352842507 1.1770987991
| 20> H 2.4966747819 1.3565449149 -0.4282022891
| 21> H 0.9322830399 -0.3894794897 1.5259348206
| 22> H 2.5774909051 -1.7077125201 0.2027768703
| 23> H 0.9305129692 -2.075289744 -0.3195217401
| 24> H 1.9426023157 -1.0031928174 -1.2900824848
| 25> H -1.7776712717 1.0035704252 0.7643741363
| 26> H -1.0594175159 -1.9640895469 0.9103745351
| 27> H -1.0182093663 -0.7952267681 2.2386392133
| 28> H -2.5506995335 -1.2547873272 1.5162214476
| 29> H -2.2238522333 0.5849912343 -1.6574343323
| 30> H -2.0587730638 -1.1487434921 -1.3741799268
| 31> H -3.3692604942 -0.2505108591 -0.5996856642
| 32> *
| 33>
| 34>                          ****END OF INPUT****

CARTESIAN COORDINATES (ANGSTROEM)
---------------------------------
  C      2.278628    0.993099    0.573461
  C      1.192670   -0.080697    0.514237
  C      1.690495   -1.299767   -0.274138
  C     -0.029796    0.448217   -0.212598
  O      0.094859    1.164343   -1.188258
  C     -1.420077    0.081258    0.285734
  C     -1.503792   -1.053429    1.302106
  C     -2.330832   -0.201325   -0.914265
  H      3.187095    0.585107    1.007601
  H      1.947671    1.835284    1.177099
  H      2.496675    1.356545   -0.428202
  H      0.932283   -0.389479    1.525935
  H      2.577491   -1.707713    0.202777
  H      0.930513   -2.075290   -0.319522
  H      1.942602   -1.003193   -1.290082
  H     -1.777671    1.003570    0.764374
  H     -1.059418   -1.964090    0.910375
  H     -1.018209   -0.795227    2.238639
  H     -2.550700   -1.254787    1.516221
  H     -2.223852    0.584991   -1.657434
  H     -2.058773   -1.148743   -1.374180
  H     -3.369260   -0.250511   -0.599686

 Total Charge           Charge          ....    0
 Multiplicity           Mult            ....    1
 Number of Electrons    NEL             ....   64
 Basis Dimension        Dim             ....  227

ORBITAL ENERGIES
----------------

  NO   OCC          E(Eh)            E(eV)
   0   2.0000     -18.942925      -515.4632
   1   2.0000     -10.118325      -275.3336
   2   2.0000     -10.039137      -273.1788
   3   2.0000     -10.036295      -273.1015
   4   2.0000     -10.019363      -272.6407
   5   2.0000     -10.013330      -272.4766
   6   2.0000     -10.013321      -272.4763
   7   2.0000     -10.012590      -272.4564
   8   2.0000      -1.013346       -27.5745
   9   2.0000      -0.775238       -21.0953
  10   2.0000      -0.752031       -20.4638
  11   2.0000      -0.649578       -17.6759
  12   2.0000      -0.647674       -17.6241
  13   2.0000      -0.613979       -16.7072
  14   2.0000      -0.555903       -15.1269
  15   2.0000      -0.480952       -13.0874
  16   2.0000      -0.454680       -12.3725
  17   2.0000      -0.428767       -11.6673
  18   2.0000      -0.418386       -11.3849
  19   2.0000      -0.401109       -10.9147
  20   2.0000      -0.381171       -10.3722
  21   2.0000      -0.370087       -10.0706
  22   2.0000      -0.359634        -9.7861
  23   2.0000      -0.347471        -9.4552
  24   2.0000      -0.343730        -9.3534
  25   2.0000      -0.337436        -9.1821
  26   2.0000      -0.324387        -8.8270
  27   2.0000      -0.306276        -8.3342
  28   2.0000      -0.301204        -8.1962
  29   2.0000      -0.300491        -8.1768
  30   2.0000      -0.294093        -8.0027
  31   2.0000      -0.216730        -5.8975
  32   0.0000      -0.050868        -1.3842
  33   0.0000       0.078402         2.1334
  34   0.0000       0.119688         3.2569
  35   0.0000       0.121948         3.3184
  36   0.0000       0.129232         3.5166

MULLIKEN ATOMIC CHARGES
-----------------------
   0 C :   -0.557944
   1 C :    0.025716
   2 C :   -0.545871
   3 C :    0.231344
   4 O :   -0.466937
   5 C :    0.018456
   6 C :   -0.569142
   7 C :   -0.540374
   8 H :    0.165537
   9 H :    0.166009
  10 H :    0.169729
  11 H :    0.175678
  12 H :    0.175507
  13 H :    0.169463
  14 H :    0.173463
  15 H :    0.192303
  16 H :    0.179353
  17 H :    0.169930
  18 H :    0.163156
  19 H :    0.167003
  20 H :    0.168602
  21 H :    0.169018
Sum of atomic charges:   -0.0000000

LOEWDIN ATOMIC CHARGES
----------------------
   0 C :   -0.399927
   1 C :   -0.213190
   2 C :   -0.388673
   3 C :    0.261188
   4 O :   -0.554922
   5 C :   -0.208804
   6 C :   -0.415345
   7 C :   -0.397509
   8 H :    0.159719
   9 H :    0.161145
  10 H :    0.165396
  11 H :    0.175764
  12 H :    0.163410
  13 H :    0.162524
  14 H :    0.163279
  15 H :    0.195096
  16 H :    0.162544
  17 H :    0.159733
  18 H :    0.162076
  19 H :    0.166818
  20 H :    0.161069
  21 H :    0.158609

  Mayer bond orders larger than 0.100000
B(  0-C ,  1-C ) :   0.8892 B(  0-C ,  8-H ) :   0.9715 B(  0-C ,  9-H ) :   0.9759
B(  0-C , 10-H ) :   0.9826 B(  1-C ,  2-C ) :   0.8653 B(  1-C ,  3-C ) :   0.8916
B(  1-C , 11-H ) :   0.9430 B(  2-C , 12-H ) :   0.9677 B(  2-C , 13-H ) :   0.9640
B(  2-C , 14-H ) :   0.9765 B(  3-C ,  4-O ) :   1.8169 B(  3-C ,  5-C ) :   0.9285
B(  5-C ,  6-C ) :   0.8416 B(  5-C ,  7-C ) :   0.8882 B(  5-C , 15-H ) :   0.9112
B(  6-C , 16-H ) :   0.9888 B(  6-C , 17-H ) :   0.9696 B(  6-C , 18-H ) :   0.9574
B(  7-C , 19-H ) :   0.9684 B(  7-C , 20-H ) :   0.9774 B(  7-C , 21-H ) :   0.9740

Dispersion correction           -0.006459443
FINAL SINGLE POINT ENERGY      -350.305207334155

DIPOLE MOMENT
-------------

Method             : SCF
Type of density    : Electron Density
Multiplicity       :   1
Irrep              :   0
Energy             :  -350.3093525887381929 Eh
Relativity type    :
Basis              : AO
                                X                 Y                 Z
Electronic contribution:     -0.151363049       3.895271896      -2.110806823
Nuclear contribution   :     -0.039453040      -4.883263501       3.429109342
                        -----------------------------------------
Total Dipole Moment    :     -0.190816089      -0.987991605       1.318302519
                        -----------------------------------------
Magnitude (a.u.)       :      1.658451001
Magnitude (Debye)      :      4.215447438

Rotational constants in cm-1:             0.098625             0.047231             0.040498
Rotational constants in MHz :          2956.716143          1415.963399          1214.096437

                             ****ORCA TERMINATED NORMALLY****
TOTAL RUN TIME: 0 days 0 hours 0 minutes 40 seconds 538 msec
