                         Program Version 6.0.0  -   RELEASE  -
|  1> ! r2scan-3c def2/J RI DEFGRID2 scfconv6 printgap
|  2> %output
|  3>     printlevel normal
|  4> end
|  5> * xyz 0 1
|  6> C 1.8361112897 -0.8331837654 0.8614871505
|  7> C 1.1792398726 0.4144686958 0.2747831438
|  8> H 0.8404965098 1.0664178429 1.0951986944
|  9> C -0.0063189114 0.0797920573 -0.6364972065
| 10> C -1.2431058915 -0.4957224609 0.0596580136
| 11> C -1.9106823962 0.5278745001 0.9757956978
| 12> C -2.2397414492 -0.9713373209 -0.9972693602
| 13> O 2.0962272509 1.1440365981 -0.5318777707
| 14> H 1.1269505417 -1.3782947273 1.4761259951
| 15> H 2.1817154011 -1.4802686763 0.0586613506
| 16> H 2.6868218931 -0.5594817091 1.4820084119
| 17> H -0.2815413875 0.9991495599 -1.1587824846
| 18> H 0.3492180674 -0.626408495 -1.3900250228
| 19> H -0.9450473955 -1.3612034633 0.6598246619
| 20> H -1.252436715 0.8174757789 1.790317244
| 21> H -2.817557649 0.1100013099 1.4065904576
| 22> H -2.1768030869 1.4199252865 0.4131139998
| 23> H -1.7917330742 -1.7295847236 -1.6348260264
| 24> H -3.1216128954 -1.3970844308 -0.5247179525
| 25> H -2.5526160028 -0.1382344002 -1.6226305769
| 26> H 2.8943591349 1.3281926647 -0.0185952293
| 27> *
| 28>
| 29>                          ****END OF INPUT****

CARTESIAN COORDINATES (ANGSTROEM)
---------------------------------
  C      1.836111   -0.833184    0.861487
  C      1.179240    0.414469    0.274783
  H      0.840497    1.066418    1.095199
  C     -0.006319    0.079792   -0.636497
  C     -1.243106   -0.495722    0.059658
  C     -1.910682    0.527875    0.975796
  C     -2.239741   -0.971337   -0.997269
  O      2.096227    1.144037   -0.531878
  H      1.126951   -1.378295    1.476126
  H      2.181715   -1.480269    0.058661
  H      2.686822   -0.559482    1.482008
  H     -0.281541    0.999150   -1.158782
  H      0.349218   -0.626408   -1.390025
  H     -0.945047   -1.361203    0.659825
  H     -1.252437    0.817476    1.790317
  H     -2.817558    0.110001    1.406590
  H     -2.176803    1.419925    0.413114
  H     -1.791733   -1.729585   -1.634826
  H     -3.121613   -1.397084   -0.524718
  H     -2.552616   -0.138234   -1.622631
  H      2.894359    1.328193   -0.018595

 Total Charge           Charge          ....    0
 Multiplicity           Mult            ....    1
 Number of Electrons    NEL             ....   58
 Basis Dimension        Dim             ....  208

ORBITAL ENERGIES
----------------

  NO   OCC          E(Eh)            E(eV)
   0   2.0000     -18.942768      -515.4589
   1   2.0000     -10.079334      -274.2726
   2   2.0000     -10.034920      -273.0640
   3   2.0000     -10.020362      -272.6679
   4   2.0000     -10.018998      -272.6308
   5   2.0000     -10.015393      -272.5327
   6   2.0000     -10.014612      -272.5114
   7   2.0000      -0.980165       -26.6716
   8   2.0000      -0.779342       -21.2070
   9   2.0000      -0.719139       -19.5688
  10   2.0000      -0.651962       -17.7408
  11   2.0000      -0.649414       -17.6715
  12   2.0000      -0.567958       -15.4549
  13   2.0000      -0.519184       -14.1277
  14   2.0000      -0.472897       -12.8682
  15   2.0000      -0.441097       -12.0029
  16   2.0000      -0.414401       -11.2764
  17   2.0000      -0.402151       -10.9431
  18   2.0000      -0.393759       -10.7147
  19   2.0000      -0.375762       -10.2250
  20   2.0000      -0.355175        -9.6648
  21   2.0000      -0.347592        -9.4585
  22   2.0000      -0.329602        -8.9689
  23   2.0000      -0.325007        -8.8439
  24   2.0000      -0.311303        -8.4710
  25   2.0000      -0.295037        -8.0284
  26   2.0000      -0.291611        -7.9351
  27   2.0000      -0.276198        -7.5157
  28   2.0000      -0.232819        -6.3353
  29   0.0000       0.064804         1.7634
  30   0.0000       0.083834         2.2812
  31   0.0000       0.115645         3.1469
  32   0.0000       0.119412         3.2494
  33   0.0000       0.124331         3.3832

MULLIKEN ATOMIC CHARGES
-----------------------
   0 C :   -0.509219
   1 C :    0.050784
   2 H :    0.123545
   3 C :   -0.278692
   4 C :   -0.053633
   5 C :   -0.494708
   6 C :   -0.478789
   7 O :   -0.423185
   8 H :    0.150574
   9 H :    0.162750
  10 H :    0.137285
  11 H :    0.160978
  12 H :    0.144236
  13 H :    0.140979
  14 H :    0.144507
  15 H :    0.145018
  16 H :    0.154151
  17 H :    0.146937
  18 H :    0.145782
  19 H :    0.148543
  20 H :    0.282155
Sum of atomic charges:   -0.0000000

LOEWDIN ATOMIC CHARGES
----------------------
   0 C :   -0.401295
   1 C :    0.050173
   2 H :    0.159996
   3 C :   -0.265666
   4 C :   -0.244781
   5 C :   -0.417034
   6 C :   -0.414394
   7 O :   -0.618293
   8 H :    0.157227
   9 H :    0.162093
  10 H :    0.151446
  11 H :    0.173411
  12 H :    0.166246
  13 H :    0.154048
  14 H :    0.150584
  15 H :    0.153161
  16 H :    0.155717
  17 H :    0.153198
  18 H :    0.151829
  19 H :    0.155096
  20 H :    0.267240

  Mayer bond orders larger than 0.100000
B(  0-C ,  1-C ) :   0.9045 B(  0-C ,  8-H ) :   0.9717 B(  0-C ,  9-H ) :   0.9813
B(  0-C , 10-H ) :   0.9685 B(  1-C ,  2-H ) :   0.9664 B(  1-C ,  3-C ) :   0.9399
B(  1-C ,  7-O ) :   0.8931 B(  3-C ,  4-C ) :   0.8870 B(  3-C , 11-H ) :   0.9693
B(  3-C , 12-H ) :   0.9763 B(  4-C ,  5-C ) :   0.8981 B(  4-C ,  6-C ) :   0.9021
B(  4-C , 13-H ) :   0.9622 B(  5-C , 14-H ) :   0.9724 B(  5-C , 15-H ) :   0.9732
B(  5-C , 16-H ) :   0.9852 B(  6-C , 17-H ) :   0.9795 B(  6-C , 18-H ) :   0.9759
B(  6-C , 19-H ) :   0.9854 B(  7-O , 20-H ) :   0.9030

Dispersion correction           -0.005537401
FINAL SINGLE POINT ENERGY      -312.202914123431

DIPOLE MOMENT
-------------

Method             : SCF
Type of density    : Electron Density
Multiplicity       :   1
Irrep              :   0
Energy             :  -312.2084979382756273 Eh
Relativity type    :
Basis              : AO
                                X                 Y                 Z
Electronic contribution:      4.593396785       2.515806705      -1.345610815
Nuclear contribution   :     -4.528165055      -2.731276202       1.898702078
                        -----------------------------------------
Total Dipole Moment    :      0.065231730      -0.215469496       0.553091263
                        -----------------------------------------
Magnitude (a.u.)       :      0.597153437
Magnitude (Debye)      :      1.517843412

Rotational constants in cm-1:             0.141170             0.044811             0.044273
Rotational constants in MHz :          4232.173081          1343.405767          1327.271555

                             ****ORCA TERMINATED NORMALLY****
TOTAL RUN TIME: 0 days 0 hours 0 minutes 30 seconds 527 msec
