                         Program Version 6.0.0  -   RELEASE  -
|  1> ! r2scan-3c def2/J RI DEFGRID2 scfconv6 printgap
|  2> %output
|  3>     printlevel normal
|  4> end
|  5> %cpcm
|  6>     smd true
|  7>     smdsolvent "water"
|  8> end
|  9> * xyz 0 1
| 10> C 1.8361112897 -0.8331837654 0.8614871505
| 11> C 1.1792398726 0.4144686958 0.2747831438
| 12> H 0.8404965098 1.0664178429 1.0951986944
| 13> C -0.0063189114 0.0797920573 -0.6364972065
| 14> C -1.2431058915 -0.4957224609 0.0596580136
| 15> C -1.9106823962 0.5278745001 0.9757956978
| 16> C -2.2397414492 -0.9713373209 -0.9972693602
| 17> O 2.0962272509 1.1440365981 -0.5318777707
| 18> H 1.1269505417 -1.3782947273 1.4761259951
| 19> H 2.1817154011 -1.4802686763 0.0586613506
| 20> H 2.6868218931 -0.5594817091 1.4820084119
| 21> H -0.2815413875 0.9991495599 -1.1587824846
| 22> H 0.3492180674 -0.626408495 -1.3900250228
| 23> H -0.9450473955 -1.3612034633 0.6598246619
| 24> H -1.252436715 0.8174757789 1.790317244
| 25> H -2.817557649 0.1100013099 1.4065904576
| 26> H -2.1768030869 1.4199252865 0.4131139998
| 27> H -1.7917330742 -1.7295847236 -1.6348260264
| 28> H -3.1216128954 -1.3970844308 -0.5247179525
| 29> H -2.5526160028 -0.1382344002 -1.6226305769
| 30> H 2.8943591349 1.3281926647 -0.0185952293
| 31> *
| 32>
| 33>                          ****END OF INPUT****

CARTESIAN COORDINATES (ANGSTROEM)
---------------------------------
  C      1.836111   -0.833184    0.861487
  C      1.179240    0.414469    0.274783
  H      0.840497    1.066418    1.095199
  C     -0.006319    0.079792   -0.636497
  C     -1.243106   -0.495722    0.059658
  C     -1.910682    0.527875    0.975796
  C     -2.239741   -0.971337   -0.997269
  O      2.096227    1.144037   -0.531878
  H      1.126951   -1.378295    1.476126
  H      2.181715   -1.480269    0.058661
  H      2.686822   -0.559482    1.482008
  H     -0.281541    0.999150   -1.158782
  H      0.349218   -0.626408   -1.390025
  H     -0.945047   -1.361203    0.659825
  H     -1.252437    0.817476    1.790317
  H     -2.817558    0.110001    1.406590
  H     -2.176803    1.419925    0.413114
  H     -1.791733   -1.729585   -1.634826
  H     -3.121613   -1.397084   -0.524718
  H     -2.552616   -0.138234   -1.622631
  H      2.894359    1.328193   -0.018595

 Total Charge           Charge          ....    0
 Multiplicity           Mult            ....    1
 Number of Electrons    NEL             ....   58
 Basis Dimension        Dim             ....  208

ORBITAL ENERGIES
----------------

  NO   OCC          E(Eh)            E(eV)
   0   2.0000     -18.947352      -515.5836
   1   2.0000     -10.074268      -274.1348
   2   2.0000     -10.026812      -272.8434
   3   2.0000     -10.014332      -272.5038
   4   2.0000     -10.009320      -272.3674
   5   2.0000     -10.006432      -272.2889
   6   2.0000     -10.006153      -272.2813
   7   2.0000      -0.983503       -26.7625
   8   2.0000      -0.772240       -21.0137
   9   2.0000      -0.711981       -19.3740
  10   2.0000      -0.644642       -17.5416
  11   2.0000      -0.641549       -17.4574
  12   2.0000      -0.562700       -15.3118
  13   2.0000      -0.512661       -13.9502
  14   2.0000      -0.469295       -12.7702
  15   2.0000      -0.434314       -11.8183
  16   2.0000      -0.410441       -11.1687
  17   2.0000      -0.394515       -10.7353
  18   2.0000      -0.386440       -10.5156
  19   2.0000      -0.367357        -9.9963
  20   2.0000      -0.347109        -9.4453
  21   2.0000      -0.340279        -9.2595
  22   2.0000      -0.325870        -8.8674
  23   2.0000      -0.318851        -8.6764
  24   2.0000      -0.307664        -8.3720
  25   2.0000      -0.288425        -7.8484
  26   2.0000      -0.284038        -7.7291
  27   2.0000      -0.272378        -7.4118
  28   2.0000      -0.237573        -6.4647
  29   0.0000       0.080719         2.1965
  30   0.0000       0.093161         2.5350
  31   0.0000       0.124959         3.4003
  32   0.0000       0.128422         3.4945
  33   0.0000       0.131441         3.5767

MULLIKEN ATOMIC CHARGES
-----------------------
   0 C :   -0.551968
   1 C :    0.068118
   2 H :    0.138715
   3 C :   -0.299074
   4 C :   -0.032785
   5 C :   -0.542365
   6 C :   -0.526604
   7 O :   -0.514580
   8 H :    0.168154
   9 H :    0.165557
  10 H :    0.162494
  11 H :    0.160466
  12 H :    0.153374
  13 H :    0.156367
  14 H :    0.159451
  15 H :    0.156927
  16 H :    0.163576
  17 H :    0.158321
  18 H :    0.158356
  19 H :    0.158853
  20 H :    0.338647
Sum of atomic charges:   -0.0000000

LOEWDIN ATOMIC CHARGES
----------------------
   0 C :   -0.405133
   1 C :    0.051558
   2 H :    0.167735
   3 C :   -0.273095
   4 C :   -0.240416
   5 C :   -0.425039
   6 C :   -0.423367
   7 O :   -0.657013
   8 H :    0.163860
   9 H :    0.162018
  10 H :    0.159863
  11 H :    0.171155
  12 H :    0.167268
  13 H :    0.159595
  14 H :    0.154844
  15 H :    0.155964
  16 H :    0.157248
  17 H :    0.155435
  18 H :    0.154967
  19 H :    0.156690
  20 H :    0.285861

  Mayer bond orders larger than 0.100000
B(  0-C ,  1-C ) :   0.9122 B(  0-C ,  8-H ) :   0.9665 B(  0-C ,  9-H ) :   0.9771
B(  0-C , 10-H ) :   0.9644 B(  1-C ,  2-H ) :   0.9625 B(  1-C ,  3-C ) :   0.9309
B(  1-C ,  7-O ) :   0.8738 B(  3-C ,  4-C ) :   0.8967 B(  3-C , 11-H ) :   0.9679
B(  3-C , 12-H ) :   0.9700 B(  4-C ,  5-C ) :   0.8908 B(  4-C ,  6-C ) :   0.8852
B(  4-C , 13-H ) :   0.9632 B(  5-C , 14-H ) :   0.9691 B(  5-C , 15-H ) :   0.9714
B(  5-C , 16-H ) :   0.9842 B(  6-C , 17-H ) :   0.9776 B(  6-C , 18-H ) :   0.9732
B(  6-C , 19-H ) :   0.9845 B(  7-O , 20-H ) :   0.8775

Dispersion correction           -0.005537401
FINAL SINGLE POINT ENERGY      -312.209029830290

DIPOLE MOMENT
-------------

Method             : SCF
Type of density    : Electron Density
Multiplicity       :   1
Irrep              :   0
Energy             :  -312.2146136451346479 Eh
Relativity type    :
Basis              : AO
                                X                 Y                 Z
Electronic contribution:      4.629300757       2.417494349      -1.040246084
Nuclear contribution   :     -4.528165055      -2.731276202       1.898702078
                        -----------------------------------------
Total Dipole Moment    :      0.101135702      -0.313781852       0.858455994
                        -----------------------------------------
Magnitude (a.u.)       :      0.919583696
Magnitude (Debye)      :      2.337396000

Rotational constants in cm-1:             0.141170             0.044811             0.044273
Rotational constants in MHz :          4232.173081          1343.405767          1327.271555

                             ****ORCA TERMINATED NORMALLY****
TOTAL RUN TIME: 0 days 0 hours 0 minutes 36 seconds 527 msec
