                         Program Version 6.0.0  -   RELEASE  -
|  1> ! r2scan-3c def2/J RI DEFGRID2 scfconv6 printgap
|  2> %output
|  3>     printlevel normal
|  4> end
|  5> * xyz 0 1
|  6> C -2.2402502609 0.7317099556 1.0166596919
|  7> C -1.855387918 0.3365965671 -0.4061358082
|  8> C -0.523256926 -0.3658414312 -0.4886201997
|  9> O -0.2954425423 -1.3018000459 -1.2310394515
| 10> O 0.3791330407 0.1663314239 0.3186736465
| 11> C 1.7149482322 -0.3642181254 0.3268409281
| 12> C 2.7009473584 0.787036271 0.4180808029
| 13> H -3.1973176023 1.2445782574 1.0064172678
| 14> H -2.3252219543 -0.149978922 1.6465095632
| 15> H -1.4902880691 1.3911117327 1.4427071937
| 16> H -1.7774558456 1.2319113712 -1.0274082827
| 17> H -2.6021781296 -0.3207311475 -0.8520680339
| 18> H 1.7967327561 -1.0221325429 1.1969333888
| 19> H 1.8606866131 -0.9552392198 -0.5828202448
| 20> H 2.606362547 1.434845254 -0.4489615988
| 21> H 2.5090069952 1.3695309215 1.3142860767
| 22> H 3.7102862498 0.3906887873 0.4574609259
| 23> *
| 24>
| 25>                          ****END OF INPUT****

CARTESIAN COORDINATES (ANGSTROEM)
---------------------------------
  C     -2.240250    0.731710    1.016660
  C     -1.855388    0.336597   -0.406136
  C     -0.523257   -0.365841   -0.488620
  O     -0.295443   -1.301800   -1.231039
  O      0.379133    0.166331    0.318674
  C      1.714948   -0.364218    0.326841
  C      2.700947    0.787036    0.418081
  H     -3.197318    1.244578    1.006417
  H     -2.325222   -0.149979    1.646510
  H     -1.490288    1.391112    1.442707
  H     -1.777456    1.231911   -1.027408
  H     -2.602178   -0.320731   -0.852068
  H      1.796733   -1.022133    1.196933
  H      1.860687   -0.955239   -0.582820
  H      2.606363    1.434845   -0.448962
  H      2.509007    1.369531    1.314286
  H      3.710286    0.390689    0.457461

 Total Charge           Charge          ....    0
 Multiplicity           Mult            ....    1
 Number of Electrons    NEL             ....   56
 Basis Dimension        Dim             ....  193

ORBITAL ENERGIES
----------------

  NO   OCC          E(Eh)            E(eV)
   0   2.0000     -18.997475      -516.9476
   1   2.0000     -18.924805      -514.9701
   2   2.0000     -10.151445      -276.2349
   3   2.0000     -10.091100      -274.5928
   4   2.0000     -10.044045      -273.3124
   5   2.0000     -10.032689      -273.0034
   6   2.0000     -10.027233      -272.8549
   7   2.0000      -1.072104       -29.1734
   8   2.0000      -0.972826       -26.4719
   9   2.0000      -0.767195       -20.8764
  10   2.0000      -0.731723       -19.9112
  11   2.0000      -0.637757       -17.3542
  12   2.0000      -0.599906       -16.3243
  13   2.0000      -0.532772       -14.4975
  14   2.0000      -0.473385       -12.8815
  15   2.0000      -0.446147       -12.1403
  16   2.0000      -0.443140       -12.0584
  17   2.0000      -0.420127       -11.4322
  18   2.0000      -0.395218       -10.7544
  19   2.0000      -0.378950       -10.3118
  20   2.0000      -0.367638       -10.0039
  21   2.0000      -0.360366        -9.8060
  22   2.0000      -0.336540        -9.1577
  23   2.0000      -0.334453        -9.1009
  24   2.0000      -0.321961        -8.7610
  25   2.0000      -0.305946        -8.3252
  26   2.0000      -0.270034        -7.3480
  27   2.0000      -0.231364        -6.2957
  28   0.0000      -0.012700        -0.3456
  29   0.0000       0.075036         2.0418
  30   0.0000       0.093830         2.5532
  31   0.0000       0.118490         3.2243
  32   0.0000       0.122214         3.3256

MULLIKEN ATOMIC CHARGES
-----------------------
   0 C :   -0.459967
   1 C :   -0.306022
   2 C :    0.386408
   3 O :   -0.431929
   4 O :   -0.159451
   5 C :   -0.154245
   6 C :   -0.444041
   7 H :    0.147216
   8 H :    0.148785
   9 H :    0.160997
  10 H :    0.163818
  11 H :    0.169197
  12 H :    0.143156
  13 H :    0.184601
  14 H :    0.151909
  15 H :    0.152609
  16 H :    0.146960
Sum of atomic charges:    0.0000000

LOEWDIN ATOMIC CHARGES
----------------------
   0 C :   -0.399261
   1 C :   -0.235674
   2 C :    0.360892
   3 O :   -0.440006
   4 O :   -0.602851
   5 C :    0.033407
   6 C :   -0.387047
   7 H :    0.151142
   8 H :    0.155595
   9 H :    0.163826
  10 H :    0.178806
  11 H :    0.176527
  12 H :    0.174739
  13 H :    0.194216
  14 H :    0.158371
  15 H :    0.157873
  16 H :    0.159448

  Mayer bond orders larger than 0.100000
B(  0-C ,  1-C ) :   0.8948 B(  0-C ,  7-H ) :   0.9702 B(  0-C ,  8-H ) :   0.9770
B(  0-C ,  9-H ) :   0.9730 B(  1-C ,  2-C ) :   0.9993 B(  1-C , 10-H ) :   0.9341
B(  1-C , 11-H ) :   0.9845 B(  2-C ,  3-O ) :   1.8490 B(  2-C ,  4-O ) :   1.0652
B(  4-O ,  5-C ) :   0.7788 B(  5-C ,  6-C ) :   0.9485 B(  5-C , 12-H ) :   0.9483
B(  5-C , 13-H ) :   0.9673 B(  6-C , 14-H ) :   0.9737 B(  6-C , 15-H ) :   0.9703
B(  6-C , 16-H ) :   0.9672

Dispersion correction           -0.003932175
FINAL SINGLE POINT ENERGY      -346.934423185427

DIPOLE MOMENT
-------------

Method             : SCF
Type of density    : Electron Density
Multiplicity       :   1
Irrep              :   0
Energy             :  -346.9409923654853856 Eh
Relativity type    :
Basis              : AO
                                X                 Y                 Z
Electronic contribution:     -0.796080158      -3.644804614      -3.292433475
Nuclear contribution   :      1.024418680       4.312417183       3.882734287
                        -----------------------------------------
Total Dipole Moment    :      0.228338522       0.667612569       0.590300812
                        -----------------------------------------
Magnitude (a.u.)       :      0.919945689
Magnitude (Debye)      :      2.338316113

Rotational constants in cm-1:             0.146989             0.054346             0.042940
Rotational constants in MHz :          4406.618634          1629.248534          1287.323097

                             ****ORCA TERMINATED NORMALLY****
TOTAL RUN TIME: 0 days 0 hours 0 minutes 22 seconds 562 msec
