                         Program Version 6.0.0  -   RELEASE  -
|  1> ! r2scan-3c def2/J RI DEFGRID2 scfconv6 printgap
|  2> %output
|  3>     printlevel normal
|  4> end
|  5> %cpcm
|  6>     smd true
|  7>     smdsolvent "water"
|  8> end
|  9> * xyz 0 1
| 10> C -2.2402502609 0.7317099556 1.0166596919
| 11> C -1.855387918 0.3365965671 -0.4061358082
| 12> C -0.523256926 -0.3658414312 -0.4886201997
| 13> O -0.2954425423 -1.3018000459 -1.2310394515
| 14> O 0.3791330407 0.1663314239 0.3186736465
| 15> C 1.7149482322 -0.3642181254 0.3268409281
| 16> C 2.7009473584 0.787036271 0.4180808029
| 17> H -3.1973176023 1.2445782574 1.0064172678
| 18> H -2.3252219543 -0.149978922 1.6465095632
| 19> H -1.4902880691 1.3911117327 1.4427071937
| 20> H -1.7774558456 1.2319113712 -1.0274082827
| 21> H -2.6021781296 -0.3207311475 -0.8520680339
| 22> H 1.7967327561 -1.0221325429 1.1969333888
| 23> H 1.8606866131 -0.9552392198 -0.5828202448
| 24> H 2.606362547 1.434845254 -0.4489615988
| 25> H 2.5090069952 1.3695309215 1.3142860767
| 26> H 3.7102862498 0.3906887873 0.4574609259
| 27> *
| 28>
| 29>                          ****END OF INPUT****

CARTESIAN COORDINATES (ANGSTROEM)
---------------------------------
  C     -2.240250    0.731710    1.016660
  C     -1.855388    0.336597   -0.406136
  C     -0.523257   -0.365841   -0.488620
  O     -0.295443   -1.301800   -1.231039
  O      0.379133    0.166331    0.318674
  C      1.714948   -0.364218    0.326841
  C      2.700947    0.787036    0.418081
  H     -3.197318    1.244578    1.006417
  H     -2.325222   -0.149979    1.646510
  H     -1.490288    1.391112    1.442707
  H     -1.777456    1.231911   -1.027408
  H     -2.602178   -0.320731   -0.852068
  H      1.796733   -1.022133    1.196933
  H      1.860687   -0.955239   -0.582820
  H      2.606363    1.434845   -0.448962
  H      2.509007    1.369531    1.314286
  H      3.710286    0.390689    0.457461

 Total Charge           Charge          ....    0
 Multiplicity           Mult            ....    1
 Number of Electrons    NEL             ....   56
 Basis Dimension        Dim             ....  193

ORBITAL ENERGIES
----------------

  NO   OCC          E(Eh)            E(eV)
   0   2.0000     -19.002558      -517.0859
   1   2.0000     -18.941351      -515.4204
   2   2.0000     -10.162404      -276.5331
   3   2.0000     -10.082911      -274.3700
   4   2.0000     -10.037987      -273.1475
   5   2.0000     -10.018596      -272.6199
   6   2.0000     -10.017912      -272.6012
   7   2.0000      -1.079010       -29.3613
   8   2.0000      -0.987236       -26.8640
   9   2.0000      -0.762222       -20.7411
  10   2.0000      -0.722760       -19.6673
  11   2.0000      -0.631456       -17.1828
  12   2.0000      -0.593097       -16.1390
  13   2.0000      -0.530252       -14.4289
  14   2.0000      -0.471378       -12.8268
  15   2.0000      -0.453916       -12.3517
  16   2.0000      -0.444908       -12.1066
  17   2.0000      -0.419370       -11.4116
  18   2.0000      -0.389845       -10.6082
  19   2.0000      -0.368838       -10.0366
  20   2.0000      -0.364344        -9.9143
  21   2.0000      -0.352427        -9.5900
  22   2.0000      -0.331588        -9.0230
  23   2.0000      -0.328113        -8.9284
  24   2.0000      -0.317648        -8.6436
  25   2.0000      -0.304422        -8.2837
  26   2.0000      -0.276360        -7.5201
  27   2.0000      -0.247837        -6.7440
  28   0.0000      -0.020845        -0.5672
  29   0.0000       0.079248         2.1564
  30   0.0000       0.102910         2.8003
  31   0.0000       0.125501         3.4150
  32   0.0000       0.133394         3.6298

MULLIKEN ATOMIC CHARGES
-----------------------
   0 C :   -0.495351
   1 C :   -0.314450
   2 C :    0.427787
   3 O :   -0.522561
   4 O :   -0.175865
   5 C :   -0.144628
   6 C :   -0.487161
   7 H :    0.165250
   8 H :    0.164679
   9 H :    0.164745
  10 H :    0.195457
  11 H :    0.175878
  12 H :    0.169826
  13 H :    0.178472
  14 H :    0.164410
  15 H :    0.165316
  16 H :    0.168194
Sum of atomic charges:   -0.0000000

LOEWDIN ATOMIC CHARGES
----------------------
   0 C :   -0.401394
   1 C :   -0.233078
   2 C :    0.371320
   3 O :   -0.504691
   4 O :   -0.602245
   5 C :    0.038090
   6 C :   -0.390212
   7 H :    0.158095
   8 H :    0.159726
   9 H :    0.164080
  10 H :    0.191428
  11 H :    0.180061
  12 H :    0.185052
  13 H :    0.192872
  14 H :    0.161389
  15 H :    0.161666
  16 H :    0.167839

  Mayer bond orders larger than 0.100000
B(  0-C ,  1-C ) :   0.8825 B(  0-C ,  7-H ) :   0.9654 B(  0-C ,  8-H ) :   0.9750
B(  0-C ,  9-H ) :   0.9717 B(  1-C ,  2-C ) :   1.0012 B(  1-C , 10-H ) :   0.9217
B(  1-C , 11-H ) :   0.9792 B(  2-C ,  3-O ) :   1.7761 B(  2-C ,  4-O ) :   1.0972
B(  4-O ,  5-C ) :   0.7672 B(  5-C ,  6-C ) :   0.9445 B(  5-C , 12-H ) :   0.9396
B(  5-C , 13-H ) :   0.9632 B(  6-C , 14-H ) :   0.9714 B(  6-C , 15-H ) :   0.9675
B(  6-C , 16-H ) :   0.9612

Dispersion correction           -0.003932175
FINAL SINGLE POINT ENERGY      -346.939778446342

DIPOLE MOMENT
-------------

Method             : SCF
Type of density    : Electron Density
Multiplicity       :   1
Irrep              :   0
Energy             :  -346.9463476264006658 Eh
Relativity type    :
Basis              : AO
                                X                 Y                 Z
Electronic contribution:     -0.755580956      -3.387168191      -3.068756959
Nuclear contribution   :      1.024418680       4.312417183       3.882734287
                        -----------------------------------------
Total Dipole Moment    :      0.268837724       0.925248992       0.813977328
                        -----------------------------------------
Magnitude (a.u.)       :      1.261316181
Magnitude (Debye)      :      3.206010947

Rotational constants in cm-1:             0.146989             0.054346             0.042940
Rotational constants in MHz :          4406.618634          1629.248534          1287.323097

                             ****ORCA TERMINATED NORMALLY****
TOTAL RUN TIME: 0 days 0 hours 0 minutes 24 seconds 511 msec
