                         Program Version 6.0.0  -   RELEASE  -
|  1> ! pbe def2-sv(p) def2/J RI DEFGRID1 loosescf d4 GCP(DFT/SV(P)) printgap
|  2> %output
|  3>     printlevel normal
|  4> end
|  5> * xyz 0 1
|  6> C -1.2099750746 0.1813131606 -0.4799575053
|  7> C -0.0470721038 0.4925519873 0.4799568605
|  8> C 0.9088721994 -0.7165629122 0.5673204308
|  9> O 1.7199815329 -0.8287318104 -0.5811377298
| 10> O 0.6313595214 1.6646877177 0.0858042032
| 11> O -2.0674140989 -0.8186698643 0.0135258071
| 12> H -0.8032830897 -0.2119578577 -1.4162527637
| 13> H -1.7604500126 1.1074117954 -0.6898893308
| 14> H -0.4396465776 0.7038580484 1.4798654614
| 15> H 0.3087790012 -1.6274649974 0.6163640017
| 16> H 1.5251785652 -0.6430397811 1.4692834077
| 17> H 2.4171636183 -0.1591831869 -0.5340773192
| 18> H 0.932274337 1.5513171159 -0.8284530183
| 19> H -2.5379978042 -0.4865373083 0.7908195512
| 20> *
| 21>
| 22>                          ****END OF INPUT****

CARTESIAN COORDINATES (ANGSTROEM)
---------------------------------
  C     -1.209975    0.181313   -0.479958
  C     -0.047072    0.492552    0.479957
  C      0.908872   -0.716563    0.567320
  O      1.719982   -0.828732   -0.581138
  O      0.631360    1.664688    0.085804
  O     -2.067414   -0.818670    0.013526
  H     -0.803283   -0.211958   -1.416253
  H     -1.760450    1.107412   -0.689889
  H     -0.439647    0.703858    1.479865
  H      0.308779   -1.627465    0.616364
  H      1.525179   -0.643040    1.469283
  H      2.417164   -0.159183   -0.534077
  H      0.932274    1.551317   -0.828453
  H     -2.537998   -0.486537    0.790820

 Total Charge           Charge          ....    0
 Multiplicity           Mult            ....    1
 Number of Electrons    NEL             ....   50
 Basis Dimension        Dim             ....  100

ORBITAL ENERGIES
----------------

  NO   OCC          E(Eh)            E(eV)
   0   2.0000     -18.756292      -510.3847
   1   2.0000     -18.755872      -510.3732
   2   2.0000     -18.751751      -510.2611
   3   2.0000      -9.937794      -270.4211
   4   2.0000      -9.929270      -270.1892
   5   2.0000      -9.928207      -270.1603
   6   2.0000      -0.945134       -25.7184
   7   2.0000      -0.925741       -25.1907
   8   2.0000      -0.916991       -24.9526
   9   2.0000      -0.677662       -18.4401
  10   2.0000      -0.606118       -16.4933
  11   2.0000      -0.555182       -15.1073
  12   2.0000      -0.472651       -12.8615
  13   2.0000      -0.464013       -12.6264
  14   2.0000      -0.444521       -12.0960
  15   2.0000      -0.424610       -11.5542
  16   2.0000      -0.385527       -10.4907
  17   2.0000      -0.359328        -9.7778
  18   2.0000      -0.346254        -9.4220
  19   2.0000      -0.313334        -8.5263
  20   2.0000      -0.293482        -7.9860
  21   2.0000      -0.265341        -7.2203
  22   2.0000      -0.249658        -6.7935
  23   2.0000      -0.232662        -6.3311
  24   2.0000      -0.203557        -5.5391
  25   0.0000       0.007471         0.2033
  26   0.0000       0.022287         0.6065
  27   0.0000       0.066386         1.8065
  28   0.0000       0.072144         1.9631
  29   0.0000       0.094368         2.5679

MULLIKEN ATOMIC CHARGES
-----------------------
   0 C :    0.001303
   1 C :   -0.005503
   2 C :    0.026209
   3 O :   -0.439789
   4 O :   -0.431724
   5 O :   -0.429905
   6 H :    0.086089
   7 H :    0.084177
   8 H :    0.057838
   9 H :    0.095394
  10 H :    0.080035
  11 H :    0.290058
  12 H :    0.288125
  13 H :    0.297692
Sum of atomic charges:    0.0000000

LOEWDIN ATOMIC CHARGES
----------------------
   0 C :   -0.144904
   1 C :   -0.103462
   2 C :   -0.138464
   3 O :   -0.335158
   4 O :   -0.320804
   5 O :   -0.331598
   6 H :    0.113967
   7 H :    0.097385
   8 H :    0.107677
   9 H :    0.118577
  10 H :    0.099635
  11 H :    0.277988
  12 H :    0.275333
  13 H :    0.283828

  Mayer bond orders larger than 0.100000
B(  0-C ,  1-C ) :   1.0299 B(  0-C ,  5-O ) :   1.0550 B(  0-C ,  6-H ) :   0.9137
B(  0-C ,  7-H ) :   0.9249 B(  1-C ,  2-C ) :   1.0006 B(  1-C ,  4-O ) :   1.0376
B(  1-C ,  8-H ) :   0.8966 B(  2-C ,  3-O ) :   1.0564 B(  2-C ,  9-H ) :   0.9141
B(  2-C , 10-H ) :   0.9242 B(  3-O , 11-H ) :   0.8449 B(  4-O , 12-H ) :   0.8404
B(  5-O , 13-H ) :   0.8524

Dispersion correction           -0.009244678
FINAL SINGLE POINT ENERGY      -344.006912551334

DIPOLE MOMENT
-------------

Method             : SCF
Type of density    : Electron Density
Multiplicity       :   1
Irrep              :   0
Energy             :  -344.0807887026135745 Eh
Relativity type    :
Basis              : AO
                                X                 Y                 Z
Electronic contribution:      0.423822824       0.250835247      -0.511189803
Nuclear contribution   :     -0.331632452       0.220168152       0.825623483
                        -----------------------------------------
Total Dipole Moment    :      0.092190372       0.471003398       0.314433680
                        -----------------------------------------
Magnitude (a.u.)       :      0.573769819
Magnitude (Debye)      :      1.458406977

Rotational constants in cm-1:             0.159177             0.087001             0.066716
Rotational constants in MHz :          4772.004599          2608.214258          2000.088890

                             ****ORCA TERMINATED NORMALLY****
TOTAL RUN TIME: 0 days 0 hours 0 minutes 6 seconds 584 msec
