                         Program Version 6.0.0  -   RELEASE  -
|  1> ! pbe def2-sv(p) def2/J RI DEFGRID1 loosescf d4 GCP(DFT/SV(P)) printgap
|  2> %output
|  3>     printlevel normal
|  4> end
|  5> * xyz 0 1
|  6> C -4.0804480573 0.5176588194 0.9488236535
|  7> C -3.4473408529 0.5193109275 -0.4347785942
|  8> O -2.0206651697 0.6427548284 -0.352862235
|  9> C -1.3024089806 -0.4711599995 -0.1977084979
| 10> O -1.804425523 -1.5826505302 -0.1504088029
| 11> C 0.142284236 -0.2152340996 -0.1034357865
| 12> C 0.668322426 1.0775962443 -0.1569878809
| 13> C 2.0263517093 1.2766454932 -0.0635360411
| 14> C 2.8907962003 0.1886483229 0.0857430687
| 15> C 2.3679459135 -1.1035774581 0.1397494688
| 16> C 1.0075475435 -1.2992895979 0.0460472584
| 17> O 4.2105368398 0.4401155388 0.1724931891
| 18> H -3.7542627846 -0.358395356 1.5051795544
| 19> H -3.7897788343 1.4115049701 1.4941729183
| 20> H -5.1606996433 0.4910858534 0.8500917201
| 21> H -3.7647019017 1.3864254736 -1.0151940478
| 22> H -3.6891566359 -0.404980196 -0.9689562417
| 23> H 0.0006982036 1.9159070204 -0.2721068899
| 24> H 2.4504934597 2.2669119055 -0.1028169031
| 25> H 3.0269879876 -1.9508065658 0.2549817897
| 26> H 0.5857207831 -2.2921691414 0.0859913888
| 27> H 4.7222295881 -0.3783698365 0.2743658527
| 28> *
| 29>
| 30>                          ****END OF INPUT****

CARTESIAN COORDINATES (ANGSTROEM)
---------------------------------
  C     -4.080448    0.517659    0.948824
  C     -3.447341    0.519311   -0.434779
  O     -2.020665    0.642755   -0.352862
  C     -1.302409   -0.471160   -0.197708
  O     -1.804426   -1.582651   -0.150409
  C      0.142284   -0.215234   -0.103436
  C      0.668322    1.077596   -0.156988
  C      2.026352    1.276645   -0.063536
  C      2.890796    0.188648    0.085743
  C      2.367946   -1.103577    0.139749
  C      1.007548   -1.299290    0.046047
  O      4.210537    0.440116    0.172493
  H     -3.754263   -0.358395    1.505180
  H     -3.789779    1.411505    1.494173
  H     -5.160700    0.491086    0.850092
  H     -3.764702    1.386425   -1.015194
  H     -3.689157   -0.404980   -0.968956
  H      0.000698    1.915907   -0.272107
  H      2.450493    2.266912   -0.102817
  H      3.026988   -1.950807    0.254982
  H      0.585721   -2.292169    0.085991
  H      4.722230   -0.378370    0.274366

 Total Charge           Charge          ....    0
 Multiplicity           Mult            ....    1
 Number of Electrons    NEL             ....   88
 Basis Dimension        Dim             ....  188

ORBITAL ENERGIES
----------------

  NO   OCC          E(Eh)            E(eV)
   0   2.0000     -18.799552      -511.5618
   1   2.0000     -18.792119      -511.3596
   2   2.0000     -18.725741      -509.5533
   3   2.0000     -10.001734      -272.1610
   4   2.0000      -9.967931      -271.2412
   5   2.0000      -9.942519      -270.5497
   6   2.0000      -9.901421      -269.4314
   7   2.0000      -9.901371      -269.4300
   8   2.0000      -9.900999      -269.4199
   9   2.0000      -9.900483      -269.4058
  10   2.0000      -9.895624      -269.2736
  11   2.0000      -9.882293      -268.9109
  12   2.0000      -0.998066       -27.1588
  13   2.0000      -0.982258       -26.7286
  14   2.0000      -0.901772       -24.5385
  15   2.0000      -0.782513       -21.2933
  16   2.0000      -0.706791       -19.2328
  17   2.0000      -0.682929       -18.5834
  18   2.0000      -0.674071       -18.3424
  19   2.0000      -0.603652       -16.4262
  20   2.0000      -0.579473       -15.7683
  21   2.0000      -0.548013       -14.9122
  22   2.0000      -0.506333       -13.7780
  23   2.0000      -0.499515       -13.5925
  24   2.0000      -0.479011       -13.0345
  25   2.0000      -0.435372       -11.8471
  26   2.0000      -0.420760       -11.4495
  27   2.0000      -0.408252       -11.1091
  28   2.0000      -0.396004       -10.7758
  29   2.0000      -0.389221       -10.5913
  30   2.0000      -0.384404       -10.4602
  31   2.0000      -0.378581       -10.3017
  32   2.0000      -0.362465        -9.8632
  33   2.0000      -0.354060        -9.6345
  34   2.0000      -0.341521        -9.2933
  35   2.0000      -0.337312        -9.1787
  36   2.0000      -0.322607        -8.7786
  37   2.0000      -0.303024        -8.2457
  38   2.0000      -0.299754        -8.1567
  39   2.0000      -0.286346        -7.7919
  40   2.0000      -0.251248        -6.8368
  41   2.0000      -0.238434        -6.4881
  42   2.0000      -0.216161        -5.8820
  43   2.0000      -0.206694        -5.6244
  44   0.0000      -0.063164        -1.7188
  45   0.0000      -0.041508        -1.1295
  46   0.0000       0.013165         0.3582
  47   0.0000       0.031118         0.8468
  48   0.0000       0.048722         1.3258

MULLIKEN ATOMIC CHARGES
-----------------------
   0 C :   -0.301070
   1 C :   -0.007830
   2 O :   -0.248042
   3 C :    0.161106
   4 O :   -0.208301
   5 C :    0.037766
   6 C :   -0.082765
   7 C :   -0.112687
   8 C :    0.246843
   9 C :   -0.151845
  10 C :   -0.098944
  11 O :   -0.316624
  12 H :    0.126146
  13 H :    0.111281
  14 H :    0.110013
  15 H :    0.098766
  16 H :    0.106428
  17 H :    0.059219
  18 H :    0.050266
  19 H :    0.033860
  20 H :    0.064165
  21 H :    0.322248
Sum of atomic charges:   -0.0000000

LOEWDIN ATOMIC CHARGES
----------------------
   0 C :   -0.356391
   1 C :   -0.112153
   2 O :   -0.068579
   3 C :    0.047227
   4 O :   -0.179059
   5 C :   -0.099272
   6 C :   -0.089989
   7 C :   -0.147233
   8 C :    0.031136
   9 C :   -0.174317
  10 C :   -0.079950
  11 O :   -0.215753
  12 H :    0.130523
  13 H :    0.123536
  14 H :    0.129064
  15 H :    0.115404
  16 H :    0.119300
  17 H :    0.132408
  18 H :    0.132590
  19 H :    0.123064
  20 H :    0.136391
  21 H :    0.302052

  Mayer bond orders larger than 0.100000
B(  0-C ,  1-C ) :   1.1752 B(  0-C , 12-H ) :   0.9457 B(  0-C , 13-H ) :   0.9491
B(  0-C , 14-H ) :   0.9444 B(  1-C ,  2-O ) :   0.9259 B(  1-C , 15-H ) :   0.9375
B(  1-C , 16-H ) :   0.9114 B(  2-O ,  3-C ) :   1.2294 B(  3-C ,  4-O ) :   2.0357
B(  3-C ,  5-C ) :   0.9593 B(  5-C ,  6-C ) :   1.3300 B(  5-C , 10-C ) :   1.3771
B(  6-C ,  7-C ) :   1.3665 B(  6-C , 17-H ) :   0.9604 B(  7-C ,  8-C ) :   1.3349
B(  7-C , 18-H ) :   0.9661 B(  8-C ,  9-C ) :   1.2823 B(  8-C , 11-O ) :   1.2140
B(  9-C , 10-C ) :   1.3577 B(  9-C , 19-H ) :   0.9613 B( 10-C , 20-H ) :   0.9541
B( 11-O , 21-H ) :   0.8380

Dispersion correction           -0.022620833
FINAL SINGLE POINT ENERGY      -573.464423070928

DIPOLE MOMENT
-------------

Method             : SCF
Type of density    : Electron Density
Multiplicity       :   1
Irrep              :   0
Energy             :  -573.5399880792912199 Eh
Relativity type    :
Basis              : AO
                                X                 Y                 Z
Electronic contribution:      9.343910627      -1.723135417      -1.876319884
Nuclear contribution   :     -8.787267721       1.950666676       1.970615235
                        -----------------------------------------
Total Dipole Moment    :      0.556642906       0.227531259       0.094295350
                        -----------------------------------------
Magnitude (a.u.)       :      0.608698129
Magnitude (Debye)      :      1.547187686

Rotational constants in cm-1:             0.095976             0.014719             0.013257
Rotational constants in MHz :          2877.278238           441.252386           397.435292

                             ****ORCA TERMINATED NORMALLY****
TOTAL RUN TIME: 0 days 0 hours 0 minutes 14 seconds 13 msec
