                         Program Version 6.0.0  -   RELEASE  -
|  1> ! pbe def2-sv(p) def2/J RI DEFGRID1 loosescf d4 GCP(DFT/SV(P)) printgap
|  2> %output
|  3>     printlevel normal
|  4> end
|  5> * xyz 0 1
|  6> C -3.2357022201 -0.0823234939 -0.5845665124
|  7> C -1.7110886813 -0.0567053601 -0.5754914506
|  8> C -1.1675130571 -0.1957975525 0.8457269576
|  9> C 0.3604707021 -0.1561816378 0.982680867
| 10> C 1.088747406 -1.2001552757 0.111157977
| 11> C 1.773697824 -0.4000981883 -0.9949458227
| 12> C 2.1858646907 0.8821010863 -0.2796287275
| 13> C 0.9711447021 1.2059295037 0.5910020964
| 14> H -3.6350211948 0.7372691682 0.009062098
| 15> H -3.6137138057 0.0126505667 -1.599753632
| 16> H -3.6040638135 -1.016832957 -0.1667519937
| 17> H -1.3389454304 -0.8724493279 -1.196946922
| 18> H -1.3708415161 0.88042547 -1.0187940169
| 19> H -1.5852022822 0.6056575244 1.4612147508
| 20> H -1.523656298 -1.1429673064 1.2597846728
| 21> H 0.5806614719 -0.3575722602 2.0358148671
| 22> H 1.8463849562 -1.7116486948 0.7069490231
| 23> H 0.4090817298 -1.9554789991 -0.2787986694
| 24> H 2.6197916494 -0.9307918421 -1.4296401502
| 25> H 1.0646560227 -0.1681417388 -1.7904225531
| 26> H 3.0572135928 0.687892028 0.348207228
| 27> H 2.4313129874 1.6901509368 -0.9674393194
| 28> H 1.2442171677 1.7911621911 1.4683052557
| 29> H 0.2527529688 1.7891776325 0.0159611147
| 30> *
| 31>
| 32>                          ****END OF INPUT****

CARTESIAN COORDINATES (ANGSTROEM)
---------------------------------
  C     -3.235702   -0.082323   -0.584567
  C     -1.711089   -0.056705   -0.575491
  C     -1.167513   -0.195798    0.845727
  C      0.360471   -0.156182    0.982681
  C      1.088747   -1.200155    0.111158
  C      1.773698   -0.400098   -0.994946
  C      2.185865    0.882101   -0.279629
  C      0.971145    1.205930    0.591002
  H     -3.635021    0.737269    0.009062
  H     -3.613714    0.012651   -1.599754
  H     -3.604064   -1.016833   -0.166752
  H     -1.338945   -0.872449   -1.196947
  H     -1.370842    0.880425   -1.018794
  H     -1.585202    0.605658    1.461215
  H     -1.523656   -1.142967    1.259785
  H      0.580661   -0.357572    2.035815
  H      1.846385   -1.711649    0.706949
  H      0.409082   -1.955479   -0.278799
  H      2.619792   -0.930792   -1.429640
  H      1.064656   -0.168142   -1.790423
  H      3.057214    0.687892    0.348207
  H      2.431313    1.690151   -0.967439
  H      1.244217    1.791162    1.468305
  H      0.252753    1.789178    0.015961

 Total Charge           Charge          ....    0
 Multiplicity           Mult            ....    1
 Number of Electrons    NEL             ....   64
 Basis Dimension        Dim             ....  144

ORBITAL ENERGIES
----------------

  NO   OCC          E(Eh)            E(eV)
   0   2.0000      -9.883588      -268.9461
   1   2.0000      -9.879346      -268.8307
   2   2.0000      -9.877103      -268.7696
   3   2.0000      -9.875074      -268.7144
   4   2.0000      -9.874588      -268.7012
   5   2.0000      -9.873145      -268.6619
   6   2.0000      -9.872738      -268.6508
   7   2.0000      -9.870784      -268.5977
   8   2.0000      -0.758302       -20.6345
   9   2.0000      -0.703406       -19.1407
  10   2.0000      -0.645874       -17.5751
  11   2.0000      -0.629696       -17.1349
  12   2.0000      -0.579470       -15.7682
  13   2.0000      -0.526377       -14.3234
  14   2.0000      -0.502740       -13.6803
  15   2.0000      -0.471629       -12.8337
  16   2.0000      -0.432159       -11.7597
  17   2.0000      -0.423019       -11.5109
  18   2.0000      -0.411935       -11.2093
  19   2.0000      -0.373521       -10.1640
  20   2.0000      -0.364406        -9.9160
  21   2.0000      -0.362142        -9.8544
  22   2.0000      -0.341685        -9.2977
  23   2.0000      -0.314517        -8.5585
  24   2.0000      -0.304398        -8.2831
  25   2.0000      -0.297343        -8.0911
  26   2.0000      -0.289638        -7.8815
  27   2.0000      -0.288319        -7.8456
  28   2.0000      -0.276193        -7.5156
  29   2.0000      -0.268464        -7.3053
  30   2.0000      -0.266576        -7.2539
  31   2.0000      -0.256915        -6.9910
  32   0.0000       0.031936         0.8690
  33   0.0000       0.041583         1.1315
  34   0.0000       0.054101         1.4722
  35   0.0000       0.066311         1.8044
  36   0.0000       0.079037         2.1507

MULLIKEN ATOMIC CHARGES
-----------------------
   0 C :   -0.255612
   1 C :   -0.218802
   2 C :   -0.147007
   3 C :   -0.139603
   4 C :   -0.124228
   5 C :   -0.170369
   6 C :   -0.164693
   7 C :   -0.125907
   8 H :    0.095886
   9 H :    0.100407
  10 H :    0.095488
  11 H :    0.094396
  12 H :    0.091945
  13 H :    0.077560
  14 H :    0.077239
  15 H :    0.059705
  16 H :    0.072330
  17 H :    0.085369
  18 H :    0.086045
  19 H :    0.085964
  20 H :    0.078704
  21 H :    0.084978
  22 H :    0.079107
  23 H :    0.081099
Sum of atomic charges:   -0.0000000

LOEWDIN ATOMIC CHARGES
----------------------
   0 C :   -0.337201
   1 C :   -0.239786
   2 C :   -0.217305
   3 C :   -0.144142
   4 C :   -0.222549
   5 C :   -0.228892
   6 C :   -0.226433
   7 C :   -0.223116
   8 H :    0.116175
   9 H :    0.117626
  10 H :    0.116140
  11 H :    0.114887
  12 H :    0.112518
  13 H :    0.113241
  14 H :    0.113289
  15 H :    0.115642
  16 H :    0.116516
  17 H :    0.113592
  18 H :    0.114764
  19 H :    0.114289
  20 H :    0.114146
  21 H :    0.114943
  22 H :    0.116980
  23 H :    0.114675

  Mayer bond orders larger than 0.100000
B(  0-C ,  1-C ) :   1.1547 B(  0-C ,  8-H ) :   0.9546 B(  0-C ,  9-H ) :   0.9534
B(  0-C , 10-H ) :   0.9545 B(  1-C ,  2-C ) :   1.1424 B(  1-C , 11-H ) :   0.9128
B(  1-C , 12-H ) :   0.9144 B(  2-C ,  3-C ) :   1.0952 B(  2-C , 13-H ) :   0.9176
B(  2-C , 14-H ) :   0.9157 B(  3-C ,  4-C ) :   1.1104 B(  3-C ,  7-C ) :   1.1090
B(  3-C , 15-H ) :   0.8940 B(  4-C ,  5-C ) :   1.1382 B(  4-C , 16-H ) :   0.9103
B(  4-C , 17-H ) :   0.9205 B(  5-C ,  6-C ) :   1.1228 B(  5-C , 18-H ) :   0.9265
B(  5-C , 19-H ) :   0.9174 B(  6-C ,  7-C ) :   1.1505 B(  6-C , 20-H ) :   0.9201
B(  6-C , 21-H ) :   0.9269 B(  7-C , 22-H ) :   0.9164 B(  7-C , 23-H ) :   0.9121

Dispersion correction           -0.021294199
FINAL SINGLE POINT ENERGY      -313.692092182976

DIPOLE MOMENT
-------------

Method             : SCF
Type of density    : Electron Density
Multiplicity       :   1
Irrep              :   0
Energy             :  -313.7730654182875583 Eh
Relativity type    :
Basis              : AO
                                X                 Y                 Z
Electronic contribution:      2.976216789      -0.042040416       1.086693447
Nuclear contribution   :     -2.969634824       0.036121520      -1.072553250
                        -----------------------------------------
Total Dipole Moment    :      0.006581965      -0.005918895       0.014140197
                        -----------------------------------------
Magnitude (a.u.)       :      0.016682349
Magnitude (Debye)      :      0.042403161

Rotational constants in cm-1:             0.124941             0.038330             0.037235
Rotational constants in MHz :          3745.631945          1149.116847          1116.286936

                             ****ORCA TERMINATED NORMALLY****
TOTAL RUN TIME: 0 days 0 hours 0 minutes 11 seconds 297 msec
