                         Program Version 6.0.0  -   RELEASE  -
|  1> ! pbe def2-sv(p) def2/J RI DEFGRID1 loosescf d4 GCP(DFT/SV(P)) printgap
|  2> %output
|  3>     printlevel normal
|  4> end
|  5> * xyz 0 1
|  6> C -2.4328454288 0.1027132508 1.0038534195
|  7> C -1.7827742792 0.5582759855 -0.3050817545
|  8> C -0.4415108554 -0.1116563666 -0.4595356723
|  9> O -0.2824746649 -1.2909528298 -0.697942876
| 10> O 0.5553753414 0.7464262972 -0.2884120079
| 11> C 1.905623433 0.2559324854 -0.3491153294
| 12> C 2.3798279766 -0.2021653192 1.0215053696
| 13> H -2.5186359138 -0.9812313914 1.0185609065
| 14> H -1.8339735107 0.4164818608 1.8551264779
| 15> H -3.4239564933 0.5365958458 1.0936559124
| 16> H -1.639824057 1.6375111641 -0.3087126532
| 17> H -2.4105357225 0.2608825691 -1.1452841329
| 18> H 1.9444487115 -0.5686963305 -1.0673171126
| 19> H 2.4915641626 1.1017492381 -0.7100356841
| 20> H 1.7826240671 -1.0463122687 1.3592730963
| 21> H 3.4189173372 -0.5083861808 0.95894152
| 22> H 2.2865945882 0.6081604042 1.7394676771
| 23> *
| 24>
| 25>                          ****END OF INPUT****

CARTESIAN COORDINATES (ANGSTROEM)
---------------------------------
  C     -2.432845    0.102713    1.003853
  C     -1.782774    0.558276   -0.305082
  C     -0.441511   -0.111656   -0.459536
  O     -0.282475   -1.290953   -0.697943
  O      0.555375    0.746426   -0.288412
  C      1.905623    0.255932   -0.349115
  C      2.379828   -0.202165    1.021505
  H     -2.518636   -0.981231    1.018561
  H     -1.833974    0.416482    1.855126
  H     -3.423956    0.536596    1.093656
  H     -1.639824    1.637511   -0.308713
  H     -2.410536    0.260883   -1.145284
  H      1.944449   -0.568696   -1.067317
  H      2.491564    1.101749   -0.710036
  H      1.782624   -1.046312    1.359273
  H      3.418917   -0.508386    0.958942
  H      2.286595    0.608160    1.739468

 Total Charge           Charge          ....    0
 Multiplicity           Mult            ....    1
 Number of Electrons    NEL             ....   56
 Basis Dimension        Dim             ....  118

ORBITAL ENERGIES
----------------

  NO   OCC          E(Eh)            E(eV)
   0   2.0000     -18.797321      -511.5011
   1   2.0000     -18.729889      -509.6662
   2   2.0000     -10.003839      -272.2183
   3   2.0000      -9.945829      -270.6398
   4   2.0000      -9.897969      -269.3374
   5   2.0000      -9.887448      -269.0512
   6   2.0000      -9.886443      -269.0238
   7   2.0000      -1.003541       -27.3077
   8   2.0000      -0.907475       -24.6937
   9   2.0000      -0.719917       -19.5899
  10   2.0000      -0.687425       -18.7058
  11   2.0000      -0.607186       -16.5224
  12   2.0000      -0.562257       -15.2998
  13   2.0000      -0.494628       -13.4595
  14   2.0000      -0.451011       -12.2726
  15   2.0000      -0.431427       -11.7397
  16   2.0000      -0.420286       -11.4366
  17   2.0000      -0.391524       -10.6539
  18   2.0000      -0.385016       -10.4768
  19   2.0000      -0.366419        -9.9708
  20   2.0000      -0.354886        -9.6569
  21   2.0000      -0.340751        -9.2723
  22   2.0000      -0.322842        -8.7850
  23   2.0000      -0.314125        -8.5478
  24   2.0000      -0.311048        -8.4640
  25   2.0000      -0.288923        -7.8620
  26   2.0000      -0.254573        -6.9273
  27   2.0000      -0.216229        -5.8839
  28   0.0000      -0.019250        -0.5238
  29   0.0000       0.041464         1.1283
  30   0.0000       0.062158         1.6914
  31   0.0000       0.078087         2.1249
  32   0.0000       0.088391         2.4052

MULLIKEN ATOMIC CHARGES
-----------------------
   0 C :   -0.302168
   1 C :   -0.139396
   2 C :    0.100612
   3 O :   -0.216121
   4 O :   -0.237127
   5 C :   -0.015661
   6 C :   -0.303041
   7 H :    0.122211
   8 H :    0.108633
   9 H :    0.114232
  10 H :    0.097375
  11 H :    0.110209
  12 H :    0.108879
  13 H :    0.101459
  14 H :    0.124920
  15 H :    0.112369
  16 H :    0.112616
Sum of atomic charges:   -0.0000000

LOEWDIN ATOMIC CHARGES
----------------------
   0 C :   -0.330763
   1 C :   -0.251179
   2 C :    0.037411
   3 O :   -0.176253
   4 O :   -0.067372
   5 C :   -0.113910
   6 C :   -0.355702
   7 H :    0.126931
   8 H :    0.121217
   9 H :    0.123164
  10 H :    0.127694
  11 H :    0.138390
  12 H :    0.119689
  13 H :    0.116776
  14 H :    0.129844
  15 H :    0.130228
  16 H :    0.123835

  Mayer bond orders larger than 0.100000
B(  0-C ,  1-C ) :   1.1419 B(  0-C ,  7-H ) :   0.9511 B(  0-C ,  8-H ) :   0.9551
B(  0-C ,  9-H ) :   0.9533 B(  1-C ,  2-C ) :   1.0229 B(  1-C , 10-H ) :   0.9120
B(  1-C , 11-H ) :   0.9045 B(  2-C ,  3-O ) :   2.0364 B(  2-C ,  4-O ) :   1.2173
B(  4-O ,  5-C ) :   0.9206 B(  5-C ,  6-C ) :   1.1734 B(  5-C , 12-H ) :   0.9115
B(  5-C , 13-H ) :   0.9370 B(  6-C , 14-H ) :   0.9469 B(  6-C , 15-H ) :   0.9447
B(  6-C , 16-H ) :   0.9495

Dispersion correction           -0.012014446
FINAL SINGLE POINT ENERGY      -346.244646223968

DIPOLE MOMENT
-------------

Method             : SCF
Type of density    : Electron Density
Multiplicity       :   1
Irrep              :   0
Energy             :  -346.3091639385249891 Eh
Relativity type    :
Basis              : AO
                                X                 Y                 Z
Electronic contribution:      0.135570116      -0.742315583      -4.226170672
Nuclear contribution   :      0.095257657       1.358606442       4.482645753
                        -----------------------------------------
Total Dipole Moment    :      0.230827773       0.616290859       0.256475081
                        -----------------------------------------
Magnitude (a.u.)       :      0.706311086
Magnitude (Debye)      :      1.795300106

Rotational constants in cm-1:             0.165697             0.050377             0.048538
Rotational constants in MHz :          4967.469912          1510.273158          1455.144505

                             ****ORCA TERMINATED NORMALLY****
TOTAL RUN TIME: 0 days 0 hours 0 minutes 9 seconds 552 msec
