                         Program Version 6.0.0  -   RELEASE  -
|  1> ! r2scan-3c def2/J RI DEFGRID2 scfconv6 printgap
|  2> %output
|  3>     printlevel normal
|  4> end
|  5> * xyz 0 1
|  6> C 1.9378627635 -1.020239972 0.2966636599
|  7> C 1.2474223471 0.2078743327 0.8800348129
|  8> C 0.1701660759 0.8477157343 -0.0106575836
|  9> H -0.047274421 1.8348824187 0.438242368
| 10> C -1.1912707712 0.1206621967 -0.1165432181
| 11> C -1.1159961771 -1.2327789139 -0.8208749351
| 12> C -1.8682247226 -0.0116623666 1.2451532542
| 13> O 0.7420594846 1.0502848827 -1.292922451
| 14> H 1.2936183405 -1.8924133387 0.3131423262
| 15> H 2.8295702175 -1.2444769182 0.8774475881
| 16> H 2.2334229933 -0.8214646782 -0.7297629109
| 17> H 0.8085676086 -0.0257155362 1.8493151977
| 18> H 2.008321671 0.9762943858 1.0362264932
| 19> H -1.8175866806 0.778379815 -0.7351698253
| 20> H -0.4253793824 -1.1852392384 -1.658893754
| 21> H -0.7846047856 -2.0086213177 -0.1371359793
| 22> H -2.0987265265 -1.5117520735 -1.1944320851
| 23> H -1.3346174039 -0.7171283992 1.876536152
| 24> H -2.8848104003 -0.3747752861 1.1163589912
| 25> H -1.9060232831 0.9495727602 1.7528860676
| 26> H 0.1183782271 1.5408924012 -1.8436930195
| 27> *
| 28>
| 29>                          ****END OF INPUT****

CARTESIAN COORDINATES (ANGSTROEM)
---------------------------------
  C      1.937863   -1.020240    0.296664
  C      1.247422    0.207874    0.880035
  C      0.170166    0.847716   -0.010658
  H     -0.047274    1.834882    0.438242
  C     -1.191271    0.120662   -0.116543
  C     -1.115996   -1.232779   -0.820875
  C     -1.868225   -0.011662    1.245153
  O      0.742059    1.050285   -1.292922
  H      1.293618   -1.892413    0.313142
  H      2.829570   -1.244477    0.877448
  H      2.233423   -0.821465   -0.729763
  H      0.808568   -0.025716    1.849315
  H      2.008322    0.976294    1.036226
  H     -1.817587    0.778380   -0.735170
  H     -0.425379   -1.185239   -1.658894
  H     -0.784605   -2.008621   -0.137136
  H     -2.098727   -1.511752   -1.194432
  H     -1.334617   -0.717128    1.876536
  H     -2.884810   -0.374775    1.116359
  H     -1.906023    0.949573    1.752886
  H      0.118378    1.540892   -1.843693

 Total Charge           Charge          ....    0
 Multiplicity           Mult            ....    1
 Number of Electrons    NEL             ....   58
 Basis Dimension        Dim             ....  208

ORBITAL ENERGIES
----------------

  NO   OCC          E(Eh)            E(eV)
   0   2.0000     -18.945600      -515.5360
   1   2.0000     -10.077214      -274.2149
   2   2.0000     -10.035095      -273.0688
   3   2.0000     -10.022643      -272.7300
   4   2.0000     -10.019677      -272.6493
   5   2.0000     -10.011567      -272.4286
   6   2.0000     -10.007215      -272.3102
   7   2.0000      -0.983949       -26.7746
   8   2.0000      -0.771490       -20.9933
   9   2.0000      -0.725111       -19.7313
  10   2.0000      -0.652535       -17.7564
  11   2.0000      -0.637718       -17.3532
  12   2.0000      -0.567681       -15.4474
  13   2.0000      -0.522158       -14.2087
  14   2.0000      -0.468650       -12.7526
  15   2.0000      -0.448905       -12.2153
  16   2.0000      -0.410553       -11.1717
  17   2.0000      -0.392768       -10.6878
  18   2.0000      -0.385389       -10.4870
  19   2.0000      -0.371252       -10.1023
  20   2.0000      -0.356405        -9.6983
  21   2.0000      -0.345456        -9.4003
  22   2.0000      -0.332705        -9.0534
  23   2.0000      -0.314805        -8.5663
  24   2.0000      -0.311542        -8.4775
  25   2.0000      -0.297279        -8.0894
  26   2.0000      -0.294816        -8.0224
  27   2.0000      -0.270240        -7.3536
  28   2.0000      -0.230718        -6.2782
  29   0.0000       0.058194         1.5835
  30   0.0000       0.092299         2.5116
  31   0.0000       0.111120         3.0237
  32   0.0000       0.121108         3.2955
  33   0.0000       0.128704         3.5022

MULLIKEN ATOMIC CHARGES
-----------------------
   0 C :   -0.493905
   1 C :   -0.284295
   2 C :    0.044921
   3 H :    0.130624
   4 C :    0.003857
   5 C :   -0.540206
   6 C :   -0.527332
   7 O :   -0.435477
   8 H :    0.137130
   9 H :    0.142742
  10 H :    0.180095
  11 H :    0.142574
  12 H :    0.147495
  13 H :    0.134270
  14 H :    0.178113
  15 H :    0.147023
  16 H :    0.148006
  17 H :    0.158099
  18 H :    0.149410
  19 H :    0.149028
  20 H :    0.287828
Sum of atomic charges:   -0.0000000

LOEWDIN ATOMIC CHARGES
----------------------
   0 C :   -0.415333
   1 C :   -0.276148
   2 C :    0.057325
   3 H :    0.166198
   4 C :   -0.225786
   5 C :   -0.412235
   6 C :   -0.413736
   7 O :   -0.626757
   8 H :    0.148573
   9 H :    0.148779
  10 H :    0.168309
  11 H :    0.159412
  12 H :    0.162629
  13 H :    0.155714
  14 H :    0.167225
  15 H :    0.151529
  16 H :    0.152127
  17 H :    0.153111
  18 H :    0.155920
  19 H :    0.154694
  20 H :    0.268449

  Mayer bond orders larger than 0.100000
B(  0-C ,  1-C ) :   0.8882 B(  0-C ,  8-H ) :   0.9683 B(  0-C ,  9-H ) :   0.9721
B(  0-C , 10-H ) :   0.9837 B(  1-C ,  2-C ) :   0.9446 B(  1-C , 11-H ) :   0.9768
B(  1-C , 12-H ) :   0.9605 B(  2-C ,  3-H ) :   0.9663 B(  2-C ,  4-C ) :   0.9069
B(  2-C ,  7-O ) :   0.8906 B(  4-C ,  5-C ) :   0.8624 B(  4-C ,  6-C ) :   0.9045
B(  4-C , 13-H ) :   0.9609 B(  5-C , 14-H ) :   0.9727 B(  5-C , 15-H ) :   0.9826
B(  5-C , 16-H ) :   0.9667 B(  6-C , 17-H ) :   0.9858 B(  6-C , 18-H ) :   0.9660
B(  6-C , 19-H ) :   0.9739 B(  7-O , 20-H ) :   0.8983

Dispersion correction           -0.005881721
FINAL SINGLE POINT ENERGY      -312.198542046031

DIPOLE MOMENT
-------------

Method             : SCF
Type of density    : Electron Density
Multiplicity       :   1
Irrep              :   0
Energy             :  -312.2040571353052769 Eh
Relativity type    :
Basis              : AO
                                X                 Y                 Z
Electronic contribution:      1.343084359       3.661078790      -2.645933714
Nuclear contribution   :     -1.872016434      -3.457086315       2.758777722
                        -----------------------------------------
Total Dipole Moment    :     -0.528932075       0.203992475       0.112844008
                        -----------------------------------------
Magnitude (a.u.)       :      0.578027542
Magnitude (Debye)      :      1.469229251

Rotational constants in cm-1:             0.102221             0.064089             0.059622
Rotational constants in MHz :          3064.508220          1921.354522          1787.418404

                             ****ORCA TERMINATED NORMALLY****
TOTAL RUN TIME: 0 days 0 hours 0 minutes 28 seconds 242 msec
