                         Program Version 6.0.0  -   RELEASE  -
|  1> ! r2scan-3c def2/J RI DEFGRID2 scfconv6 printgap
|  2> %output
|  3>     printlevel normal
|  4> end
|  5> %cpcm
|  6>     smd true
|  7>     smdsolvent "water"
|  8> end
|  9> * xyz 0 1
| 10> C 1.9378627635 -1.020239972 0.2966636599
| 11> C 1.2474223471 0.2078743327 0.8800348129
| 12> C 0.1701660759 0.8477157343 -0.0106575836
| 13> H -0.047274421 1.8348824187 0.438242368
| 14> C -1.1912707712 0.1206621967 -0.1165432181
| 15> C -1.1159961771 -1.2327789139 -0.8208749351
| 16> C -1.8682247226 -0.0116623666 1.2451532542
| 17> O 0.7420594846 1.0502848827 -1.292922451
| 18> H 1.2936183405 -1.8924133387 0.3131423262
| 19> H 2.8295702175 -1.2444769182 0.8774475881
| 20> H 2.2334229933 -0.8214646782 -0.7297629109
| 21> H 0.8085676086 -0.0257155362 1.8493151977
| 22> H 2.008321671 0.9762943858 1.0362264932
| 23> H -1.8175866806 0.778379815 -0.7351698253
| 24> H -0.4253793824 -1.1852392384 -1.658893754
| 25> H -0.7846047856 -2.0086213177 -0.1371359793
| 26> H -2.0987265265 -1.5117520735 -1.1944320851
| 27> H -1.3346174039 -0.7171283992 1.876536152
| 28> H -2.8848104003 -0.3747752861 1.1163589912
| 29> H -1.9060232831 0.9495727602 1.7528860676
| 30> H 0.1183782271 1.5408924012 -1.8436930195
| 31> *
| 32>
| 33>                          ****END OF INPUT****

CARTESIAN COORDINATES (ANGSTROEM)
---------------------------------
  C      1.937863   -1.020240    0.296664
  C      1.247422    0.207874    0.880035
  C      0.170166    0.847716   -0.010658
  H     -0.047274    1.834882    0.438242
  C     -1.191271    0.120662   -0.116543
  C     -1.115996   -1.232779   -0.820875
  C     -1.868225   -0.011662    1.245153
  O      0.742059    1.050285   -1.292922
  H      1.293618   -1.892413    0.313142
  H      2.829570   -1.244477    0.877448
  H      2.233423   -0.821465   -0.729763
  H      0.808568   -0.025716    1.849315
  H      2.008322    0.976294    1.036226
  H     -1.817587    0.778380   -0.735170
  H     -0.425379   -1.185239   -1.658894
  H     -0.784605   -2.008621   -0.137136
  H     -2.098727   -1.511752   -1.194432
  H     -1.334617   -0.717128    1.876536
  H     -2.884810   -0.374775    1.116359
  H     -1.906023    0.949573    1.752886
  H      0.118378    1.540892   -1.843693

 Total Charge           Charge          ....    0
 Multiplicity           Mult            ....    1
 Number of Electrons    NEL             ....   58
 Basis Dimension        Dim             ....  208

ORBITAL ENERGIES
----------------

  NO   OCC          E(Eh)            E(eV)
   0   2.0000     -18.946839      -515.5697
   1   2.0000     -10.071393      -274.0565
   2   2.0000     -10.025178      -272.7990
   3   2.0000     -10.017672      -272.5947
   4   2.0000     -10.008391      -272.3422
   5   2.0000     -10.006083      -272.2794
   6   2.0000     -10.004838      -272.2455
   7   2.0000      -0.984123       -26.7793
   8   2.0000      -0.763809       -20.7843
   9   2.0000      -0.720638       -19.6096
  10   2.0000      -0.645512       -17.5653
  11   2.0000      -0.632469       -17.2104
  12   2.0000      -0.561818       -15.2879
  13   2.0000      -0.517217       -14.0742
  14   2.0000      -0.462843       -12.5946
  15   2.0000      -0.442195       -12.0327
  16   2.0000      -0.404366       -11.0034
  17   2.0000      -0.391086       -10.6420
  18   2.0000      -0.380254       -10.3472
  19   2.0000      -0.364254        -9.9118
  20   2.0000      -0.349499        -9.5104
  21   2.0000      -0.341884        -9.3031
  22   2.0000      -0.326835        -8.8936
  23   2.0000      -0.312063        -8.4917
  24   2.0000      -0.305680        -8.3180
  25   2.0000      -0.292984        -7.9725
  26   2.0000      -0.290270        -7.8986
  27   2.0000      -0.264522        -7.1980
  28   2.0000      -0.231355        -6.2955
  29   0.0000       0.073654         2.0042
  30   0.0000       0.103455         2.8152
  31   0.0000       0.119845         3.2612
  32   0.0000       0.129567         3.5257
  33   0.0000       0.133835         3.6418

MULLIKEN ATOMIC CHARGES
-----------------------
   0 C :   -0.533395
   1 C :   -0.296833
   2 C :    0.050397
   3 H :    0.142831
   4 C :    0.023763
   5 C :   -0.585829
   6 C :   -0.566498
   7 O :   -0.518309
   8 H :    0.157252
   9 H :    0.156689
  10 H :    0.169113
  11 H :    0.159989
  12 H :    0.158022
  13 H :    0.156217
  14 H :    0.167030
  15 H :    0.164442
  16 H :    0.161387
  17 H :    0.170595
  18 H :    0.160330
  19 H :    0.160616
  20 H :    0.342190
Sum of atomic charges:   -0.0000000

LOEWDIN ATOMIC CHARGES
----------------------
   0 C :   -0.424506
   1 C :   -0.280075
   2 C :    0.058884
   3 H :    0.173314
   4 C :   -0.220811
   5 C :   -0.419938
   6 C :   -0.420131
   7 O :   -0.659864
   8 H :    0.153988
   9 H :    0.152553
  10 H :    0.161303
  11 H :    0.166338
  12 H :    0.162692
  13 H :    0.164138
  14 H :    0.161661
  15 H :    0.155550
  16 H :    0.155808
  17 H :    0.156334
  18 H :    0.158408
  19 H :    0.158049
  20 H :    0.286308

  Mayer bond orders larger than 0.100000
B(  0-C ,  1-C ) :   0.8658 B(  0-C ,  8-H ) :   0.9678 B(  0-C ,  9-H ) :   0.9686
B(  0-C , 10-H ) :   0.9868 B(  1-C ,  2-C ) :   0.9377 B(  1-C , 11-H ) :   0.9704
B(  1-C , 12-H ) :   0.9670 B(  2-C ,  3-H ) :   0.9619 B(  2-C ,  4-C ) :   0.9145
B(  2-C ,  7-O ) :   0.8803 B(  4-C ,  5-C ) :   0.8484 B(  4-C ,  6-C ) :   0.8959
B(  4-C , 13-H ) :   0.9594 B(  5-C , 14-H ) :   0.9745 B(  5-C , 15-H ) :   0.9806
B(  5-C , 16-H ) :   0.9646 B(  6-C , 17-H ) :   0.9810 B(  6-C , 18-H ) :   0.9646
B(  6-C , 19-H ) :   0.9715 B(  7-O , 20-H ) :   0.8728

Dispersion correction           -0.005881721
FINAL SINGLE POINT ENERGY      -312.203326823167

DIPOLE MOMENT
-------------

Method             : SCF
Type of density    : Electron Density
Multiplicity       :   1
Irrep              :   0
Energy             :  -312.2088419124418124 Eh
Relativity type    :
Basis              : AO
                                X                 Y                 Z
Electronic contribution:      1.065397221       3.752164061      -2.520674026
Nuclear contribution   :     -1.872016434      -3.457086315       2.758777722
                        -----------------------------------------
Total Dipole Moment    :     -0.806619213       0.295077746       0.238103696
                        -----------------------------------------
Magnitude (a.u.)       :      0.891290525
Magnitude (Debye)      :      2.265480475

Rotational constants in cm-1:             0.102221             0.064089             0.059622
Rotational constants in MHz :          3064.508220          1921.354522          1787.418404

                             ****ORCA TERMINATED NORMALLY****
TOTAL RUN TIME: 0 days 0 hours 0 minutes 33 seconds 315 msec
