                         Program Version 6.0.0  -   RELEASE  -
|  1> ! r2scan-3c def2/J RI DEFGRID2 scfconv6 printgap
|  2> %output
|  3>     printlevel normal
|  4> end
|  5> * xyz 0 1
|  6> C -2.1404245393 -0.1090285143 -0.7427660391
|  7> C -1.5526076589 -0.1393111955 0.6632710189
|  8> C -0.2455861848 0.6466950718 0.7472478524
|  9> C 0.8866582321 -0.0260996499 0.0195276426
| 10> O 0.960141864 -1.2092421691 -0.2338268668
| 11> O 1.8458512449 0.8295535585 -0.3084384808
| 12> H -1.4511797257 -0.5678948932 -1.4484652
| 13> H -2.3300320602 0.9146339474 -1.057376284
| 14> H -3.0768296375 -0.6594723289 -0.7739344747
| 15> H -2.2674298074 0.2870371914 1.3675436705
| 16> H -1.3591273961 -1.1739524352 0.9520331115
| 17> H -0.3587012311 1.6540339355 0.3453336111
| 18> H 0.0711703776 0.7381747789 1.7892355939
| 19> H 2.5990968862 0.3985321169 -0.7565095558
| 20> *
| 21>
| 22>                          ****END OF INPUT****

CARTESIAN COORDINATES (ANGSTROEM)
---------------------------------
  C     -2.140425   -0.109029   -0.742766
  C     -1.552608   -0.139311    0.663271
  C     -0.245586    0.646695    0.747248
  C      0.886658   -0.026100    0.019528
  O      0.960142   -1.209242   -0.233827
  O      1.845851    0.829554   -0.308438
  H     -1.451180   -0.567895   -1.448465
  H     -2.330032    0.914634   -1.057376
  H     -3.076830   -0.659472   -0.773934
  H     -2.267430    0.287037    1.367544
  H     -1.359127   -1.173952    0.952033
  H     -0.358701    1.654034    0.345334
  H      0.071170    0.738175    1.789236
  H      2.599097    0.398532   -0.756510

 Total Charge           Charge          ....    0
 Multiplicity           Mult            ....    1
 Number of Electrons    NEL             ....   48
 Basis Dimension        Dim             ....  164

ORBITAL ENERGIES
----------------

  NO   OCC          E(Eh)            E(eV)
   0   2.0000     -19.003461      -517.1105
   1   2.0000     -18.935896      -515.2719
   2   2.0000     -10.162705      -276.5413
   3   2.0000     -10.047946      -273.4185
   4   2.0000     -10.033513      -273.0258
   5   2.0000     -10.017485      -272.5896
   6   2.0000      -1.078258       -29.3409
   7   2.0000      -0.980141       -26.6710
   8   2.0000      -0.771530       -20.9944
   9   2.0000      -0.689281       -18.7563
  10   2.0000      -0.608850       -16.5677
  11   2.0000      -0.547939       -14.9102
  12   2.0000      -0.471433       -12.8284
  13   2.0000      -0.451623       -12.2893
  14   2.0000      -0.445418       -12.1204
  15   2.0000      -0.402169       -10.9436
  16   2.0000      -0.393670       -10.7123
  17   2.0000      -0.372697       -10.1416
  18   2.0000      -0.353441        -9.6176
  19   2.0000      -0.316988        -8.6257
  20   2.0000      -0.315618        -8.5884
  21   2.0000      -0.309785        -8.4297
  22   2.0000      -0.292908        -7.9704
  23   2.0000      -0.242920        -6.6102
  24   0.0000      -0.020703        -0.5634
  25   0.0000       0.058090         1.5807
  26   0.0000       0.086006         2.3403
  27   0.0000       0.126383         3.4391
  28   0.0000       0.135275         3.6810

MULLIKEN ATOMIC CHARGES
-----------------------
   0 C :   -0.503541
   1 C :   -0.191983
   2 C :   -0.281583
   3 C :    0.318640
   4 O :   -0.404200
   5 O :   -0.343022
   6 H :    0.165922
   7 H :    0.139085
   8 H :    0.147707
   9 H :    0.139820
  10 H :    0.153955
  11 H :    0.162511
  12 H :    0.168145
  13 H :    0.328545
Sum of atomic charges:   -0.0000000

LOEWDIN ATOMIC CHARGES
----------------------
   0 C :   -0.417371
   1 C :   -0.298589
   2 C :   -0.240452
   3 C :    0.339792
   4 O :   -0.429645
   5 O :   -0.403600
   6 H :    0.160216
   7 H :    0.148261
   8 H :    0.153086
   9 H :    0.153041
  10 H :    0.169654
  11 H :    0.180769
  12 H :    0.185935
  13 H :    0.298904

  Mayer bond orders larger than 0.100000
B(  0-C ,  1-C ) :   0.9092 B(  0-C ,  6-H ) :   0.9762 B(  0-C ,  7-H ) :   0.9814
B(  0-C ,  8-H ) :   0.9698 B(  1-C ,  2-C ) :   0.9171 B(  1-C ,  9-H ) :   0.9604
B(  1-C , 10-H ) :   0.9612 B(  2-C ,  3-C ) :   0.9827 B(  2-C , 11-H ) :   0.9746
B(  2-C , 12-H ) :   0.9132 B(  3-C ,  4-O ) :   1.9294 B(  3-C ,  5-O ) :   1.0536
B(  5-O , 13-H ) :   0.8599

Dispersion correction           -0.003152513
FINAL SINGLE POINT ENERGY      -307.649289514345

DIPOLE MOMENT
-------------

Method             : SCF
Type of density    : Electron Density
Multiplicity       :   1
Irrep              :   0
Energy             :  -307.6538676031796626 Eh
Relativity type    :
Basis              : AO
                                X                 Y                 Z
Electronic contribution:      7.652635723      -0.823907837      -0.256620184
Nuclear contribution   :     -7.626040245       1.487080337       0.383970698
                        -----------------------------------------
Total Dipole Moment    :      0.026595478       0.663172500       0.127350514
                        -----------------------------------------
Magnitude (a.u.)       :      0.675813020
Magnitude (Debye)      :      1.717780182

Rotational constants in cm-1:             0.219492             0.075430             0.068900
Rotational constants in MHz :          6580.203003          2261.342786          2065.558023

                             ****ORCA TERMINATED NORMALLY****
TOTAL RUN TIME: 0 days 0 hours 0 minutes 19 seconds 610 msec
