                         Program Version 6.0.0  -   RELEASE  -
|  1> ! r2scan-3c def2/J RI DEFGRID2 scfconv6 printgap
|  2> %output
|  3>     printlevel normal
|  4> end
|  5> %cpcm
|  6>     smd true
|  7>     smdsolvent "water"
|  8> end
|  9> * xyz 0 1
| 10> C -2.1404245393 -0.1090285143 -0.7427660391
| 11> C -1.5526076589 -0.1393111955 0.6632710189
| 12> C -0.2455861848 0.6466950718 0.7472478524
| 13> C 0.8866582321 -0.0260996499 0.0195276426
| 14> O 0.960141864 -1.2092421691 -0.2338268668
| 15> O 1.8458512449 0.8295535585 -0.3084384808
| 16> H -1.4511797257 -0.5678948932 -1.4484652
| 17> H -2.3300320602 0.9146339474 -1.057376284
| 18> H -3.0768296375 -0.6594723289 -0.7739344747
| 19> H -2.2674298074 0.2870371914 1.3675436705
| 20> H -1.3591273961 -1.1739524352 0.9520331115
| 21> H -0.3587012311 1.6540339355 0.3453336111
| 22> H 0.0711703776 0.7381747789 1.7892355939
| 23> H 2.5990968862 0.3985321169 -0.7565095558
| 24> *
| 25>
| 26>                          ****END OF INPUT****

CARTESIAN COORDINATES (ANGSTROEM)
---------------------------------
  C     -2.140425   -0.109029   -0.742766
  C     -1.552608   -0.139311    0.663271
  C     -0.245586    0.646695    0.747248
  C      0.886658   -0.026100    0.019528
  O      0.960142   -1.209242   -0.233827
  O      1.845851    0.829554   -0.308438
  H     -1.451180   -0.567895   -1.448465
  H     -2.330032    0.914634   -1.057376
  H     -3.076830   -0.659472   -0.773934
  H     -2.267430    0.287037    1.367544
  H     -1.359127   -1.173952    0.952033
  H     -0.358701    1.654034    0.345334
  H      0.071170    0.738175    1.789236
  H      2.599097    0.398532   -0.756510

 Total Charge           Charge          ....    0
 Multiplicity           Mult            ....    1
 Number of Electrons    NEL             ....   48
 Basis Dimension        Dim             ....  164

ORBITAL ENERGIES
----------------

  NO   OCC          E(Eh)            E(eV)
   0   2.0000     -19.000176      -517.0211
   1   2.0000     -18.944793      -515.5140
   2   2.0000     -10.167396      -276.6689
   3   2.0000     -10.037415      -273.1320
   4   2.0000     -10.025532      -272.8086
   5   2.0000     -10.010181      -272.3909
   6   2.0000      -1.077849       -29.3297
   7   2.0000      -0.986376       -26.8406
   8   2.0000      -0.763726       -20.7820
   9   2.0000      -0.682098       -18.5608
  10   2.0000      -0.600973       -16.3533
  11   2.0000      -0.539984       -14.6937
  12   2.0000      -0.471669       -12.8348
  13   2.0000      -0.452757       -12.3202
  14   2.0000      -0.446798       -12.1580
  15   2.0000      -0.398823       -10.8525
  16   2.0000      -0.389093       -10.5878
  17   2.0000      -0.364421        -9.9164
  18   2.0000      -0.354132        -9.6364
  19   2.0000      -0.308411        -8.3923
  20   2.0000      -0.307653        -8.3717
  21   2.0000      -0.303986        -8.2719
  22   2.0000      -0.297847        -8.1048
  23   2.0000      -0.253471        -6.8973
  24   0.0000      -0.022970        -0.6251
  25   0.0000       0.076853         2.0913
  26   0.0000       0.100757         2.7417
  27   0.0000       0.132847         3.6150
  28   0.0000       0.144940         3.9440

MULLIKEN ATOMIC CHARGES
-----------------------
   0 C :   -0.529561
   1 C :   -0.218698
   2 C :   -0.287371
   3 C :    0.349858
   4 O :   -0.489120
   5 O :   -0.369838
   6 H :    0.160453
   7 H :    0.156581
   8 H :    0.159964
   9 H :    0.158822
  10 H :    0.148519
  11 H :    0.182106
  12 H :    0.200425
  13 H :    0.377862
Sum of atomic charges:   -0.0000000

LOEWDIN ATOMIC CHARGES
----------------------
   0 C :   -0.424657
   1 C :   -0.299590
   2 C :   -0.238079
   3 C :    0.352074
   4 O :   -0.491750
   5 O :   -0.396485
   6 H :    0.156619
   7 H :    0.154620
   8 H :    0.155368
   9 H :    0.160337
  10 H :    0.164647
  11 H :    0.189660
  12 H :    0.198027
  13 H :    0.319208

  Mayer bond orders larger than 0.100000
B(  0-C ,  1-C ) :   0.9095 B(  0-C ,  6-H ) :   0.9753 B(  0-C ,  7-H ) :   0.9767
B(  0-C ,  8-H ) :   0.9686 B(  1-C ,  2-C ) :   0.8978 B(  1-C ,  9-H ) :   0.9564
B(  1-C , 10-H ) :   0.9705 B(  2-C ,  3-C ) :   0.9875 B(  2-C , 11-H ) :   0.9643
B(  2-C , 12-H ) :   0.9048 B(  3-C ,  4-O ) :   1.8629 B(  3-C ,  5-O ) :   1.0870
B(  5-O , 13-H ) :   0.8355

Dispersion correction           -0.003152513
FINAL SINGLE POINT ENERGY      -307.658887943002

DIPOLE MOMENT
-------------

Method             : SCF
Type of density    : Electron Density
Multiplicity       :   1
Irrep              :   0
Energy             :  -307.6634660318364354 Eh
Relativity type    :
Basis              : AO
                                X                 Y                 Z
Electronic contribution:      7.692030888      -0.478910104      -0.185162440
Nuclear contribution   :     -7.626040245       1.487080337       0.383970698
                        -----------------------------------------
Total Dipole Moment    :      0.065990643       1.008170233       0.198808258
                        -----------------------------------------
Magnitude (a.u.)       :      1.029702242
Magnitude (Debye)      :      2.617295100

Rotational constants in cm-1:             0.219492             0.075430             0.068900
Rotational constants in MHz :          6580.203003          2261.342786          2065.558023

                             ****ORCA TERMINATED NORMALLY****
TOTAL RUN TIME: 0 days 0 hours 0 minutes 20 seconds 353 msec
