                         Program Version 6.0.0  -   RELEASE  -
|  1> ! pbe def2-sv(p) def2/J RI DEFGRID1 loosescf d4 GCP(DFT/SV(P)) printgap
|  2> %output
|  3>     printlevel normal
|  4> end
|  5> * xyz 0 1
|  6> C -1.5843526539 0.4228274721 1.257965105
|  7> C -1.6558393474 -0.5806976347 0.1097480897
|  8> C -2.9802390624 -0.4574562151 -0.638678571
|  9> C -0.4980673322 -0.3671918379 -0.8702081579
| 10> O 0.7571914158 -0.6718622882 -0.2502942512
| 11> C 1.6190381136 0.3080625334 -0.0050718268
| 12> O 1.4309743738 1.468106626 -0.3100094959
| 13> C 2.8432616307 -0.2040954206 0.6940506718
| 14> H -1.6398530248 1.4405517919 0.8763914181
| 15> H -0.6504947065 0.3160496709 1.8063171616
| 16> H -2.4071167348 0.2643503677 1.9496559721
| 17> H -1.5629055583 -1.5922483788 0.5179333195
| 18> H -3.0420497217 -1.1922587695 -1.4368058869
| 19> H -3.0764406142 0.5348714087 -1.0726032512
| 20> H -3.8096004667 -0.6173314249 0.0441838466
| 21> H -0.5851109036 -1.0474785705 -1.7204810521
| 22> H -0.4743985549 0.6683562547 -1.2241011238
| 23> H 2.9164175433 -1.2792641179 0.5734750513
| 24> H 2.7615967958 0.0367797843 1.7518051676
| 25> H 3.7218185016 0.2976107094 0.3003710417
| 26> *
| 27>
| 28>                          ****END OF INPUT****

CARTESIAN COORDINATES (ANGSTROEM)
---------------------------------
  C     -1.584353    0.422827    1.257965
  C     -1.655839   -0.580698    0.109748
  C     -2.980239   -0.457456   -0.638679
  C     -0.498067   -0.367192   -0.870208
  O      0.757191   -0.671862   -0.250294
  C      1.619038    0.308063   -0.005072
  O      1.430974    1.468107   -0.310009
  C      2.843262   -0.204095    0.694051
  H     -1.639853    1.440552    0.876391
  H     -0.650495    0.316050    1.806317
  H     -2.407117    0.264350    1.949656
  H     -1.562906   -1.592248    0.517933
  H     -3.042050   -1.192259   -1.436806
  H     -3.076441    0.534871   -1.072603
  H     -3.809600   -0.617331    0.044184
  H     -0.585111   -1.047479   -1.720481
  H     -0.474399    0.668356   -1.224101
  H      2.916418   -1.279264    0.573475
  H      2.761597    0.036780    1.751805
  H      3.721819    0.297611    0.300371

 Total Charge           Charge          ....    0
 Multiplicity           Mult            ....    1
 Number of Electrons    NEL             ....   64
 Basis Dimension        Dim             ....  136

ORBITAL ENERGIES
----------------

  NO   OCC          E(Eh)            E(eV)
   0   2.0000     -18.797448      -511.5046
   1   2.0000     -18.728979      -509.6414
   2   2.0000     -10.007744      -272.3246
   3   2.0000      -9.939759      -270.4746
   4   2.0000      -9.903334      -269.4834
   5   2.0000      -9.893219      -269.2082
   6   2.0000      -9.883527      -268.9444
   7   2.0000      -9.877427      -268.7785
   8   2.0000      -1.003488       -27.3063
   9   2.0000      -0.907534       -24.6953
  10   2.0000      -0.738299       -20.0901
  11   2.0000      -0.685055       -18.6413
  12   2.0000      -0.624938       -17.0054
  13   2.0000      -0.617799       -16.8112
  14   2.0000      -0.524736       -14.2788
  15   2.0000      -0.501136       -13.6366
  16   2.0000      -0.446283       -12.1440
  17   2.0000      -0.432026       -11.7560
  18   2.0000      -0.414898       -11.2900
  19   2.0000      -0.409000       -11.1294
  20   2.0000      -0.392450       -10.6791
  21   2.0000      -0.374184       -10.1821
  22   2.0000      -0.359484        -9.7821
  23   2.0000      -0.349274        -9.5042
  24   2.0000      -0.341125        -9.2825
  25   2.0000      -0.337722        -9.1899
  26   2.0000      -0.309337        -8.4175
  27   2.0000      -0.304514        -8.2862
  28   2.0000      -0.299637        -8.1535
  29   2.0000      -0.285391        -7.7659
  30   2.0000      -0.249653        -6.7934
  31   2.0000      -0.217390        -5.9155
  32   0.0000      -0.018339        -0.4990
  33   0.0000       0.033164         0.9024
  34   0.0000       0.048449         1.3184
  35   0.0000       0.071660         1.9500
  36   0.0000       0.077682         2.1138

MULLIKEN ATOMIC CHARGES
-----------------------
   0 C :   -0.254719
   1 C :   -0.199084
   2 C :   -0.251549
   3 C :    0.034237
   4 O :   -0.239512
   5 C :    0.083310
   6 O :   -0.211723
   7 C :   -0.250827
   8 H :    0.104575
   9 H :    0.112253
  10 H :    0.101692
  11 H :    0.081774
  12 H :    0.102757
  13 H :    0.100105
  14 H :    0.107019
  15 H :    0.093880
  16 H :    0.104039
  17 H :    0.117859
  18 H :    0.134494
  19 H :    0.129419
Sum of atomic charges:    0.0000000

LOEWDIN ATOMIC CHARGES
----------------------
   0 C :   -0.331139
   1 C :   -0.169469
   2 C :   -0.327529
   3 C :   -0.103251
   4 O :   -0.065634
   5 C :    0.028470
   6 O :   -0.175285
   7 C :   -0.359679
   8 H :    0.122724
   9 H :    0.119146
  10 H :    0.119255
  11 H :    0.118387
  12 H :    0.118658
  13 H :    0.120235
  14 H :    0.122807
  15 H :    0.114910
  16 H :    0.119670
  17 H :    0.134767
  18 H :    0.148913
  19 H :    0.144042

  Mayer bond orders larger than 0.100000
B(  0-C ,  1-C ) :   1.1106 B(  0-C ,  8-H ) :   0.9491 B(  0-C ,  9-H ) :   0.9426
B(  0-C , 10-H ) :   0.9503 B(  1-C ,  2-C ) :   1.1035 B(  1-C ,  3-C ) :   1.0834
B(  1-C , 11-H ) :   0.9004 B(  2-C , 12-H ) :   0.9496 B(  2-C , 13-H ) :   0.9490
B(  2-C , 14-H ) :   0.9503 B(  3-C ,  4-O ) :   0.9327 B(  3-C , 15-H ) :   0.9293
B(  3-C , 16-H ) :   0.8936 B(  4-O ,  5-C ) :   1.1924 B(  5-C ,  6-O ) :   2.0529
B(  5-C ,  7-C ) :   1.0802 B(  7-C , 17-H ) :   0.9368 B(  7-C , 18-H ) :   0.9267
B(  7-C , 19-H ) :   0.9356

Dispersion correction           -0.015641911
FINAL SINGLE POINT ENERGY      -385.457982936622

DIPOLE MOMENT
-------------

Method             : SCF
Type of density    : Electron Density
Multiplicity       :   1
Irrep              :   0
Energy             :  -385.5328591239907610 Eh
Relativity type    :
Basis              : AO
                                X                 Y                 Z
Electronic contribution:      7.076772691       1.322870055      -2.039847789
Nuclear contribution   :     -7.330414711      -2.024025469       2.211527037
                        -----------------------------------------
Total Dipole Moment    :     -0.253642020      -0.701155415       0.171679248
                        -----------------------------------------
Magnitude (a.u.)       :      0.765131985
Magnitude (Debye)      :      1.944810948

Rotational constants in cm-1:             0.144464             0.035199             0.034268
Rotational constants in MHz :          4330.926575          1055.235931          1027.325057

                             ****ORCA TERMINATED NORMALLY****
TOTAL RUN TIME: 0 days 0 hours 0 minutes 12 seconds 416 msec
