                         Program Version 6.0.0  -   RELEASE  -
|  1> ! pbe def2-sv(p) def2/J RI DEFGRID1 loosescf d4 GCP(DFT/SV(P)) printgap
|  2> %output
|  3>     printlevel normal
|  4> end
|  5> * xyz 0 1
|  6> C -1.9432894125 1.4694006252 0.0798402315
|  7> C -1.4824597193 0.0912501671 -0.3816979164
|  8> C -0.1579494291 -0.3598507289 0.2464028002
|  9> H -0.1830173117 -0.1467460489 1.3207557745
| 10> C 0.0326817235 -1.8640170746 0.0460669232
| 11> C 1.020379667 0.4191180758 -0.356123282
| 12> O 2.2345237892 0.248161578 0.344432749
| 13> H -2.0341364898 1.4957936467 1.1633019347
| 14> H -1.2445070526 2.2442668204 -0.2238528255
| 15> H -2.9137529408 1.7016676514 -0.3517693171
| 16> H -1.3812238556 0.0841300759 -1.4693233292
| 17> H -2.2525130116 -0.6361888928 -0.1169677998
| 18> H -0.8052996991 -2.4086478484 0.4738498786
| 19> H 0.9393025558 -2.2144525615 0.5333467754
| 20> H 0.0899916211 -2.0997567426 -1.0148204487
| 21> H 0.8250526705 1.4920339448 -0.3090085042
| 22> H 1.1476594105 0.1376997971 -1.4108666659
| 23> H 2.4988645228 -0.6802235338 0.2935758004
| 24> *
| 25>
| 26>                          ****END OF INPUT****

CARTESIAN COORDINATES (ANGSTROEM)
---------------------------------
  C     -1.943289    1.469401    0.079840
  C     -1.482460    0.091250   -0.381698
  C     -0.157949   -0.359851    0.246403
  H     -0.183017   -0.146746    1.320756
  C      0.032682   -1.864017    0.046067
  C      1.020380    0.419118   -0.356123
  O      2.234524    0.248162    0.344433
  H     -2.034136    1.495794    1.163302
  H     -1.244507    2.244267   -0.223853
  H     -2.913753    1.701668   -0.351769
  H     -1.381224    0.084130   -1.469323
  H     -2.252513   -0.636189   -0.116968
  H     -0.805300   -2.408648    0.473850
  H      0.939303   -2.214453    0.533347
  H      0.089992   -2.099757   -1.014820
  H      0.825053    1.492034   -0.309009
  H      1.147659    0.137700   -1.410867
  H      2.498865   -0.680224    0.293576

 Total Charge           Charge          ....    0
 Multiplicity           Mult            ....    1
 Number of Electrons    NEL             ....   50
 Basis Dimension        Dim             ....  108

ORBITAL ENERGIES
----------------

  NO   OCC          E(Eh)            E(eV)
   0   2.0000     -18.737584      -509.8756
   1   2.0000      -9.923841      -270.0414
   2   2.0000      -9.892010      -269.1753
   3   2.0000      -9.885903      -269.0091
   4   2.0000      -9.879737      -268.8413
   5   2.0000      -9.874454      -268.6975
   6   2.0000      -0.914112       -24.8742
   7   2.0000      -0.730330       -19.8733
   8   2.0000      -0.657491       -17.8912
   9   2.0000      -0.607758       -16.5379
  10   2.0000      -0.556239       -15.1360
  11   2.0000      -0.505021       -13.7423
  12   2.0000      -0.461296       -12.5525
  13   2.0000      -0.406476       -11.0608
  14   2.0000      -0.400955       -10.9105
  15   2.0000      -0.388249       -10.5648
  16   2.0000      -0.367759       -10.0072
  17   2.0000      -0.354854        -9.6561
  18   2.0000      -0.329080        -8.9547
  19   2.0000      -0.320008        -8.7079
  20   2.0000      -0.307984        -8.3807
  21   2.0000      -0.290000        -7.8913
  22   2.0000      -0.283443        -7.7129
  23   2.0000      -0.262172        -7.1341
  24   2.0000      -0.209411        -5.6984
  25   0.0000       0.025058         0.6819
  26   0.0000       0.041219         1.1216
  27   0.0000       0.062642         1.7046
  28   0.0000       0.071615         1.9487
  29   0.0000       0.090179         2.4539

MULLIKEN ATOMIC CHARGES
-----------------------
   0 C :   -0.268929
   1 C :   -0.171935
   2 C :   -0.181479
   3 H :    0.073634
   4 C :   -0.255664
   5 C :    0.033371
   6 O :   -0.434907
   7 H :    0.100048
   8 H :    0.107960
   9 H :    0.102644
  10 H :    0.080411
  11 H :    0.082351
  12 H :    0.105736
  13 H :    0.085907
  14 H :    0.095334
  15 H :    0.087920
  16 H :    0.062994
  17 H :    0.294602
Sum of atomic charges:    0.0000000

LOEWDIN ATOMIC CHARGES
----------------------
   0 C :   -0.341108
   1 C :   -0.224851
   2 C :   -0.176237
   3 H :    0.116591
   4 C :   -0.334708
   5 C :   -0.115127
   6 O :   -0.339577
   7 H :    0.118740
   8 H :    0.116903
   9 H :    0.120615
  10 H :    0.114068
  11 H :    0.115447
  12 H :    0.121661
  13 H :    0.108559
  14 H :    0.117323
  15 H :    0.110608
  16 H :    0.092917
  17 H :    0.278176

  Mayer bond orders larger than 0.100000
B(  0-C ,  1-C ) :   1.1595 B(  0-C ,  7-H ) :   0.9533 B(  0-C ,  8-H ) :   0.9476
B(  0-C ,  9-H ) :   0.9498 B(  1-C ,  2-C ) :   1.0588 B(  1-C , 10-H ) :   0.9205
B(  1-C , 11-H ) :   0.9237 B(  2-C ,  3-H ) :   0.8971 B(  2-C ,  4-C ) :   1.0980
B(  2-C ,  5-C ) :   1.0448 B(  4-C , 12-H ) :   0.9479 B(  4-C , 13-H ) :   0.9426
B(  4-C , 14-H ) :   0.9490 B(  5-C ,  6-O ) :   1.0743 B(  5-C , 15-H ) :   0.9271
B(  5-C , 16-H ) :   0.9176 B(  6-O , 17-H ) :   0.8502

Dispersion correction           -0.012835486
FINAL SINGLE POINT ENERGY      -272.300388364517

DIPOLE MOMENT
-------------

Method             : SCF
Type of density    : Electron Density
Multiplicity       :   1
Irrep              :   0
Energy             :  -272.3702485378094593 Eh
Relativity type    :
Basis              : AO
                                X                 Y                 Z
Electronic contribution:      4.620362969       0.487165295       0.820870033
Nuclear contribution   :     -4.951845756      -0.963023199      -1.037918826
                        -----------------------------------------
Total Dipole Moment    :     -0.331482787      -0.475857904      -0.217048793
                        -----------------------------------------
Magnitude (a.u.)       :      0.619218671
Magnitude (Debye)      :      1.573928778

Rotational constants in cm-1:             0.159617             0.076362             0.056649
Rotational constants in MHz :          4785.191073          2289.270271          1698.283269

                             ****ORCA TERMINATED NORMALLY****
TOTAL RUN TIME: 0 days 0 hours 0 minutes 7 seconds 920 msec
