                         Program Version 6.0.0  -   RELEASE  -
|  1> ! r2scan-3c def2/J RI DEFGRID2 scfconv6 printgap
|  2> %output
|  3>     printlevel normal
|  4> end
|  5> * xyz 0 1
|  6> C 2.0004915369 0.5758322791 0.7345382153
|  7> C 1.4998442985 -0.4180580276 -0.3078784246
|  8> C 0.259848991 0.028886628 -1.0889299983
|  9> C -1.1044569377 -0.0032857425 -0.3771858873
| 10> C -1.306313213 1.1391173234 0.6172686993
| 11> C -1.376710282 -1.347257339 0.2953438188
| 12> H 1.3406816374 0.6202753529 1.5952461597
| 13> H 2.9869919993 0.2792738811 1.0852488847
| 14> H 2.0755297368 1.572690079 0.3060619986
| 15> H 2.2988066131 -0.5693526642 -1.0391010854
| 16> H 1.3132371994 -1.3824422774 0.1654561153
| 17> H 0.4291289344 1.0418643909 -1.4628765559
| 18> H 0.1786662183 -0.6263148917 -1.961091207
| 19> H -1.8518931357 0.128487484 -1.1705877986
| 20> H -2.3535356978 1.1949062562 0.9079123276
| 21> H -1.0239819147 2.0907703007 0.1736009105
| 22> H -0.7186277358 0.9886591512 1.5175007987
| 23> H -1.2070241824 -2.1660453975 -0.4001989375
| 24> H -0.7332606493 -1.4851316299 1.1606519939
| 25> H -2.4094411917 -1.3925205216 0.63375314
| 26> *
| 27>
| 28>                          ****END OF INPUT****

CARTESIAN COORDINATES (ANGSTROEM)
---------------------------------
  C      2.000492    0.575832    0.734538
  C      1.499844   -0.418058   -0.307878
  C      0.259849    0.028887   -1.088930
  C     -1.104457   -0.003286   -0.377186
  C     -1.306313    1.139117    0.617269
  C     -1.376710   -1.347257    0.295344
  H      1.340682    0.620275    1.595246
  H      2.986992    0.279274    1.085249
  H      2.075530    1.572690    0.306062
  H      2.298807   -0.569353   -1.039101
  H      1.313237   -1.382442    0.165456
  H      0.429129    1.041864   -1.462877
  H      0.178666   -0.626315   -1.961091
  H     -1.851893    0.128487   -1.170588
  H     -2.353536    1.194906    0.907912
  H     -1.023982    2.090770    0.173601
  H     -0.718628    0.988659    1.517501
  H     -1.207024   -2.166045   -0.400199
  H     -0.733261   -1.485132    1.160652
  H     -2.409441   -1.392521    0.633753

 Total Charge           Charge          ....    0
 Multiplicity           Mult            ....    1
 Number of Electrons    NEL             ....   50
 Basis Dimension        Dim             ....  184

ORBITAL ENERGIES
----------------

  NO   OCC          E(Eh)            E(eV)
   0   2.0000     -10.029927      -272.9282
   1   2.0000     -10.020967      -272.6844
   2   2.0000     -10.018436      -272.6155
   3   2.0000     -10.012672      -272.4587
   4   2.0000     -10.012331      -272.4494
   5   2.0000     -10.010750      -272.4064
   6   2.0000      -0.777245       -21.1499
   7   2.0000      -0.723531       -19.6883
   8   2.0000      -0.648732       -17.6529
   9   2.0000      -0.644125       -17.5275
  10   2.0000      -0.565451       -15.3867
  11   2.0000      -0.504202       -13.7200
  12   2.0000      -0.442308       -12.0358
  13   2.0000      -0.419257       -11.4086
  14   2.0000      -0.399221       -10.8634
  15   2.0000      -0.382439       -10.4067
  16   2.0000      -0.378940       -10.3115
  17   2.0000      -0.352134        -9.5820
  18   2.0000      -0.343533        -9.3480
  19   2.0000      -0.325860        -8.8671
  20   2.0000      -0.317480        -8.6391
  21   2.0000      -0.306716        -8.3462
  22   2.0000      -0.286158        -7.7867
  23   2.0000      -0.276851        -7.5335
  24   2.0000      -0.269430        -7.3316
  25   0.0000       0.079013         2.1501
  26   0.0000       0.112315         3.0563
  27   0.0000       0.120561         3.2806
  28   0.0000       0.127829         3.4784
  29   0.0000       0.131779         3.5859

MULLIKEN ATOMIC CHARGES
-----------------------
   0 C :   -0.463736
   1 C :   -0.264530
   2 C :   -0.275340
   3 C :   -0.004008
   4 C :   -0.496453
   5 C :   -0.511301
   6 H :    0.137718
   7 H :    0.142636
   8 H :    0.145511
   9 H :    0.136315
  10 H :    0.147043
  11 H :    0.142043
  12 H :    0.141760
  13 H :    0.141888
  14 H :    0.143756
  15 H :    0.146128
  16 H :    0.141795
  17 H :    0.149334
  18 H :    0.153723
  19 H :    0.145718
Sum of atomic charges:   -0.0000000

LOEWDIN ATOMIC CHARGES
----------------------
   0 C :   -0.425551
   1 C :   -0.315289
   2 C :   -0.309415
   3 C :   -0.246689
   4 C :   -0.417859
   5 C :   -0.419191
   6 H :    0.146371
   7 H :    0.149373
   8 H :    0.150193
   9 H :    0.152288
  10 H :    0.153390
  11 H :    0.155614
  12 H :    0.157385
  13 H :    0.155021
  14 H :    0.152003
  15 H :    0.153316
  16 H :    0.149967
  17 H :    0.154291
  18 H :    0.151119
  19 H :    0.153664

  Mayer bond orders larger than 0.100000
B(  0-C ,  1-C ) :   0.8938 B(  0-C ,  6-H ) :   0.9786 B(  0-C ,  7-H ) :   0.9691
B(  0-C ,  8-H ) :   0.9847 B(  1-C ,  2-C ) :   0.9019 B(  1-C ,  9-H ) :   0.9607
B(  1-C , 10-H ) :   0.9788 B(  2-C ,  3-C ) :   0.9072 B(  2-C , 11-H ) :   0.9877
B(  2-C , 12-H ) :   0.9666 B(  3-C ,  4-C ) :   0.9224 B(  3-C ,  5-C ) :   0.8964
B(  3-C , 13-H ) :   0.9576 B(  4-C , 14-H ) :   0.9690 B(  4-C , 15-H ) :   0.9748
B(  4-C , 16-H ) :   0.9828 B(  5-C , 17-H ) :   0.9746 B(  5-C , 18-H ) :   0.9822
B(  5-C , 19-H ) :   0.9698

Dispersion correction           -0.005237315
FINAL SINGLE POINT ENERGY      -236.983405362225

DIPOLE MOMENT
-------------

Method             : SCF
Type of density    : Electron Density
Multiplicity       :   1
Irrep              :   0
Energy             :  -236.9878468603283181 Eh
Relativity type    :
Basis              : AO
                                X                 Y                 Z
Electronic contribution:     -0.318317943      -0.295136266      -1.479476150
Nuclear contribution   :      0.305163033       0.276869670       1.418102615
                        -----------------------------------------
Total Dipole Moment    :     -0.013154910      -0.018266596      -0.061373535
                        -----------------------------------------
Magnitude (a.u.)       :      0.065371485
Magnitude (Debye)      :      0.166161109

Rotational constants in cm-1:             0.152149             0.077911             0.068111
Rotational constants in MHz :          4561.303264          2335.698031          2041.928950

                             ****ORCA TERMINATED NORMALLY****
TOTAL RUN TIME: 0 days 0 hours 0 minutes 17 seconds 456 msec
