                         Program Version 6.0.0  -   RELEASE  -
|  1> ! r2scan-3c def2/J RI DEFGRID2 scfconv6 printgap
|  2> %output
|  3>     printlevel normal
|  4> end
|  5> %cpcm
|  6>     smd true
|  7>     smdsolvent "water"
|  8> end
|  9> * xyz 0 1
| 10> C 2.0004915369 0.5758322791 0.7345382153
| 11> C 1.4998442985 -0.4180580276 -0.3078784246
| 12> C 0.259848991 0.028886628 -1.0889299983
| 13> C -1.1044569377 -0.0032857425 -0.3771858873
| 14> C -1.306313213 1.1391173234 0.6172686993
| 15> C -1.376710282 -1.347257339 0.2953438188
| 16> H 1.3406816374 0.6202753529 1.5952461597
| 17> H 2.9869919993 0.2792738811 1.0852488847
| 18> H 2.0755297368 1.572690079 0.3060619986
| 19> H 2.2988066131 -0.5693526642 -1.0391010854
| 20> H 1.3132371994 -1.3824422774 0.1654561153
| 21> H 0.4291289344 1.0418643909 -1.4628765559
| 22> H 0.1786662183 -0.6263148917 -1.961091207
| 23> H -1.8518931357 0.128487484 -1.1705877986
| 24> H -2.3535356978 1.1949062562 0.9079123276
| 25> H -1.0239819147 2.0907703007 0.1736009105
| 26> H -0.7186277358 0.9886591512 1.5175007987
| 27> H -1.2070241824 -2.1660453975 -0.4001989375
| 28> H -0.7332606493 -1.4851316299 1.1606519939
| 29> H -2.4094411917 -1.3925205216 0.63375314
| 30> *
| 31>
| 32>                          ****END OF INPUT****

CARTESIAN COORDINATES (ANGSTROEM)
---------------------------------
  C      2.000492    0.575832    0.734538
  C      1.499844   -0.418058   -0.307878
  C      0.259849    0.028887   -1.088930
  C     -1.104457   -0.003286   -0.377186
  C     -1.306313    1.139117    0.617269
  C     -1.376710   -1.347257    0.295344
  H      1.340682    0.620275    1.595246
  H      2.986992    0.279274    1.085249
  H      2.075530    1.572690    0.306062
  H      2.298807   -0.569353   -1.039101
  H      1.313237   -1.382442    0.165456
  H      0.429129    1.041864   -1.462877
  H      0.178666   -0.626315   -1.961091
  H     -1.851893    0.128487   -1.170588
  H     -2.353536    1.194906    0.907912
  H     -1.023982    2.090770    0.173601
  H     -0.718628    0.988659    1.517501
  H     -1.207024   -2.166045   -0.400199
  H     -0.733261   -1.485132    1.160652
  H     -2.409441   -1.392521    0.633753

 Total Charge           Charge          ....    0
 Multiplicity           Mult            ....    1
 Number of Electrons    NEL             ....   50
 Basis Dimension        Dim             ....  184

ORBITAL ENERGIES
----------------

  NO   OCC          E(Eh)            E(eV)
   0   2.0000     -10.022650      -272.7302
   1   2.0000     -10.013746      -272.4879
   2   2.0000     -10.010771      -272.4069
   3   2.0000     -10.005168      -272.2545
   4   2.0000     -10.004814      -272.2448
   5   2.0000     -10.003378      -272.2058
   6   2.0000      -0.769925       -20.9507
   7   2.0000      -0.716561       -19.4986
   8   2.0000      -0.641954       -17.4685
   9   2.0000      -0.637115       -17.3368
  10   2.0000      -0.558681       -15.2025
  11   2.0000      -0.497172       -13.5287
  12   2.0000      -0.434808       -11.8317
  13   2.0000      -0.412052       -11.2125
  14   2.0000      -0.392102       -10.6696
  15   2.0000      -0.375187       -10.2094
  16   2.0000      -0.371874       -10.1192
  17   2.0000      -0.344765        -9.3815
  18   2.0000      -0.336644        -9.1606
  19   2.0000      -0.318367        -8.6632
  20   2.0000      -0.310312        -8.4440
  21   2.0000      -0.299652        -8.1539
  22   2.0000      -0.278827        -7.5873
  23   2.0000      -0.269602        -7.3362
  24   2.0000      -0.261953        -7.1281
  25   0.0000       0.087159         2.3717
  26   0.0000       0.119868         3.2618
  27   0.0000       0.127267         3.4631
  28   0.0000       0.133992         3.6461
  29   0.0000       0.137599         3.7443

MULLIKEN ATOMIC CHARGES
-----------------------
   0 C :   -0.508924
   1 C :   -0.269655
   2 C :   -0.292829
   3 C :    0.015064
   4 C :   -0.546023
   5 C :   -0.551054
   6 H :    0.153589
   7 H :    0.151438
   8 H :    0.156120
   9 H :    0.143662
  10 H :    0.153323
  11 H :    0.150690
  12 H :    0.148933
  13 H :    0.147542
  14 H :    0.154042
  15 H :    0.156750
  16 H :    0.157417
  17 H :    0.158332
  18 H :    0.165721
  19 H :    0.155864
Sum of atomic charges:   -0.0000000

LOEWDIN ATOMIC CHARGES
----------------------
   0 C :   -0.434697
   1 C :   -0.317493
   2 C :   -0.312512
   3 C :   -0.244844
   4 C :   -0.427479
   5 C :   -0.427342
   6 H :    0.150147
   7 H :    0.151114
   8 H :    0.152243
   9 H :    0.153686
  10 H :    0.155048
  11 H :    0.157768
  12 H :    0.158916
  13 H :    0.156620
  14 H :    0.153980
  15 H :    0.155267
  16 H :    0.153480
  17 H :    0.156322
  18 H :    0.154293
  19 H :    0.155482

  Mayer bond orders larger than 0.100000
B(  0-C ,  1-C ) :   0.8813 B(  0-C ,  6-H ) :   0.9773 B(  0-C ,  7-H ) :   0.9669
B(  0-C ,  8-H ) :   0.9823 B(  1-C ,  2-C ) :   0.8992 B(  1-C ,  9-H ) :   0.9614
B(  1-C , 10-H ) :   0.9784 B(  2-C ,  3-C ) :   0.9035 B(  2-C , 11-H ) :   0.9870
B(  2-C , 12-H ) :   0.9669 B(  3-C ,  4-C ) :   0.9091 B(  3-C ,  5-C ) :   0.8903
B(  3-C , 13-H ) :   0.9588 B(  4-C , 14-H ) :   0.9675 B(  4-C , 15-H ) :   0.9727
B(  4-C , 16-H ) :   0.9813 B(  5-C , 17-H ) :   0.9722 B(  5-C , 18-H ) :   0.9792
B(  5-C , 19-H ) :   0.9686

Dispersion correction           -0.005237315
FINAL SINGLE POINT ENERGY      -236.980268701571

DIPOLE MOMENT
-------------

Method             : SCF
Type of density    : Electron Density
Multiplicity       :   1
Irrep              :   0
Energy             :  -236.9847101996743106 Eh
Relativity type    :
Basis              : AO
                                X                 Y                 Z
Electronic contribution:     -0.321183301      -0.303444598      -1.486631590
Nuclear contribution   :      0.305163033       0.276869670       1.418102615
                        -----------------------------------------
Total Dipole Moment    :     -0.016020269      -0.026574928      -0.068528975
                        -----------------------------------------
Magnitude (a.u.)       :      0.075226965
Magnitude (Debye)      :      0.191211748

Rotational constants in cm-1:             0.152149             0.077911             0.068111
Rotational constants in MHz :          4561.303264          2335.698031          2041.928950

                             ****ORCA TERMINATED NORMALLY****
TOTAL RUN TIME: 0 days 0 hours 0 minutes 20 seconds 635 msec
