                         Program Version 6.0.0  -   RELEASE  -
|  1> ! r2scan-3c def2/J RI DEFGRID2 scfconv6 printgap
|  2> %output
|  3>     printlevel normal
|  4> end
|  5> * xyz 0 1
|  6> C -2.367514304 0.2156303382 1.0718237452
|  7> C -1.7984386916 0.602732519 -0.2967422005
|  8> C -0.5282531137 -0.1698221363 -0.5404796159
|  9> O -0.464926019 -1.2397198644 -1.11222999
| 10> O 0.5239261505 0.4425327551 -0.0197905682
| 11> C 1.8065890271 -0.2005006522 -0.1155762712
| 12> C 2.7185253366 0.3890913016 0.943481367
| 13> H -2.5584779014 -0.8541873348 1.1112785867
| 14> H -1.6654335187 0.476159262 1.8593322765
| 15> H -3.3001990931 0.7442882092 1.2428368677
| 16> H -1.5725504149 1.6677054183 -0.3164411066
| 17> H -2.5109295833 0.351963395 -1.0816224912
| 18> H 1.6656047798 -1.2781899564 0.0165898497
| 19> H 2.197448606 -0.0247887739 -1.1228788476
| 20> H 3.6997487091 -0.0674127529 0.8658313387
| 21> H 2.8086245261 1.4615372343 0.7989511819
| 22> H 2.3146381956 0.2014951453 1.9340674238
| 23> *
| 24>
| 25>                          ****END OF INPUT****

CARTESIAN COORDINATES (ANGSTROEM)
---------------------------------
  C     -2.367514    0.215630    1.071824
  C     -1.798439    0.602733   -0.296742
  C     -0.528253   -0.169822   -0.540480
  O     -0.464926   -1.239720   -1.112230
  O      0.523926    0.442533   -0.019791
  C      1.806589   -0.200501   -0.115576
  C      2.718525    0.389091    0.943481
  H     -2.558478   -0.854187    1.111279
  H     -1.665434    0.476159    1.859332
  H     -3.300199    0.744288    1.242837
  H     -1.572550    1.667705   -0.316441
  H     -2.510930    0.351963   -1.081622
  H      1.665605   -1.278190    0.016590
  H      2.197449   -0.024789   -1.122879
  H      3.699749   -0.067413    0.865831
  H      2.808625    1.461537    0.798951
  H      2.314638    0.201495    1.934067

 Total Charge           Charge          ....    0
 Multiplicity           Mult            ....    1
 Number of Electrons    NEL             ....   56
 Basis Dimension        Dim             ....  193

ORBITAL ENERGIES
----------------

  NO   OCC          E(Eh)            E(eV)
   0   2.0000     -18.996629      -516.9245
   1   2.0000     -18.925681      -514.9940
   2   2.0000     -10.150058      -276.1971
   3   2.0000     -10.091384      -274.6005
   4   2.0000     -10.043019      -273.2844
   5   2.0000     -10.032607      -273.0011
   6   2.0000     -10.031832      -272.9800
   7   2.0000      -1.071536       -29.1580
   8   2.0000      -0.973059       -26.4783
   9   2.0000      -0.766886       -20.8680
  10   2.0000      -0.733647       -19.9636
  11   2.0000      -0.638918       -17.3858
  12   2.0000      -0.594514       -16.1775
  13   2.0000      -0.533686       -14.5223
  14   2.0000      -0.466207       -12.6861
  15   2.0000      -0.460865       -12.5408
  16   2.0000      -0.440934       -11.9984
  17   2.0000      -0.410205       -11.1622
  18   2.0000      -0.400816       -10.9068
  19   2.0000      -0.381471       -10.3804
  20   2.0000      -0.373605       -10.1663
  21   2.0000      -0.349289        -9.5046
  22   2.0000      -0.344252        -9.3676
  23   2.0000      -0.327439        -8.9101
  24   2.0000      -0.323230        -8.7955
  25   2.0000      -0.310446        -8.4477
  26   2.0000      -0.270459        -7.3596
  27   2.0000      -0.231723        -6.3055
  28   0.0000      -0.013600        -0.3701
  29   0.0000       0.073072         1.9884
  30   0.0000       0.095971         2.6115
  31   0.0000       0.119276         3.2457
  32   0.0000       0.123172         3.3517

MULLIKEN ATOMIC CHARGES
-----------------------
   0 C :   -0.471806
   1 C :   -0.294945
   2 C :    0.405043
   3 O :   -0.428492
   4 O :   -0.169828
   5 C :   -0.150889
   6 C :   -0.440982
   7 H :    0.160747
   8 H :    0.154535
   9 H :    0.153686
  10 H :    0.152658
  11 H :    0.161650
  12 H :    0.169730
  13 H :    0.147735
  14 H :    0.147372
  15 H :    0.152188
  16 H :    0.151598
Sum of atomic charges:   -0.0000000

LOEWDIN ATOMIC CHARGES
----------------------
   0 C :   -0.392496
   1 C :   -0.236969
   2 C :    0.353901
   3 O :   -0.430001
   4 O :   -0.598192
   5 C :    0.033556
   6 C :   -0.387181
   7 H :    0.159832
   8 H :    0.156877
   9 H :    0.153043
  10 H :    0.173547
  11 H :    0.174618
  12 H :    0.186675
  13 H :    0.175580
  14 H :    0.159590
  15 H :    0.159095
  16 H :    0.158523

  Mayer bond orders larger than 0.100000
B(  0-C ,  1-C ) :   0.8968 B(  0-C ,  7-H ) :   0.9749 B(  0-C ,  8-H ) :   0.9774
B(  0-C ,  9-H ) :   0.9706 B(  1-C ,  2-C ) :   0.9490 B(  1-C , 10-H ) :   0.9757
B(  1-C , 11-H ) :   0.9750 B(  2-C ,  3-O ) :   1.8270 B(  2-C ,  4-O ) :   1.0603
B(  4-O ,  5-C ) :   0.7995 B(  5-C ,  6-C ) :   0.9432 B(  5-C , 12-H ) :   0.9608
B(  5-C , 13-H ) :   0.9478 B(  6-C , 14-H ) :   0.9683 B(  6-C , 15-H ) :   0.9688
B(  6-C , 16-H ) :   0.9742

Dispersion correction           -0.003908258
FINAL SINGLE POINT ENERGY      -346.935613895045

DIPOLE MOMENT
-------------

Method             : SCF
Type of density    : Electron Density
Multiplicity       :   1
Irrep              :   0
Energy             :  -346.9420470968477730 Eh
Relativity type    :
Basis              : AO
                                X                 Y                 Z
Electronic contribution:     -0.721439581      -1.849661903      -4.423704593
Nuclear contribution   :      1.012663966       2.501127155       4.962956467
                        -----------------------------------------
Total Dipole Moment    :      0.291224385       0.651465253       0.539251873
                        -----------------------------------------
Magnitude (a.u.)       :      0.894433452
Magnitude (Debye)      :      2.273469160

Rotational constants in cm-1:             0.159801             0.050752             0.042751
Rotational constants in MHz :          4790.701534          1521.495407          1281.656282

                             ****ORCA TERMINATED NORMALLY****
TOTAL RUN TIME: 0 days 0 hours 0 minutes 22 seconds 433 msec
