                         Program Version 6.0.0  -   RELEASE  -
|  1> ! r2scan-3c def2/J RI DEFGRID2 scfconv6 printgap
|  2> %output
|  3>     printlevel normal
|  4> end
|  5> %cpcm
|  6>     smd true
|  7>     smdsolvent "water"
|  8> end
|  9> * xyz 0 1
| 10> C -2.367514304 0.2156303382 1.0718237452
| 11> C -1.7984386916 0.602732519 -0.2967422005
| 12> C -0.5282531137 -0.1698221363 -0.5404796159
| 13> O -0.464926019 -1.2397198644 -1.11222999
| 14> O 0.5239261505 0.4425327551 -0.0197905682
| 15> C 1.8065890271 -0.2005006522 -0.1155762712
| 16> C 2.7185253366 0.3890913016 0.943481367
| 17> H -2.5584779014 -0.8541873348 1.1112785867
| 18> H -1.6654335187 0.476159262 1.8593322765
| 19> H -3.3001990931 0.7442882092 1.2428368677
| 20> H -1.5725504149 1.6677054183 -0.3164411066
| 21> H -2.5109295833 0.351963395 -1.0816224912
| 22> H 1.6656047798 -1.2781899564 0.0165898497
| 23> H 2.197448606 -0.0247887739 -1.1228788476
| 24> H 3.6997487091 -0.0674127529 0.8658313387
| 25> H 2.8086245261 1.4615372343 0.7989511819
| 26> H 2.3146381956 0.2014951453 1.9340674238
| 27> *
| 28>
| 29>                          ****END OF INPUT****

CARTESIAN COORDINATES (ANGSTROEM)
---------------------------------
  C     -2.367514    0.215630    1.071824
  C     -1.798439    0.602733   -0.296742
  C     -0.528253   -0.169822   -0.540480
  O     -0.464926   -1.239720   -1.112230
  O      0.523926    0.442533   -0.019791
  C      1.806589   -0.200501   -0.115576
  C      2.718525    0.389091    0.943481
  H     -2.558478   -0.854187    1.111279
  H     -1.665434    0.476159    1.859332
  H     -3.300199    0.744288    1.242837
  H     -1.572550    1.667705   -0.316441
  H     -2.510930    0.351963   -1.081622
  H      1.665605   -1.278190    0.016590
  H      2.197449   -0.024789   -1.122879
  H      3.699749   -0.067413    0.865831
  H      2.808625    1.461537    0.798951
  H      2.314638    0.201495    1.934067

 Total Charge           Charge          ....    0
 Multiplicity           Mult            ....    1
 Number of Electrons    NEL             ....   56
 Basis Dimension        Dim             ....  193

ORBITAL ENERGIES
----------------

  NO   OCC          E(Eh)            E(eV)
   0   2.0000     -19.002658      -517.0886
   1   2.0000     -18.943014      -515.4656
   2   2.0000     -10.161692      -276.5137
   3   2.0000     -10.083663      -274.3904
   4   2.0000     -10.037522      -273.1349
   5   2.0000     -10.022425      -272.7241
   6   2.0000     -10.018795      -272.6253
   7   2.0000      -1.079413       -29.3723
   8   2.0000      -0.988089       -26.8873
   9   2.0000      -0.762572       -20.7506
  10   2.0000      -0.725167       -19.7328
  11   2.0000      -0.632595       -17.2138
  12   2.0000      -0.587501       -15.9867
  13   2.0000      -0.532334       -14.4855
  14   2.0000      -0.468737       -12.7550
  15   2.0000      -0.458848       -12.4859
  16   2.0000      -0.449487       -12.2312
  17   2.0000      -0.409237       -11.1359
  18   2.0000      -0.398294       -10.8381
  19   2.0000      -0.377798       -10.2804
  20   2.0000      -0.361540        -9.8380
  21   2.0000      -0.341142        -9.2829
  22   2.0000      -0.338878        -9.2213
  23   2.0000      -0.324904        -8.8411
  24   2.0000      -0.317182        -8.6310
  25   2.0000      -0.311463        -8.4753
  26   2.0000      -0.276935        -7.5358
  27   2.0000      -0.249088        -6.7780
  28   0.0000      -0.022605        -0.6151
  29   0.0000       0.076654         2.0859
  30   0.0000       0.105629         2.8743
  31   0.0000       0.127804         3.4777
  32   0.0000       0.131549         3.5796

MULLIKEN ATOMIC CHARGES
-----------------------
   0 C :   -0.491938
   1 C :   -0.310370
   2 C :    0.445747
   3 O :   -0.516749
   4 O :   -0.184348
   5 C :   -0.150342
   6 C :   -0.487625
   7 H :    0.164932
   8 H :    0.165787
   9 H :    0.173060
  10 H :    0.174316
  11 H :    0.174663
  12 H :    0.172077
  13 H :    0.172103
  14 H :    0.168826
  15 H :    0.164334
  16 H :    0.165526
Sum of atomic charges:   -0.0000000

LOEWDIN ATOMIC CHARGES
----------------------
   0 C :   -0.393737
   1 C :   -0.234085
   2 C :    0.363477
   3 O :   -0.493403
   4 O :   -0.598164
   5 C :    0.036589
   6 C :   -0.390069
   7 H :    0.160687
   8 H :    0.160606
   9 H :    0.160495
  10 H :    0.183023
  11 H :    0.179692
  12 H :    0.188202
  13 H :    0.183894
  14 H :    0.168223
  15 H :    0.162489
  16 H :    0.162081

  Mayer bond orders larger than 0.100000
B(  0-C ,  1-C ) :   0.8886 B(  0-C ,  7-H ) :   0.9720 B(  0-C ,  8-H ) :   0.9730
B(  0-C ,  9-H ) :   0.9655 B(  1-C ,  2-C ) :   0.9489 B(  1-C , 10-H ) :   0.9661
B(  1-C , 11-H ) :   0.9706 B(  2-C ,  3-O ) :   1.7531 B(  2-C ,  4-O ) :   1.0895
B(  4-O ,  5-C ) :   0.7867 B(  5-C ,  6-C ) :   0.9429 B(  5-C , 12-H ) :   0.9556
B(  5-C , 13-H ) :   0.9387 B(  6-C , 14-H ) :   0.9619 B(  6-C , 15-H ) :   0.9660
B(  6-C , 16-H ) :   0.9724

Dispersion correction           -0.003908258
FINAL SINGLE POINT ENERGY      -346.941261431539

DIPOLE MOMENT
-------------

Method             : SCF
Type of density    : Electron Density
Multiplicity       :   1
Irrep              :   0
Energy             :  -346.9476946333418255 Eh
Relativity type    :
Basis              : AO
                                X                 Y                 Z
Electronic contribution:     -0.636767752      -1.574987458      -4.236392515
Nuclear contribution   :      1.012663966       2.501127155       4.962956467
                        -----------------------------------------
Total Dipole Moment    :      0.375896214       0.926139698       0.726563952
                        -----------------------------------------
Magnitude (a.u.)       :      1.235689232
Magnitude (Debye)      :      3.140872420

Rotational constants in cm-1:             0.159801             0.050752             0.042751
Rotational constants in MHz :          4790.701534          1521.495407          1281.656282

                             ****ORCA TERMINATED NORMALLY****
TOTAL RUN TIME: 0 days 0 hours 0 minutes 24 seconds 724 msec
