                         Program Version 6.0.0  -   RELEASE  -
|  1> ! r2scan-3c def2/J RI DEFGRID2 scfconv6 printgap
|  2> %output
|  3>     printlevel normal
|  4> end
|  5> * xyz 0 1
|  6> C 2.7326511338 -0.2655400007 0.100872553
|  7> C 1.2648763057 -0.1382103203 0.4937067788
|  8> C 0.3648909238 -0.1374043959 -0.7415797025
|  9> C -1.134369075 0.0576348555 -0.4549469318
| 10> H -1.6655425007 0.0105141709 -1.4139117112
| 11> C -1.7042112942 -1.0103740412 0.4779206427
| 12> O -1.4170537362 1.3628416168 0.0219522312
| 13> H 3.365189405 -0.2688741137 0.9851876633
| 14> H 3.0319636507 0.5659687427 -0.5333360694
| 15> H 2.9007900962 -1.1902411783 -0.4464133435
| 16> H 1.0003838741 -0.9713791583 1.1462808026
| 17> H 1.1285941591 0.7909659651 1.0509522173
| 18> H 0.6802876071 0.669243538 -1.4078404116
| 19> H 0.4864916055 -1.0802451807 -1.277391412
| 20> H -1.2602680216 -0.934911998 1.4673706678
| 21> H -2.7791135946 -0.8770515068 0.572201374
| 22> H -1.5061139841 -1.9990347651 0.0752629444
| 23> H -1.0477169657 1.4538236359 0.9111756091
| 24> *
| 25>
| 26>                          ****END OF INPUT****

CARTESIAN COORDINATES (ANGSTROEM)
---------------------------------
  C      2.732651   -0.265540    0.100873
  C      1.264876   -0.138210    0.493707
  C      0.364891   -0.137404   -0.741580
  C     -1.134369    0.057635   -0.454947
  H     -1.665543    0.010514   -1.413912
  C     -1.704211   -1.010374    0.477921
  O     -1.417054    1.362842    0.021952
  H      3.365189   -0.268874    0.985188
  H      3.031964    0.565969   -0.533336
  H      2.900790   -1.190241   -0.446413
  H      1.000384   -0.971379    1.146281
  H      1.128594    0.790966    1.050952
  H      0.680288    0.669244   -1.407840
  H      0.486492   -1.080245   -1.277391
  H     -1.260268   -0.934912    1.467371
  H     -2.779114   -0.877052    0.572201
  H     -1.506114   -1.999035    0.075263
  H     -1.047717    1.453824    0.911176

 Total Charge           Charge          ....    0
 Multiplicity           Mult            ....    1
 Number of Electrons    NEL             ....   50
 Basis Dimension        Dim             ....  179

ORBITAL ENERGIES
----------------

  NO   OCC          E(Eh)            E(eV)
   0   2.0000     -18.942665      -515.4561
   1   2.0000     -10.079145      -274.2675
   2   2.0000     -10.030120      -272.9334
   3   2.0000     -10.023130      -272.7432
   4   2.0000     -10.019601      -272.6472
   5   2.0000     -10.019412      -272.6421
   6   2.0000      -0.981204       -26.6999
   7   2.0000      -0.764824       -20.8119
   8   2.0000      -0.713517       -19.4158
   9   2.0000      -0.649878       -17.6841
  10   2.0000      -0.588364       -16.0102
  11   2.0000      -0.539343       -14.6763
  12   2.0000      -0.454098       -12.3566
  13   2.0000      -0.438890       -11.9428
  14   2.0000      -0.426168       -11.5966
  15   2.0000      -0.403827       -10.9887
  16   2.0000      -0.378323       -10.2947
  17   2.0000      -0.362086        -9.8529
  18   2.0000      -0.345105        -9.3908
  19   2.0000      -0.340402        -9.2628
  20   2.0000      -0.318825        -8.6757
  21   2.0000      -0.307433        -8.3657
  22   2.0000      -0.301093        -8.1932
  23   2.0000      -0.276887        -7.5345
  24   2.0000      -0.232205        -6.3186
  25   0.0000       0.060753         1.6532
  26   0.0000       0.099937         2.7194
  27   0.0000       0.104601         2.8463
  28   0.0000       0.117298         3.1918
  29   0.0000       0.134324         3.6552

MULLIKEN ATOMIC CHARGES
-----------------------
   0 C :   -0.475024
   1 C :   -0.269451
   2 C :   -0.248690
   3 C :    0.003517
   4 H :    0.145763
   5 C :   -0.492209
   6 O :   -0.410366
   7 H :    0.146673
   8 H :    0.146075
   9 H :    0.141845
  10 H :    0.147150
  11 H :    0.131219
  12 H :    0.152952
  13 H :    0.136395
  14 H :    0.146731
  15 H :    0.161293
  16 H :    0.146265
  17 H :    0.289862
Sum of atomic charges:   -0.0000000

LOEWDIN ATOMIC CHARGES
----------------------
   0 C :   -0.420915
   1 C :   -0.317748
   2 C :   -0.292738
   3 C :    0.042181
   4 H :    0.180820
   5 C :   -0.401184
   6 O :   -0.606886
   7 H :    0.149825
   8 H :    0.151365
   9 H :    0.150434
  10 H :    0.152908
  11 H :    0.148606
  12 H :    0.165966
  13 H :    0.159319
  14 H :    0.153232
  15 H :    0.160956
  16 H :    0.158516
  17 H :    0.265344

  Mayer bond orders larger than 0.100000
B(  0-C ,  1-C ) :   0.9118 B(  0-C ,  7-H ) :   0.9747 B(  0-C ,  8-H ) :   0.9850
B(  0-C ,  9-H ) :   0.9824 B(  1-C ,  2-C ) :   0.8836 B(  1-C , 10-H ) :   0.9633
B(  1-C , 11-H ) :   0.9699 B(  2-C ,  3-C ) :   0.9162 B(  2-C , 12-H ) :   0.9766
B(  2-C , 13-H ) :   0.9761 B(  3-C ,  4-H ) :   0.9692 B(  3-C ,  5-C ) :   0.9342
B(  3-C ,  6-O ) :   0.9475 B(  5-C , 14-H ) :   0.9728 B(  5-C , 15-H ) :   0.9682
B(  5-C , 16-H ) :   0.9719 B(  6-O , 17-H ) :   0.8954

Dispersion correction           -0.004256019
FINAL SINGLE POINT ENERGY      -272.902350643275

DIPOLE MOMENT
-------------

Method             : SCF
Type of density    : Electron Density
Multiplicity       :   1
Irrep              :   0
Energy             :  -272.9076672039429354 Eh
Relativity type    :
Basis              : AO
                                X                 Y                 Z
Electronic contribution:     -3.704152896       3.100217236      -0.783292637
Nuclear contribution   :      4.045858322      -3.574087804       1.060017559
                        -----------------------------------------
Total Dipole Moment    :      0.341705426      -0.473870569       0.276724922
                        -----------------------------------------
Magnitude (a.u.)       :      0.646446128
Magnitude (Debye)      :      1.643135476

Rotational constants in cm-1:             0.206197             0.062569             0.056537
Rotational constants in MHz :          6181.632773          1875.762775          1694.946940

                             ****ORCA TERMINATED NORMALLY****
TOTAL RUN TIME: 0 days 0 hours 0 minutes 22 seconds 940 msec
