                         Program Version 6.0.0  -   RELEASE  -
|  1> ! r2scan-3c def2/J RI DEFGRID2 scfconv6 printgap
|  2> %output
|  3>     printlevel normal
|  4> end
|  5> %cpcm
|  6>     smd true
|  7>     smdsolvent "water"
|  8> end
|  9> * xyz 0 1
| 10> C 2.7326511338 -0.2655400007 0.100872553
| 11> C 1.2648763057 -0.1382103203 0.4937067788
| 12> C 0.3648909238 -0.1374043959 -0.7415797025
| 13> C -1.134369075 0.0576348555 -0.4549469318
| 14> H -1.6655425007 0.0105141709 -1.4139117112
| 15> C -1.7042112942 -1.0103740412 0.4779206427
| 16> O -1.4170537362 1.3628416168 0.0219522312
| 17> H 3.365189405 -0.2688741137 0.9851876633
| 18> H 3.0319636507 0.5659687427 -0.5333360694
| 19> H 2.9007900962 -1.1902411783 -0.4464133435
| 20> H 1.0003838741 -0.9713791583 1.1462808026
| 21> H 1.1285941591 0.7909659651 1.0509522173
| 22> H 0.6802876071 0.669243538 -1.4078404116
| 23> H 0.4864916055 -1.0802451807 -1.277391412
| 24> H -1.2602680216 -0.934911998 1.4673706678
| 25> H -2.7791135946 -0.8770515068 0.572201374
| 26> H -1.5061139841 -1.9990347651 0.0752629444
| 27> H -1.0477169657 1.4538236359 0.9111756091
| 28> *
| 29>
| 30>                          ****END OF INPUT****

CARTESIAN COORDINATES (ANGSTROEM)
---------------------------------
  C      2.732651   -0.265540    0.100873
  C      1.264876   -0.138210    0.493707
  C      0.364891   -0.137404   -0.741580
  C     -1.134369    0.057635   -0.454947
  H     -1.665543    0.010514   -1.413912
  C     -1.704211   -1.010374    0.477921
  O     -1.417054    1.362842    0.021952
  H      3.365189   -0.268874    0.985188
  H      3.031964    0.565969   -0.533336
  H      2.900790   -1.190241   -0.446413
  H      1.000384   -0.971379    1.146281
  H      1.128594    0.790966    1.050952
  H      0.680288    0.669244   -1.407840
  H      0.486492   -1.080245   -1.277391
  H     -1.260268   -0.934912    1.467371
  H     -2.779114   -0.877052    0.572201
  H     -1.506114   -1.999035    0.075263
  H     -1.047717    1.453824    0.911176

 Total Charge           Charge          ....    0
 Multiplicity           Mult            ....    1
 Number of Electrons    NEL             ....   50
 Basis Dimension        Dim             ....  179

ORBITAL ENERGIES
----------------

  NO   OCC          E(Eh)            E(eV)
   0   2.0000     -18.947766      -515.5949
   1   2.0000     -10.074280      -274.1351
   2   2.0000     -10.016945      -272.5749
   3   2.0000     -10.014158      -272.4991
   4   2.0000     -10.009156      -272.3630
   5   2.0000     -10.008289      -272.3394
   6   2.0000      -0.985051       -26.8046
   7   2.0000      -0.755081       -20.5468
   8   2.0000      -0.704863       -19.1803
   9   2.0000      -0.640693       -17.4342
  10   2.0000      -0.580584       -15.7985
  11   2.0000      -0.531501       -14.4629
  12   2.0000      -0.448878       -12.2146
  13   2.0000      -0.431184       -11.7331
  14   2.0000      -0.418182       -11.3793
  15   2.0000      -0.397655       -10.8208
  16   2.0000      -0.369383       -10.0514
  17   2.0000      -0.353957        -9.6316
  18   2.0000      -0.335771        -9.1368
  19   2.0000      -0.331672        -9.0253
  20   2.0000      -0.314760        -8.5651
  21   2.0000      -0.300010        -8.1637
  22   2.0000      -0.289612        -7.8807
  23   2.0000      -0.272012        -7.4018
  24   2.0000      -0.236853        -6.4451
  25   0.0000       0.076071         2.0700
  26   0.0000       0.112517         3.0617
  27   0.0000       0.116766         3.1774
  28   0.0000       0.127568         3.4713
  29   0.0000       0.144408         3.9295

MULLIKEN ATOMIC CHARGES
-----------------------
   0 C :   -0.515134
   1 C :   -0.261191
   2 C :   -0.290411
   3 C :    0.025320
   4 H :    0.154937
   5 C :   -0.532675
   6 O :   -0.503561
   7 H :    0.156595
   8 H :    0.154800
   9 H :    0.152891
  10 H :    0.155692
  11 H :    0.148896
  12 H :    0.155371
  13 H :    0.154112
  14 H :    0.169086
  15 H :    0.162065
  16 H :    0.164585
  17 H :    0.348621
Sum of atomic charges:   -0.0000000

LOEWDIN ATOMIC CHARGES
----------------------
   0 C :   -0.430625
   1 C :   -0.316613
   2 C :   -0.294065
   3 C :    0.041346
   4 H :    0.183373
   5 C :   -0.405445
   6 O :   -0.646733
   7 H :    0.152089
   8 H :    0.152529
   9 H :    0.152536
  10 H :    0.156638
  11 H :    0.154949
  12 H :    0.164324
  13 H :    0.165716
  14 H :    0.160994
  15 H :    0.159979
  16 H :    0.165180
  17 H :    0.283827

  Mayer bond orders larger than 0.100000
B(  0-C ,  1-C ) :   0.8936 B(  0-C ,  7-H ) :   0.9724 B(  0-C ,  8-H ) :   0.9834
B(  0-C ,  9-H ) :   0.9798 B(  1-C ,  2-C ) :   0.8900 B(  1-C , 10-H ) :   0.9612
B(  1-C , 11-H ) :   0.9687 B(  2-C ,  3-C ) :   0.9195 B(  2-C , 12-H ) :   0.9805
B(  2-C , 13-H ) :   0.9719 B(  3-C ,  4-H ) :   0.9688 B(  3-C ,  5-C ) :   0.9277
B(  3-C ,  6-O ) :   0.9288 B(  5-C , 14-H ) :   0.9693 B(  5-C , 15-H ) :   0.9658
B(  5-C , 16-H ) :   0.9676 B(  6-O , 17-H ) :   0.8677

Dispersion correction           -0.004256019
FINAL SINGLE POINT ENERGY      -272.908938449316

DIPOLE MOMENT
-------------

Method             : SCF
Type of density    : Electron Density
Multiplicity       :   1
Irrep              :   0
Energy             :  -272.9142550099836058 Eh
Relativity type    :
Basis              : AO
                                X                 Y                 Z
Electronic contribution:     -3.588396526       2.906556428      -0.624059727
Nuclear contribution   :      4.045858322      -3.574087804       1.060017559
                        -----------------------------------------
Total Dipole Moment    :      0.457461796      -0.667531376       0.435957833
                        -----------------------------------------
Magnitude (a.u.)       :      0.919200014
Magnitude (Debye)      :      2.336420757

Rotational constants in cm-1:             0.206197             0.062569             0.056537
Rotational constants in MHz :          6181.632773          1875.762775          1694.946940

                             ****ORCA TERMINATED NORMALLY****
TOTAL RUN TIME: 0 days 0 hours 0 minutes 26 seconds 839 msec
