                         Program Version 6.0.0  -   RELEASE  -
|  1> ! r2scan-3c def2/J RI DEFGRID2 scfconv6 printgap
|  2> %output
|  3>     printlevel normal
|  4> end
|  5> * xyz 0 1
|  6> C -3.6705812364 -0.1168944787 0.0078526769
|  7> C -2.2864983209 0.5350165497 -0.0020218964
|  8> O -1.3208564189 -0.5088252381 -0.0060446979
|  9> C 0.0045134059 -0.1902561423 -0.0035335807
| 10> C 0.5159676437 1.1027072762 -0.0029942085
| 11> C 1.8880575207 1.2989219172 0.0010783084
| 12> C 2.7581407693 0.2252071523 0.0041352285
| 13> C 2.2483116702 -1.064597623 0.0024648249
| 14> C 0.8852743805 -1.2738028967 -0.0012919096
| 15> H -4.2430507462 0.1657640337 -0.8692652167
| 16> H -3.5420708596 -1.1960073556 0.0037037743
| 17> H -4.2279325491 0.1606841875 0.8962739032
| 18> H -2.1388487471 1.1611664674 0.886485855
| 19> H -2.1496718871 1.1579224145 -0.894623622
| 20> H -0.1388118042 1.9594445137 -0.0056656126
| 21> H 2.273362895 2.3075033954 0.0019380492
| 22> H 3.8244219751 0.3887493202 0.0075709642
| 23> H 2.9170445777 -1.9117471469 0.0043082512
| 24> H 0.4694158107 -2.2690844144 -0.0025731214
| 25> *
| 26>
| 27>                          ****END OF INPUT****

CARTESIAN COORDINATES (ANGSTROEM)
---------------------------------
  C     -3.670581   -0.116894    0.007853
  C     -2.286498    0.535017   -0.002022
  O     -1.320856   -0.508825   -0.006045
  C      0.004513   -0.190256   -0.003534
  C      0.515968    1.102707   -0.002994
  C      1.888058    1.298922    0.001078
  C      2.758141    0.225207    0.004135
  C      2.248312   -1.064598    0.002465
  C      0.885274   -1.273803   -0.001292
  H     -4.243051    0.165764   -0.869265
  H     -3.542071   -1.196007    0.003704
  H     -4.227933    0.160684    0.896274
  H     -2.138849    1.161166    0.886486
  H     -2.149672    1.157922   -0.894624
  H     -0.138812    1.959445   -0.005666
  H      2.273363    2.307503    0.001938
  H      3.824422    0.388749    0.007571
  H      2.917045   -1.911747    0.004308
  H      0.469416   -2.269084   -0.002573

 Total Charge           Charge          ....    0
 Multiplicity           Mult            ....    1
 Number of Electrons    NEL             ....   66
 Basis Dimension        Dim             ....  226

ORBITAL ENERGIES
----------------

  NO   OCC          E(Eh)            E(eV)
   0   2.0000     -18.981310      -516.5077
   1   2.0000     -10.092161      -274.6217
   2   2.0000     -10.091490      -274.6034
   3   2.0000     -10.033527      -273.0261
   4   2.0000     -10.032351      -272.9941
   5   2.0000     -10.030886      -272.9543
   6   2.0000     -10.028190      -272.8809
   7   2.0000     -10.027062      -272.8502
   8   2.0000     -10.024308      -272.7753
   9   2.0000      -1.030057       -28.0293
  10   2.0000      -0.820826       -22.3358
  11   2.0000      -0.745326       -20.2814
  12   2.0000      -0.715803       -19.4780
  13   2.0000      -0.692832       -18.8529
  14   2.0000      -0.613089       -16.6830
  15   2.0000      -0.573300       -15.6003
  16   2.0000      -0.553480       -15.0610
  17   2.0000      -0.509384       -13.8610
  18   2.0000      -0.456757       -12.4290
  19   2.0000      -0.453028       -12.3275
  20   2.0000      -0.437276       -11.8989
  21   2.0000      -0.410654       -11.1745
  22   2.0000      -0.389306       -10.5935
  23   2.0000      -0.374640       -10.1945
  24   2.0000      -0.367719       -10.0061
  25   2.0000      -0.361194        -9.8286
  26   2.0000      -0.335445        -9.1279
  27   2.0000      -0.330015        -8.9802
  28   2.0000      -0.321700        -8.7539
  29   2.0000      -0.292651        -7.9634
  30   2.0000      -0.287511        -7.8236
  31   2.0000      -0.235405        -6.4057
  32   2.0000      -0.200493        -5.4557
  33   0.0000      -0.029361        -0.7990
  34   0.0000      -0.013796        -0.3754
  35   0.0000       0.069433         1.8894
  36   0.0000       0.087261         2.3745
  37   0.0000       0.099674         2.7123

MULLIKEN ATOMIC CHARGES
-----------------------
   0 C :   -0.505212
   1 C :   -0.137410
   2 O :   -0.182570
   3 C :    0.324375
   4 C :   -0.261058
   5 C :   -0.159608
   6 C :   -0.178173
   7 C :   -0.116634
   8 C :   -0.308194
   9 H :    0.150349
  10 H :    0.179638
  11 H :    0.150530
  12 H :    0.151073
  13 H :    0.151284
  14 H :    0.146856
  15 H :    0.144968
  16 H :    0.146072
  17 H :    0.147703
  18 H :    0.156012
Sum of atomic charges:    0.0000000

LOEWDIN ATOMIC CHARGES
----------------------
   0 C :   -0.389775
   1 C :    0.025058
   2 O :   -0.693255
   3 C :    0.193299
   4 C :   -0.177414
   5 C :   -0.155395
   6 C :   -0.192190
   7 C :   -0.156150
   8 C :   -0.135086
   9 H :    0.156259
  10 H :    0.178285
  11 H :    0.156254
  12 H :    0.167971
  13 H :    0.167824
  14 H :    0.174046
  15 H :    0.166989
  16 H :    0.165841
  17 H :    0.167583
  18 H :    0.179856

  Mayer bond orders larger than 0.100000
B(  0-C ,  1-C ) :   0.8883 B(  0-C ,  9-H ) :   0.9772 B(  0-C , 10-H ) :   0.9877
B(  0-C , 11-H ) :   0.9773 B(  1-C ,  2-O ) :   0.7910 B(  1-C , 12-H ) :   0.9606
B(  1-C , 13-H ) :   0.9603 B(  2-O ,  3-C ) :   1.0443 B(  3-C ,  4-C ) :   1.3922
B(  3-C ,  8-C ) :   1.4066 B(  4-C ,  5-C ) :   1.3744 B(  4-C , 14-H ) :   0.9308
B(  5-C ,  6-C ) :   1.4471 B(  5-C , 15-H ) :   0.9491 B(  6-C ,  7-C ) :   1.3935
B(  6-C , 16-H ) :   0.9472 B(  7-C ,  8-C ) :   1.4044 B(  7-C , 17-H ) :   0.9466
B(  8-C , 18-H ) :   0.9465

Dispersion correction           -0.005752811
FINAL SINGLE POINT ENERGY      -385.980708101465

DIPOLE MOMENT
-------------

Method             : SCF
Type of density    : Electron Density
Multiplicity       :   1
Irrep              :   0
Energy             :  -385.9828818128344778 Eh
Relativity type    :
Basis              : AO
                                X                 Y                 Z
Electronic contribution:      6.134602443      -1.431954475      -0.023855171
Nuclear contribution   :     -6.545609422       1.797866770       0.026322892
                        -----------------------------------------
Total Dipole Moment    :     -0.411006979       0.365912295       0.002467721
                        -----------------------------------------
Magnitude (a.u.)       :      0.550295043
Magnitude (Debye)      :      1.398738839

Rotational constants in cm-1:             0.164623             0.030646             0.026090
Rotational constants in MHz :          4935.263525           918.749758           782.163752

                             ****ORCA TERMINATED NORMALLY****
TOTAL RUN TIME: 0 days 0 hours 0 minutes 28 seconds 361 msec
