                         Program Version 6.0.0  -   RELEASE  -
|  1> ! r2scan-3c def2/J RI DEFGRID2 scfconv6 printgap
|  2> %output
|  3>     printlevel normal
|  4> end
|  5> %cpcm
|  6>     smd true
|  7>     smdsolvent "water"
|  8> end
|  9> * xyz 0 1
| 10> C -3.6705812364 -0.1168944787 0.0078526769
| 11> C -2.2864983209 0.5350165497 -0.0020218964
| 12> O -1.3208564189 -0.5088252381 -0.0060446979
| 13> C 0.0045134059 -0.1902561423 -0.0035335807
| 14> C 0.5159676437 1.1027072762 -0.0029942085
| 15> C 1.8880575207 1.2989219172 0.0010783084
| 16> C 2.7581407693 0.2252071523 0.0041352285
| 17> C 2.2483116702 -1.064597623 0.0024648249
| 18> C 0.8852743805 -1.2738028967 -0.0012919096
| 19> H -4.2430507462 0.1657640337 -0.8692652167
| 20> H -3.5420708596 -1.1960073556 0.0037037743
| 21> H -4.2279325491 0.1606841875 0.8962739032
| 22> H -2.1388487471 1.1611664674 0.886485855
| 23> H -2.1496718871 1.1579224145 -0.894623622
| 24> H -0.1388118042 1.9594445137 -0.0056656126
| 25> H 2.273362895 2.3075033954 0.0019380492
| 26> H 3.8244219751 0.3887493202 0.0075709642
| 27> H 2.9170445777 -1.9117471469 0.0043082512
| 28> H 0.4694158107 -2.2690844144 -0.0025731214
| 29> *
| 30>
| 31>                          ****END OF INPUT****

CARTESIAN COORDINATES (ANGSTROEM)
---------------------------------
  C     -3.670581   -0.116894    0.007853
  C     -2.286498    0.535017   -0.002022
  O     -1.320856   -0.508825   -0.006045
  C      0.004513   -0.190256   -0.003534
  C      0.515968    1.102707   -0.002994
  C      1.888058    1.298922    0.001078
  C      2.758141    0.225207    0.004135
  C      2.248312   -1.064598    0.002465
  C      0.885274   -1.273803   -0.001292
  H     -4.243051    0.165764   -0.869265
  H     -3.542071   -1.196007    0.003704
  H     -4.227933    0.160684    0.896274
  H     -2.138849    1.161166    0.886486
  H     -2.149672    1.157922   -0.894624
  H     -0.138812    1.959445   -0.005666
  H      2.273363    2.307503    0.001938
  H      3.824422    0.388749    0.007571
  H      2.917045   -1.911747    0.004308
  H      0.469416   -2.269084   -0.002573

 Total Charge           Charge          ....    0
 Multiplicity           Mult            ....    1
 Number of Electrons    NEL             ....   66
 Basis Dimension        Dim             ....  226

ORBITAL ENERGIES
----------------

  NO   OCC          E(Eh)            E(eV)
   0   2.0000     -18.984980      -516.6076
   1   2.0000     -10.096089      -274.7285
   2   2.0000     -10.079985      -274.2903
   3   2.0000     -10.034761      -273.0597
   4   2.0000     -10.034626      -273.0561
   5   2.0000     -10.031568      -272.9728
   6   2.0000     -10.030532      -272.9447
   7   2.0000     -10.026230      -272.8276
   8   2.0000     -10.015631      -272.5392
   9   2.0000      -1.033056       -28.1109
  10   2.0000      -0.824757       -22.4428
  11   2.0000      -0.740834       -20.1591
  12   2.0000      -0.718213       -19.5436
  13   2.0000      -0.691251       -18.8099
  14   2.0000      -0.608230       -16.5508
  15   2.0000      -0.574452       -15.6316
  16   2.0000      -0.550002       -14.9663
  17   2.0000      -0.507414       -13.8074
  18   2.0000      -0.455641       -12.3986
  19   2.0000      -0.445552       -12.1241
  20   2.0000      -0.438830       -11.9412
  21   2.0000      -0.408681       -11.1208
  22   2.0000      -0.388844       -10.5810
  23   2.0000      -0.373249       -10.1566
  24   2.0000      -0.363967        -9.9041
  25   2.0000      -0.352795        -9.6000
  26   2.0000      -0.332624        -9.0511
  27   2.0000      -0.327600        -8.9145
  28   2.0000      -0.319682        -8.6990
  29   2.0000      -0.293075        -7.9750
  30   2.0000      -0.286234        -7.7888
  31   2.0000      -0.241273        -6.5654
  32   2.0000      -0.205739        -5.5984
  33   0.0000      -0.034379        -0.9355
  34   0.0000      -0.019226        -0.5232
  35   0.0000       0.074675         2.0320
  36   0.0000       0.096781         2.6336
  37   0.0000       0.111212         3.0262

MULLIKEN ATOMIC CHARGES
-----------------------
   0 C :   -0.547537
   1 C :   -0.123003
   2 O :   -0.223142
   3 C :    0.309938
   4 C :   -0.264432
   5 C :   -0.204039
   6 C :   -0.215970
   7 C :   -0.157130
   8 C :   -0.345652
   9 H :    0.169811
  10 H :    0.179349
  11 H :    0.169915
  12 H :    0.171712
  13 H :    0.171932
  14 H :    0.185332
  15 H :    0.179088
  16 H :    0.178512
  17 H :    0.181799
  18 H :    0.183518
Sum of atomic charges:    0.0000000

LOEWDIN ATOMIC CHARGES
----------------------
   0 C :   -0.395662
   1 C :    0.030495
   2 O :   -0.717720
   3 C :    0.180870
   4 C :   -0.178327
   5 C :   -0.164595
   6 C :   -0.205144
   7 C :   -0.166488
   8 C :   -0.150069
   9 H :    0.162592
  10 H :    0.176009
  11 H :    0.162538
  12 H :    0.177586
  13 H :    0.177436
  14 H :    0.188421
  15 H :    0.178754
  16 H :    0.176154
  17 H :    0.178918
  18 H :    0.188233

  Mayer bond orders larger than 0.100000
B(  0-C ,  1-C ) :   0.8646 B(  0-C ,  9-H ) :   0.9723 B(  0-C , 10-H ) :   0.9869
B(  0-C , 11-H ) :   0.9724 B(  1-C ,  2-O ) :   0.7883 B(  1-C , 12-H ) :   0.9553
B(  1-C , 13-H ) :   0.9549 B(  2-O ,  3-C ) :   1.0248 B(  3-C ,  4-C ) :   1.3697
B(  3-C ,  8-C ) :   1.3516 B(  4-C ,  5-C ) :   1.3422 B(  4-C , 14-H ) :   0.9357
B(  5-C ,  6-C ) :   1.4020 B(  5-C , 15-H ) :   0.9612 B(  6-C ,  7-C ) :   1.3557
B(  6-C , 16-H ) :   0.9562 B(  7-C ,  8-C ) :   1.3857 B(  7-C , 17-H ) :   0.9525
B(  8-C , 18-H ) :   0.9556

Dispersion correction           -0.005752811
FINAL SINGLE POINT ENERGY      -385.984118688239

DIPOLE MOMENT
-------------

Method             : SCF
Type of density    : Electron Density
Multiplicity       :   1
Irrep              :   0
Energy             :  -385.9862923996089421 Eh
Relativity type    :
Basis              : AO
                                X                 Y                 Z
Electronic contribution:      6.064916151      -1.167055411      -0.023036585
Nuclear contribution   :     -6.545609422       1.797866770       0.026322892
                        -----------------------------------------
Total Dipole Moment    :     -0.480693271       0.630811360       0.003286307
                        -----------------------------------------
Magnitude (a.u.)       :      0.793095071
Magnitude (Debye)      :      2.015887466

Rotational constants in cm-1:             0.164623             0.030646             0.026090
Rotational constants in MHz :          4935.263525           918.749758           782.163752

                             ****ORCA TERMINATED NORMALLY****
TOTAL RUN TIME: 0 days 0 hours 0 minutes 34 seconds 186 msec
