                         Program Version 6.0.0  -   RELEASE  -
|  1> ! r2scan-3c def2/J RI DEFGRID2 scfconv6 printgap
|  2> %output
|  3>     printlevel normal
|  4> end
|  5> * xyz 0 1
|  6> C 2.1652256378 -0.4026401055 1.2005170098
|  7> C 1.321591822 -0.5303205142 -0.0634790128
|  8> C 0.2917162555 0.6063261562 -0.2155171681
|  9> H 0.5577956803 1.4124149588 0.488689221
| 10> C -1.1657012529 0.2019275621 0.0849699233
| 11> C -1.6783494702 -0.8645803016 -0.881274095
| 12> C -1.3455780025 -0.2389221646 1.5339842654
| 13> O 0.2912185644 1.1438770686 -1.5316988944
| 14> H 2.7172659278 0.5346914749 1.2037081048
| 15> H 2.8795654406 -1.2204958005 1.2559241043
| 16> H 1.5389426954 -0.4327297448 2.0878169137
| 17> H 1.9793947807 -0.5146297937 -0.9354079614
| 18> H 0.8169498637 -1.4952539747 -0.0665786048
| 19> H -1.757885898 1.1092887158 -0.0822933647
| 20> H -2.7537464591 -0.9770388582 -0.7700222304
| 21> H -1.4613094057 -0.5676899017 -1.9038694919
| 22> H -1.214596834 -1.828869863 -0.6899176634
| 23> H -0.9901159504 0.5284753407 2.2176884009
| 24> H -0.8019753684 -1.1597824285 1.7277233169
| 25> H -2.3988972413 -0.4171748288 1.7347788448
| 26> H 1.1647709879 1.5072905296 -1.7265181808
| 27> *
| 28>
| 29>                          ****END OF INPUT****

CARTESIAN COORDINATES (ANGSTROEM)
---------------------------------
  C      2.165226   -0.402640    1.200517
  C      1.321592   -0.530321   -0.063479
  C      0.291716    0.606326   -0.215517
  H      0.557796    1.412415    0.488689
  C     -1.165701    0.201928    0.084970
  C     -1.678349   -0.864580   -0.881274
  C     -1.345578   -0.238922    1.533984
  O      0.291219    1.143877   -1.531699
  H      2.717266    0.534691    1.203708
  H      2.879565   -1.220496    1.255924
  H      1.538943   -0.432730    2.087817
  H      1.979395   -0.514630   -0.935408
  H      0.816950   -1.495254   -0.066579
  H     -1.757886    1.109289   -0.082293
  H     -2.753746   -0.977039   -0.770022
  H     -1.461309   -0.567690   -1.903869
  H     -1.214597   -1.828870   -0.689918
  H     -0.990116    0.528475    2.217688
  H     -0.801975   -1.159782    1.727723
  H     -2.398897   -0.417175    1.734779
  H      1.164771    1.507291   -1.726518

 Total Charge           Charge          ....    0
 Multiplicity           Mult            ....    1
 Number of Electrons    NEL             ....   58
 Basis Dimension        Dim             ....  208

ORBITAL ENERGIES
----------------

  NO   OCC          E(Eh)            E(eV)
   0   2.0000     -18.942884      -515.4621
   1   2.0000     -10.076130      -274.1854
   2   2.0000     -10.030200      -272.9356
   3   2.0000     -10.024904      -272.7915
   4   2.0000     -10.020718      -272.6776
   5   2.0000     -10.017136      -272.5801
   6   2.0000     -10.007411      -272.3155
   7   2.0000      -0.980912       -26.6920
   8   2.0000      -0.772221       -21.0132
   9   2.0000      -0.729201       -19.8426
  10   2.0000      -0.648158       -17.6373
  11   2.0000      -0.636068       -17.3083
  12   2.0000      -0.578270       -15.7355
  13   2.0000      -0.509819       -13.8729
  14   2.0000      -0.477490       -12.9932
  15   2.0000      -0.447411       -12.1747
  16   2.0000      -0.413074       -11.2403
  17   2.0000      -0.392561       -10.6821
  18   2.0000      -0.388738       -10.5781
  19   2.0000      -0.365112        -9.9352
  20   2.0000      -0.357395        -9.7252
  21   2.0000      -0.349663        -9.5148
  22   2.0000      -0.333164        -9.0658
  23   2.0000      -0.326433        -8.8827
  24   2.0000      -0.308040        -8.3822
  25   2.0000      -0.298050        -8.1104
  26   2.0000      -0.290117        -7.8945
  27   2.0000      -0.269300        -7.3280
  28   2.0000      -0.231042        -6.2870
  29   0.0000       0.062823         1.7095
  30   0.0000       0.086957         2.3662
  31   0.0000       0.103432         2.8145
  32   0.0000       0.116040         3.1576
  33   0.0000       0.127730         3.4757

MULLIKEN ATOMIC CHARGES
-----------------------
   0 C :   -0.494439
   1 C :   -0.267597
   2 C :    0.038730
   3 H :    0.138736
   4 C :   -0.031927
   5 C :   -0.528346
   6 C :   -0.522414
   7 O :   -0.439393
   8 H :    0.143785
   9 H :    0.146927
  10 H :    0.155662
  11 H :    0.150903
  12 H :    0.146923
  13 H :    0.154546
  14 H :    0.147702
  15 H :    0.178640
  16 H :    0.139676
  17 H :    0.153199
  18 H :    0.157675
  19 H :    0.149395
  20 H :    0.281618
Sum of atomic charges:   -0.0000000

LOEWDIN ATOMIC CHARGES
----------------------
   0 C :   -0.422027
   1 C :   -0.293253
   2 C :    0.062836
   3 H :    0.164954
   4 C :   -0.209405
   5 C :   -0.410121
   6 C :   -0.412627
   7 O :   -0.626848
   8 H :    0.148520
   9 H :    0.150911
  10 H :    0.152192
  11 H :    0.164033
  12 H :    0.159322
  13 H :    0.167836
  14 H :    0.153176
  15 H :    0.171100
  16 H :    0.149076
  17 H :    0.154212
  18 H :    0.153727
  19 H :    0.155991
  20 H :    0.266396

  Mayer bond orders larger than 0.100000
B(  0-C ,  1-C ) :   0.8784 B(  0-C ,  8-H ) :   0.9853 B(  0-C ,  9-H ) :   0.9725
B(  0-C , 10-H ) :   0.9739 B(  1-C ,  2-C ) :   0.8172 B(  1-C , 11-H ) :   0.9825
B(  1-C , 12-H ) :   0.9643 B(  2-C ,  3-H ) :   0.9910 B(  2-C ,  4-C ) :   0.9199
B(  2-C ,  7-O ) :   0.9025 B(  4-C ,  5-C ) :   0.9321 B(  4-C ,  6-C ) :   0.8729
B(  4-C , 13-H ) :   0.9725 B(  5-C , 14-H ) :   0.9748 B(  5-C , 15-H ) :   0.9695
B(  5-C , 16-H ) :   0.9748 B(  6-C , 17-H ) :   0.9758 B(  6-C , 18-H ) :   0.9766
B(  6-C , 19-H ) :   0.9670 B(  7-O , 20-H ) :   0.9033

Dispersion correction           -0.005766397
FINAL SINGLE POINT ENERGY      -312.198387933828

DIPOLE MOMENT
-------------

Method             : SCF
Type of density    : Electron Density
Multiplicity       :   1
Irrep              :   0
Energy             :  -312.2039395604462015 Eh
Relativity type    :
Basis              : AO
                                X                 Y                 Z
Electronic contribution:      0.179957669       3.289395126      -3.919820557
Nuclear contribution   :      0.263403484      -3.286770826       4.238145870
                        -----------------------------------------
Total Dipole Moment    :      0.443361153       0.002624299       0.318325314
                        -----------------------------------------
Magnitude (a.u.)       :      0.545808578
Magnitude (Debye)      :      1.387335152

Rotational constants in cm-1:             0.097195             0.068904             0.050583
Rotational constants in MHz :          2913.828488          2065.681854          1516.452581

                             ****ORCA TERMINATED NORMALLY****
TOTAL RUN TIME: 0 days 0 hours 0 minutes 27 seconds 647 msec
