                         Program Version 6.0.0  -   RELEASE  -
|  1> ! r2scan-3c def2/J RI DEFGRID2 scfconv6 printgap
|  2> %output
|  3>     printlevel normal
|  4> end
|  5> %cpcm
|  6>     smd true
|  7>     smdsolvent "water"
|  8> end
|  9> * xyz 0 1
| 10> C 2.1652256378 -0.4026401055 1.2005170098
| 11> C 1.321591822 -0.5303205142 -0.0634790128
| 12> C 0.2917162555 0.6063261562 -0.2155171681
| 13> H 0.5577956803 1.4124149588 0.488689221
| 14> C -1.1657012529 0.2019275621 0.0849699233
| 15> C -1.6783494702 -0.8645803016 -0.881274095
| 16> C -1.3455780025 -0.2389221646 1.5339842654
| 17> O 0.2912185644 1.1438770686 -1.5316988944
| 18> H 2.7172659278 0.5346914749 1.2037081048
| 19> H 2.8795654406 -1.2204958005 1.2559241043
| 20> H 1.5389426954 -0.4327297448 2.0878169137
| 21> H 1.9793947807 -0.5146297937 -0.9354079614
| 22> H 0.8169498637 -1.4952539747 -0.0665786048
| 23> H -1.757885898 1.1092887158 -0.0822933647
| 24> H -2.7537464591 -0.9770388582 -0.7700222304
| 25> H -1.4613094057 -0.5676899017 -1.9038694919
| 26> H -1.214596834 -1.828869863 -0.6899176634
| 27> H -0.9901159504 0.5284753407 2.2176884009
| 28> H -0.8019753684 -1.1597824285 1.7277233169
| 29> H -2.3988972413 -0.4171748288 1.7347788448
| 30> H 1.1647709879 1.5072905296 -1.7265181808
| 31> *
| 32>
| 33>                          ****END OF INPUT****

CARTESIAN COORDINATES (ANGSTROEM)
---------------------------------
  C      2.165226   -0.402640    1.200517
  C      1.321592   -0.530321   -0.063479
  C      0.291716    0.606326   -0.215517
  H      0.557796    1.412415    0.488689
  C     -1.165701    0.201928    0.084970
  C     -1.678349   -0.864580   -0.881274
  C     -1.345578   -0.238922    1.533984
  O      0.291219    1.143877   -1.531699
  H      2.717266    0.534691    1.203708
  H      2.879565   -1.220496    1.255924
  H      1.538943   -0.432730    2.087817
  H      1.979395   -0.514630   -0.935408
  H      0.816950   -1.495254   -0.066579
  H     -1.757886    1.109289   -0.082293
  H     -2.753746   -0.977039   -0.770022
  H     -1.461309   -0.567690   -1.903869
  H     -1.214597   -1.828870   -0.689918
  H     -0.990116    0.528475    2.217688
  H     -0.801975   -1.159782    1.727723
  H     -2.398897   -0.417175    1.734779
  H      1.164771    1.507291   -1.726518

 Total Charge           Charge          ....    0
 Multiplicity           Mult            ....    1
 Number of Electrons    NEL             ....   58
 Basis Dimension        Dim             ....  208

ORBITAL ENERGIES
----------------

  NO   OCC          E(Eh)            E(eV)
   0   2.0000     -18.945711      -515.5390
   1   2.0000     -10.070847      -274.0417
   2   2.0000     -10.026226      -272.8275
   3   2.0000     -10.015250      -272.5288
   4   2.0000     -10.009348      -272.3682
   5   2.0000     -10.008613      -272.3482
   6   2.0000     -10.005721      -272.2695
   7   2.0000      -0.982594       -26.7377
   8   2.0000      -0.766820       -20.8662
   9   2.0000      -0.720614       -19.6089
  10   2.0000      -0.643601       -17.5133
  11   2.0000      -0.630432       -17.1549
  12   2.0000      -0.570682       -15.5290
  13   2.0000      -0.505256       -13.7487
  14   2.0000      -0.473612       -12.8876
  15   2.0000      -0.440415       -11.9843
  16   2.0000      -0.407867       -11.0986
  17   2.0000      -0.387630       -10.5479
  18   2.0000      -0.380754       -10.3608
  19   2.0000      -0.360270        -9.8034
  20   2.0000      -0.352813        -9.6005
  21   2.0000      -0.343246        -9.3402
  22   2.0000      -0.328607        -8.9418
  23   2.0000      -0.318303        -8.6615
  24   2.0000      -0.302454        -8.2302
  25   2.0000      -0.293901        -7.9974
  26   2.0000      -0.286299        -7.7906
  27   2.0000      -0.265202        -7.2165
  28   2.0000      -0.233953        -6.3662
  29   0.0000       0.079180         2.1546
  30   0.0000       0.096635         2.6296
  31   0.0000       0.111878         3.0444
  32   0.0000       0.125641         3.4189
  33   0.0000       0.133607         3.6356

MULLIKEN ATOMIC CHARGES
-----------------------
   0 C :   -0.538120
   1 C :   -0.271851
   2 C :    0.043907
   3 H :    0.150770
   4 C :   -0.017348
   5 C :   -0.566370
   6 C :   -0.559780
   7 O :   -0.525376
   8 H :    0.158572
   9 H :    0.156337
  10 H :    0.163827
  11 H :    0.162513
  12 H :    0.159438
  13 H :    0.157983
  14 H :    0.163394
  15 H :    0.165167
  16 H :    0.162423
  17 H :    0.164764
  18 H :    0.172609
  19 H :    0.160460
  20 H :    0.336680
Sum of atomic charges:   -0.0000000

LOEWDIN ATOMIC CHARGES
----------------------
   0 C :   -0.427080
   1 C :   -0.293229
   2 C :    0.063910
   3 H :    0.172182
   4 C :   -0.210654
   5 C :   -0.419844
   6 C :   -0.417400
   7 O :   -0.662271
   8 H :    0.152879
   9 H :    0.153339
  10 H :    0.154069
  11 H :    0.168304
  12 H :    0.162355
  13 H :    0.166406
  14 H :    0.157516
  15 H :    0.163615
  16 H :    0.155728
  17 H :    0.158320
  18 H :    0.158745
  19 H :    0.158294
  20 H :    0.284817

  Mayer bond orders larger than 0.100000
B(  0-C ,  1-C ) :   0.8779 B(  0-C ,  8-H ) :   0.9821 B(  0-C ,  9-H ) :   0.9699
B(  0-C , 10-H ) :   0.9731 B(  1-C ,  2-C ) :   0.8274 B(  1-C , 11-H ) :   0.9753
B(  1-C , 12-H ) :   0.9636 B(  2-C ,  3-H ) :   0.9851 B(  2-C ,  4-C ) :   0.9119
B(  2-C ,  7-O ) :   0.8853 B(  4-C ,  5-C ) :   0.9085 B(  4-C ,  6-C ) :   0.8766
B(  4-C , 13-H ) :   0.9748 B(  5-C , 14-H ) :   0.9717 B(  5-C , 15-H ) :   0.9724
B(  5-C , 16-H ) :   0.9725 B(  6-C , 17-H ) :   0.9714 B(  6-C , 18-H ) :   0.9755
B(  6-C , 19-H ) :   0.9646 B(  7-O , 20-H ) :   0.8778

Dispersion correction           -0.005766397
FINAL SINGLE POINT ENERGY      -312.203731829002

DIPOLE MOMENT
-------------

Method             : SCF
Type of density    : Electron Density
Multiplicity       :   1
Irrep              :   0
Energy             :  -312.2092834556202661 Eh
Relativity type    :
Basis              : AO
                                X                 Y                 Z
Electronic contribution:      0.391639820       3.268926048      -3.705774165
Nuclear contribution   :      0.263403484      -3.286770826       4.238145870
                        -----------------------------------------
Total Dipole Moment    :      0.655043304      -0.017844779       0.532371705
                        -----------------------------------------
Magnitude (a.u.)       :      0.844286562
Magnitude (Debye)      :      2.146005894

Rotational constants in cm-1:             0.097195             0.068904             0.050583
Rotational constants in MHz :          2913.828488          2065.681854          1516.452581

                             ****ORCA TERMINATED NORMALLY****
TOTAL RUN TIME: 0 days 0 hours 0 minutes 32 seconds 698 msec
