                         Program Version 6.0.0  -   RELEASE  -
|  1> ! pbe def2-sv(p) def2/J RI DEFGRID1 loosescf d4 GCP(DFT/SV(P)) printgap
|  2> %output
|  3>     printlevel normal
|  4> end
|  5> * xyz 0 1
|  6> C 2.5257736835 -0.5643348456 -0.3227290765
|  7> C 1.2399799579 -0.0024727978 0.2791020609
|  8> H 1.0702020192 -0.4832059965 1.2572561751
|  9> C 0.0316268506 -0.2659933291 -0.6365875915
| 10> C -1.2862124865 -0.5367142058 0.1000033166
| 11> C -1.7345465574 0.6522159854 0.9482417894
| 12> C -2.3735384465 -0.8928895646 -0.9131850037
| 13> O 1.4651165895 1.3855209467 0.4819101983
| 14> H 2.6834127625 -0.1387317855 -1.3101783264
| 15> H 3.3689858108 -0.2933556227 0.307098247
| 16> H 2.466416674 -1.6455666849 -0.3970416927
| 17> H -0.085924918 0.5935743823 -1.3008689614
| 18> H 0.2550192081 -1.1329166483 -1.2600479867
| 19> H -1.1348578369 -1.3972609664 0.7622754409
| 20> H -2.7068557735 0.4481896726 1.3913261112
| 21> H -1.8238501332 1.5457060673 0.3336666957
| 22> H -1.035959929 0.8412713536 1.7598581836
| 23> H -3.305605306 -1.1282693781 -0.4052799676
| 24> H -2.5508196242 -0.0571586949 -1.5865025946
| 25> H -2.078993427 -1.7551764986 -1.5063139597
| 26> H 0.6518076582 1.7975365104 0.8014405309
| 27> *
| 28>
| 29>                          ****END OF INPUT****

CARTESIAN COORDINATES (ANGSTROEM)
---------------------------------
  C      2.525774   -0.564335   -0.322729
  C      1.239980   -0.002473    0.279102
  H      1.070202   -0.483206    1.257256
  C      0.031627   -0.265993   -0.636588
  C     -1.286212   -0.536714    0.100003
  C     -1.734547    0.652216    0.948242
  C     -2.373538   -0.892890   -0.913185
  O      1.465117    1.385521    0.481910
  H      2.683413   -0.138732   -1.310178
  H      3.368986   -0.293356    0.307098
  H      2.466417   -1.645567   -0.397042
  H     -0.085925    0.593574   -1.300869
  H      0.255019   -1.132917   -1.260048
  H     -1.134858   -1.397261    0.762275
  H     -2.706856    0.448190    1.391326
  H     -1.823850    1.545706    0.333667
  H     -1.035960    0.841271    1.759858
  H     -3.305605   -1.128269   -0.405280
  H     -2.550820   -0.057159   -1.586503
  H     -2.078993   -1.755176   -1.506314
  H      0.651808    1.797537    0.801441

 Total Charge           Charge          ....    0
 Multiplicity           Mult            ....    1
 Number of Electrons    NEL             ....   58
 Basis Dimension        Dim             ....  126

ORBITAL ENERGIES
----------------

  NO   OCC          E(Eh)            E(eV)
   0   2.0000     -18.733557      -509.7660
   1   2.0000      -9.932867      -270.2871
   2   2.0000      -9.899672      -269.3838
   3   2.0000      -9.882905      -268.9275
   4   2.0000      -9.879323      -268.8300
   5   2.0000      -9.875378      -268.7227
   6   2.0000      -9.867910      -268.5195
   7   2.0000      -0.911325       -24.7984
   8   2.0000      -0.734924       -19.9983
   9   2.0000      -0.678028       -18.4501
  10   2.0000      -0.617900       -16.8139
  11   2.0000      -0.607963       -16.5435
  12   2.0000      -0.524752       -14.2792
  13   2.0000      -0.504776       -13.7357
  14   2.0000      -0.459336       -12.4992
  15   2.0000      -0.421406       -11.4670
  16   2.0000      -0.403614       -10.9829
  17   2.0000      -0.393106       -10.6970
  18   2.0000      -0.360860        -9.8195
  19   2.0000      -0.350071        -9.5259
  20   2.0000      -0.340457        -9.2643
  21   2.0000      -0.335023        -9.1164
  22   2.0000      -0.330600        -8.9961
  23   2.0000      -0.317147        -8.6300
  24   2.0000      -0.301041        -8.1917
  25   2.0000      -0.287868        -7.8333
  26   2.0000      -0.285871        -7.7789
  27   2.0000      -0.256539        -6.9808
  28   2.0000      -0.207206        -5.6384
  29   0.0000       0.023291         0.6338
  30   0.0000       0.053652         1.4599
  31   0.0000       0.055773         1.5177
  32   0.0000       0.065419         1.7801
  33   0.0000       0.082888         2.2555

MULLIKEN ATOMIC CHARGES
-----------------------
   0 C :   -0.245934
   1 C :    0.029596
   2 H :    0.059169
   3 C :   -0.147990
   4 C :   -0.183853
   5 C :   -0.282165
   6 C :   -0.234125
   7 O :   -0.431036
   8 H :    0.100984
   9 H :    0.106727
  10 H :    0.097092
  11 H :    0.079740
  12 H :    0.078192
  13 H :    0.076145
  14 H :    0.105240
  15 H :    0.098836
  16 H :    0.108829
  17 H :    0.098035
  18 H :    0.094048
  19 H :    0.099169
  20 H :    0.293302
Sum of atomic charges:   -0.0000000

LOEWDIN ATOMIC CHARGES
----------------------
   0 C :   -0.339299
   1 C :   -0.053501
   2 H :    0.093290
   3 C :   -0.233731
   4 C :   -0.158295
   5 C :   -0.339096
   6 C :   -0.328906
   7 O :   -0.335360
   8 H :    0.122149
   9 H :    0.123464
  10 H :    0.119532
  11 H :    0.118127
  12 H :    0.118992
  13 H :    0.114009
  14 H :    0.122240
  15 H :    0.116810
  16 H :    0.113760
  17 H :    0.116565
  18 H :    0.117179
  19 H :    0.117468
  20 H :    0.274605

  Mayer bond orders larger than 0.100000
B(  0-C ,  1-C ) :   1.1229 B(  0-C ,  8-H ) :   0.9442 B(  0-C ,  9-H ) :   0.9450
B(  0-C , 10-H ) :   0.9453 B(  1-C ,  2-H ) :   0.9109 B(  1-C ,  3-C ) :   1.0446
B(  1-C ,  7-O ) :   1.0647 B(  3-C ,  4-C ) :   1.0897 B(  3-C , 11-H ) :   0.9019
B(  3-C , 12-H ) :   0.9150 B(  4-C ,  5-C ) :   1.1016 B(  4-C ,  6-C ) :   1.1147
B(  4-C , 13-H ) :   0.9019 B(  5-C , 14-H ) :   0.9463 B(  5-C , 15-H ) :   0.9462
B(  5-C , 16-H ) :   0.9353 B(  6-C , 17-H ) :   0.9501 B(  6-C , 18-H ) :   0.9498
B(  6-C , 19-H ) :   0.9495 B(  7-O , 20-H ) :   0.8454

Dispersion correction           -0.016224571
FINAL SINGLE POINT ENERGY      -311.516487445475

DIPOLE MOMENT
-------------

Method             : SCF
Type of density    : Electron Density
Multiplicity       :   1
Irrep              :   0
Energy             :  -311.5965387635916386 Eh
Relativity type    :
Basis              : AO
                                X                 Y                 Z
Electronic contribution:      3.343494675       2.339868482       1.178660851
Nuclear contribution   :     -3.943895254      -2.611328310      -1.074843455
                        -----------------------------------------
Total Dipole Moment    :     -0.600400578      -0.271459828       0.103817397
                        -----------------------------------------
Magnitude (a.u.)       :      0.667045234
Magnitude (Debye)      :      1.695494243

Rotational constants in cm-1:             0.145885             0.049532             0.040542
Rotational constants in MHz :          4373.509530          1484.935567          1215.431438

                             ****ORCA TERMINATED NORMALLY****
TOTAL RUN TIME: 0 days 0 hours 0 minutes 9 seconds 990 msec
