                         Program Version 6.0.0  -   RELEASE  -
|  1> ! pbe def2-sv(p) def2/J RI DEFGRID1 loosescf d4 GCP(DFT/SV(P)) printgap
|  2> %output
|  3>     printlevel normal
|  4> end
|  5> * xyz 0 1
|  6> C 2.3288621009 -0.5181702883 0.5784625452
|  7> C 1.4881250734 -0.1592678653 -0.6415071271
|  8> C 0.5832834301 1.0518038787 -0.4125642472
|  9> C -0.5613706685 0.7872836141 0.5537982238
| 10> S -1.7071228738 -0.519068399 -0.0279196804
| 11> H 1.7015595216 -0.8344483975 1.4083726252
| 12> H 2.9218315197 0.3358557816 0.8989551671
| 13> H 3.0043874153 -1.3358832803 0.3397916908
| 14> H 0.8730094748 -1.0170285873 -0.9232224853
| 15> H 2.1538508019 0.0608775051 -1.4782492378
| 16> H 0.1688530918 1.373141707 -1.3710248162
| 17> H 1.175696235 1.8770329498 -0.0100546843
| 18> H -0.1996063673 0.4234135749 1.5139279007
| 19> H -1.1539962414 1.6864598924 0.7181183015
| 20> H -2.0830595743 0.1009287192 -1.1401423704
| 21> *
| 22>
| 23>                          ****END OF INPUT****

CARTESIAN COORDINATES (ANGSTROEM)
---------------------------------
  C      2.328862   -0.518170    0.578463
  C      1.488125   -0.159268   -0.641507
  C      0.583283    1.051804   -0.412564
  C     -0.561371    0.787284    0.553798
  S     -1.707123   -0.519068   -0.027920
  H      1.701560   -0.834448    1.408373
  H      2.921832    0.335856    0.898955
  H      3.004387   -1.335883    0.339792
  H      0.873009   -1.017029   -0.923222
  H      2.153851    0.060878   -1.478249
  H      0.168853    1.373142   -1.371025
  H      1.175696    1.877033   -0.010055
  H     -0.199606    0.423414    1.513928
  H     -1.153996    1.686460    0.718118
  H     -2.083060    0.100929   -1.140142

 Total Charge           Charge          ....    0
 Multiplicity           Mult            ....    1
 Number of Electrons    NEL             ....   50
 Basis Dimension        Dim             ....   94

ORBITAL ENERGIES
----------------

  NO   OCC          E(Eh)            E(eV)
   0   2.0000     -88.013694     -2394.9744
   1   2.0000      -9.916579      -269.8438
   2   2.0000      -9.890893      -269.1449
   3   2.0000      -9.880282      -268.8561
   4   2.0000      -9.873046      -268.6592
   5   2.0000      -7.660046      -208.4404
   6   2.0000      -5.688496      -154.7919
   7   2.0000      -5.684451      -154.6818
   8   2.0000      -5.676254      -154.4587
   9   2.0000      -0.738722       -20.1017
  10   2.0000      -0.682949       -18.5840
  11   2.0000      -0.621049       -16.8996
  12   2.0000      -0.563303       -15.3283
  13   2.0000      -0.504046       -13.7158
  14   2.0000      -0.424397       -11.5484
  15   2.0000      -0.414986       -11.2924
  16   2.0000      -0.385687       -10.4951
  17   2.0000      -0.359759        -9.7895
  18   2.0000      -0.351703        -9.5703
  19   2.0000      -0.336392        -9.1537
  20   2.0000      -0.302656        -8.2357
  21   2.0000      -0.291183        -7.9235
  22   2.0000      -0.287897        -7.8341
  23   2.0000      -0.272914        -7.4264
  24   2.0000      -0.193916        -5.2767
  25   0.0000       0.006348         0.1727
  26   0.0000       0.041896         1.1401
  27   0.0000       0.045880         1.2484
  28   0.0000       0.064457         1.7540
  29   0.0000       0.077770         2.1162

MULLIKEN ATOMIC CHARGES
-----------------------
   0 C :   -0.294636
   1 C :   -0.177743
   2 C :   -0.137342
   3 C :   -0.294077
   4 S :   -0.176642
   5 H :    0.105546
   6 H :    0.096234
   7 H :    0.105872
   8 H :    0.099139
   9 H :    0.085888
  10 H :    0.085631
  11 H :    0.087761
  12 H :    0.139748
  13 H :    0.133191
  14 H :    0.141429
Sum of atomic charges:   -0.0000000

LOEWDIN ATOMIC CHARGES
----------------------
   0 C :   -0.342480
   1 C :   -0.243599
   2 C :   -0.244787
   3 C :   -0.332220
   4 S :    0.022506
   5 H :    0.115744
   6 H :    0.115323
   7 H :    0.121738
   8 H :    0.113479
   9 H :    0.116045
  10 H :    0.114573
  11 H :    0.119172
  12 H :    0.126119
  13 H :    0.122739
  14 H :    0.075649

  Mayer bond orders larger than 0.100000
B(  0-C ,  1-C ) :   1.1501 B(  0-C ,  5-H ) :   0.9518 B(  0-C ,  6-H ) :   0.9550
B(  0-C ,  7-H ) :   0.9518 B(  1-C ,  2-C ) :   1.1171 B(  1-C ,  8-H ) :   0.9125
B(  1-C ,  9-H ) :   0.9273 B(  2-C ,  3-C ) :   1.0821 B(  2-C , 10-H ) :   0.9245
B(  2-C , 11-H ) :   0.9103 B(  3-C ,  4-S ) :   1.0671 B(  3-C , 12-H ) :   0.9213
B(  3-C , 13-H ) :   0.9282 B(  4-S , 14-H ) :   0.9072

Dispersion correction           -0.011528709
FINAL SINGLE POINT ENERGY      -555.912971184843

DIPOLE MOMENT
-------------

Method             : SCF
Type of density    : Electron Density
Multiplicity       :   1
Irrep              :   0
Energy             :  -555.9646646533147987 Eh
Relativity type    :
Basis              : AO
                                X                 Y                 Z
Electronic contribution:     -7.818418267      -1.998646813      -0.100754100
Nuclear contribution   :      8.081574458       2.519979975      -0.040044339
                        -----------------------------------------
Total Dipole Moment    :      0.263156192       0.521333162      -0.140798440
                        -----------------------------------------
Magnitude (a.u.)       :      0.600719275
Magnitude (Debye)      :      1.526907052

Rotational constants in cm-1:             0.236034             0.066628             0.062028
Rotational constants in MHz :          7076.107282          1997.469370          1859.549758

                             ****ORCA TERMINATED NORMALLY****
TOTAL RUN TIME: 0 days 0 hours 0 minutes 5 seconds 629 msec
