                         Program Version 6.0.0  -   RELEASE  -
|  1> ! r2scan-3c def2/J RI DEFGRID2 scfconv6 printgap
|  2> %output
|  3>     printlevel normal
|  4> end
|  5> * xyz 0 1
|  6> C 1.9838763295 -1.2186825237 -0.2956949556
|  7> C 0.8252128672 -0.3560775081 0.2038680719
|  8> C 1.3414065936 1.0374829489 0.5650455731
|  9> C -0.2876326101 -0.2777862697 -0.8550078689
| 10> C -1.7010965006 -0.2301123601 -0.2656735349
| 11> O -1.9696033693 0.9110675232 0.523955283
| 12> H 1.65367489 -2.2375322208 -0.4840855393
| 13> H 2.7808988319 -1.2473085791 0.4436744226
| 14> H 2.387157346 -0.8098685888 -1.2194938183
| 15> H 0.4183650188 -0.8303318841 1.105123135
| 16> H 1.8901842104 1.4573963615 -0.2757228151
| 17> H 2.0128789927 0.9880022071 1.4194272328
| 18> H 0.5246060239 1.7136104387 0.8025596819
| 19> H -0.2467750043 -1.1580744232 -1.4981033805
| 20> H -0.1345447028 0.6026890742 -1.4807841713
| 21> H -2.4310023202 -0.1908851572 -1.0786128824
| 22> H -1.8868172552 -1.1411134911 0.318956679
| 23> H -1.4646151593 0.846343889 1.345518157
| 24> *
| 25>
| 26>                          ****END OF INPUT****

CARTESIAN COORDINATES (ANGSTROEM)
---------------------------------
  C      1.983876   -1.218683   -0.295695
  C      0.825213   -0.356078    0.203868
  C      1.341407    1.037483    0.565046
  C     -0.287633   -0.277786   -0.855008
  C     -1.701097   -0.230112   -0.265674
  O     -1.969603    0.911068    0.523955
  H      1.653675   -2.237532   -0.484086
  H      2.780899   -1.247309    0.443674
  H      2.387157   -0.809869   -1.219494
  H      0.418365   -0.830332    1.105123
  H      1.890184    1.457396   -0.275723
  H      2.012879    0.988002    1.419427
  H      0.524606    1.713610    0.802560
  H     -0.246775   -1.158074   -1.498103
  H     -0.134545    0.602689   -1.480784
  H     -2.431002   -0.190885   -1.078613
  H     -1.886817   -1.141113    0.318957
  H     -1.464615    0.846344    1.345518

 Total Charge           Charge          ....    0
 Multiplicity           Mult            ....    1
 Number of Electrons    NEL             ....   50
 Basis Dimension        Dim             ....  179

ORBITAL ENERGIES
----------------

  NO   OCC          E(Eh)            E(eV)
   0   2.0000     -18.946858      -515.5702
   1   2.0000     -10.073690      -274.1190
   2   2.0000     -10.038956      -273.1739
   3   2.0000     -10.023775      -272.7608
   4   2.0000     -10.018676      -272.6220
   5   2.0000     -10.017419      -272.5878
   6   2.0000      -0.983511       -26.7627
   7   2.0000      -0.778252       -21.1773
   8   2.0000      -0.694918       -18.9097
   9   2.0000      -0.652477       -17.7548
  10   2.0000      -0.593403       -16.1473
  11   2.0000      -0.531572       -14.4648
  12   2.0000      -0.478363       -13.0169
  13   2.0000      -0.425937       -11.5903
  14   2.0000      -0.420971       -11.4552
  15   2.0000      -0.409975       -11.1560
  16   2.0000      -0.383556       -10.4371
  17   2.0000      -0.357348        -9.7239
  18   2.0000      -0.355355        -9.6697
  19   2.0000      -0.339384        -9.2351
  20   2.0000      -0.316554        -8.6139
  21   2.0000      -0.299912        -8.1610
  22   2.0000      -0.297859        -8.1052
  23   2.0000      -0.279270        -7.5993
  24   2.0000      -0.233421        -6.3517
  25   0.0000       0.050884         1.3846
  26   0.0000       0.095592         2.6012
  27   0.0000       0.109103         2.9689
  28   0.0000       0.118520         3.2251
  29   0.0000       0.131559         3.5799

MULLIKEN ATOMIC CHARGES
-----------------------
   0 C :   -0.486499
   1 C :   -0.029940
   2 C :   -0.526391
   3 C :   -0.214604
   4 C :   -0.231848
   5 O :   -0.423553
   6 H :    0.146688
   7 H :    0.144514
   8 H :    0.150715
   9 H :    0.144335
  10 H :    0.152977
  11 H :    0.148139
  12 H :    0.152732
  13 H :    0.143747
  14 H :    0.150936
  15 H :    0.139539
  16 H :    0.136978
  17 H :    0.301536
Sum of atomic charges:    0.0000000

LOEWDIN ATOMIC CHARGES
----------------------
   0 C :   -0.416317
   1 C :   -0.251921
   2 C :   -0.419597
   3 C :   -0.292757
   4 C :    0.000529
   5 O :   -0.619962
   6 H :    0.152075
   7 H :    0.152864
   8 H :    0.155111
   9 H :    0.151673
  10 H :    0.155299
  11 H :    0.151786
  12 H :    0.156770
  13 H :    0.162828
  14 H :    0.166181
  15 H :    0.175547
  16 H :    0.155259
  17 H :    0.264633

  Mayer bond orders larger than 0.100000
B(  0-C ,  1-C ) :   0.9040 B(  0-C ,  6-H ) :   0.9774 B(  0-C ,  7-H ) :   0.9778
B(  0-C ,  8-H ) :   0.9827 B(  1-C ,  2-C ) :   0.9140 B(  1-C ,  3-C ) :   0.8246
B(  1-C ,  9-H ) :   0.9718 B(  2-C , 10-H ) :   0.9845 B(  2-C , 11-H ) :   0.9761
B(  2-C , 12-H ) :   0.9690 B(  3-C ,  4-C ) :   0.9050 B(  3-C , 13-H ) :   0.9730
B(  3-C , 14-H ) :   0.9531 B(  4-C ,  5-O ) :   0.9562 B(  4-C , 15-H ) :   0.9756
B(  4-C , 16-H ) :   1.0045 B(  5-O , 17-H ) :   0.8905

Dispersion correction           -0.004382889
FINAL SINGLE POINT ENERGY      -272.895817641840

DIPOLE MOMENT
-------------

Method             : SCF
Type of density    : Electron Density
Multiplicity       :   1
Irrep              :   0
Energy             :  -272.9013691764625946 Eh
Relativity type    :
Basis              : AO
                                X                 Y                 Z
Electronic contribution:     -4.705802971       1.418144357       0.683542881
Nuclear contribution   :      5.134433006      -1.869441647      -0.556570311
                        -----------------------------------------
Total Dipole Moment    :      0.428630035      -0.451297290       0.126972570
                        -----------------------------------------
Magnitude (a.u.)       :      0.635228293
Magnitude (Debye)      :      1.614622005

Rotational constants in cm-1:             0.194616             0.070704             0.057552
Rotational constants in MHz :          5834.439690          2119.647670          1725.364266

                             ****ORCA TERMINATED NORMALLY****
TOTAL RUN TIME: 0 days 0 hours 0 minutes 23 seconds 798 msec
