                         Program Version 6.0.0  -   RELEASE  -
|  1> ! r2scan-3c def2/J RI DEFGRID2 scfconv6 printgap
|  2> %output
|  3>     printlevel normal
|  4> end
|  5> %cpcm
|  6>     smd true
|  7>     smdsolvent "water"
|  8> end
|  9> * xyz 0 1
| 10> C 1.9838763295 -1.2186825237 -0.2956949556
| 11> C 0.8252128672 -0.3560775081 0.2038680719
| 12> C 1.3414065936 1.0374829489 0.5650455731
| 13> C -0.2876326101 -0.2777862697 -0.8550078689
| 14> C -1.7010965006 -0.2301123601 -0.2656735349
| 15> O -1.9696033693 0.9110675232 0.523955283
| 16> H 1.65367489 -2.2375322208 -0.4840855393
| 17> H 2.7808988319 -1.2473085791 0.4436744226
| 18> H 2.387157346 -0.8098685888 -1.2194938183
| 19> H 0.4183650188 -0.8303318841 1.105123135
| 20> H 1.8901842104 1.4573963615 -0.2757228151
| 21> H 2.0128789927 0.9880022071 1.4194272328
| 22> H 0.5246060239 1.7136104387 0.8025596819
| 23> H -0.2467750043 -1.1580744232 -1.4981033805
| 24> H -0.1345447028 0.6026890742 -1.4807841713
| 25> H -2.4310023202 -0.1908851572 -1.0786128824
| 26> H -1.8868172552 -1.1411134911 0.318956679
| 27> H -1.4646151593 0.846343889 1.345518157
| 28> *
| 29>
| 30>                          ****END OF INPUT****

CARTESIAN COORDINATES (ANGSTROEM)
---------------------------------
  C      1.983876   -1.218683   -0.295695
  C      0.825213   -0.356078    0.203868
  C      1.341407    1.037483    0.565046
  C     -0.287633   -0.277786   -0.855008
  C     -1.701097   -0.230112   -0.265674
  O     -1.969603    0.911068    0.523955
  H      1.653675   -2.237532   -0.484086
  H      2.780899   -1.247309    0.443674
  H      2.387157   -0.809869   -1.219494
  H      0.418365   -0.830332    1.105123
  H      1.890184    1.457396   -0.275723
  H      2.012879    0.988002    1.419427
  H      0.524606    1.713610    0.802560
  H     -0.246775   -1.158074   -1.498103
  H     -0.134545    0.602689   -1.480784
  H     -2.431002   -0.190885   -1.078613
  H     -1.886817   -1.141113    0.318957
  H     -1.464615    0.846344    1.345518

 Total Charge           Charge          ....    0
 Multiplicity           Mult            ....    1
 Number of Electrons    NEL             ....   50
 Basis Dimension        Dim             ....  179

ORBITAL ENERGIES
----------------

  NO   OCC          E(Eh)            E(eV)
   0   2.0000     -18.950060      -515.6573
   1   2.0000     -10.067017      -273.9375
   2   2.0000     -10.026056      -272.8229
   3   2.0000     -10.014047      -272.4961
   4   2.0000     -10.006415      -272.2884
   5   2.0000     -10.006049      -272.2784
   6   2.0000      -0.985570       -26.8187
   7   2.0000      -0.766874       -20.8677
   8   2.0000      -0.686536       -18.6816
   9   2.0000      -0.641249       -17.4493
  10   2.0000      -0.586420       -15.9573
  11   2.0000      -0.520181       -14.1548
  12   2.0000      -0.473595       -12.8872
  13   2.0000      -0.417048       -11.3484
  14   2.0000      -0.414082       -11.2677
  15   2.0000      -0.400020       -10.8851
  16   2.0000      -0.376259       -10.2385
  17   2.0000      -0.348979        -9.4962
  18   2.0000      -0.345704        -9.4071
  19   2.0000      -0.332311        -9.0426
  20   2.0000      -0.310987        -8.4624
  21   2.0000      -0.288022        -7.8375
  22   2.0000      -0.287305        -7.8180
  23   2.0000      -0.272790        -7.4230
  24   2.0000      -0.236010        -6.4222
  25   0.0000       0.068211         1.8561
  26   0.0000       0.107544         2.9264
  27   0.0000       0.118555         3.2260
  28   0.0000       0.130484         3.5507
  29   0.0000       0.140561         3.8248

MULLIKEN ATOMIC CHARGES
-----------------------
   0 C :   -0.527955
   1 C :    0.014719
   2 C :   -0.569289
   3 C :   -0.269405
   4 C :   -0.218753
   5 O :   -0.512434
   6 H :    0.158079
   7 H :    0.154587
   8 H :    0.159151
   9 H :    0.159925
  10 H :    0.162614
  11 H :    0.158323
  12 H :    0.156849
  13 H :    0.158260
  14 H :    0.158038
  15 H :    0.150014
  16 H :    0.150007
  17 H :    0.357269
Sum of atomic charges:    0.0000000

LOEWDIN ATOMIC CHARGES
----------------------
   0 C :   -0.424981
   1 C :   -0.247155
   2 C :   -0.426446
   3 C :   -0.293565
   4 C :   -0.000934
   5 O :   -0.658291
   6 H :    0.154858
   7 H :    0.154794
   8 H :    0.156478
   9 H :    0.158772
  10 H :    0.155951
  11 H :    0.154904
  12 H :    0.156708
  13 H :    0.168745
  14 H :    0.165548
  15 H :    0.177795
  16 H :    0.163843
  17 H :    0.282977

  Mayer bond orders larger than 0.100000
B(  0-C ,  1-C ) :   0.8906 B(  0-C ,  6-H ) :   0.9745 B(  0-C ,  7-H ) :   0.9769
B(  0-C ,  8-H ) :   0.9806 B(  1-C ,  2-C ) :   0.8960 B(  1-C ,  3-C ) :   0.8231
B(  1-C ,  9-H ) :   0.9672 B(  2-C , 10-H ) :   0.9840 B(  2-C , 11-H ) :   0.9731
B(  2-C , 12-H ) :   0.9699 B(  3-C ,  4-C ) :   0.9194 B(  3-C , 13-H ) :   0.9689
B(  3-C , 14-H ) :   0.9625 B(  4-C ,  5-O ) :   0.9389 B(  4-C , 15-H ) :   0.9730
B(  4-C , 16-H ) :   0.9917 B(  5-O , 17-H ) :   0.8631

Dispersion correction           -0.004382889
FINAL SINGLE POINT ENERGY      -272.902069840065

DIPOLE MOMENT
-------------

Method             : SCF
Type of density    : Electron Density
Multiplicity       :   1
Irrep              :   0
Energy             :  -272.9076213746867552 Eh
Relativity type    :
Basis              : AO
                                X                 Y                 Z
Electronic contribution:     -4.581707384       1.204863692       0.787723422
Nuclear contribution   :      5.134433006      -1.869441647      -0.556570311
                        -----------------------------------------
Total Dipole Moment    :      0.552725621      -0.664577955       0.231153111
                        -----------------------------------------
Magnitude (a.u.)       :      0.894763227
Magnitude (Debye)      :      2.274307380

Rotational constants in cm-1:             0.194616             0.070704             0.057552
Rotational constants in MHz :          5834.439690          2119.647670          1725.364266

                             ****ORCA TERMINATED NORMALLY****
TOTAL RUN TIME: 0 days 0 hours 0 minutes 27 seconds 852 msec
