                         Program Version 6.0.0  -   RELEASE  -
|  1> ! r2scan-3c def2/J RI DEFGRID2 scfconv6 printgap
|  2> %output
|  3>     printlevel normal
|  4> end
|  5> * xyz 0 1
|  6> C 0.9753570234 1.4974256628 0.0833624211
|  7> C 0.9626882888 0.0673617624 -0.4400153537
|  8> C 1.3892514472 -0.9437253518 0.6159431151
|  9> O -0.3417450325 -0.2747863682 -0.994674647
| 10> C -1.4140783489 -0.2949120981 -0.2525775423
| 11> O -1.5211551874 -0.0568289254 0.9236619422
| 12> H 1.9892860513 1.7669064125 0.3609177844
| 13> H 0.6245024729 2.1820582072 -0.6849583814
| 14> H 0.3337161398 1.5875812237 0.9564589361
| 15> H 1.6080008897 -0.0151093153 -1.3203314155
| 16> H 0.7498016913 -0.870079721 1.4921975649
| 17> H 2.4145046858 -0.7424029851 0.909198857
| 18> H 1.3267242536 -1.9531701833 0.2169411835
| 19> H -2.2741798783 -0.5783751519 -0.883202984
| 20> *
| 21>
| 22>                          ****END OF INPUT****

CARTESIAN COORDINATES (ANGSTROEM)
---------------------------------
  C      0.975357    1.497426    0.083362
  C      0.962688    0.067362   -0.440015
  C      1.389251   -0.943725    0.615943
  O     -0.341745   -0.274786   -0.994675
  C     -1.414078   -0.294912   -0.252578
  O     -1.521155   -0.056829    0.923662
  H      1.989286    1.766906    0.360918
  H      0.624502    2.182058   -0.684958
  H      0.333716    1.587581    0.956459
  H      1.608001   -0.015109   -1.320331
  H      0.749802   -0.870080    1.492198
  H      2.414505   -0.742403    0.909199
  H      1.326724   -1.953170    0.216941
  H     -2.274180   -0.578375   -0.883203

 Total Charge           Charge          ....    0
 Multiplicity           Mult            ....    1
 Number of Electrons    NEL             ....   48
 Basis Dimension        Dim             ....  164

ORBITAL ENERGIES
----------------

  NO   OCC          E(Eh)            E(eV)
   0   2.0000     -19.005726      -517.1721
   1   2.0000     -18.937365      -515.3119
   2   2.0000     -10.154938      -276.3299
   3   2.0000     -10.108251      -275.0595
   4   2.0000     -10.028975      -272.9023
   5   2.0000     -10.028960      -272.9019
   6   2.0000      -1.079278       -29.3686
   7   2.0000      -0.988104       -26.8877
   8   2.0000      -0.772795       -21.0288
   9   2.0000      -0.669039       -18.2055
  10   2.0000      -0.640930       -17.4406
  11   2.0000      -0.531676       -14.4677
  12   2.0000      -0.478648       -13.0247
  13   2.0000      -0.451048       -12.2736
  14   2.0000      -0.439800       -11.9676
  15   2.0000      -0.421995       -11.4831
  16   2.0000      -0.391945       -10.6654
  17   2.0000      -0.382324       -10.4036
  18   2.0000      -0.360088        -9.7985
  19   2.0000      -0.339519        -9.2388
  20   2.0000      -0.331510        -9.0208
  21   2.0000      -0.310274        -8.4430
  22   2.0000      -0.280040        -7.6203
  23   2.0000      -0.241450        -6.5702
  24   0.0000      -0.022325        -0.6075
  25   0.0000       0.079122         2.1530
  26   0.0000       0.080964         2.2031
  27   0.0000       0.121307         3.3009
  28   0.0000       0.127235         3.4622

MULLIKEN ATOMIC CHARGES
-----------------------
   0 C :   -0.492324
   1 C :    0.063403
   2 C :   -0.492611
   3 O :   -0.154810
   4 C :    0.241236
   5 O :   -0.421083
   6 H :    0.146429
   7 H :    0.154706
   8 H :    0.190265
   9 H :    0.153844
  10 H :    0.190382
  11 H :    0.146432
  12 H :    0.154734
  13 H :    0.119396
Sum of atomic charges:    0.0000000

LOEWDIN ATOMIC CHARGES
----------------------
   0 C :   -0.381635
   1 C :    0.066984
   2 C :   -0.381650
   3 O :   -0.574211
   4 C :    0.333888
   5 O :   -0.438077
   6 H :    0.160327
   7 H :    0.162650
   8 H :    0.178042
   9 H :    0.184983
  10 H :    0.178081
  11 H :    0.160327
  12 H :    0.162633
  13 H :    0.187658

  Mayer bond orders larger than 0.100000
B(  0-C ,  1-C ) :   0.9328 B(  0-C ,  6-H ) :   0.9643 B(  0-C ,  7-H ) :   0.9679
B(  0-C ,  8-H ) :   0.9653 B(  1-C ,  2-C ) :   0.9324 B(  1-C ,  3-O ) :   0.8204
B(  1-C ,  9-H ) :   0.9559 B(  2-C , 10-H ) :   0.9654 B(  2-C , 11-H ) :   0.9643
B(  2-C , 12-H ) :   0.9679 B(  3-O ,  4-C ) :   1.1479 B(  4-C ,  5-O ) :   1.8407
B(  4-C , 13-H ) :   0.9903

Dispersion correction           -0.003284108
FINAL SINGLE POINT ENERGY      -307.627993307290

DIPOLE MOMENT
-------------

Method             : SCF
Type of density    : Electron Density
Multiplicity       :   1
Irrep              :   0
Energy             :  -307.6340873173104455 Eh
Relativity type    :
Basis              : AO
                                X                 Y                 Z
Electronic contribution:     -5.585189947      -1.275901082      -1.506121211
Nuclear contribution   :      6.325971943       1.287321971       0.981420411
                        -----------------------------------------
Total Dipole Moment    :      0.740781995       0.011420889      -0.524700800
                        -----------------------------------------
Magnitude (a.u.)       :      0.907854245
Magnitude (Debye)      :      2.307582105

Rotational constants in cm-1:             0.171445             0.096291             0.090768
Rotational constants in MHz :          5139.777711          2886.735734          2721.169132

                             ****ORCA TERMINATED NORMALLY****
TOTAL RUN TIME: 0 days 0 hours 0 minutes 17 seconds 767 msec
