                         Program Version 6.0.0  -   RELEASE  -
|  1> ! r2scan-3c def2/J RI DEFGRID2 scfconv6 printgap
|  2> %output
|  3>     printlevel normal
|  4> end
|  5> %cpcm
|  6>     smd true
|  7>     smdsolvent "water"
|  8> end
|  9> * xyz 0 1
| 10> C 0.9753570234 1.4974256628 0.0833624211
| 11> C 0.9626882888 0.0673617624 -0.4400153537
| 12> C 1.3892514472 -0.9437253518 0.6159431151
| 13> O -0.3417450325 -0.2747863682 -0.994674647
| 14> C -1.4140783489 -0.2949120981 -0.2525775423
| 15> O -1.5211551874 -0.0568289254 0.9236619422
| 16> H 1.9892860513 1.7669064125 0.3609177844
| 17> H 0.6245024729 2.1820582072 -0.6849583814
| 18> H 0.3337161398 1.5875812237 0.9564589361
| 19> H 1.6080008897 -0.0151093153 -1.3203314155
| 20> H 0.7498016913 -0.870079721 1.4921975649
| 21> H 2.4145046858 -0.7424029851 0.909198857
| 22> H 1.3267242536 -1.9531701833 0.2169411835
| 23> H -2.2741798783 -0.5783751519 -0.883202984
| 24> *
| 25>
| 26>                          ****END OF INPUT****

CARTESIAN COORDINATES (ANGSTROEM)
---------------------------------
  C      0.975357    1.497426    0.083362
  C      0.962688    0.067362   -0.440015
  C      1.389251   -0.943725    0.615943
  O     -0.341745   -0.274786   -0.994675
  C     -1.414078   -0.294912   -0.252578
  O     -1.521155   -0.056829    0.923662
  H      1.989286    1.766906    0.360918
  H      0.624502    2.182058   -0.684958
  H      0.333716    1.587581    0.956459
  H      1.608001   -0.015109   -1.320331
  H      0.749802   -0.870080    1.492198
  H      2.414505   -0.742403    0.909199
  H      1.326724   -1.953170    0.216941
  H     -2.274180   -0.578375   -0.883203

 Total Charge           Charge          ....    0
 Multiplicity           Mult            ....    1
 Number of Electrons    NEL             ....   48
 Basis Dimension        Dim             ....  164

ORBITAL ENERGIES
----------------

  NO   OCC          E(Eh)            E(eV)
   0   2.0000     -19.006957      -517.2056
   1   2.0000     -18.948328      -515.6102
   2   2.0000     -10.161098      -276.4975
   3   2.0000     -10.097085      -274.7557
   4   2.0000     -10.016718      -272.5687
   5   2.0000     -10.016701      -272.5683
   6   2.0000      -1.082499       -29.4563
   7   2.0000      -0.997837       -27.1525
   8   2.0000      -0.763265       -20.7695
   9   2.0000      -0.657270       -17.8852
  10   2.0000      -0.635915       -17.3041
  11   2.0000      -0.526664       -14.3313
  12   2.0000      -0.477878       -13.0037
  13   2.0000      -0.453707       -12.3460
  14   2.0000      -0.438743       -11.9388
  15   2.0000      -0.419457       -11.4140
  16   2.0000      -0.384061       -10.4508
  17   2.0000      -0.378181       -10.2908
  18   2.0000      -0.349181        -9.5017
  19   2.0000      -0.335373        -9.1260
  20   2.0000      -0.323056        -8.7908
  21   2.0000      -0.304584        -8.2881
  22   2.0000      -0.282671        -7.6919
  23   2.0000      -0.251333        -6.8391
  24   0.0000      -0.027356        -0.7444
  25   0.0000       0.088890         2.4188
  26   0.0000       0.090786         2.4704
  27   0.0000       0.130168         3.5420
  28   0.0000       0.137824         3.7504

MULLIKEN ATOMIC CHARGES
-----------------------
   0 C :   -0.521429
   1 C :    0.076334
   2 C :   -0.521719
   3 O :   -0.175844
   4 C :    0.263077
   5 O :   -0.494577
   6 H :    0.171915
   7 H :    0.169768
   8 H :    0.176954
   9 H :    0.179901
  10 H :    0.177099
  11 H :    0.171924
  12 H :    0.169782
  13 H :    0.156815
Sum of atomic charges:    0.0000000

LOEWDIN ATOMIC CHARGES
----------------------
   0 C :   -0.384014
   1 C :    0.072058
   2 C :   -0.384047
   3 O :   -0.574901
   4 C :    0.346424
   5 O :   -0.493282
   6 H :    0.169744
   7 H :    0.166981
   8 H :    0.171671
   9 H :    0.195905
  10 H :    0.171729
  11 H :    0.169740
  12 H :    0.166964
  13 H :    0.205030

  Mayer bond orders larger than 0.100000
B(  0-C ,  1-C ) :   0.9255 B(  0-C ,  6-H ) :   0.9595 B(  0-C ,  7-H ) :   0.9651
B(  0-C ,  8-H ) :   0.9671 B(  1-C ,  2-C ) :   0.9253 B(  1-C ,  3-O ) :   0.7990
B(  1-C ,  9-H ) :   0.9460 B(  2-C , 10-H ) :   0.9671 B(  2-C , 11-H ) :   0.9595
B(  2-C , 12-H ) :   0.9651 B(  3-O ,  4-C ) :   1.1801 B(  4-C ,  5-O ) :   1.7874
B(  4-C , 13-H ) :   0.9751

Dispersion correction           -0.003284108
FINAL SINGLE POINT ENERGY      -307.631149196641

DIPOLE MOMENT
-------------

Method             : SCF
Type of density    : Electron Density
Multiplicity       :   1
Irrep              :   0
Energy             :  -307.6372432066618217 Eh
Relativity type    :
Basis              : AO
                                X                 Y                 Z
Electronic contribution:     -5.330570869      -1.294681081      -1.791290344
Nuclear contribution   :      6.325971943       1.287321971       0.981420411
                        -----------------------------------------
Total Dipole Moment    :      0.995401074      -0.007359111      -0.809869933
                        -----------------------------------------
Magnitude (a.u.)       :      1.283264105
Magnitude (Debye)      :      3.261798135

Rotational constants in cm-1:             0.171445             0.096291             0.090768
Rotational constants in MHz :          5139.777711          2886.735734          2721.169132

                             ****ORCA TERMINATED NORMALLY****
TOTAL RUN TIME: 0 days 0 hours 0 minutes 22 seconds 99 msec
