                         Program Version 6.0.0  -   RELEASE  -
|  1> ! pbe def2-sv(p) def2/J RI DEFGRID1 loosescf d4 GCP(DFT/SV(P)) printgap
|  2> %output
|  3>     printlevel normal
|  4> end
|  5> * xyz 0 1
|  6> C -3.4477408076 -0.5977539064 -0.1515902503
|  7> C -2.0686679958 -0.2841895091 0.4149396744
|  8> C -1.4033463329 0.867687731 -0.3351088619
|  9> C -0.0447973943 1.2328199998 0.2276730413
| 10> Br 1.2740649051 -0.2164592327 -0.0273495692
| 11> H -4.0997308639 0.2689659062 -0.0717508305
| 12> H -3.3744950172 -0.8779901857 -1.1997672828
| 13> H -3.9015716597 -1.4214866838 0.3926825376
| 14> H -1.4383559554 -1.1737903432 0.3442281995
| 15> H -2.159457105 -0.0231573644 1.4720378529
| 16> H -1.3072675976 0.6090543321 -1.3919711467
| 17> H -2.0323642048 1.7587314768 -0.2636975494
| 18> H -0.081587943 1.4011333543 1.3025397743
| 19> H 0.3849627708 2.0975856463 -0.27407504
| 20> *
| 21>
| 22>                          ****END OF INPUT****

CARTESIAN COORDINATES (ANGSTROEM)
---------------------------------
  C     -3.447741   -0.597754   -0.151590
  C     -2.068668   -0.284190    0.414940
  C     -1.403346    0.867688   -0.335109
  C     -0.044797    1.232820    0.227673
  Br     1.274065   -0.216459   -0.027350
  H     -4.099731    0.268966   -0.071751
  H     -3.374495   -0.877990   -1.199767
  H     -3.901572   -1.421487    0.392683
  H     -1.438356   -1.173790    0.344228
  H     -2.159457   -0.023157    1.472038
  H     -1.307268    0.609054   -1.391971
  H     -2.032364    1.758731   -0.263698
  H     -0.081588    1.401133    1.302540
  H      0.384963    2.097586   -0.274075

 Total Charge           Charge          ....    0
 Multiplicity           Mult            ....    1
 Number of Electrons    NEL             ....   68
 Basis Dimension        Dim             ....  106

ORBITAL ENERGIES
----------------

  NO   OCC          E(Eh)            E(eV)
   0   2.0000    -480.918712    -13086.4635
   1   2.0000     -61.760936     -1680.6005
   2   2.0000     -55.691545     -1515.4440
   3   2.0000     -55.688480     -1515.3606
   4   2.0000     -55.688381     -1515.3579
   5   2.0000      -9.940099      -270.4838
   6   2.0000      -9.898879      -269.3622
   7   2.0000      -9.887320      -269.0476
   8   2.0000      -9.876449      -268.7518
   9   2.0000      -8.385982      -228.1942
  10   2.0000      -6.267827      -170.5562
  11   2.0000      -6.253702      -170.1719
  12   2.0000      -6.253445      -170.1649
  13   2.0000      -2.468917       -67.1826
  14   2.0000      -2.465563       -67.0914
  15   2.0000      -2.465354       -67.0857
  16   2.0000      -2.454737       -66.7968
  17   2.0000      -2.454721       -66.7963
  18   2.0000      -0.749404       -20.3923
  19   2.0000      -0.698959       -19.0196
  20   2.0000      -0.640375       -17.4255
  21   2.0000      -0.562651       -15.3105
  22   2.0000      -0.519877       -14.1466
  23   2.0000      -0.432411       -11.7665
  24   2.0000      -0.408941       -11.1278
  25   2.0000      -0.393582       -10.7099
  26   2.0000      -0.373070       -10.1518
  27   2.0000      -0.344210        -9.3664
  28   2.0000      -0.319091        -8.6829
  29   2.0000      -0.308036        -8.3821
  30   2.0000      -0.296754        -8.0751
  31   2.0000      -0.292968        -7.9721
  32   2.0000      -0.233488        -6.3535
  33   2.0000      -0.230742        -6.2788
  34   0.0000      -0.026369        -0.7175
  35   0.0000       0.036245         0.9863
  36   0.0000       0.056685         1.5425
  37   0.0000       0.068115         1.8535
  38   0.0000       0.086428         2.3518

MULLIKEN ATOMIC CHARGES
-----------------------
   0 C :   -0.260793
   1 C :   -0.206536
   2 C :   -0.165824
   3 C :   -0.209086
   4 Br:   -0.132005
   5 H :    0.095998
   6 H :    0.101039
   7 H :    0.106315
   8 H :    0.106534
   9 H :    0.085164
  10 H :    0.102197
  11 H :    0.096687
  12 H :    0.138205
  13 H :    0.142106
Sum of atomic charges:    0.0000000

LOEWDIN ATOMIC CHARGES
----------------------
   0 C :   -0.339357
   1 C :   -0.239839
   2 C :   -0.245446
   3 C :   -0.270269
   4 Br:    0.000997
   5 H :    0.115549
   6 H :    0.118718
   7 H :    0.121106
   8 H :    0.117647
   9 H :    0.114727
  10 H :    0.122875
  11 H :    0.125933
  12 H :    0.128257
  13 H :    0.129103

  Mayer bond orders larger than 0.100000
B(  0-C ,  1-C ) :   1.1583 B(  0-C ,  5-H ) :   0.9553 B(  0-C ,  6-H ) :   0.9543
B(  0-C ,  7-H ) :   0.9534 B(  1-C ,  2-C ) :   1.1261 B(  1-C ,  8-H ) :   0.9188
B(  1-C ,  9-H ) :   0.9273 B(  2-C ,  3-C ) :   1.1074 B(  2-C , 10-H ) :   0.9201
B(  2-C , 11-H ) :   0.9040 B(  3-C ,  4-Br) :   1.0348 B(  3-C , 12-H ) :   0.9229
B(  3-C , 13-H ) :   0.9278

Dispersion correction           -0.010253336
FINAL SINGLE POINT ENERGY     -2730.887682633804

DIPOLE MOMENT
-------------

Method             : SCF
Type of density    : Electron Density
Multiplicity       :   1
Irrep              :   0
Energy             : -2730.9408250780325034 Eh
Relativity type    :
Basis              : AO
                                X                 Y                 Z
Electronic contribution:     28.152147992      -4.016738100      -0.473963485
Nuclear contribution   :    -28.726176715       4.485723402       0.544989028
                        -----------------------------------------
Total Dipole Moment    :     -0.574028723       0.468985302       0.071025543
                        -----------------------------------------
Magnitude (a.u.)       :      0.744648115
Magnitude (Debye)      :      1.892745090

Rotational constants in cm-1:             0.269358             0.040500             0.037080
Rotational constants in MHz :          8075.162298          1214.150700          1111.636430

                             ****ORCA TERMINATED NORMALLY****
TOTAL RUN TIME: 0 days 0 hours 0 minutes 5 seconds 963 msec
