                         Program Version 6.0.0  -   RELEASE  -
|  1> ! r2scan-3c def2/J RI DEFGRID2 scfconv6 printgap
|  2> %output
|  3>     printlevel normal
|  4> end
|  5> * xyz 0 1
|  6> C 1.7332068145 -1.1873498347 -0.1150968324
|  7> C 1.2390313939 0.1339545736 0.4701689257
|  8> H 1.0815269105 0.0171613322 1.5491765462
|  9> C -0.0631941246 0.6282901082 -0.1763727284
| 10> C -1.2923127325 -0.2491642713 0.1203077253
| 11> C -2.5065159166 0.6220138685 0.4432912412
| 12> C -1.6233711495 -1.1686710503 -1.0546653061
| 13> O 2.2442314094 1.1334428913 0.3793815072
| 14> H 1.8206993118 -1.1149858757 -1.1972882152
| 15> H 2.7098553314 -1.4251049588 0.300471127
| 16> H 1.0467597103 -1.9902079873 0.1331950989
| 17> H -0.2363610183 1.637385721 0.2045210519
| 18> H 0.0822558194 0.7052990858 -1.2562973562
| 19> H -1.0762759756 -0.8672241929 0.9987070205
| 20> H -3.3759929744 0.0015151274 0.647798182
| 21> H -2.7392481997 1.2723452847 -0.3971595384
| 22> H -2.3145856406 1.2406690083 1.3167875935
| 23> H -0.7754256329 -1.7939958096 -1.317471236
| 24> H -2.4604013907 -1.8159745959 -0.8027904755
| 25> H -1.900001226 -0.5781601842 -1.9256227446
| 26> H 2.4611926708 1.2686183267 -0.5538948522
| 27> *
| 28>
| 29>                          ****END OF INPUT****

CARTESIAN COORDINATES (ANGSTROEM)
---------------------------------
  C      1.733207   -1.187350   -0.115097
  C      1.239031    0.133955    0.470169
  H      1.081527    0.017161    1.549177
  C     -0.063194    0.628290   -0.176373
  C     -1.292313   -0.249164    0.120308
  C     -2.506516    0.622014    0.443291
  C     -1.623371   -1.168671   -1.054665
  O      2.244231    1.133443    0.379382
  H      1.820699   -1.114986   -1.197288
  H      2.709855   -1.425105    0.300471
  H      1.046760   -1.990208    0.133195
  H     -0.236361    1.637386    0.204521
  H      0.082256    0.705299   -1.256297
  H     -1.076276   -0.867224    0.998707
  H     -3.375993    0.001515    0.647798
  H     -2.739248    1.272345   -0.397160
  H     -2.314586    1.240669    1.316788
  H     -0.775426   -1.793996   -1.317471
  H     -2.460401   -1.815975   -0.802790
  H     -1.900001   -0.578160   -1.925623
  H      2.461193    1.268618   -0.553895

 Total Charge           Charge          ....    0
 Multiplicity           Mult            ....    1
 Number of Electrons    NEL             ....   58
 Basis Dimension        Dim             ....  208

ORBITAL ENERGIES
----------------

  NO   OCC          E(Eh)            E(eV)
   0   2.0000     -18.942372      -515.4481
   1   2.0000     -10.080042      -274.2919
   2   2.0000     -10.037223      -273.1267
   3   2.0000     -10.021788      -272.7067
   4   2.0000     -10.019859      -272.6542
   5   2.0000     -10.017302      -272.5846
   6   2.0000     -10.016604      -272.5657
   7   2.0000      -0.980857       -26.6905
   8   2.0000      -0.780111       -21.2279
   9   2.0000      -0.718903       -19.5624
  10   2.0000      -0.654997       -17.8234
  11   2.0000      -0.648771       -17.6540
  12   2.0000      -0.571630       -15.5548
  13   2.0000      -0.533148       -14.5077
  14   2.0000      -0.456907       -12.4331
  15   2.0000      -0.435136       -11.8406
  16   2.0000      -0.424337       -11.5468
  17   2.0000      -0.403744       -10.9864
  18   2.0000      -0.393435       -10.7059
  19   2.0000      -0.377206       -10.2643
  20   2.0000      -0.356701        -9.7063
  21   2.0000      -0.349728        -9.5166
  22   2.0000      -0.340788        -9.2733
  23   2.0000      -0.324070        -8.8184
  24   2.0000      -0.312870        -8.5136
  25   2.0000      -0.295433        -8.0391
  26   2.0000      -0.291137        -7.9222
  27   2.0000      -0.280230        -7.6254
  28   2.0000      -0.230851        -6.2818
  29   0.0000       0.067475         1.8361
  30   0.0000       0.080608         2.1934
  31   0.0000       0.106402         2.8953
  32   0.0000       0.113841         3.0978
  33   0.0000       0.116726         3.1763

MULLIKEN ATOMIC CHARGES
-----------------------
   0 C :   -0.508264
   1 C :   -0.043458
   2 H :    0.146846
   3 C :   -0.263769
   4 C :   -0.024058
   5 C :   -0.493184
   6 C :   -0.510547
   7 O :   -0.405062
   8 H :    0.148952
   9 H :    0.164513
  10 H :    0.153522
  11 H :    0.166668
  12 H :    0.136727
  13 H :    0.150410
  14 H :    0.143510
  15 H :    0.150398
  16 H :    0.149312
  17 H :    0.149776
  18 H :    0.145000
  19 H :    0.153664
  20 H :    0.289044
Sum of atomic charges:   -0.0000000

LOEWDIN ATOMIC CHARGES
----------------------
   0 C :   -0.402345
   1 C :    0.044876
   2 H :    0.179065
   3 C :   -0.279442
   4 C :   -0.245212
   5 C :   -0.415816
   6 C :   -0.417550
   7 O :   -0.609554
   8 H :    0.152970
   9 H :    0.162954
  10 H :    0.158538
  11 H :    0.171262
  12 H :    0.159688
  13 H :    0.155666
  14 H :    0.152008
  15 H :    0.154476
  16 H :    0.153151
  17 H :    0.153290
  18 H :    0.152453
  19 H :    0.153031
  20 H :    0.266493

  Mayer bond orders larger than 0.100000
B(  0-C ,  1-C ) :   0.9072 B(  0-C ,  8-H ) :   0.9758 B(  0-C ,  9-H ) :   0.9683
B(  0-C , 10-H ) :   0.9671 B(  1-C ,  2-H ) :   0.9867 B(  1-C ,  3-C ) :   0.8969
B(  1-C ,  7-O ) :   0.9489 B(  3-C ,  4-C ) :   0.8144 B(  3-C , 11-H ) :   0.9806
B(  3-C , 12-H ) :   0.9586 B(  4-C ,  5-C ) :   0.8966 B(  4-C ,  6-C ) :   0.9034
B(  4-C , 13-H ) :   0.9679 B(  5-C , 14-H ) :   0.9769 B(  5-C , 15-H ) :   0.9841
B(  5-C , 16-H ) :   0.9768 B(  6-C , 17-H ) :   0.9648 B(  6-C , 18-H ) :   0.9753
B(  6-C , 19-H ) :   0.9906 B(  7-O , 20-H ) :   0.8962

Dispersion correction           -0.005584897
FINAL SINGLE POINT ENERGY      -312.200346043278

DIPOLE MOMENT
-------------

Method             : SCF
Type of density    : Electron Density
Multiplicity       :   1
Irrep              :   0
Energy             :  -312.2058600087580658 Eh
Relativity type    :
Basis              : AO
                                X                 Y                 Z
Electronic contribution:      4.994692423       2.884879193       1.729352143
Nuclear contribution   :     -5.291712324      -3.212956683      -2.152021816
                        -----------------------------------------
Total Dipole Moment    :     -0.297019900      -0.328077490      -0.422669673
                        -----------------------------------------
Magnitude (a.u.)       :      0.611968392
Magnitude (Debye)      :      1.555500036

Rotational constants in cm-1:             0.141194             0.048998             0.040186
Rotational constants in MHz :          4232.899527          1468.934844          1204.749688

                             ****ORCA TERMINATED NORMALLY****
TOTAL RUN TIME: 0 days 0 hours 0 minutes 30 seconds 664 msec
