                         Program Version 6.0.0  -   RELEASE  -
|  1> ! r2scan-3c def2/J RI DEFGRID2 scfconv6 printgap
|  2> %output
|  3>     printlevel normal
|  4> end
|  5> %cpcm
|  6>     smd true
|  7>     smdsolvent "water"
|  8> end
|  9> * xyz 0 1
| 10> C 1.7332068145 -1.1873498347 -0.1150968324
| 11> C 1.2390313939 0.1339545736 0.4701689257
| 12> H 1.0815269105 0.0171613322 1.5491765462
| 13> C -0.0631941246 0.6282901082 -0.1763727284
| 14> C -1.2923127325 -0.2491642713 0.1203077253
| 15> C -2.5065159166 0.6220138685 0.4432912412
| 16> C -1.6233711495 -1.1686710503 -1.0546653061
| 17> O 2.2442314094 1.1334428913 0.3793815072
| 18> H 1.8206993118 -1.1149858757 -1.1972882152
| 19> H 2.7098553314 -1.4251049588 0.300471127
| 20> H 1.0467597103 -1.9902079873 0.1331950989
| 21> H -0.2363610183 1.637385721 0.2045210519
| 22> H 0.0822558194 0.7052990858 -1.2562973562
| 23> H -1.0762759756 -0.8672241929 0.9987070205
| 24> H -3.3759929744 0.0015151274 0.647798182
| 25> H -2.7392481997 1.2723452847 -0.3971595384
| 26> H -2.3145856406 1.2406690083 1.3167875935
| 27> H -0.7754256329 -1.7939958096 -1.317471236
| 28> H -2.4604013907 -1.8159745959 -0.8027904755
| 29> H -1.900001226 -0.5781601842 -1.9256227446
| 30> H 2.4611926708 1.2686183267 -0.5538948522
| 31> *
| 32>
| 33>                          ****END OF INPUT****

CARTESIAN COORDINATES (ANGSTROEM)
---------------------------------
  C      1.733207   -1.187350   -0.115097
  C      1.239031    0.133955    0.470169
  H      1.081527    0.017161    1.549177
  C     -0.063194    0.628290   -0.176373
  C     -1.292313   -0.249164    0.120308
  C     -2.506516    0.622014    0.443291
  C     -1.623371   -1.168671   -1.054665
  O      2.244231    1.133443    0.379382
  H      1.820699   -1.114986   -1.197288
  H      2.709855   -1.425105    0.300471
  H      1.046760   -1.990208    0.133195
  H     -0.236361    1.637386    0.204521
  H      0.082256    0.705299   -1.256297
  H     -1.076276   -0.867224    0.998707
  H     -3.375993    0.001515    0.647798
  H     -2.739248    1.272345   -0.397160
  H     -2.314586    1.240669    1.316788
  H     -0.775426   -1.793996   -1.317471
  H     -2.460401   -1.815975   -0.802790
  H     -1.900001   -0.578160   -1.925623
  H      2.461193    1.268618   -0.553895

 Total Charge           Charge          ....    0
 Multiplicity           Mult            ....    1
 Number of Electrons    NEL             ....   58
 Basis Dimension        Dim             ....  208

ORBITAL ENERGIES
----------------

  NO   OCC          E(Eh)            E(eV)
   0   2.0000     -18.947003      -515.5742
   1   2.0000     -10.074397      -274.1383
   2   2.0000     -10.026458      -272.8338
   3   2.0000     -10.012456      -272.4528
   4   2.0000     -10.008945      -272.3572
   5   2.0000     -10.006369      -272.2871
   6   2.0000     -10.005545      -272.2647
   7   2.0000      -0.984125       -26.7794
   8   2.0000      -0.770058       -20.9544
   9   2.0000      -0.710617       -19.3369
  10   2.0000      -0.645013       -17.5517
  11   2.0000      -0.638973       -17.3873
  12   2.0000      -0.566262       -15.4088
  13   2.0000      -0.522852       -14.2275
  14   2.0000      -0.451370       -12.2824
  15   2.0000      -0.428505       -11.6602
  16   2.0000      -0.415832       -11.3154
  17   2.0000      -0.394343       -10.7306
  18   2.0000      -0.386354       -10.5132
  19   2.0000      -0.367684       -10.0052
  20   2.0000      -0.346726        -9.4349
  21   2.0000      -0.339551        -9.2397
  22   2.0000      -0.337832        -9.1929
  23   2.0000      -0.314860        -8.5678
  24   2.0000      -0.303994        -8.2721
  25   2.0000      -0.284889        -7.7522
  26   2.0000      -0.282148        -7.6776
  27   2.0000      -0.277104        -7.5404
  28   2.0000      -0.234777        -6.3886
  29   0.0000       0.082613         2.2480
  30   0.0000       0.091996         2.5033
  31   0.0000       0.118250         3.2177
  32   0.0000       0.123950         3.3729
  33   0.0000       0.126594         3.4448

MULLIKEN ATOMIC CHARGES
-----------------------
   0 C :   -0.546115
   1 C :   -0.011822
   2 H :    0.156259
   3 C :   -0.287057
   4 C :   -0.007477
   5 C :   -0.536013
   6 C :   -0.549880
   7 O :   -0.501292
   8 H :    0.170988
   9 H :    0.162165
  10 H :    0.170863
  11 H :    0.159613
  12 H :    0.159282
  13 H :    0.161804
  14 H :    0.154604
  15 H :    0.160571
  16 H :    0.158100
  17 H :    0.159654
  18 H :    0.154944
  19 H :    0.164058
  20 H :    0.346750
Sum of atomic charges:   -0.0000000

LOEWDIN ATOMIC CHARGES
----------------------
   0 C :   -0.405406
   1 C :    0.045215
   2 H :    0.182033
   3 C :   -0.279410
   4 C :   -0.241441
   5 C :   -0.424543
   6 C :   -0.424831
   7 O :   -0.650095
   8 H :    0.160711
   9 H :    0.161267
  10 H :    0.164968
  11 H :    0.168611
  12 H :    0.166882
  13 H :    0.159699
  14 H :    0.154340
  15 H :    0.156473
  16 H :    0.154724
  17 H :    0.156123
  18 H :    0.154290
  19 H :    0.155433
  20 H :    0.284957

  Mayer bond orders larger than 0.100000
B(  0-C ,  1-C ) :   0.8990 B(  0-C ,  8-H ) :   0.9735 B(  0-C ,  9-H ) :   0.9662
B(  0-C , 10-H ) :   0.9626 B(  1-C ,  2-H ) :   0.9851 B(  1-C ,  3-C ) :   0.8997
B(  1-C ,  7-O ) :   0.9316 B(  3-C ,  4-C ) :   0.8191 B(  3-C , 11-H ) :   0.9776
B(  3-C , 12-H ) :   0.9600 B(  4-C ,  5-C ) :   0.8855 B(  4-C ,  6-C ) :   0.8968
B(  4-C , 13-H ) :   0.9682 B(  5-C , 14-H ) :   0.9754 B(  5-C , 15-H ) :   0.9822
B(  5-C , 16-H ) :   0.9747 B(  6-C , 17-H ) :   0.9632 B(  6-C , 18-H ) :   0.9743
B(  6-C , 19-H ) :   0.9878 B(  7-O , 20-H ) :   0.8684

Dispersion correction           -0.005584897
FINAL SINGLE POINT ENERGY      -312.206413118483

DIPOLE MOMENT
-------------

Method             : SCF
Type of density    : Electron Density
Multiplicity       :   1
Irrep              :   0
Energy             :  -312.2119270839634169 Eh
Relativity type    :
Basis              : AO
                                X                 Y                 Z
Electronic contribution:      4.897655385       2.733365812       1.518656375
Nuclear contribution   :     -5.291712324      -3.212956683      -2.152021816
                        -----------------------------------------
Total Dipole Moment    :     -0.394056939      -0.479590871      -0.633365441
                        -----------------------------------------
Magnitude (a.u.)       :      0.886814556
Magnitude (Debye)      :      2.254103465

Rotational constants in cm-1:             0.141194             0.048998             0.040186
Rotational constants in MHz :          4232.899527          1468.934844          1204.749688

                             ****ORCA TERMINATED NORMALLY****
TOTAL RUN TIME: 0 days 0 hours 0 minutes 36 seconds 742 msec
