                         Program Version 6.0.0  -   RELEASE  -
|  1> ! pbe def2-sv(p) def2/J RI DEFGRID1 loosescf d4 GCP(DFT/SV(P)) printgap
|  2> %output
|  3>     printlevel normal
|  4> end
|  5> * xyz 0 1
|  6> C -3.2863395526 0.7455025796 0.4349247698
|  7> C -2.2568754752 1.5195805772 -0.0751682649
|  8> C -1.0901922647 0.9198107066 -0.5133473332
|  9> C -0.9390916631 -0.4597796793 -0.4413964999
| 10> C -1.9719360697 -1.2291136092 0.0749248236
| 11> C -3.142536168 -0.6292781492 0.507586611
| 12> C 0.3444910202 -1.1021107453 -0.913555971
| 13> N 1.4925460429 -0.4821215501 -0.2998309931
| 14> C 1.8322024835 -0.5540753615 1.0201868352
| 15> C 2.9408038588 0.2276927568 1.1684419967
| 16> N 3.2841491036 0.780682446 -0.0271941559
| 17> C 2.3935310242 0.3384201891 -0.8780837154
| 18> H -4.1968993176 1.2138759056 0.7759686603
| 19> H -2.3628997743 2.5922599903 -0.1329406927
| 20> H -0.2865557768 1.5256182466 -0.907591175
| 21> H -1.8630676996 -2.3019112799 0.1369099933
| 22> H -3.9409661506 -1.236548096 0.9060478888
| 23> H 0.340017613 -2.1681507026 -0.6700679074
| 24> H 0.4432885416 -0.9889569887 -1.9968724089
| 25> H 1.2724950172 -1.1366601419 1.7214190262
| 26> H 3.5145846437 0.4286172949 2.0507677479
| 27> H 2.3796488421 0.5844193004 -1.9211900116
| 28> *
| 29>
| 30>                          ****END OF INPUT****

CARTESIAN COORDINATES (ANGSTROEM)
---------------------------------
  C     -3.286340    0.745503    0.434925
  C     -2.256875    1.519581   -0.075168
  C     -1.090192    0.919811   -0.513347
  C     -0.939092   -0.459780   -0.441396
  C     -1.971936   -1.229114    0.074925
  C     -3.142536   -0.629278    0.507587
  C      0.344491   -1.102111   -0.913556
  N      1.492546   -0.482122   -0.299831
  C      1.832202   -0.554075    1.020187
  C      2.940804    0.227693    1.168442
  N      3.284149    0.780682   -0.027194
  C      2.393531    0.338420   -0.878084
  H     -4.196899    1.213876    0.775969
  H     -2.362900    2.592260   -0.132941
  H     -0.286556    1.525618   -0.907591
  H     -1.863068   -2.301911    0.136910
  H     -3.940966   -1.236548    0.906048
  H      0.340018   -2.168151   -0.670068
  H      0.443289   -0.988957   -1.996872
  H      1.272495   -1.136660    1.721419
  H      3.514585    0.428617    2.050768
  H      2.379649    0.584419   -1.921190

 Total Charge           Charge          ....    0
 Multiplicity           Mult            ....    1
 Number of Electrons    NEL             ....   84
 Basis Dimension        Dim             ....  188

ORBITAL ENERGIES
----------------

  NO   OCC          E(Eh)            E(eV)
   0   2.0000     -14.057110      -382.5134
   1   2.0000     -13.957138      -379.7930
   2   2.0000      -9.949254      -270.7330
   3   2.0000      -9.926790      -270.1217
   4   2.0000      -9.915364      -269.8108
   5   2.0000      -9.907561      -269.5984
   6   2.0000      -9.904093      -269.5041
   7   2.0000      -9.903481      -269.4874
   8   2.0000      -9.903205      -269.4799
   9   2.0000      -9.903006      -269.4745
  10   2.0000      -9.902631      -269.4643
  11   2.0000      -9.892002      -269.1750
  12   2.0000      -0.936615       -25.4866
  13   2.0000      -0.812413       -22.1069
  14   2.0000      -0.784135       -21.3374
  15   2.0000      -0.705727       -19.2038
  16   2.0000      -0.681979       -18.5576
  17   2.0000      -0.668500       -18.1908
  18   2.0000      -0.635479       -17.2923
  19   2.0000      -0.557789       -15.1782
  20   2.0000      -0.545914       -14.8551
  21   2.0000      -0.537484       -14.6257
  22   2.0000      -0.513112       -13.9625
  23   2.0000      -0.492042       -13.3892
  24   2.0000      -0.473906       -12.8956
  25   2.0000      -0.435431       -11.8487
  26   2.0000      -0.418899       -11.3988
  27   2.0000      -0.401994       -10.9388
  28   2.0000      -0.395848       -10.7716
  29   2.0000      -0.385900       -10.5009
  30   2.0000      -0.385486       -10.4896
  31   2.0000      -0.371272       -10.1028
  32   2.0000      -0.360790        -9.8176
  33   2.0000      -0.354469        -9.6456
  34   2.0000      -0.337347        -9.1797
  35   2.0000      -0.316210        -8.6045
  36   2.0000      -0.310577        -8.4512
  37   2.0000      -0.246061        -6.6957
  38   2.0000      -0.241424        -6.5695
  39   2.0000      -0.230292        -6.2666
  40   2.0000      -0.209107        -5.6901
  41   2.0000      -0.199851        -5.4382
  42   0.0000      -0.050690        -1.3793
  43   0.0000      -0.045441        -1.2365
  44   0.0000      -0.004276        -0.1164
  45   0.0000       0.029932         0.8145
  46   0.0000       0.040835         1.1112

MULLIKEN ATOMIC CHARGES
-----------------------
   0 C :   -0.044345
   1 C :   -0.047697
   2 C :   -0.099820
   3 C :    0.031304
   4 C :   -0.115154
   5 C :   -0.048257
   6 C :    0.028098
   7 N :   -0.131050
   8 C :   -0.033891
   9 C :   -0.079844
  10 N :   -0.127041
  11 C :   -0.019547
  12 H :    0.058859
  13 H :    0.059060
  14 H :    0.059853
  15 H :    0.041903
  16 H :    0.056374
  17 H :    0.099253
  18 H :    0.113368
  19 H :    0.065088
  20 H :    0.061462
  21 H :    0.072025
Sum of atomic charges:    0.0000000

LOEWDIN ATOMIC CHARGES
----------------------
   0 C :   -0.120241
   1 C :   -0.114523
   2 C :   -0.113223
   3 C :   -0.058474
   4 C :   -0.123633
   5 C :   -0.117998
   6 C :   -0.124470
   7 N :    0.057704
   8 C :   -0.151398
   9 C :   -0.143870
  10 N :   -0.118699
  11 C :   -0.118818
  12 H :    0.126036
  13 H :    0.127259
  14 H :    0.128074
  15 H :    0.122528
  16 H :    0.125966
  17 H :    0.127707
  18 H :    0.136842
  19 H :    0.123954
  20 H :    0.115559
  21 H :    0.113721

  Mayer bond orders larger than 0.100000
B(  0-C ,  1-C ) :   1.3703 B(  0-C ,  5-C ) :   1.3900 B(  0-C , 12-H ) :   0.9651
B(  1-C ,  2-C ) :   1.3926 B(  1-C , 13-H ) :   0.9646 B(  2-C ,  3-C ) :   1.3818
B(  2-C , 14-H ) :   0.9571 B(  3-C ,  4-C ) :   1.3971 B(  3-C ,  6-C ) :   1.0519
B(  4-C ,  5-C ) :   1.3676 B(  4-C , 15-H ) :   0.9607 B(  5-C , 16-H ) :   0.9632
B(  6-C ,  7-N ) :   0.9979 B(  6-C , 17-H ) :   0.9104 B(  6-C , 18-H ) :   0.9003
B(  7-N ,  8-C ) :   1.1929 B(  7-N , 11-C ) :   1.2054 B(  8-C ,  9-C ) :   1.4783
B(  8-C , 19-H ) :   0.9655 B(  9-C , 10-N ) :   1.4103 B(  9-C , 20-H ) :   0.9780
B( 10-N , 11-C ) :   1.6349 B( 11-C , 21-H ) :   0.9530

Dispersion correction           -0.025968393
FINAL SINGLE POINT ENERGY      -495.510651846271

DIPOLE MOMENT
-------------

Method             : SCF
Type of density    : Electron Density
Multiplicity       :   1
Irrep              :   0
Energy             :  -495.5725308145905501 Eh
Relativity type    :
Basis              : AO
                                X                 Y                 Z
Electronic contribution:      3.047073260       0.690871727      -0.168118089
Nuclear contribution   :     -4.383514897      -1.393830233      -0.037022239
                        -----------------------------------------
Total Dipole Moment    :     -1.336441637      -0.702958507      -0.205140328
                        -----------------------------------------
Magnitude (a.u.)       :      1.523912552
Magnitude (Debye)      :      3.873477876

Rotational constants in cm-1:             0.082110             0.018349             0.017421
Rotational constants in MHz :          2461.606492           550.102093           522.278244

                             ****ORCA TERMINATED NORMALLY****
TOTAL RUN TIME: 0 days 0 hours 0 minutes 13 seconds 891 msec
