                         Program Version 6.0.0  -   RELEASE  -
|  1> ! pbe def2-sv(p) def2/J RI DEFGRID1 loosescf d4 GCP(DFT/SV(P)) printgap
|  2> %output
|  3>     printlevel normal
|  4> end
|  5> * xyz 0 1
|  6> C -1.7583611423 0.9209228048 -0.3831071152
|  7> C -1.0386529402 0.2339362527 0.77178941
|  8> C 0.1422092268 -0.6382977726 0.3273422122
|  9> C 1.20511997 0.1089864268 -0.4883408946
| 10> C 1.8569984685 1.2503608002 0.2820391125
| 11> O -0.3996231042 -1.721070224 -0.4154405248
| 12> H -2.6737132625 1.385025074 -0.0250045287
| 13> H -1.1377567588 1.6916861268 -0.8319008935
| 14> H -2.0151391332 0.1872969226 -1.1431331069
| 15> H -0.6829130993 0.9716405566 1.4907702719
| 16> H -1.7418259931 -0.4259433464 1.2840064736
| 17> H 0.6213720654 -1.0379173954 1.239127094
| 18> H 1.9779281436 -0.6102807771 -0.77384031
| 19> H 0.7499221085 0.484043555 -1.4056528726
| 20> H 2.2550764106 0.8907273573 1.2283767491
| 21> H 2.6745055535 1.6702822592 -0.2984018405
| 22> H 1.1429849668 2.0427154726 0.4872800549
| 23> H 0.3192766805 -2.2839480881 -0.7312188325
| 24> *
| 25>
| 26>                          ****END OF INPUT****

CARTESIAN COORDINATES (ANGSTROEM)
---------------------------------
  C     -1.758361    0.920923   -0.383107
  C     -1.038653    0.233936    0.771789
  C      0.142209   -0.638298    0.327342
  C      1.205120    0.108986   -0.488341
  C      1.856998    1.250361    0.282039
  O     -0.399623   -1.721070   -0.415441
  H     -2.673713    1.385025   -0.025005
  H     -1.137757    1.691686   -0.831901
  H     -2.015139    0.187297   -1.143133
  H     -0.682913    0.971641    1.490770
  H     -1.741826   -0.425943    1.284006
  H      0.621372   -1.037917    1.239127
  H      1.977928   -0.610281   -0.773840
  H      0.749922    0.484044   -1.405653
  H      2.255076    0.890727    1.228377
  H      2.674506    1.670282   -0.298402
  H      1.142985    2.042715    0.487280
  H      0.319277   -2.283948   -0.731219

 Total Charge           Charge          ....    0
 Multiplicity           Mult            ....    1
 Number of Electrons    NEL             ....   50
 Basis Dimension        Dim             ....  108

ORBITAL ENERGIES
----------------

  NO   OCC          E(Eh)            E(eV)
   0   2.0000     -18.736537      -509.8471
   1   2.0000      -9.932179      -270.2683
   2   2.0000      -9.883887      -268.9542
   3   2.0000      -9.878305      -268.8023
   4   2.0000      -9.877856      -268.7901
   5   2.0000      -9.865887      -268.4644
   6   2.0000      -0.913604       -24.8604
   7   2.0000      -0.714396       -19.4397
   8   2.0000      -0.671024       -18.2595
   9   2.0000      -0.597884       -16.2693
  10   2.0000      -0.554227       -15.0813
  11   2.0000      -0.496488       -13.5101
  12   2.0000      -0.457977       -12.4622
  13   2.0000      -0.425406       -11.5759
  14   2.0000      -0.378365       -10.2958
  15   2.0000      -0.376332       -10.2405
  16   2.0000      -0.362509        -9.8644
  17   2.0000      -0.352776        -9.5995
  18   2.0000      -0.324145        -8.8204
  19   2.0000      -0.315037        -8.5726
  20   2.0000      -0.303109        -8.2480
  21   2.0000      -0.290078        -7.8934
  22   2.0000      -0.285701        -7.7743
  23   2.0000      -0.261003        -7.1023
  24   2.0000      -0.208451        -5.6722
  25   0.0000       0.025478         0.6933
  26   0.0000       0.047069         1.2808
  27   0.0000       0.067829         1.8457
  28   0.0000       0.073156         1.9907
  29   0.0000       0.089626         2.4389

MULLIKEN ATOMIC CHARGES
-----------------------
   0 C :   -0.296838
   1 C :   -0.161560
   2 C :    0.035231
   3 C :   -0.186157
   4 C :   -0.291765
   5 O :   -0.425641
   6 H :    0.100347
   7 H :    0.101319
   8 H :    0.116524
   9 H :    0.088445
  10 H :    0.090100
  11 H :    0.052159
  12 H :    0.070146
  13 H :    0.095466
  14 H :    0.100148
  15 H :    0.105028
  16 H :    0.113352
  17 H :    0.293698
Sum of atomic charges:   -0.0000000

LOEWDIN ATOMIC CHARGES
----------------------
   0 C :   -0.344923
   1 C :   -0.237214
   2 C :   -0.052411
   3 C :   -0.250050
   4 C :   -0.340984
   5 O :   -0.333198
   6 H :    0.119638
   7 H :    0.113877
   8 H :    0.124344
   9 H :    0.116974
  10 H :    0.123128
  11 H :    0.092498
  12 H :    0.109443
  13 H :    0.118910
  14 H :    0.118017
  15 H :    0.121999
  16 H :    0.119428
  17 H :    0.280526

  Mayer bond orders larger than 0.100000
B(  0-C ,  1-C ) :   1.1540 B(  0-C ,  6-H ) :   0.9511 B(  0-C ,  7-H ) :   0.9470
B(  0-C ,  8-H ) :   0.9484 B(  1-C ,  2-C ) :   1.0767 B(  1-C ,  9-H ) :   0.9194
B(  1-C , 10-H ) :   0.9159 B(  2-C ,  3-C ) :   1.0724 B(  2-C ,  5-O ) :   1.0480
B(  2-C , 11-H ) :   0.9068 B(  3-C ,  4-C ) :   1.1383 B(  3-C , 12-H ) :   0.9175
B(  3-C , 13-H ) :   0.9097 B(  4-C , 14-H ) :   0.9524 B(  4-C , 15-H ) :   0.9478
B(  4-C , 16-H ) :   0.9474 B(  5-O , 17-H ) :   0.8516

Dispersion correction           -0.013170809
FINAL SINGLE POINT ENERGY      -272.305062795261

DIPOLE MOMENT
-------------

Method             : SCF
Type of density    : Electron Density
Multiplicity       :   1
Irrep              :   0
Energy             :  -272.3746876250286277 Eh
Relativity type    :
Basis              : AO
                                X                 Y                 Z
Electronic contribution:     -0.814286953      -4.600547480      -0.448661362
Nuclear contribution   :      1.391668358       4.632748407       0.482062775
                        -----------------------------------------
Total Dipole Moment    :      0.577381405       0.032200927       0.033401413
                        -----------------------------------------
Magnitude (a.u.)       :      0.579242472
Magnitude (Debye)      :      1.472317356

Rotational constants in cm-1:             0.134250             0.093399             0.067131
Rotational constants in MHz :          4024.714890          2800.023281          2012.544848

                             ****ORCA TERMINATED NORMALLY****
TOTAL RUN TIME: 0 days 0 hours 0 minutes 8 seconds 64 msec
