                         Program Version 6.0.0  -   RELEASE  -
|  1> ! pbe def2-sv(p) def2/J RI DEFGRID1 loosescf d4 GCP(DFT/SV(P)) printgap
|  2> %output
|  3>     printlevel normal
|  4> end
|  5> * xyz 0 1
|  6> C -1.3543853786 -1.2798470184 0.6666594731
|  7> C -1.080624714 -0.3285577534 -0.4966734511
|  8> C -2.3866456268 0.3757643767 -0.8787168731
|  9> C 0.0393839379 0.7118666635 -0.2661873484
| 10> C -0.2858846343 1.6974320658 0.8577378491
| 11> C 1.4768202106 0.1551620522 -0.1038846408
| 12> C 1.8298848363 -0.3738224277 1.2865522645
| 13> C 1.8121047008 -0.8983553859 -1.159808116
| 14> H -0.5343695462 -1.9760892359 0.8132580926
| 15> H -1.5235501697 -0.7359326509 1.5915966518
| 16> H -2.2477440129 -1.8635126704 0.4519230301
| 17> H -0.7816960847 -0.9330239075 -1.3591813056
| 18> H -2.2157658582 1.1203401894 -1.65317825
| 19> H -2.8306703894 0.8659033889 -0.0163201331
| 20> H -3.1031730224 -0.3498559823 -1.2577732128
| 21> H 0.0711343783 1.2951231565 -1.1973098352
| 22> H -1.1655250254 2.2842917622 0.6091225016
| 23> H 0.5456810469 2.3851084363 0.9973923747
| 24> H -0.4688024387 1.1858995548 1.797804697
| 25> H 2.1373653182 1.0142240707 -0.2842224431
| 26> H 2.8772650728 -0.6701598183 1.2987955338
| 27> H 1.6907572393 0.3904863098 2.0449583514
| 28> H 1.2342323573 -1.2396037708 1.5541511748
| 29> H 1.5416313047 -0.5488862639 -2.1538178995
| 30> H 1.2893026786 -1.830585943 -0.9624049325
| 31> H 2.8802986474 -1.1044786248 -1.1507864165
| 32> *
| 33>
| 34>                          ****END OF INPUT****

CARTESIAN COORDINATES (ANGSTROEM)
---------------------------------
  C     -1.354385   -1.279847    0.666659
  C     -1.080625   -0.328558   -0.496673
  C     -2.386646    0.375764   -0.878717
  C      0.039384    0.711867   -0.266187
  C     -0.285885    1.697432    0.857738
  C      1.476820    0.155162   -0.103885
  C      1.829885   -0.373822    1.286552
  C      1.812105   -0.898355   -1.159808
  H     -0.534370   -1.976089    0.813258
  H     -1.523550   -0.735933    1.591597
  H     -2.247744   -1.863513    0.451923
  H     -0.781696   -0.933024   -1.359181
  H     -2.215766    1.120340   -1.653178
  H     -2.830670    0.865903   -0.016320
  H     -3.103173   -0.349856   -1.257773
  H      0.071134    1.295123   -1.197310
  H     -1.165525    2.284292    0.609123
  H      0.545681    2.385108    0.997392
  H     -0.468802    1.185900    1.797805
  H      2.137365    1.014224   -0.284222
  H      2.877265   -0.670160    1.298796
  H      1.690757    0.390486    2.044958
  H      1.234232   -1.239604    1.554151
  H      1.541631   -0.548886   -2.153818
  H      1.289303   -1.830586   -0.962405
  H      2.880299   -1.104479   -1.150786

 Total Charge           Charge          ....    0
 Multiplicity           Mult            ....    1
 Number of Electrons    NEL             ....   66
 Basis Dimension        Dim             ....  148

ORBITAL ENERGIES
----------------

  NO   OCC          E(Eh)            E(eV)
   0   2.0000      -9.888790      -269.0877
   1   2.0000      -9.888195      -269.0715
   2   2.0000      -9.886961      -269.0379
   3   2.0000      -9.868220      -268.5279
   4   2.0000      -9.868116      -268.5251
   5   2.0000      -9.867812      -268.5168
   6   2.0000      -9.867199      -268.5001
   7   2.0000      -9.865876      -268.4641
   8   2.0000      -0.744708       -20.2645
   9   2.0000      -0.695522       -18.9261
  10   2.0000      -0.647035       -17.6067
  11   2.0000      -0.609572       -16.5873
  12   2.0000      -0.602946       -16.4070
  13   2.0000      -0.562661       -15.3108
  14   2.0000      -0.514388       -13.9972
  15   2.0000      -0.459122       -12.4933
  16   2.0000      -0.421281       -11.4636
  17   2.0000      -0.416866       -11.3435
  18   2.0000      -0.397279       -10.8105
  19   2.0000      -0.375730       -10.2241
  20   2.0000      -0.367291        -9.9945
  21   2.0000      -0.350782        -9.5453
  22   2.0000      -0.344414        -9.3720
  23   2.0000      -0.337784        -9.1916
  24   2.0000      -0.333861        -9.0848
  25   2.0000      -0.321752        -8.7553
  26   2.0000      -0.314501        -8.5580
  27   2.0000      -0.302967        -8.2441
  28   2.0000      -0.290969        -7.9177
  29   2.0000      -0.288091        -7.8394
  30   2.0000      -0.263695        -7.1755
  31   2.0000      -0.260490        -7.0883
  32   2.0000      -0.252706        -6.8765
  33   0.0000       0.027435         0.7466
  34   0.0000       0.057310         1.5595
  35   0.0000       0.060960         1.6588
  36   0.0000       0.063790         1.7358
  37   0.0000       0.087882         2.3914

MULLIKEN ATOMIC CHARGES
-----------------------
   0 C :   -0.255494
   1 C :   -0.156677
   2 C :   -0.251707
   3 C :   -0.103619
   4 C :   -0.263518
   5 C :   -0.145614
   6 C :   -0.253291
   7 C :   -0.248867
   8 H :    0.114391
   9 H :    0.097001
  10 H :    0.092035
  11 H :    0.068998
  12 H :    0.094720
  13 H :    0.101408
  14 H :    0.096232
  15 H :    0.057419
  16 H :    0.101466
  17 H :    0.096655
  18 H :    0.109583
  19 H :    0.063525
  20 H :    0.093393
  21 H :    0.099405
  22 H :    0.096115
  23 H :    0.097293
  24 H :    0.103404
  25 H :    0.095742
Sum of atomic charges:   -0.0000000

LOEWDIN ATOMIC CHARGES
----------------------
   0 C :   -0.331955
   1 C :   -0.150318
   2 C :   -0.328842
   3 C :   -0.136315
   4 C :   -0.332994
   5 C :   -0.149138
   6 C :   -0.333746
   7 C :   -0.330985
   8 H :    0.114880
   9 H :    0.116624
  10 H :    0.118023
  11 H :    0.114932
  12 H :    0.115118
  13 H :    0.115684
  14 H :    0.116759
  15 H :    0.113395
  16 H :    0.118482
  17 H :    0.118459
  18 H :    0.117011
  19 H :    0.114237
  20 H :    0.117606
  21 H :    0.117208
  22 H :    0.115949
  23 H :    0.115974
  24 H :    0.116413
  25 H :    0.117538

  Mayer bond orders larger than 0.100000
B(  0-C ,  1-C ) :   1.1179 B(  0-C ,  8-H ) :   0.9339 B(  0-C ,  9-H ) :   0.9425
B(  0-C , 10-H ) :   0.9443 B(  1-C ,  2-C ) :   1.1120 B(  1-C ,  3-C ) :   1.0546
B(  1-C , 11-H ) :   0.8855 B(  2-C , 12-H ) :   0.9477 B(  2-C , 13-H ) :   0.9455
B(  2-C , 14-H ) :   0.9471 B(  3-C ,  4-C ) :   1.1140 B(  3-C ,  5-C ) :   1.0529
B(  3-C , 15-H ) :   0.8808 B(  4-C , 16-H ) :   0.9410 B(  4-C , 17-H ) :   0.9436
B(  4-C , 18-H ) :   0.9349 B(  5-C ,  6-C ) :   1.1177 B(  5-C ,  7-C ) :   1.1230
B(  5-C , 19-H ) :   0.8918 B(  6-C , 20-H ) :   0.9469 B(  6-C , 21-H ) :   0.9405
B(  6-C , 22-H ) :   0.9409 B(  7-C , 23-H ) :   0.9458 B(  7-C , 24-H ) :   0.9385
B(  7-C , 25-H ) :   0.9459

Dispersion correction           -0.023985018
FINAL SINGLE POINT ENERGY      -314.868801698179

DIPOLE MOMENT
-------------

Method             : SCF
Type of density    : Electron Density
Multiplicity       :   1
Irrep              :   0
Energy             :  -314.9554529851336042 Eh
Relativity type    :
Basis              : AO
                                X                 Y                 Z
Electronic contribution:      0.585438948       0.675210925      -1.097959724
Nuclear contribution   :     -0.566301103      -0.666800257       1.054501162
                        -----------------------------------------
Total Dipole Moment    :      0.019137845       0.008410668      -0.043458563
                        -----------------------------------------
Magnitude (a.u.)       :      0.048224922
Magnitude (Debye)      :      0.122578011

Rotational constants in cm-1:             0.085398             0.046581             0.042742
Rotational constants in MHz :          2560.158653          1396.466554          1281.386401

                             ****ORCA TERMINATED NORMALLY****
TOTAL RUN TIME: 0 days 0 hours 0 minutes 11 seconds 854 msec
