                         Program Version 6.0.0  -   RELEASE  -
|  1> ! wb97x-v def2-tzvp def2/J RIJCOSX DEFGRID2 scfconv7 GCP(DFT/TZ) printgap
|  2> %output
|  3>     printlevel normal
|  4> end
|  5> * xyz 0 1
|  6> C 2.1893207481367534 -0.9372907346741645 -0.6058751263456038
|  7> C 1.2051031762566917 -0.1483377064780521 0.23772610944447428
|  8> C 1.751930485022287 1.2182499541686607 0.6269515019550009
|  9> O 0.00012767661859019175 0.0001034795774560317 -0.5482348846672332
| 10> C -1.2051860661150946 0.14867253947919756 0.23719581880655066
| 11> C -2.188813836351132 0.9380942668355363 -0.6066527530601913
| 12> C -1.752510345899616 -1.2178784037778654 0.6258395093547235
| 13> H 2.4018307579379177 -0.40553056688110123 -1.5399558103824145
| 14> H 3.1314321425586695 -1.06765833559303 -0.06496307085925378
| 15> H 1.789470780436181 -1.9262823478920332 -0.8495733988607908
| 16> H 0.9684516943481033 -0.7206858219662438 1.1463656674463933
| 17> H 1.0139792761976405 1.7972487054029742 1.191083934604819
| 18> H 2.0291050711753265 1.7834904259817004 -0.2697566529974854
| 19> H 2.6422959075047356 1.1058005035703062 1.2544565721982832
| 20> H -0.9688122199945616 0.7207314405343626 1.1460830745965218
| 21> H -3.131073526627636 1.0687307588474733 -0.06606295085121634
| 22> H -1.788512826308748 1.926976428512812 -0.8500596230648337
| 23> H -2.401177465354046 0.4065505672209192 -1.5408872437258645
| 24> H -2.642954986168099 -1.1053849394330586 1.2532193449173388
| 25> H -1.0148238910354879 -1.7972787727053332 1.1899016214644011
| 26> H -2.029685746057706 -1.7827259066017027 -0.2711082538580288
| 27> *
| 28>
| 29>                          ****END OF INPUT****

CARTESIAN COORDINATES (ANGSTROEM)
---------------------------------
  C      2.189321   -0.937291   -0.605875
  C      1.205103   -0.148338    0.237726
  C      1.751930    1.218250    0.626952
  O      0.000128    0.000103   -0.548235
  C     -1.205186    0.148673    0.237196
  C     -2.188814    0.938094   -0.606653
  C     -1.752510   -1.217878    0.625840
  H      2.401831   -0.405531   -1.539956
  H      3.131432   -1.067658   -0.064963
  H      1.789471   -1.926282   -0.849573
  H      0.968452   -0.720686    1.146366
  H      1.013979    1.797249    1.191084
  H      2.029105    1.783490   -0.269757
  H      2.642296    1.105801    1.254457
  H     -0.968812    0.720731    1.146083
  H     -3.131074    1.068731   -0.066063
  H     -1.788513    1.926976   -0.850060
  H     -2.401177    0.406551   -1.540887
  H     -2.642955   -1.105385    1.253219
  H     -1.014824   -1.797279    1.189902
  H     -2.029686   -1.782726   -0.271108

 Total Charge           Charge          ....    0
 Multiplicity           Mult            ....    1
 Number of Electrons    NEL             ....   58
 Basis Dimension        Dim             ....  301

ORBITAL ENERGIES
----------------

  NO   OCC          E(Eh)            E(eV)
   0   2.0000     -21.659760      -589.3920
   1   2.0000     -12.094047      -329.0957
   2   2.0000     -12.093829      -329.0898
   3   2.0000     -12.033011      -327.4349
   4   2.0000     -12.032998      -327.4345
   5   2.0000     -12.031155      -327.3844
   6   2.0000     -12.031102      -327.3829
   7   2.0000      -1.661423       -45.2096
   8   2.0000      -1.315734       -35.8029
   9   2.0000      -1.267133       -34.4805
  10   2.0000      -1.183026       -32.1918
  11   2.0000      -1.180467       -32.1221
  12   2.0000      -1.112051       -30.2605
  13   2.0000      -1.057592       -28.7785
  14   2.0000      -0.977816       -26.6077
  15   2.0000      -0.939884       -25.5756
  16   2.0000      -0.934530       -25.4299
  17   2.0000      -0.874630       -23.7999
  18   2.0000      -0.863532       -23.4979
  19   2.0000      -0.842935       -22.9374
  20   2.0000      -0.823043       -22.3962
  21   2.0000      -0.817767       -22.2526
  22   2.0000      -0.809736       -22.0340
  23   2.0000      -0.808615       -22.0035
  24   2.0000      -0.804987       -21.9048
  25   2.0000      -0.786158       -21.3924
  26   2.0000      -0.782848       -21.3024
  27   2.0000      -0.762469       -20.7478
  28   2.0000      -0.758868       -20.6498
  29   0.0000      -0.165690        -4.5087
  30   0.0000      -0.103837        -2.8256
  31   0.0000      -0.034366        -0.9351
  32   0.0000      -0.012347        -0.3360
  33   0.0000      -0.005995        -0.1631

MULLIKEN ATOMIC CHARGES
-----------------------
   0 C :   -0.314210
   1 C :    0.089154
   2 C :   -0.322970
   3 O :   -0.307273
   4 C :    0.089224
   5 C :   -0.314212
   6 C :   -0.322986
   7 H :    0.111783
   8 H :    0.100391
   9 H :    0.113592
  10 H :    0.055081
  11 H :    0.102938
  12 H :    0.109606
  13 H :    0.108250
  14 H :    0.055066
  15 H :    0.100397
  16 H :    0.113598
  17 H :    0.111783
  18 H :    0.108248
  19 H :    0.102941
  20 H :    0.109599
Sum of atomic charges:    0.0000000

LOEWDIN ATOMIC CHARGES
----------------------
   0 C :   -0.281364
   1 C :   -0.368293
   2 C :   -0.285805
   3 O :    0.169216
   4 C :   -0.368283
   5 C :   -0.281365
   6 C :   -0.285800
   7 H :    0.122508
   8 H :    0.120102
   9 H :    0.119889
  10 H :    0.130647
  11 H :    0.115603
  12 H :    0.121859
  13 H :    0.120238
  14 H :    0.130649
  15 H :    0.120103
  16 H :    0.119890
  17 H :    0.122506
  18 H :    0.120235
  19 H :    0.115608
  20 H :    0.121856

  Mayer bond orders larger than 0.100000
B(  0-C ,  1-C ) :   0.9868 B(  0-C ,  7-H ) :   0.9761 B(  0-C ,  8-H ) :   0.9748
B(  0-C ,  9-H ) :   0.9800 B(  1-C ,  2-C ) :   0.9929 B(  1-C ,  3-O ) :   0.9551
B(  1-C , 10-H ) :   0.9669 B(  2-C , 11-H ) :   0.9727 B(  2-C , 12-H ) :   0.9768
B(  2-C , 13-H ) :   0.9774 B(  3-O ,  4-C ) :   0.9550 B(  4-C ,  5-C ) :   0.9868
B(  4-C ,  6-C ) :   0.9929 B(  4-C , 14-H ) :   0.9669 B(  5-C , 15-H ) :   0.9747
B(  5-C , 16-H ) :   0.9800 B(  5-C , 17-H ) :   0.9761 B(  6-C , 18-H ) :   0.9774
B(  6-C , 19-H ) :   0.9727 B(  6-C , 20-H ) :   0.9768

FINAL SINGLE POINT ENERGY      -312.305755560185

DIPOLE MOMENT
-------------

Method             : SCF
Type of density    : Electron Density
Multiplicity       :   1
Irrep              :   0
Energy             :  -312.3210401953853079 Eh
Relativity type    :
Basis              : AO
                                X                 Y                 Z
Electronic contribution:      0.000306089      -0.000615477      -1.210034560
Nuclear contribution   :     -0.000404149       0.000673970       1.721954922
                        -----------------------------------------
Total Dipole Moment    :     -0.000098060       0.000058492       0.511920362
                        -----------------------------------------
Magnitude (a.u.)       :      0.511920375
Magnitude (Debye)      :      1.301198184

Rotational constants in cm-1:             0.136729             0.051479             0.045342
Rotational constants in MHz :          4099.035191          1543.314752          1359.309782

                             ****ORCA TERMINATED NORMALLY****
TOTAL RUN TIME: 0 days 0 hours 2 minutes 21 seconds 892 msec
