                         Program Version 6.0.0  -   RELEASE  -
|  1> ! wb97x-v def2-tzvp def2/J RIJCOSX DEFGRID2 scfconv7 GCP(DFT/TZ) printgap
|  2> %output
|  3>     printlevel normal
|  4> end
|  5> %cpcm
|  6>     smd true
|  7>     smdsolvent "water"
|  8> end
|  9> * xyz 0 1
| 10> C 2.1893207481367534 -0.9372907346741645 -0.6058751263456038
| 11> C 1.2051031762566917 -0.1483377064780521 0.23772610944447428
| 12> C 1.751930485022287 1.2182499541686607 0.6269515019550009
| 13> O 0.00012767661859019175 0.0001034795774560317 -0.5482348846672332
| 14> C -1.2051860661150946 0.14867253947919756 0.23719581880655066
| 15> C -2.188813836351132 0.9380942668355363 -0.6066527530601913
| 16> C -1.752510345899616 -1.2178784037778654 0.6258395093547235
| 17> H 2.4018307579379177 -0.40553056688110123 -1.5399558103824145
| 18> H 3.1314321425586695 -1.06765833559303 -0.06496307085925378
| 19> H 1.789470780436181 -1.9262823478920332 -0.8495733988607908
| 20> H 0.9684516943481033 -0.7206858219662438 1.1463656674463933
| 21> H 1.0139792761976405 1.7972487054029742 1.191083934604819
| 22> H 2.0291050711753265 1.7834904259817004 -0.2697566529974854
| 23> H 2.6422959075047356 1.1058005035703062 1.2544565721982832
| 24> H -0.9688122199945616 0.7207314405343626 1.1460830745965218
| 25> H -3.131073526627636 1.0687307588474733 -0.06606295085121634
| 26> H -1.788512826308748 1.926976428512812 -0.8500596230648337
| 27> H -2.401177465354046 0.4065505672209192 -1.5408872437258645
| 28> H -2.642954986168099 -1.1053849394330586 1.2532193449173388
| 29> H -1.0148238910354879 -1.7972787727053332 1.1899016214644011
| 30> H -2.029685746057706 -1.7827259066017027 -0.2711082538580288
| 31> *
| 32>
| 33>                          ****END OF INPUT****

CARTESIAN COORDINATES (ANGSTROEM)
---------------------------------
  C      2.189321   -0.937291   -0.605875
  C      1.205103   -0.148338    0.237726
  C      1.751930    1.218250    0.626952
  O      0.000128    0.000103   -0.548235
  C     -1.205186    0.148673    0.237196
  C     -2.188814    0.938094   -0.606653
  C     -1.752510   -1.217878    0.625840
  H      2.401831   -0.405531   -1.539956
  H      3.131432   -1.067658   -0.064963
  H      1.789471   -1.926282   -0.849573
  H      0.968452   -0.720686    1.146366
  H      1.013979    1.797249    1.191084
  H      2.029105    1.783490   -0.269757
  H      2.642296    1.105801    1.254457
  H     -0.968812    0.720731    1.146083
  H     -3.131074    1.068731   -0.066063
  H     -1.788513    1.926976   -0.850060
  H     -2.401177    0.406551   -1.540887
  H     -2.642955   -1.105385    1.253219
  H     -1.014824   -1.797279    1.189902
  H     -2.029686   -1.782726   -0.271108

 Total Charge           Charge          ....    0
 Multiplicity           Mult            ....    1
 Number of Electrons    NEL             ....   58
 Basis Dimension        Dim             ....  301

ORBITAL ENERGIES
----------------

  NO   OCC          E(Eh)            E(eV)
   0   2.0000     -21.666462      -589.5744
   1   2.0000     -12.089341      -328.9677
   2   2.0000     -12.089124      -328.9618
   3   2.0000     -12.026136      -327.2478
   4   2.0000     -12.026075      -327.2461
   5   2.0000     -12.024829      -327.2122
   6   2.0000     -12.024825      -327.2121
   7   2.0000      -1.668124       -45.3920
   8   2.0000      -1.312745       -35.7216
   9   2.0000      -1.262268       -34.3481
  10   2.0000      -1.177521       -32.0420
  11   2.0000      -1.175181       -31.9783
  12   2.0000      -1.111567       -30.2473
  13   2.0000      -1.056129       -28.7387
  14   2.0000      -0.975684       -26.5497
  15   2.0000      -0.942536       -25.6477
  16   2.0000      -0.935702       -25.4618
  17   2.0000      -0.870989       -23.7008
  18   2.0000      -0.858266       -23.3546
  19   2.0000      -0.838552       -22.8181
  20   2.0000      -0.817397       -22.2425
  21   2.0000      -0.814915       -22.1750
  22   2.0000      -0.804108       -21.8809
  23   2.0000      -0.802588       -21.8395
  24   2.0000      -0.799982       -21.7686
  25   2.0000      -0.780607       -21.2414
  26   2.0000      -0.776802       -21.1379
  27   2.0000      -0.757122       -20.6023
  28   2.0000      -0.754561       -20.5326
  29   0.0000      -0.163412        -4.4467
  30   0.0000      -0.102406        -2.7866
  31   0.0000      -0.022530        -0.6131
  32   0.0000      -0.006930        -0.1886
  33   0.0000       0.002243         0.0610

MULLIKEN ATOMIC CHARGES
-----------------------
   0 C :   -0.375823
   1 C :    0.112977
   2 C :   -0.388947
   3 O :   -0.398539
   4 C :    0.113066
   5 C :   -0.375832
   6 C :   -0.388980
   7 H :    0.123037
   8 H :    0.127518
   9 H :    0.129006
  10 H :    0.089063
  11 H :    0.130361
  12 H :    0.119981
  13 H :    0.132070
  14 H :    0.089054
  15 H :    0.127522
  16 H :    0.129011
  17 H :    0.123041
  18 H :    0.132068
  19 H :    0.130362
  20 H :    0.119981
Sum of atomic charges:    0.0000000

LOEWDIN ATOMIC CHARGES
----------------------
   0 C :   -0.290223
   1 C :   -0.366087
   2 C :   -0.291158
   3 O :    0.132990
   4 C :   -0.366076
   5 C :   -0.290224
   6 C :   -0.291157
   7 H :    0.122554
   8 H :    0.127532
   9 H :    0.120742
  10 H :    0.140736
  11 H :    0.120963
  12 H :    0.121845
  13 H :    0.126593
  14 H :    0.140739
  15 H :    0.127532
  16 H :    0.120744
  17 H :    0.122554
  18 H :    0.126590
  19 H :    0.120966
  20 H :    0.121843

  Mayer bond orders larger than 0.100000
B(  0-C ,  1-C ) :   0.9802 B(  0-C ,  7-H ) :   0.9709 B(  0-C ,  8-H ) :   0.9730
B(  0-C ,  9-H ) :   0.9777 B(  1-C ,  2-C ) :   0.9877 B(  1-C ,  3-O ) :   0.9164
B(  1-C , 10-H ) :   0.9704 B(  2-C , 11-H ) :   0.9713 B(  2-C , 12-H ) :   0.9720
B(  2-C , 13-H ) :   0.9739 B(  3-O ,  4-C ) :   0.9163 B(  4-C ,  5-C ) :   0.9802
B(  4-C ,  6-C ) :   0.9877 B(  4-C , 14-H ) :   0.9703 B(  5-C , 15-H ) :   0.9730
B(  5-C , 16-H ) :   0.9777 B(  5-C , 17-H ) :   0.9709 B(  6-C , 18-H ) :   0.9739
B(  6-C , 19-H ) :   0.9713 B(  6-C , 20-H ) :   0.9720

FINAL SINGLE POINT ENERGY      -312.308378246168

DIPOLE MOMENT
-------------

Method             : SCF
Type of density    : Electron Density
Multiplicity       :   1
Irrep              :   0
Energy             :  -312.3236628813683637 Eh
Relativity type    :
Basis              : AO
                                X                 Y                 Z
Electronic contribution:      0.000224773      -0.000590390      -0.825893877
Nuclear contribution   :     -0.000404149       0.000673970       1.721954922
                        -----------------------------------------
Total Dipole Moment    :     -0.000179376       0.000083580       0.896061045
                        -----------------------------------------
Magnitude (a.u.)       :      0.896061067
Magnitude (Debye)      :      2.277606227

Rotational constants in cm-1:             0.136729             0.051479             0.045342
Rotational constants in MHz :          4099.035191          1543.314752          1359.309782

                             ****ORCA TERMINATED NORMALLY****
TOTAL RUN TIME: 0 days 0 hours 2 minutes 32 seconds 404 msec
