                         Program Version 6.0.0  -   RELEASE  -
|  1> ! r2scan-3c def2/J RI DEFGRID2 scfconv6 printgap
|  2> %output
|  3>     printlevel normal
|  4> end
|  5> %cpcm
|  6>     smd true
|  7>     smdsolvent "water"
|  8> end
|  9> * xyz 0 1
| 10> C 2.2782371114 -0.3395852152 -0.7485988293
| 11> C 1.5260837029 -0.5928171107 0.553508493
| 12> C 0.3600689929 0.3708217685 0.776249631
| 13> C -0.7654009572 0.2838446746 -0.2638293075
| 14> H -0.3664965698 0.5214545919 -1.2624391305
| 15> C -1.4211772783 -1.0922954056 -0.3064172137
| 16> O -1.7942624222 1.217079265 0.0443112951
| 17> H 2.6106633587 0.6946875443 -0.8021303955
| 18> H 1.6489191562 -0.5448664635 -1.6105119225
| 19> H 3.1522835744 -0.9835791515 -0.8067249773
| 20> H 1.1645074571 -1.6213426137 0.5731836734
| 21> H 2.2197825378 -0.4746311636 1.3889853101
| 22> H -0.0803834342 0.1794438618 1.7578984307
| 23> H 0.7486632429 1.393344315 0.7796919463
| 24> H -2.2999727807 -1.0469002112 -0.9443025506
| 25> H -0.733907759 -1.8321700566 -0.7024600724
| 26> H -1.7355888092 -1.3830682472 0.6924278939
| 27> H -1.4156538118 2.1041836137 0.1029385376
| 28> *
| 29>
| 30>                          ****END OF INPUT****

CARTESIAN COORDINATES (ANGSTROEM)
---------------------------------
  C      2.278237   -0.339585   -0.748599
  C      1.526084   -0.592817    0.553508
  C      0.360069    0.370822    0.776250
  C     -0.765401    0.283845   -0.263829
  H     -0.366497    0.521455   -1.262439
  C     -1.421177   -1.092295   -0.306417
  O     -1.794262    1.217079    0.044311
  H      2.610663    0.694688   -0.802130
  H      1.648919   -0.544866   -1.610512
  H      3.152284   -0.983579   -0.806725
  H      1.164507   -1.621343    0.573184
  H      2.219783   -0.474631    1.388985
  H     -0.080383    0.179444    1.757898
  H      0.748663    1.393344    0.779692
  H     -2.299973   -1.046900   -0.944303
  H     -0.733908   -1.832170   -0.702460
  H     -1.735589   -1.383068    0.692428
  H     -1.415654    2.104184    0.102939

 Total Charge           Charge          ....    0
 Multiplicity           Mult            ....    1
 Number of Electrons    NEL             ....   50
 Basis Dimension        Dim             ....  179

ORBITAL ENERGIES
----------------

  NO   OCC          E(Eh)            E(eV)
   0   2.0000     -18.947148      -515.5781
   1   2.0000     -10.074231      -274.1338
   2   2.0000     -10.018245      -272.6103
   3   2.0000     -10.015340      -272.5313
   4   2.0000     -10.009959      -272.3848
   5   2.0000     -10.007750      -272.3247
   6   2.0000      -0.983286       -26.7566
   7   2.0000      -0.758026       -20.6269
   8   2.0000      -0.703125       -19.1330
   9   2.0000      -0.642948       -17.4955
  10   2.0000      -0.574298       -15.6274
  11   2.0000      -0.525617       -14.3028
  12   2.0000      -0.477457       -12.9923
  13   2.0000      -0.435021       -11.8375
  14   2.0000      -0.397613       -10.8196
  15   2.0000      -0.383102       -10.4247
  16   2.0000      -0.380592       -10.3564
  17   2.0000      -0.348068        -9.4714
  18   2.0000      -0.346038        -9.4162
  19   2.0000      -0.327861        -8.9215
  20   2.0000      -0.311701        -8.4818
  21   2.0000      -0.298418        -8.1204
  22   2.0000      -0.291468        -7.9312
  23   2.0000      -0.279750        -7.6124
  24   2.0000      -0.233245        -6.3469
  25   0.0000       0.082368         2.2414
  26   0.0000       0.094860         2.5813
  27   0.0000       0.122990         3.3467
  28   0.0000       0.133102         3.6219
  29   0.0000       0.139598         3.7987

MULLIKEN ATOMIC CHARGES
-----------------------
   0 C :   -0.518211
   1 C :   -0.270687
   2 C :   -0.265612
   3 C :    0.043493
   4 H :    0.146854
   5 C :   -0.547770
   6 O :   -0.511908
   7 H :    0.156576
   8 H :    0.160119
   9 H :    0.156087
  10 H :    0.154844
  11 H :    0.150139
  12 H :    0.154779
  13 H :    0.151435
  14 H :    0.161770
  15 H :    0.171377
  16 H :    0.167207
  17 H :    0.339509
Sum of atomic charges:    0.0000000

LOEWDIN ATOMIC CHARGES
----------------------
   0 C :   -0.434255
   1 C :   -0.314033
   2 C :   -0.291954
   3 C :    0.047813
   4 H :    0.167474
   5 C :   -0.393863
   6 O :   -0.655648
   7 H :    0.153502
   8 H :    0.151962
   9 H :    0.152853
  10 H :    0.155743
  11 H :    0.156016
  12 H :    0.164977
  13 H :    0.163059
  14 H :    0.164080
  15 H :    0.165069
  16 H :    0.162007
  17 H :    0.285200

  Mayer bond orders larger than 0.100000
B(  0-C ,  1-C ) :   0.8859 B(  0-C ,  7-H ) :   0.9786 B(  0-C ,  8-H ) :   0.9754
B(  0-C ,  9-H ) :   0.9682 B(  1-C ,  2-C ) :   0.8952 B(  1-C , 10-H ) :   0.9806
B(  1-C , 11-H ) :   0.9609 B(  2-C ,  3-C ) :   0.9055 B(  2-C , 12-H ) :   0.9705
B(  2-C , 13-H ) :   0.9703 B(  3-C ,  4-H ) :   0.9637 B(  3-C ,  5-C ) :   0.9093
B(  3-C ,  6-O ) :   0.8699 B(  5-C , 14-H ) :   0.9644 B(  5-C , 15-H ) :   0.9636
B(  5-C , 16-H ) :   0.9768 B(  6-O , 17-H ) :   0.8749

Dispersion correction           -0.004355621
FINAL SINGLE POINT ENERGY      -272.908699068549

DIPOLE MOMENT
-------------

Method             : SCF
Type of density    : Electron Density
Multiplicity       :   1
Irrep              :   0
Energy             :  -272.9139402416350890 Eh
Relativity type    :
Basis              : AO
                                X                 Y                 Z
Electronic contribution:     -3.678177969       2.932719991       0.693749569
Nuclear contribution   :      4.582397771      -2.790278260      -0.781248550
                        -----------------------------------------
Total Dipole Moment    :      0.904219801       0.142441732      -0.087498981
                        -----------------------------------------
Magnitude (a.u.)       :      0.919542912
Magnitude (Debye)      :      2.337292336

Rotational constants in cm-1:             0.192483             0.066809             0.060457
Rotational constants in MHz :          5770.486744          2002.872395          1812.458142

                             ****ORCA TERMINATED NORMALLY****
TOTAL RUN TIME: 0 days 0 hours 0 minutes 26 seconds 938 msec
