                         Program Version 6.0.0  -   RELEASE  -
|  1> ! r2scan-3c def2/J RI DEFGRID2 scfconv6 printgap
|  2> %output
|  3>     printlevel normal
|  4> end
|  5> * xyz 0 1
|  6> C -1.050006138 -0.1775698988 0.7224248258
|  7> C 0.2438124953 0.562078528 0.3267582665
|  8> C 1.1490502172 -0.3613086494 -0.4988283704
|  9> O 1.6533246201 -1.3635791392 0.3552534115
| 10> O -0.0313384 1.7598344074 -0.3633798641
| 11> O -1.9021533407 -0.3824999196 -0.3837951319
| 12> H -1.5654144898 0.3776346983 1.5121108174
| 13> H -0.7760253543 -1.1641687131 1.1001246653
| 14> H 0.7753562504 0.8497582885 1.2384105116
| 15> H 1.9650986638 0.2365059411 -0.9259532967
| 16> H 0.5549682094 -0.8025371361 -1.3111240633
| 17> H 2.2046834004 -1.9711429617 -0.1570746519
| 18> H -0.42676972 1.5366351944 -1.219795874
| 19> H -2.370221497 0.4425175265 -0.573675345
| 20> *
| 21>
| 22>                          ****END OF INPUT****

CARTESIAN COORDINATES (ANGSTROEM)
---------------------------------
  C     -1.050006   -0.177570    0.722425
  C      0.243812    0.562079    0.326758
  C      1.149050   -0.361309   -0.498828
  O      1.653325   -1.363579    0.355253
  O     -0.031338    1.759834   -0.363380
  O     -1.902153   -0.382500   -0.383795
  H     -1.565414    0.377635    1.512111
  H     -0.776025   -1.164169    1.100125
  H      0.775356    0.849758    1.238411
  H      1.965099    0.236506   -0.925953
  H      0.554968   -0.802537   -1.311124
  H      2.204683   -1.971143   -0.157075
  H     -0.426770    1.536635   -1.219796
  H     -2.370221    0.442518   -0.573675

 Total Charge           Charge          ....    0
 Multiplicity           Mult            ....    1
 Number of Electrons    NEL             ....   50
 Basis Dimension        Dim             ....  169

ORBITAL ENERGIES
----------------

  NO   OCC          E(Eh)            E(eV)
   0   2.0000     -18.959548      -515.9155
   1   2.0000     -18.958828      -515.8959
   2   2.0000     -18.956610      -515.8356
   3   2.0000     -10.083008      -274.3726
   4   2.0000     -10.077542      -274.2239
   5   2.0000     -10.074103      -274.1303
   6   2.0000      -1.008995       -27.4562
   7   2.0000      -0.991814       -26.9886
   8   2.0000      -0.983417       -26.7601
   9   2.0000      -0.724427       -19.7127
  10   2.0000      -0.643527       -17.5113
  11   2.0000      -0.575322       -15.6553
  12   2.0000      -0.497724       -13.5438
  13   2.0000      -0.479583       -13.0501
  14   2.0000      -0.470300       -12.7975
  15   2.0000      -0.435875       -11.8608
  16   2.0000      -0.410944       -11.1824
  17   2.0000      -0.387998       -10.5580
  18   2.0000      -0.363252        -9.8846
  19   2.0000      -0.331275        -9.0144
  20   2.0000      -0.318054        -8.6547
  21   2.0000      -0.286590        -7.7985
  22   2.0000      -0.271809        -7.3963
  23   2.0000      -0.243319        -6.6210
  24   2.0000      -0.231374        -6.2960
  25   0.0000       0.029857         0.8124
  26   0.0000       0.053502         1.4559
  27   0.0000       0.097061         2.6412
  28   0.0000       0.116435         3.1684
  29   0.0000       0.126779         3.4498

MULLIKEN ATOMIC CHARGES
-----------------------
   0 C :   -0.196593
   1 C :    0.086614
   2 C :   -0.193597
   3 O :   -0.440446
   4 O :   -0.428388
   5 O :   -0.445376
   6 H :    0.140665
   7 H :    0.160071
   8 H :    0.142967
   9 H :    0.136559
  10 H :    0.141616
  11 H :    0.298241
  12 H :    0.294743
  13 H :    0.302922
Sum of atomic charges:    0.0000000

LOEWDIN ATOMIC CHARGES
----------------------
   0 C :    0.022970
   1 C :    0.079185
   2 C :    0.025423
   3 O :   -0.623758
   4 O :   -0.584256
   5 O :   -0.608544
   6 H :    0.163662
   7 H :    0.192622
   8 H :    0.192905
   9 H :    0.164804
  10 H :    0.167207
  11 H :    0.269987
  12 H :    0.271270
  13 H :    0.266523

  Mayer bond orders larger than 0.100000
B(  0-C ,  1-C ) :   0.9185 B(  0-C ,  5-O ) :   0.9844 B(  0-C ,  6-H ) :   0.9789
B(  0-C ,  7-H ) :   0.9650 B(  1-C ,  2-C ) :   0.9735 B(  1-C ,  4-O ) :   0.9487
B(  1-C ,  8-H ) :   0.9336 B(  2-C ,  3-O ) :   0.9397 B(  2-C ,  9-H ) :   0.9628
B(  2-C , 10-H ) :   0.9556 B(  3-O , 11-H ) :   0.8967 B(  4-O , 12-H ) :   0.8848
B(  5-O , 13-H ) :   0.8902

Dispersion correction           -0.003041947
FINAL SINGLE POINT ENERGY      -344.722392803740

DIPOLE MOMENT
-------------

Method             : SCF
Type of density    : Electron Density
Multiplicity       :   1
Irrep              :   0
Energy             :  -344.7298204552920993 Eh
Relativity type    :
Basis              : AO
                                X                 Y                 Z
Electronic contribution:     -0.257651626       0.396079199      -0.157737868
Nuclear contribution   :      0.335153435      -0.464001239      -0.321963630
                        -----------------------------------------
Total Dipole Moment    :      0.077501808      -0.067922040      -0.479701498
                        -----------------------------------------
Magnitude (a.u.)       :      0.490645963
Magnitude (Debye)      :      1.247122927

Rotational constants in cm-1:             0.155745             0.089097             0.067577
Rotational constants in MHz :          4669.118398          2671.061355          2025.908143

                             ****ORCA TERMINATED NORMALLY****
TOTAL RUN TIME: 0 days 0 hours 0 minutes 20 seconds 975 msec
