                         Program Version 6.0.0  -   RELEASE  -
|  1> ! r2scan-3c def2/J RI DEFGRID2 scfconv6 printgap
|  2> %output
|  3>     printlevel normal
|  4> end
|  5> %cpcm
|  6>     smd true
|  7>     smdsolvent "water"
|  8> end
|  9> * xyz 0 1
| 10> C -1.050006138 -0.1775698988 0.7224248258
| 11> C 0.2438124953 0.562078528 0.3267582665
| 12> C 1.1490502172 -0.3613086494 -0.4988283704
| 13> O 1.6533246201 -1.3635791392 0.3552534115
| 14> O -0.0313384 1.7598344074 -0.3633798641
| 15> O -1.9021533407 -0.3824999196 -0.3837951319
| 16> H -1.5654144898 0.3776346983 1.5121108174
| 17> H -0.7760253543 -1.1641687131 1.1001246653
| 18> H 0.7753562504 0.8497582885 1.2384105116
| 19> H 1.9650986638 0.2365059411 -0.9259532967
| 20> H 0.5549682094 -0.8025371361 -1.3111240633
| 21> H 2.2046834004 -1.9711429617 -0.1570746519
| 22> H -0.42676972 1.5366351944 -1.219795874
| 23> H -2.370221497 0.4425175265 -0.573675345
| 24> *
| 25>
| 26>                          ****END OF INPUT****

CARTESIAN COORDINATES (ANGSTROEM)
---------------------------------
  C     -1.050006   -0.177570    0.722425
  C      0.243812    0.562079    0.326758
  C      1.149050   -0.361309   -0.498828
  O      1.653325   -1.363579    0.355253
  O     -0.031338    1.759834   -0.363380
  O     -1.902153   -0.382500   -0.383795
  H     -1.565414    0.377635    1.512111
  H     -0.776025   -1.164169    1.100125
  H      0.775356    0.849758    1.238411
  H      1.965099    0.236506   -0.925953
  H      0.554968   -0.802537   -1.311124
  H      2.204683   -1.971143   -0.157075
  H     -0.426770    1.536635   -1.219796
  H     -2.370221    0.442518   -0.573675

 Total Charge           Charge          ....    0
 Multiplicity           Mult            ....    1
 Number of Electrons    NEL             ....   50
 Basis Dimension        Dim             ....  169

ORBITAL ENERGIES
----------------

  NO   OCC          E(Eh)            E(eV)
   0   2.0000     -18.958688      -515.8921
   1   2.0000     -18.956296      -515.8270
   2   2.0000     -18.954585      -515.7805
   3   2.0000     -10.078689      -274.2551
   4   2.0000     -10.070439      -274.0306
   5   2.0000     -10.069458      -274.0039
   6   2.0000      -1.006543       -27.3894
   7   2.0000      -0.988874       -26.9086
   8   2.0000      -0.981395       -26.7051
   9   2.0000      -0.719793       -19.5866
  10   2.0000      -0.637782       -17.3549
  11   2.0000      -0.570576       -15.5262
  12   2.0000      -0.491792       -13.3823
  13   2.0000      -0.474252       -12.9051
  14   2.0000      -0.465954       -12.6793
  15   2.0000      -0.432089       -11.7577
  16   2.0000      -0.409315       -11.1380
  17   2.0000      -0.385666       -10.4945
  18   2.0000      -0.360771        -9.8171
  19   2.0000      -0.333931        -9.0867
  20   2.0000      -0.318777        -8.6744
  21   2.0000      -0.285257        -7.7622
  22   2.0000      -0.273068        -7.4306
  23   2.0000      -0.243140        -6.6162
  24   2.0000      -0.230509        -6.2725
  25   0.0000       0.047206         1.2845
  26   0.0000       0.070699         1.9238
  27   0.0000       0.120827         3.2879
  28   0.0000       0.123108         3.3500
  29   0.0000       0.137351         3.7375

MULLIKEN ATOMIC CHARGES
-----------------------
   0 C :   -0.201203
   1 C :    0.080079
   2 C :   -0.190972
   3 O :   -0.513067
   4 O :   -0.499377
   5 O :   -0.508240
   6 H :    0.159812
   7 H :    0.159161
   8 H :    0.157558
   9 H :    0.147582
  10 H :    0.151858
  11 H :    0.350947
  12 H :    0.350549
  13 H :    0.355312
Sum of atomic charges:    0.0000000

LOEWDIN ATOMIC CHARGES
----------------------
   0 C :    0.021639
   1 C :    0.074961
   2 C :    0.030581
   3 O :   -0.651478
   4 O :   -0.610461
   5 O :   -0.634081
   6 H :    0.172350
   7 H :    0.191136
   8 H :    0.196333
   9 H :    0.170970
  10 H :    0.172782
  11 H :    0.288717
  12 H :    0.290524
  13 H :    0.286027

  Mayer bond orders larger than 0.100000
B(  0-C ,  1-C ) :   0.9235 B(  0-C ,  5-O ) :   0.9758 B(  0-C ,  6-H ) :   0.9685
B(  0-C ,  7-H ) :   0.9660 B(  1-C ,  2-C ) :   0.9543 B(  1-C ,  4-O ) :   0.9355
B(  1-C ,  8-H ) :   0.9357 B(  2-C ,  3-O ) :   0.9280 B(  2-C ,  9-H ) :   0.9639
B(  2-C , 10-H ) :   0.9579 B(  3-O , 11-H ) :   0.8696 B(  4-O , 12-H ) :   0.8588
B(  5-O , 13-H ) :   0.8637

Dispersion correction           -0.003041947
FINAL SINGLE POINT ENERGY      -344.743566745044

DIPOLE MOMENT
-------------

Method             : SCF
Type of density    : Electron Density
Multiplicity       :   1
Irrep              :   0
Energy             :  -344.7509943965955586 Eh
Relativity type    :
Basis              : AO
                                X                 Y                 Z
Electronic contribution:     -0.268137270       0.441449503      -0.389567476
Nuclear contribution   :      0.335153435      -0.464001239      -0.321963630
                        -----------------------------------------
Total Dipole Moment    :      0.067016165      -0.022551736      -0.711531106
                        -----------------------------------------
Magnitude (a.u.)       :      0.715035847
Magnitude (Debye)      :      1.817476685

Rotational constants in cm-1:             0.155745             0.089097             0.067577
Rotational constants in MHz :          4669.118398          2671.061355          2025.908143

                             ****ORCA TERMINATED NORMALLY****
TOTAL RUN TIME: 0 days 0 hours 0 minutes 23 seconds 382 msec
