                         Program Version 6.0.0  -   RELEASE  -
|  1> ! pbe def2-sv(p) def2/J RI DEFGRID1 loosescf d4 GCP(DFT/SV(P)) printgap
|  2> %output
|  3>     printlevel normal
|  4> end
|  5> * xyz 0 1
|  6> C -2.5215131576 0.54462682 -0.8132223276
|  7> C -1.8822814266 -0.4985065722 0.0958868633
|  8> C -0.8356281929 0.1183368452 1.0202362127
|  9> O 0.2628012487 0.6634345234 0.2756494024
| 10> C 1.2810243336 -0.1332927257 -0.0270018116
| 11> O 1.3489440878 -1.2961250909 0.3167198185
| 12> C 2.3206340556 0.583606172 -0.8353454423
| 13> H -3.0500737455 1.2879258349 -0.2219490833
| 14> H -1.7602279774 1.050532882 -1.4019713835
| 15> H -3.2277293387 0.0722203665 -1.4901578774
| 16> H -1.4019593501 -1.276390731 -0.5021011001
| 17> H -2.6425312138 -0.9719424356 0.7173889643
| 18> H -1.2479825189 0.9651694446 1.570140473
| 19> H -0.4475832457 -0.634796308 1.7130506161
| 20> H 2.1517174927 1.6538913097 -0.7908935515
| 21> H 2.2505850427 0.2441714079 -1.8664995006
| 22> H 3.3079504723 0.3264129096 -0.4634299558
| 23> *
| 24>
| 25>                          ****END OF INPUT****

CARTESIAN COORDINATES (ANGSTROEM)
---------------------------------
  C     -2.521513    0.544627   -0.813222
  C     -1.882281   -0.498507    0.095887
  C     -0.835628    0.118337    1.020236
  O      0.262801    0.663435    0.275649
  C      1.281024   -0.133293   -0.027002
  O      1.348944   -1.296125    0.316720
  C      2.320634    0.583606   -0.835345
  H     -3.050074    1.287926   -0.221949
  H     -1.760228    1.050533   -1.401971
  H     -3.227729    0.072220   -1.490158
  H     -1.401959   -1.276391   -0.502101
  H     -2.642531   -0.971942    0.717389
  H     -1.247983    0.965169    1.570140
  H     -0.447583   -0.634796    1.713051
  H      2.151717    1.653891   -0.790894
  H      2.250585    0.244171   -1.866500
  H      3.307950    0.326413   -0.463430

 Total Charge           Charge          ....    0
 Multiplicity           Mult            ....    1
 Number of Electrons    NEL             ....   56
 Basis Dimension        Dim             ....  118

ORBITAL ENERGIES
----------------

  NO   OCC          E(Eh)            E(eV)
   0   2.0000     -18.797801      -511.5142
   1   2.0000     -18.729688      -509.6607
   2   2.0000     -10.008013      -272.3319
   3   2.0000      -9.942733      -270.5555
   4   2.0000      -9.894056      -269.2310
   5   2.0000      -9.893498      -269.2158
   6   2.0000      -9.879810      -268.8433
   7   2.0000      -1.004551       -27.3352
   8   2.0000      -0.907680       -24.6992
   9   2.0000      -0.722892       -19.6709
  10   2.0000      -0.677847       -18.4452
  11   2.0000      -0.622360       -16.9353
  12   2.0000      -0.557611       -15.1734
  13   2.0000      -0.487860       -13.2753
  14   2.0000      -0.447891       -12.1877
  15   2.0000      -0.433787       -11.8039
  16   2.0000      -0.418300       -11.3825
  17   2.0000      -0.397613       -10.8196
  18   2.0000      -0.392033       -10.6678
  19   2.0000      -0.365232        -9.9385
  20   2.0000      -0.357004        -9.7146
  21   2.0000      -0.341996        -9.3062
  22   2.0000      -0.330223        -8.9858
  23   2.0000      -0.309846        -8.4313
  24   2.0000      -0.303832        -8.2677
  25   2.0000      -0.286891        -7.8067
  26   2.0000      -0.253648        -6.9021
  27   2.0000      -0.217126        -5.9083
  28   0.0000      -0.019661        -0.5350
  29   0.0000       0.039291         1.0692
  30   0.0000       0.057325         1.5599
  31   0.0000       0.077303         2.1035
  32   0.0000       0.083476         2.2715

MULLIKEN ATOMIC CHARGES
-----------------------
   0 C :   -0.283240
   1 C :   -0.211288
   2 C :    0.013911
   3 O :   -0.240131
   4 C :    0.082433
   5 O :   -0.215019
   6 C :   -0.250599
   7 H :    0.097094
   8 H :    0.108109
   9 H :    0.108891
  10 H :    0.108951
  11 H :    0.097213
  12 H :    0.092530
  13 H :    0.107508
  14 H :    0.117812
  15 H :    0.135184
  16 H :    0.130640
Sum of atomic charges:   -0.0000000

LOEWDIN ATOMIC CHARGES
----------------------
   0 C :   -0.343700
   1 C :   -0.248462
   2 C :   -0.107722
   3 O :   -0.067385
   4 C :    0.029991
   5 O :   -0.176012
   6 C :   -0.359639
   7 H :    0.117144
   8 H :    0.119349
   9 H :    0.121327
  10 H :    0.126431
  11 H :    0.125279
  12 H :    0.115365
  13 H :    0.119416
  14 H :    0.134583
  15 H :    0.149071
  16 H :    0.144964

  Mayer bond orders larger than 0.100000
B(  0-C ,  1-C ) :   1.1414 B(  0-C ,  7-H ) :   0.9557 B(  0-C ,  8-H ) :   0.9541
B(  0-C ,  9-H ) :   0.9544 B(  1-C ,  2-C ) :   1.1311 B(  1-C , 10-H ) :   0.9205
B(  1-C , 11-H ) :   0.9217 B(  2-C ,  3-O ) :   0.9232 B(  2-C , 12-H ) :   0.9317
B(  2-C , 13-H ) :   0.9077 B(  3-O ,  4-C ) :   1.2076 B(  4-C ,  5-O ) :   2.0397
B(  4-C ,  6-C ) :   1.0813 B(  6-C , 14-H ) :   0.9376 B(  6-C , 15-H ) :   0.9270
B(  6-C , 16-H ) :   0.9343

Dispersion correction           -0.012091991
FINAL SINGLE POINT ENERGY      -346.244389186094

DIPOLE MOMENT
-------------

Method             : SCF
Type of density    : Electron Density
Multiplicity       :   1
Irrep              :   0
Energy             :  -346.3092997965025575 Eh
Relativity type    :
Basis              : AO
                                X                 Y                 Z
Electronic contribution:      5.319959497      -1.952640830       2.414735124
Nuclear contribution   :     -5.668747212       2.539802560      -2.558439185
                        -----------------------------------------
Total Dipole Moment    :     -0.348787715       0.587161729      -0.143704061
                        -----------------------------------------
Magnitude (a.u.)       :      0.697898720
Magnitude (Debye)      :      1.773917572

Rotational constants in cm-1:             0.168288             0.051153             0.046095
Rotational constants in MHz :          5045.143610          1533.532967          1381.893752

                             ****ORCA TERMINATED NORMALLY****
TOTAL RUN TIME: 0 days 0 hours 0 minutes 9 seconds 39 msec
