                         Program Version 6.0.0  -   RELEASE  -
|  1> ! r2scan-3c def2/J RI DEFGRID2 scfconv6 printgap
|  2> %output
|  3>     printlevel normal
|  4> end
|  5> * xyz 0 1
|  6> C -2.8506864758 0.42687586 -0.1527473175
|  7> C -1.4418075986 0.2801362118 0.4086991632
|  8> C -0.6600317676 -0.8129830336 -0.3178801248
|  9> C 0.7410122556 -1.0017701563 0.2335619269
| 10> Cl 1.7627183494 0.4507687028 -0.0687556465
| 11> H -2.8155021852 0.6868688822 -1.2081111962
| 12> H -3.402013929 -0.5043805255 -0.0467035774
| 13> H -3.3904893986 1.2087240233 0.3750398005
| 14> H -1.4966839683 0.0378569458 1.4720283112
| 15> H -0.9096314402 1.2283622466 0.3105254095
| 16> H -1.1839397759 -1.7651190532 -0.2104191337
| 17> H -0.6041286809 -0.5759997086 -1.3817410479
| 18> H 1.2543366198 -1.8301663667 -0.2506238829
| 19> H 0.7317171385 -1.1413507978 1.313185217
| 20> *
| 21>
| 22>                          ****END OF INPUT****

CARTESIAN COORDINATES (ANGSTROEM)
---------------------------------
  C     -2.850686    0.426876   -0.152747
  C     -1.441808    0.280136    0.408699
  C     -0.660032   -0.812983   -0.317880
  C      0.741012   -1.001770    0.233562
  Cl     1.762718    0.450769   -0.068756
  H     -2.815502    0.686869   -1.208111
  H     -3.402014   -0.504381   -0.046704
  H     -3.390489    1.208724    0.375040
  H     -1.496684    0.037857    1.472028
  H     -0.909631    1.228362    0.310525
  H     -1.183940   -1.765119   -0.210419
  H     -0.604129   -0.576000   -1.381741
  H      1.254337   -1.830166   -0.250624
  H      0.731717   -1.141351    1.313185

 Total Charge           Charge          ....    0
 Multiplicity           Mult            ....    1
 Number of Electrons    NEL             ....   50
 Basis Dimension        Dim             ....  148

ORBITAL ENERGIES
----------------

  NO   OCC          E(Eh)            E(eV)
   0   2.0000    -101.197038     -2753.7114
   1   2.0000     -10.091662      -274.6081
   2   2.0000     -10.041285      -273.2373
   3   2.0000     -10.030258      -272.9372
   4   2.0000     -10.020863      -272.6815
   5   2.0000      -9.353084      -254.5104
   6   2.0000      -7.099232      -193.1799
   7   2.0000      -7.089201      -192.9070
   8   2.0000      -7.089112      -192.9045
   9   2.0000      -0.821794       -22.3622
  10   2.0000      -0.755738       -20.5647
  11   2.0000      -0.685214       -18.6456
  12   2.0000      -0.600001       -16.3269
  13   2.0000      -0.551745       -15.0138
  14   2.0000      -0.452362       -12.3094
  15   2.0000      -0.431112       -11.7312
  16   2.0000      -0.411834       -11.2066
  17   2.0000      -0.396619       -10.7926
  18   2.0000      -0.363412        -9.8889
  19   2.0000      -0.343238        -9.3400
  20   2.0000      -0.322752        -8.7825
  21   2.0000      -0.311075        -8.4648
  22   2.0000      -0.305134        -8.3031
  23   2.0000      -0.264060        -7.1854
  24   2.0000      -0.260918        -7.0999
  25   0.0000       0.009220         0.2509
  26   0.0000       0.093858         2.5540
  27   0.0000       0.101009         2.7486
  28   0.0000       0.127043         3.4570
  29   0.0000       0.134522         3.6605

MULLIKEN ATOMIC CHARGES
-----------------------
   0 C :   -0.460225
   1 C :   -0.244778
   2 C :   -0.270962
   3 C :   -0.139788
   4 Cl:   -0.212952
   5 H :    0.143068
   6 H :    0.138203
   7 H :    0.149324
   8 H :    0.132583
   9 H :    0.159359
  10 H :    0.140015
  11 H :    0.152314
  12 H :    0.163856
  13 H :    0.149983
Sum of atomic charges:   -0.0000000

LOEWDIN ATOMIC CHARGES
----------------------
   0 C :   -0.422760
   1 C :   -0.323213
   2 C :   -0.329918
   3 C :   -0.317258
   4 Cl:   -0.009448
   5 H :    0.150891
   6 H :    0.148649
   7 H :    0.152162
   8 H :    0.151220
   9 H :    0.160028
  10 H :    0.161548
  11 H :    0.162763
  12 H :    0.157459
  13 H :    0.157876

  Mayer bond orders larger than 0.100000
B(  0-C ,  1-C ) :   0.9065 B(  0-C ,  5-H ) :   0.9816 B(  0-C ,  6-H ) :   0.9824
B(  0-C ,  7-H ) :   0.9746 B(  1-C ,  2-C ) :   0.9354 B(  1-C ,  8-H ) :   0.9670
B(  1-C ,  9-H ) :   0.9626 B(  2-C ,  3-C ) :   0.9402 B(  2-C , 10-H ) :   0.9531
B(  2-C , 11-H ) :   0.9662 B(  3-C ,  4-Cl) :   0.9641 B(  3-C , 12-H ) :   0.9594
B(  3-C , 13-H ) :   0.9657

Dispersion correction           -0.003256280
FINAL SINGLE POINT ENERGY      -617.969580223341

DIPOLE MOMENT
-------------

Method             : SCF
Type of density    : Electron Density
Multiplicity       :   1
Irrep              :   0
Energy             :  -617.9752453109628050 Eh
Relativity type    :
Basis              : AO
                                X                 Y                 Z
Electronic contribution:     12.865799700       2.503057753      -0.332352759
Nuclear contribution   :    -13.451610507      -3.096042862       0.442388078
                        -----------------------------------------
Total Dipole Moment    :     -0.585810807      -0.592985109       0.110035319
                        -----------------------------------------
Magnitude (a.u.)       :      0.840781429
Magnitude (Debye)      :      2.137096555

Rotational constants in cm-1:             0.310975             0.057184             0.051866
Rotational constants in MHz :          9322.809701          1714.346455          1554.905376

                             ****ORCA TERMINATED NORMALLY****
TOTAL RUN TIME: 0 days 0 hours 0 minutes 18 seconds 440 msec
