                         Program Version 6.0.0  -   RELEASE  -
|  1> ! r2scan-3c def2/J RI DEFGRID2 scfconv6 printgap
|  2> %output
|  3>     printlevel normal
|  4> end
|  5> %cpcm
|  6>     smd true
|  7>     smdsolvent "water"
|  8> end
|  9> * xyz 0 1
| 10> C -2.8506864758 0.42687586 -0.1527473175
| 11> C -1.4418075986 0.2801362118 0.4086991632
| 12> C -0.6600317676 -0.8129830336 -0.3178801248
| 13> C 0.7410122556 -1.0017701563 0.2335619269
| 14> Cl 1.7627183494 0.4507687028 -0.0687556465
| 15> H -2.8155021852 0.6868688822 -1.2081111962
| 16> H -3.402013929 -0.5043805255 -0.0467035774
| 17> H -3.3904893986 1.2087240233 0.3750398005
| 18> H -1.4966839683 0.0378569458 1.4720283112
| 19> H -0.9096314402 1.2283622466 0.3105254095
| 20> H -1.1839397759 -1.7651190532 -0.2104191337
| 21> H -0.6041286809 -0.5759997086 -1.3817410479
| 22> H 1.2543366198 -1.8301663667 -0.2506238829
| 23> H 0.7317171385 -1.1413507978 1.313185217
| 24> *
| 25>
| 26>                          ****END OF INPUT****

CARTESIAN COORDINATES (ANGSTROEM)
---------------------------------
  C     -2.850686    0.426876   -0.152747
  C     -1.441808    0.280136    0.408699
  C     -0.660032   -0.812983   -0.317880
  C      0.741012   -1.001770    0.233562
  Cl     1.762718    0.450769   -0.068756
  H     -2.815502    0.686869   -1.208111
  H     -3.402014   -0.504381   -0.046704
  H     -3.390489    1.208724    0.375040
  H     -1.496684    0.037857    1.472028
  H     -0.909631    1.228362    0.310525
  H     -1.183940   -1.765119   -0.210419
  H     -0.604129   -0.576000   -1.381741
  H      1.254337   -1.830166   -0.250624
  H      0.731717   -1.141351    1.313185

 Total Charge           Charge          ....    0
 Multiplicity           Mult            ....    1
 Number of Electrons    NEL             ....   50
 Basis Dimension        Dim             ....  148

ORBITAL ENERGIES
----------------

  NO   OCC          E(Eh)            E(eV)
   0   2.0000    -101.197402     -2753.7213
   1   2.0000     -10.080280      -274.2984
   2   2.0000     -10.027044      -272.8497
   3   2.0000     -10.018475      -272.6166
   4   2.0000     -10.008459      -272.3440
   5   2.0000      -9.353843      -254.5310
   6   2.0000      -7.099580      -193.1894
   7   2.0000      -7.090129      -192.9322
   8   2.0000      -7.090042      -192.9299
   9   2.0000      -0.817061       -22.2333
  10   2.0000      -0.745808       -20.2945
  11   2.0000      -0.674850       -18.3636
  12   2.0000      -0.588832       -16.0229
  13   2.0000      -0.539391       -14.6776
  14   2.0000      -0.440151       -11.9771
  15   2.0000      -0.419001       -11.4016
  16   2.0000      -0.400292       -10.8925
  17   2.0000      -0.388026       -10.5587
  18   2.0000      -0.352681        -9.5969
  19   2.0000      -0.332023        -9.0348
  20   2.0000      -0.312140        -8.4938
  21   2.0000      -0.300402        -8.1744
  22   2.0000      -0.292345        -7.9551
  23   2.0000      -0.264377        -7.1941
  24   2.0000      -0.260028        -7.0757
  25   0.0000       0.014250         0.3878
  26   0.0000       0.107216         2.9175
  27   0.0000       0.113161         3.0793
  28   0.0000       0.137854         3.7512
  29   0.0000       0.146683         3.9914

MULLIKEN ATOMIC CHARGES
-----------------------
   0 C :   -0.502611
   1 C :   -0.255758
   2 C :   -0.277921
   3 C :   -0.156638
   4 Cl:   -0.260989
   5 H :    0.153397
   6 H :    0.152778
   7 H :    0.157393
   8 H :    0.149192
   9 H :    0.151710
  10 H :    0.162997
  11 H :    0.161312
  12 H :    0.188376
  13 H :    0.176762
Sum of atomic charges:   -0.0000000

LOEWDIN ATOMIC CHARGES
----------------------
   0 C :   -0.431148
   1 C :   -0.325638
   2 C :   -0.328370
   3 C :   -0.311342
   4 Cl:   -0.042193
   5 H :    0.152857
   6 H :    0.152647
   7 H :    0.153321
   8 H :    0.155714
   9 H :    0.155182
  10 H :    0.171161
  11 H :    0.164020
  12 H :    0.166623
  13 H :    0.167167

  Mayer bond orders larger than 0.100000
B(  0-C ,  1-C ) :   0.8985 B(  0-C ,  5-H ) :   0.9796 B(  0-C ,  6-H ) :   0.9801
B(  0-C ,  7-H ) :   0.9725 B(  1-C ,  2-C ) :   0.9227 B(  1-C ,  8-H ) :   0.9672
B(  1-C ,  9-H ) :   0.9668 B(  2-C ,  3-C ) :   0.9345 B(  2-C , 10-H ) :   0.9473
B(  2-C , 11-H ) :   0.9689 B(  3-C ,  4-Cl) :   0.9279 B(  3-C , 12-H ) :   0.9525
B(  3-C , 13-H ) :   0.9616

Dispersion correction           -0.003256280
FINAL SINGLE POINT ENERGY      -617.971009589251

DIPOLE MOMENT
-------------

Method             : SCF
Type of density    : Electron Density
Multiplicity       :   1
Irrep              :   0
Energy             :  -617.9766746768724488 Eh
Relativity type    :
Basis              : AO
                                X                 Y                 Z
Electronic contribution:     12.719857614       2.240800841      -0.283150918
Nuclear contribution   :    -13.451610507      -3.096042862       0.442388078
                        -----------------------------------------
Total Dipole Moment    :     -0.731752893      -0.855242020       0.159237160
                        -----------------------------------------
Magnitude (a.u.)       :      1.136775125
Magnitude (Debye)      :      2.889452738

Rotational constants in cm-1:             0.310975             0.057184             0.051866
Rotational constants in MHz :          9322.809701          1714.346455          1554.905376

                             ****ORCA TERMINATED NORMALLY****
TOTAL RUN TIME: 0 days 0 hours 0 minutes 23 seconds 251 msec
