                         Program Version 6.0.0  -   RELEASE  -
|  1> ! r2scan-3c def2/J RI DEFGRID2 scfconv6 printgap
|  2> %output
|  3>     printlevel normal
|  4> end
|  5> * xyz 0 1
|  6> C -1.4498382707 0.1084492482 0.6157532891
|  7> C 0.0593253996 0.3785203594 0.5181456066
|  8> C 0.7974057263 -0.9059049671 0.1028209049
|  9> O 2.1782136691 -0.7183160769 -0.0859709374
| 10> O 0.3276844638 1.4452211127 -0.3596952731
| 11> O -1.9053438049 -0.3238065515 -0.6493367841
| 12> H -1.9500265406 1.0394789923 0.9088467777
| 13> H -1.6300548032 -0.6567443783 1.3799995882
| 14> H 0.42196667 0.7162061914 1.4955657515
| 15> H 0.4092462483 -1.249912232 -0.858491155
| 16> H 0.6097330796 -1.681875798 0.8574917474
| 17> H 2.5601060495 -0.3183928361 0.7077500301
| 18> H -0.0262234108 1.2135498826 -1.2311456256
| 19> H -2.8600296964 -0.4687555001 -0.6155348929
| 20> *
| 21>
| 22>                          ****END OF INPUT****

CARTESIAN COORDINATES (ANGSTROEM)
---------------------------------
  C     -1.449838    0.108449    0.615753
  C      0.059325    0.378520    0.518146
  C      0.797406   -0.905905    0.102821
  O      2.178214   -0.718316   -0.085971
  O      0.327684    1.445221   -0.359695
  O     -1.905344   -0.323807   -0.649337
  H     -1.950027    1.039479    0.908847
  H     -1.630055   -0.656744    1.380000
  H      0.421967    0.716206    1.495566
  H      0.409246   -1.249912   -0.858491
  H      0.609733   -1.681876    0.857492
  H      2.560106   -0.318393    0.707750
  H     -0.026223    1.213550   -1.231146
  H     -2.860030   -0.468756   -0.615535

 Total Charge           Charge          ....    0
 Multiplicity           Mult            ....    1
 Number of Electrons    NEL             ....   50
 Basis Dimension        Dim             ....  169

ORBITAL ENERGIES
----------------

  NO   OCC          E(Eh)            E(eV)
   0   2.0000     -18.965585      -516.0798
   1   2.0000     -18.945638      -515.5370
   2   2.0000     -18.945468      -515.5324
   3   2.0000     -10.087084      -274.4835
   4   2.0000     -10.086256      -274.4610
   5   2.0000     -10.072907      -274.0977
   6   2.0000      -1.008525       -27.4434
   7   2.0000      -0.989681       -26.9306
   8   2.0000      -0.973506       -26.4904
   9   2.0000      -0.727968       -19.8090
  10   2.0000      -0.642311       -17.4782
  11   2.0000      -0.579156       -15.7596
  12   2.0000      -0.504650       -13.7322
  13   2.0000      -0.488806       -13.3011
  14   2.0000      -0.435848       -11.8600
  15   2.0000      -0.428963       -11.6727
  16   2.0000      -0.415588       -11.3087
  17   2.0000      -0.408833       -11.1249
  18   2.0000      -0.361747        -9.8436
  19   2.0000      -0.337335        -9.1793
  20   2.0000      -0.304327        -8.2812
  21   2.0000      -0.296559        -8.0698
  22   2.0000      -0.252963        -6.8835
  23   2.0000      -0.247709        -6.7405
  24   2.0000      -0.224846        -6.1184
  25   0.0000       0.040790         1.1100
  26   0.0000       0.063720         1.7339
  27   0.0000       0.091095         2.4788
  28   0.0000       0.102562         2.7909
  29   0.0000       0.128087         3.4854

MULLIKEN ATOMIC CHARGES
-----------------------
   0 C :   -0.136644
   1 C :   -0.001460
   2 C :   -0.209508
   3 O :   -0.390693
   4 O :   -0.389627
   5 O :   -0.451568
   6 H :    0.136294
   7 H :    0.120375
   8 H :    0.134733
   9 H :    0.162181
  10 H :    0.124205
  11 H :    0.292333
  12 H :    0.309986
  13 H :    0.299393
Sum of atomic charges:   -0.0000000

LOEWDIN ATOMIC CHARGES
----------------------
   0 C :    0.021868
   1 C :    0.065840
   2 C :    0.017226
   3 O :   -0.592320
   4 O :   -0.564741
   5 O :   -0.628725
   6 H :    0.167961
   7 H :    0.161665
   8 H :    0.183765
   9 H :    0.191910
  10 H :    0.160834
  11 H :    0.266053
  12 H :    0.277168
  13 H :    0.271496

  Mayer bond orders larger than 0.100000
B(  0-C ,  1-C ) :   0.9728 B(  0-C ,  5-O ) :   0.9461 B(  0-C ,  6-H ) :   0.9614
B(  0-C ,  7-H ) :   0.9567 B(  1-C ,  2-C ) :   0.9478 B(  1-C ,  4-O ) :   0.9813
B(  1-C ,  8-H ) :   0.9318 B(  2-C ,  3-O ) :   0.9843 B(  2-C ,  9-H ) :   0.9653
B(  2-C , 10-H ) :   0.9671 B(  3-O , 11-H ) :   0.8968 B(  4-O , 12-H ) :   0.8800
B(  5-O , 13-H ) :   0.8989

Dispersion correction           -0.003027449
FINAL SINGLE POINT ENERGY      -344.721361098887

DIPOLE MOMENT
-------------

Method             : SCF
Type of density    : Electron Density
Multiplicity       :   1
Irrep              :   0
Energy             :  -344.7287526567523628 Eh
Relativity type    :
Basis              : AO
                                X                 Y                 Z
Electronic contribution:      1.281066691       1.049322518      -1.716713745
Nuclear contribution   :     -2.303943283      -1.313503340       2.464720559
                        -----------------------------------------
Total Dipole Moment    :     -1.022876591      -0.264180822       0.748006814
                        -----------------------------------------
Magnitude (a.u.)       :      1.294442822
Magnitude (Debye)      :      3.290212177

Rotational constants in cm-1:             0.196223             0.076860             0.066269
Rotational constants in MHz :          5882.603956          2304.201485          1986.690391

                             ****ORCA TERMINATED NORMALLY****
TOTAL RUN TIME: 0 days 0 hours 0 minutes 20 seconds 615 msec
