                         Program Version 6.0.0  -   RELEASE  -
|  1> ! r2scan-3c def2/J RI DEFGRID2 scfconv6 printgap
|  2> %output
|  3>     printlevel normal
|  4> end
|  5> %cpcm
|  6>     smd true
|  7>     smdsolvent "water"
|  8> end
|  9> * xyz 0 1
| 10> C -1.4498382707 0.1084492482 0.6157532891
| 11> C 0.0593253996 0.3785203594 0.5181456066
| 12> C 0.7974057263 -0.9059049671 0.1028209049
| 13> O 2.1782136691 -0.7183160769 -0.0859709374
| 14> O 0.3276844638 1.4452211127 -0.3596952731
| 15> O -1.9053438049 -0.3238065515 -0.6493367841
| 16> H -1.9500265406 1.0394789923 0.9088467777
| 17> H -1.6300548032 -0.6567443783 1.3799995882
| 18> H 0.42196667 0.7162061914 1.4955657515
| 19> H 0.4092462483 -1.249912232 -0.858491155
| 20> H 0.6097330796 -1.681875798 0.8574917474
| 21> H 2.5601060495 -0.3183928361 0.7077500301
| 22> H -0.0262234108 1.2135498826 -1.2311456256
| 23> H -2.8600296964 -0.4687555001 -0.6155348929
| 24> *
| 25>
| 26>                          ****END OF INPUT****

CARTESIAN COORDINATES (ANGSTROEM)
---------------------------------
  C     -1.449838    0.108449    0.615753
  C      0.059325    0.378520    0.518146
  C      0.797406   -0.905905    0.102821
  O      2.178214   -0.718316   -0.085971
  O      0.327684    1.445221   -0.359695
  O     -1.905344   -0.323807   -0.649337
  H     -1.950027    1.039479    0.908847
  H     -1.630055   -0.656744    1.380000
  H      0.421967    0.716206    1.495566
  H      0.409246   -1.249912   -0.858491
  H      0.609733   -1.681876    0.857492
  H      2.560106   -0.318393    0.707750
  H     -0.026223    1.213550   -1.231146
  H     -2.860030   -0.468756   -0.615535

 Total Charge           Charge          ....    0
 Multiplicity           Mult            ....    1
 Number of Electrons    NEL             ....   50
 Basis Dimension        Dim             ....  169

ORBITAL ENERGIES
----------------

  NO   OCC          E(Eh)            E(eV)
   0   2.0000     -18.954835      -515.7873
   1   2.0000     -18.954363      -515.7744
   2   2.0000     -18.953401      -515.7483
   3   2.0000     -10.080603      -274.3072
   4   2.0000     -10.072857      -274.0964
   5   2.0000     -10.070081      -274.0208
   6   2.0000      -1.006758       -27.3953
   7   2.0000      -0.989036       -26.9130
   8   2.0000      -0.978540       -26.6274
   9   2.0000      -0.721306       -19.6277
  10   2.0000      -0.636502       -17.3201
  11   2.0000      -0.575118       -15.6497
  12   2.0000      -0.495324       -13.4785
  13   2.0000      -0.486015       -13.2251
  14   2.0000      -0.433563       -11.7978
  15   2.0000      -0.424521       -11.5518
  16   2.0000      -0.412614       -11.2278
  17   2.0000      -0.405197       -11.0260
  18   2.0000      -0.363593        -9.8939
  19   2.0000      -0.336596        -9.1592
  20   2.0000      -0.308197        -8.3865
  21   2.0000      -0.298406        -8.1200
  22   2.0000      -0.258144        -7.0244
  23   2.0000      -0.244694        -6.6585
  24   2.0000      -0.232192        -6.3183
  25   0.0000       0.060318         1.6413
  26   0.0000       0.076343         2.0774
  27   0.0000       0.109706         2.9853
  28   0.0000       0.114300         3.1103
  29   0.0000       0.139130         3.7859

MULLIKEN ATOMIC CHARGES
-----------------------
   0 C :   -0.156460
   1 C :    0.033136
   2 C :   -0.218039
   3 O :   -0.491873
   4 O :   -0.482604
   5 O :   -0.515344
   6 H :    0.150656
   7 H :    0.148076
   8 H :    0.164846
   9 H :    0.166050
  10 H :    0.149026
  11 H :    0.351914
  12 H :    0.351484
  13 H :    0.349132
Sum of atomic charges:   -0.0000000

LOEWDIN ATOMIC CHARGES
----------------------
   0 C :    0.029713
   1 C :    0.069709
   2 C :    0.017773
   3 O :   -0.632875
   4 O :   -0.606805
   5 O :   -0.650753
   6 H :    0.173534
   7 H :    0.174383
   8 H :    0.196664
   9 H :    0.191164
  10 H :    0.173741
  11 H :    0.285520
  12 H :    0.289221
  13 H :    0.289012

  Mayer bond orders larger than 0.100000
B(  0-C ,  1-C ) :   0.9626 B(  0-C ,  5-O ) :   0.9316 B(  0-C ,  6-H ) :   0.9609
B(  0-C ,  7-H ) :   0.9573 B(  1-C ,  2-C ) :   0.9415 B(  1-C ,  4-O ) :   0.9489
B(  1-C ,  8-H ) :   0.9280 B(  2-C ,  3-O ) :   0.9686 B(  2-C ,  9-H ) :   0.9687
B(  2-C , 10-H ) :   0.9589 B(  3-O , 11-H ) :   0.8668 B(  4-O , 12-H ) :   0.8580
B(  5-O , 13-H ) :   0.8732

Dispersion correction           -0.003027449
FINAL SINGLE POINT ENERGY      -344.744370404665

DIPOLE MOMENT
-------------

Method             : SCF
Type of density    : Electron Density
Multiplicity       :   1
Irrep              :   0
Energy             :  -344.7517619625300540 Eh
Relativity type    :
Basis              : AO
                                X                 Y                 Z
Electronic contribution:      0.938777951       0.915295169      -1.318755367
Nuclear contribution   :     -2.303943283      -1.313503340       2.464720559
                        -----------------------------------------
Total Dipole Moment    :     -1.365165332      -0.398208171       1.145965192
                        -----------------------------------------
Magnitude (a.u.)       :      1.826330297
Magnitude (Debye)      :      4.642162695

Rotational constants in cm-1:             0.196223             0.076860             0.066269
Rotational constants in MHz :          5882.603956          2304.201485          1986.690391

                             ****ORCA TERMINATED NORMALLY****
TOTAL RUN TIME: 0 days 0 hours 0 minutes 23 seconds 120 msec
