                         Program Version 6.0.0  -   RELEASE  -
|  1> ! r2scan-3c def2/J RI DEFGRID2 scfconv6 printgap
|  2> %output
|  3>     printlevel normal
|  4> end
|  5> * xyz 0 1
|  6> C -1.7773290812 -1.1536450597 0.1869755782
|  7> C -1.5005300641 0.1865067139 -0.4657993126
|  8> S 0.0178932638 1.0028481919 0.1471842132
|  9> C 1.333486557 -0.074704146 -0.540713722
| 10> C 1.9047410716 -1.0279320985 0.4923784699
| 11> H -1.7838514436 -1.0504526324 1.2695054991
| 12> H -2.748859712 -1.5211376641 -0.135821473
| 13> H -1.0234235348 -1.8858781229 -0.0918546398
| 14> H -2.288304058 0.9025171429 -0.2345790362
| 15> H -1.4056141859 0.0990021692 -1.5482417801
| 16> H 0.8988469475 -0.6029492784 -1.3873847174
| 17> H 2.1028249621 0.6073597416 -0.9016358471
| 18> H 2.3205141343 -0.4681716084 1.3265812372
| 19> H 1.1364791375 -1.6935564683 0.8769628599
| 20> H 2.6944177486 -1.625847383 0.0426814256
| 21> *
| 22>
| 23>                          ****END OF INPUT****

CARTESIAN COORDINATES (ANGSTROEM)
---------------------------------
  C     -1.777329   -1.153645    0.186976
  C     -1.500530    0.186507   -0.465799
  S      0.017893    1.002848    0.147184
  C      1.333487   -0.074704   -0.540714
  C      1.904741   -1.027932    0.492378
  H     -1.783851   -1.050453    1.269505
  H     -2.748860   -1.521138   -0.135821
  H     -1.023424   -1.885878   -0.091855
  H     -2.288304    0.902517   -0.234579
  H     -1.405614    0.099002   -1.548242
  H      0.898847   -0.602949   -1.387385
  H      2.102825    0.607360   -0.901636
  H      2.320514   -0.468172    1.326581
  H      1.136479   -1.693556    0.876963
  H      2.694418   -1.625847    0.042681

 Total Charge           Charge          ....    0
 Multiplicity           Mult            ....    1
 Number of Electrons    NEL             ....   50
 Basis Dimension        Dim             ....  153

ORBITAL ENERGIES
----------------

  NO   OCC          E(Eh)            E(eV)
   0   2.0000     -88.539571     -2409.2842
   1   2.0000     -10.060819      -273.7688
   2   2.0000     -10.059690      -273.7381
   3   2.0000     -10.026274      -272.8288
   4   2.0000     -10.023564      -272.7550
   5   2.0000      -7.833628      -213.1638
   6   2.0000      -5.781200      -157.3144
   7   2.0000      -5.777334      -157.2093
   8   2.0000      -5.770210      -157.0154
   9   2.0000      -0.778011       -21.1707
  10   2.0000      -0.732324       -19.9276
  11   2.0000      -0.655898       -17.8479
  12   2.0000      -0.590913       -16.0796
  13   2.0000      -0.536891       -14.6096
  14   2.0000      -0.443946       -12.0804
  15   2.0000      -0.425311       -11.5733
  16   2.0000      -0.398068       -10.8320
  17   2.0000      -0.390712       -10.6318
  18   2.0000      -0.357464        -9.7271
  19   2.0000      -0.355894        -9.6844
  20   2.0000      -0.338714        -9.2169
  21   2.0000      -0.329667        -8.9707
  22   2.0000      -0.300671        -8.1817
  23   2.0000      -0.269450        -7.3321
  24   2.0000      -0.188680        -5.1342
  25   0.0000       0.024208         0.6587
  26   0.0000       0.048549         1.3211
  27   0.0000       0.084132         2.2894
  28   0.0000       0.110550         3.0082
  29   0.0000       0.120993         3.2924

MULLIKEN ATOMIC CHARGES
-----------------------
   0 C :   -0.441415
   1 C :   -0.249751
   2 S :   -0.141176
   3 C :   -0.238341
   4 C :   -0.426498
   5 H :    0.161957
   6 H :    0.140573
   7 H :    0.142838
   8 H :    0.152210
   9 H :    0.157045
  10 H :    0.143328
  11 H :    0.161726
  12 H :    0.151423
  13 H :    0.146459
  14 H :    0.139622
Sum of atomic charges:    0.0000000

LOEWDIN ATOMIC CHARGES
----------------------
   0 C :   -0.432073
   1 C :   -0.365522
   2 S :    0.024477
   3 C :   -0.362159
   4 C :   -0.432426
   5 H :    0.158056
   6 H :    0.151035
   7 H :    0.149820
   8 H :    0.167940
   9 H :    0.157760
  10 H :    0.161345
  11 H :    0.164859
  12 H :    0.155388
  13 H :    0.152305
  14 H :    0.149195

  Mayer bond orders larger than 0.100000
B(  0-C ,  1-C ) :   0.8767 B(  0-C ,  5-H ) :   0.9745 B(  0-C ,  6-H ) :   0.9582
B(  0-C ,  7-H ) :   0.9776 B(  1-C ,  2-S ) :   0.9779 B(  1-C ,  8-H ) :   0.9482
B(  1-C ,  9-H ) :   0.9662 B(  2-S ,  3-C ) :   0.9095 B(  3-C ,  4-C ) :   0.9049
B(  3-C , 10-H ) :   0.9485 B(  3-C , 11-H ) :   0.9505 B(  4-C , 12-H ) :   0.9767
B(  4-C , 13-H ) :   0.9715 B(  4-C , 14-H ) :   0.9651

Dispersion correction           -0.003720622
FINAL SINGLE POINT ENERGY      -556.553446384029

DIPOLE MOMENT
-------------

Method             : SCF
Type of density    : Electron Density
Multiplicity       :   1
Irrep              :   0
Energy             :  -556.5604681896256807 Eh
Relativity type    :
Basis              : AO
                                X                 Y                 Z
Electronic contribution:      0.014299845       6.214463798       0.394087278
Nuclear contribution   :     -0.091482403      -6.819998765      -0.739504005
                        -----------------------------------------
Total Dipole Moment    :     -0.077182557      -0.605534967      -0.345416727
                        -----------------------------------------
Magnitude (a.u.)       :      0.701386098
Magnitude (Debye)      :      1.782781782

Rotational constants in cm-1:             0.178169             0.090054             0.068610
Rotational constants in MHz :          5341.381177          2699.740990          2056.876796

                             ****ORCA TERMINATED NORMALLY****
TOTAL RUN TIME: 0 days 0 hours 0 minutes 14 seconds 553 msec
