                         Program Version 6.0.0  -   RELEASE  -
|  1> ! r2scan-3c def2/J RI DEFGRID2 scfconv6 printgap
|  2> %output
|  3>     printlevel normal
|  4> end
|  5> %cpcm
|  6>     smd true
|  7>     smdsolvent "water"
|  8> end
|  9> * xyz 0 1
| 10> C -1.7773290812 -1.1536450597 0.1869755782
| 11> C -1.5005300641 0.1865067139 -0.4657993126
| 12> S 0.0178932638 1.0028481919 0.1471842132
| 13> C 1.333486557 -0.074704146 -0.540713722
| 14> C 1.9047410716 -1.0279320985 0.4923784699
| 15> H -1.7838514436 -1.0504526324 1.2695054991
| 16> H -2.748859712 -1.5211376641 -0.135821473
| 17> H -1.0234235348 -1.8858781229 -0.0918546398
| 18> H -2.288304058 0.9025171429 -0.2345790362
| 19> H -1.4056141859 0.0990021692 -1.5482417801
| 20> H 0.8988469475 -0.6029492784 -1.3873847174
| 21> H 2.1028249621 0.6073597416 -0.9016358471
| 22> H 2.3205141343 -0.4681716084 1.3265812372
| 23> H 1.1364791375 -1.6935564683 0.8769628599
| 24> H 2.6944177486 -1.625847383 0.0426814256
| 25> *
| 26>
| 27>                          ****END OF INPUT****

CARTESIAN COORDINATES (ANGSTROEM)
---------------------------------
  C     -1.777329   -1.153645    0.186976
  C     -1.500530    0.186507   -0.465799
  S      0.017893    1.002848    0.147184
  C      1.333487   -0.074704   -0.540714
  C      1.904741   -1.027932    0.492378
  H     -1.783851   -1.050453    1.269505
  H     -2.748860   -1.521138   -0.135821
  H     -1.023424   -1.885878   -0.091855
  H     -2.288304    0.902517   -0.234579
  H     -1.405614    0.099002   -1.548242
  H      0.898847   -0.602949   -1.387385
  H      2.102825    0.607360   -0.901636
  H      2.320514   -0.468172    1.326581
  H      1.136479   -1.693556    0.876963
  H      2.694418   -1.625847    0.042681

 Total Charge           Charge          ....    0
 Multiplicity           Mult            ....    1
 Number of Electrons    NEL             ....   50
 Basis Dimension        Dim             ....  153

ORBITAL ENERGIES
----------------

  NO   OCC          E(Eh)            E(eV)
   0   2.0000     -88.538436     -2409.2533
   1   2.0000     -10.050691      -273.4932
   2   2.0000     -10.049688      -273.4659
   3   2.0000     -10.014003      -272.4949
   4   2.0000     -10.013430      -272.4793
   5   2.0000      -7.832555      -213.1347
   6   2.0000      -5.779875      -157.2784
   7   2.0000      -5.776157      -157.1772
   8   2.0000      -5.769560      -156.9977
   9   2.0000      -0.770306       -20.9611
  10   2.0000      -0.721929       -19.6447
  11   2.0000      -0.648088       -17.6354
  12   2.0000      -0.580864       -15.8061
  13   2.0000      -0.528419       -14.3790
  14   2.0000      -0.432497       -11.7688
  15   2.0000      -0.414872       -11.2892
  16   2.0000      -0.388497       -10.5715
  17   2.0000      -0.380065       -10.3421
  18   2.0000      -0.347479        -9.4554
  19   2.0000      -0.346058        -9.4167
  20   2.0000      -0.327752        -8.9186
  21   2.0000      -0.319032        -8.6813
  22   2.0000      -0.290747        -7.9116
  23   2.0000      -0.266202        -7.2437
  24   2.0000      -0.189167        -5.1475
  25   0.0000       0.026996         0.7346
  26   0.0000       0.053305         1.4505
  27   0.0000       0.095915         2.6100
  28   0.0000       0.119470         3.2509
  29   0.0000       0.129695         3.5292

MULLIKEN ATOMIC CHARGES
-----------------------
   0 C :   -0.481038
   1 C :   -0.241447
   2 S :   -0.217825
   3 C :   -0.223091
   4 C :   -0.479528
   5 H :    0.162714
   6 H :    0.155973
   7 H :    0.163835
   8 H :    0.167157
   9 H :    0.174943
  10 H :    0.169833
  11 H :    0.173162
  12 H :    0.158217
  13 H :    0.161346
  14 H :    0.155749
Sum of atomic charges:    0.0000000

LOEWDIN ATOMIC CHARGES
----------------------
   0 C :   -0.436307
   1 C :   -0.361448
   2 S :   -0.018225
   3 C :   -0.357665
   4 C :   -0.439084
   5 H :    0.156549
   6 H :    0.156602
   7 H :    0.156194
   8 H :    0.172440
   9 H :    0.165221
  10 H :    0.171344
  11 H :    0.168860
  12 H :    0.154891
  13 H :    0.155074
  14 H :    0.155553

  Mayer bond orders larger than 0.100000
B(  0-C ,  1-C ) :   0.8748 B(  0-C ,  5-H ) :   0.9748 B(  0-C ,  6-H ) :   0.9554
B(  0-C ,  7-H ) :   0.9736 B(  1-C ,  2-S ) :   0.9699 B(  1-C ,  8-H ) :   0.9436
B(  1-C ,  9-H ) :   0.9603 B(  2-S ,  3-C ) :   0.8969 B(  3-C ,  4-C ) :   0.8920
B(  3-C , 10-H ) :   0.9425 B(  3-C , 11-H ) :   0.9464 B(  4-C , 12-H ) :   0.9775
B(  4-C , 13-H ) :   0.9714 B(  4-C , 14-H ) :   0.9609

Dispersion correction           -0.003720622
FINAL SINGLE POINT ENERGY      -556.555380838401

DIPOLE MOMENT
-------------

Method             : SCF
Type of density    : Electron Density
Multiplicity       :   1
Irrep              :   0
Energy             :  -556.5624026439983254 Eh
Relativity type    :
Basis              : AO
                                X                 Y                 Z
Electronic contribution:     -0.011825584       5.971486141       0.205032030
Nuclear contribution   :     -0.091482403      -6.819998765      -0.739504005
                        -----------------------------------------
Total Dipole Moment    :     -0.103307987      -0.848512624      -0.534471974
                        -----------------------------------------
Magnitude (a.u.)       :      1.008120283
Magnitude (Debye)      :      2.562438118

Rotational constants in cm-1:             0.178169             0.090054             0.068610
Rotational constants in MHz :          5341.381177          2699.740990          2056.876796

                             ****ORCA TERMINATED NORMALLY****
TOTAL RUN TIME: 0 days 0 hours 0 minutes 16 seconds 976 msec
