                         Program Version 6.0.0  -   RELEASE  -
|  1> ! pbe def2-sv(p) def2/J RI DEFGRID1 loosescf d4 GCP(DFT/SV(P)) printgap
|  2> %output
|  3>     printlevel normal
|  4> end
|  5> * xyz 0 1
|  6> C -1.0705375746 -0.5664519546 -0.185406679
|  7> C 0.0058122909 0.1912851498 0.6020679308
|  8> C 1.3266929271 -0.594101111 0.6257261747
|  9> O 1.8379038423 -0.8007065458 -0.6690050807
| 10> O 0.1858856497 1.4396596489 -0.0458619755
| 11> O -2.2995628131 0.1172809134 -0.185330529
| 12> H -1.2547477241 -1.5346174707 0.2819608167
| 13> H -0.7160335403 -0.7266393771 -1.2110450665
| 14> H -0.3484841704 0.3396076641 1.6303692387
| 15> H 1.1669496994 -1.5818403937 1.0599196899
| 16> H 2.0625205427 -0.0531154609 1.2379671207
| 17> H 1.8161633108 0.0496794892 -1.1359802977
| 18> H 0.6717484296 2.0425419127 0.5323781079
| 19> H -2.1423037929 1.0103159827 -0.5276169663
| 20> *
| 21>
| 22>                          ****END OF INPUT****

CARTESIAN COORDINATES (ANGSTROEM)
---------------------------------
  C     -1.070538   -0.566452   -0.185407
  C      0.005812    0.191285    0.602068
  C      1.326693   -0.594101    0.625726
  O      1.837904   -0.800707   -0.669005
  O      0.185886    1.439660   -0.045862
  O     -2.299563    0.117281   -0.185331
  H     -1.254748   -1.534617    0.281961
  H     -0.716034   -0.726639   -1.211045
  H     -0.348484    0.339608    1.630369
  H      1.166950   -1.581840    1.059920
  H      2.062521   -0.053115    1.237967
  H      1.816163    0.049679   -1.135980
  H      0.671748    2.042542    0.532378
  H     -2.142304    1.010316   -0.527617

 Total Charge           Charge          ....    0
 Multiplicity           Mult            ....    1
 Number of Electrons    NEL             ....   50
 Basis Dimension        Dim             ....  100

ORBITAL ENERGIES
----------------

  NO   OCC          E(Eh)            E(eV)
   0   2.0000     -18.773086      -510.8416
   1   2.0000     -18.745934      -510.1028
   2   2.0000     -18.736325      -509.8413
   3   2.0000      -9.944311      -270.5985
   4   2.0000      -9.934728      -270.3377
   5   2.0000      -9.926687      -270.1189
   6   2.0000      -0.952887       -25.9294
   7   2.0000      -0.918776       -25.0012
   8   2.0000      -0.909652       -24.7529
   9   2.0000      -0.684755       -18.6331
  10   2.0000      -0.603852       -16.4316
  11   2.0000      -0.549807       -14.9610
  12   2.0000      -0.490017       -13.3340
  13   2.0000      -0.453392       -12.3374
  14   2.0000      -0.451071       -12.2743
  15   2.0000      -0.402631       -10.9561
  16   2.0000      -0.387395       -10.5416
  17   2.0000      -0.369114       -10.0441
  18   2.0000      -0.366344        -9.9687
  19   2.0000      -0.306634        -8.3439
  20   2.0000      -0.288958        -7.8630
  21   2.0000      -0.272515        -7.4155
  22   2.0000      -0.249448        -6.7878
  23   2.0000      -0.225770        -6.1435
  24   2.0000      -0.200016        -5.4427
  25   0.0000       0.004105         0.1117
  26   0.0000       0.052211         1.4207
  27   0.0000       0.057383         1.5615
  28   0.0000       0.068087         1.8527
  29   0.0000       0.087635         2.3847

MULLIKEN ATOMIC CHARGES
-----------------------
   0 C :    0.066821
   1 C :   -0.076056
   2 C :    0.049263
   3 O :   -0.436543
   4 O :   -0.439003
   5 O :   -0.440578
   6 H :    0.087111
   7 H :    0.071520
   8 H :    0.068954
   9 H :    0.088088
  10 H :    0.063184
  11 H :    0.294118
  12 H :    0.307058
  13 H :    0.296063
Sum of atomic charges:    0.0000000

LOEWDIN ATOMIC CHARGES
----------------------
   0 C :   -0.126973
   1 C :   -0.105187
   2 C :   -0.133342
   3 O :   -0.338449
   4 O :   -0.330665
   5 O :   -0.341217
   6 H :    0.117545
   7 H :    0.100550
   8 H :    0.104537
   9 H :    0.117127
  10 H :    0.089868
  11 H :    0.276114
  12 H :    0.290771
  13 H :    0.279321

  Mayer bond orders larger than 0.100000
B(  0-C ,  1-C ) :   1.0493 B(  0-C ,  5-O ) :   1.0748 B(  0-C ,  6-H ) :   0.9275
B(  0-C ,  7-H ) :   0.9049 B(  1-C ,  2-C ) :   1.0352 B(  1-C ,  4-O ) :   1.0225
B(  1-C ,  8-H ) :   0.8933 B(  2-C ,  3-O ) :   1.0652 B(  2-C ,  9-H ) :   0.9192
B(  2-C , 10-H ) :   0.9128 B(  3-O , 11-H ) :   0.8348 B(  4-O , 12-H ) :   0.8483
B(  5-O , 13-H ) :   0.8442

Dispersion correction           -0.009257284
FINAL SINGLE POINT ENERGY      -344.011540972343

DIPOLE MOMENT
-------------

Method             : SCF
Type of density    : Electron Density
Multiplicity       :   1
Irrep              :   0
Energy             :  -344.0855353120151676 Eh
Relativity type    :
Basis              : AO
                                X                 Y                 Z
Electronic contribution:     -0.633683392       1.280634888      -1.231752554
Nuclear contribution   :      1.174074490      -0.414763100       1.739094303
                        -----------------------------------------
Total Dipole Moment    :      0.540391098       0.865871788       0.507341749
                        -----------------------------------------
Magnitude (a.u.)       :      1.139803554
Magnitude (Debye)      :      2.897150395

Rotational constants in cm-1:             0.201154             0.076418             0.066293
Rotational constants in MHz :          6030.442876          2290.944970          1987.407617

                             ****ORCA TERMINATED NORMALLY****
TOTAL RUN TIME: 0 days 0 hours 0 minutes 6 seconds 581 msec
