                         Program Version 6.0.0  -   RELEASE  -
|  1> ! pbe def2-sv(p) def2/J RI DEFGRID1 loosescf d4 GCP(DFT/SV(P)) printgap
|  2> %output
|  3>     printlevel normal
|  4> end
|  5> * xyz 0 1
|  6> C -2.6091991373 -0.1771338986 -0.3836640806
|  7> C -1.6629953194 -1.1826236182 -0.458820151
|  8> C -0.3498143309 -0.9401842223 -0.0892749247
|  9> C 0.0404643433 0.3135936398 0.3576957709
| 10> C -0.9212016848 1.318405695 0.4276589034
| 11> C -2.2323554479 1.0788894094 0.0630479698
| 12> C 1.4469419728 0.6477876876 0.7860095123
| 13> C 2.5171366011 -0.3808033238 0.4312952031
| 14> O 2.6124141947 -0.4963166625 -0.9753691452
| 15> H -3.631664784 -0.3678136439 -0.673560739
| 16> H -1.9453997372 -2.1648256637 -0.8086176882
| 17> H 0.368600151 -1.7397961416 -0.1684020179
| 18> H -0.6329152419 2.3014452543 0.772302775
| 19> H -2.9615804204 1.873336942 0.1237107245
| 20> H 1.7269280244 1.5977850699 0.3245360332
| 21> H 1.4601117399 0.7871463464 1.8704070763
| 22> H 3.4748598189 -0.0380249125 0.8467169291
| 23> H 2.2764764661 -1.3521325591 0.8839985687
| 24> H 3.3338742142 -1.0974033205 -1.2011846945
| 25> *
| 26>
| 27>                          ****END OF INPUT****

CARTESIAN COORDINATES (ANGSTROEM)
---------------------------------
  C     -2.609199   -0.177134   -0.383664
  C     -1.662995   -1.182624   -0.458820
  C     -0.349814   -0.940184   -0.089275
  C      0.040464    0.313594    0.357696
  C     -0.921202    1.318406    0.427659
  C     -2.232355    1.078889    0.063048
  C      1.446942    0.647788    0.786010
  C      2.517137   -0.380803    0.431295
  O      2.612414   -0.496317   -0.975369
  H     -3.631665   -0.367814   -0.673561
  H     -1.945400   -2.164826   -0.808618
  H      0.368600   -1.739796   -0.168402
  H     -0.632915    2.301445    0.772303
  H     -2.961580    1.873337    0.123711
  H      1.726928    1.597785    0.324536
  H      1.460112    0.787146    1.870407
  H      3.474860   -0.038025    0.846717
  H      2.276476   -1.352133    0.883999
  H      3.333874   -1.097403   -1.201185

 Total Charge           Charge          ....    0
 Multiplicity           Mult            ....    1
 Number of Electrons    NEL             ....   66
 Basis Dimension        Dim             ....  146

ORBITAL ENERGIES
----------------

  NO   OCC          E(Eh)            E(eV)
   0   2.0000     -18.743792      -510.0445
   1   2.0000      -9.935293      -270.3531
   2   2.0000      -9.896387      -269.2944
   3   2.0000      -9.891621      -269.1647
   4   2.0000      -9.883383      -268.9405
   5   2.0000      -9.883348      -268.9396
   6   2.0000      -9.882289      -268.9108
   7   2.0000      -9.881735      -268.8957
   8   2.0000      -9.881733      -268.8956
   9   2.0000      -0.919853       -25.0305
  10   2.0000      -0.770998       -20.9799
  11   2.0000      -0.703696       -19.1485
  12   2.0000      -0.661685       -18.0054
  13   2.0000      -0.641195       -17.4478
  14   2.0000      -0.564045       -15.3484
  15   2.0000      -0.532902       -14.5010
  16   2.0000      -0.508023       -13.8240
  17   2.0000      -0.471298       -12.8247
  18   2.0000      -0.458108       -12.4658
  19   2.0000      -0.415188       -11.2978
  20   2.0000      -0.396187       -10.7808
  21   2.0000      -0.391710       -10.6590
  22   2.0000      -0.366277        -9.9669
  23   2.0000      -0.364331        -9.9139
  24   2.0000      -0.350045        -9.5252
  25   2.0000      -0.335413        -9.1271
  26   2.0000      -0.312903        -8.5145
  27   2.0000      -0.298894        -8.1333
  28   2.0000      -0.290095        -7.8939
  29   2.0000      -0.271683        -7.3929
  30   2.0000      -0.223467        -6.0809
  31   2.0000      -0.216307        -5.8860
  32   2.0000      -0.210207        -5.7200
  33   0.0000      -0.027857        -0.7580
  34   0.0000      -0.023640        -0.6433
  35   0.0000       0.023680         0.6444
  36   0.0000       0.053524         1.4565
  37   0.0000       0.062482         1.7002

MULLIKEN ATOMIC CHARGES
-----------------------
   0 C :   -0.050014
   1 C :   -0.047622
   2 C :   -0.107691
   3 C :    0.067317
   4 C :   -0.118064
   5 C :   -0.045019
   6 C :   -0.127761
   7 C :    0.001422
   8 O :   -0.434959
   9 H :    0.048179
  10 H :    0.045841
  11 H :    0.038823
  12 H :    0.034347
  13 H :    0.047824
  14 H :    0.099161
  15 H :    0.100989
  16 H :    0.074635
  17 H :    0.073278
  18 H :    0.299314
Sum of atomic charges:   -0.0000000

LOEWDIN ATOMIC CHARGES
----------------------
   0 C :   -0.130451
   1 C :   -0.122551
   2 C :   -0.121020
   3 C :   -0.036531
   4 C :   -0.122907
   5 C :   -0.122966
   6 C :   -0.225159
   7 C :   -0.121278
   8 O :   -0.347207
   9 H :    0.121080
  10 H :    0.121135
  11 H :    0.121118
  12 H :    0.119057
  13 H :    0.121412
  14 H :    0.133400
  15 H :    0.135008
  16 H :    0.098521
  17 H :    0.093579
  18 H :    0.285762

  Mayer bond orders larger than 0.100000
B(  0-C ,  1-C ) :   1.3892 B(  0-C ,  5-C ) :   1.3716 B(  0-C ,  9-H ) :   0.9652
B(  1-C ,  2-C ) :   1.3585 B(  1-C , 10-H ) :   0.9609 B(  2-C ,  3-C ) :   1.4276
B(  2-C , 11-H ) :   0.9472 B(  3-C ,  4-C ) :   1.3856 B(  3-C ,  6-C ) :   1.0425
B(  4-C ,  5-C ) :   1.3871 B(  4-C , 12-H ) :   0.9649 B(  5-C , 13-H ) :   0.9630
B(  6-C ,  7-C ) :   1.1603 B(  6-C , 14-H ) :   0.8947 B(  6-C , 15-H ) :   0.8956
B(  7-C ,  8-O ) :   1.0862 B(  7-C , 16-H ) :   0.9201 B(  7-C , 17-H ) :   0.9016
B(  8-O , 18-H ) :   0.8532

Dispersion correction           -0.018738575
FINAL SINGLE POINT ENERGY      -385.216336291860

DIPOLE MOMENT
-------------

Method             : SCF
Type of density    : Electron Density
Multiplicity       :   1
Irrep              :   0
Energy             :  -385.2784400361579742 Eh
Relativity type    :
Basis              : AO
                                X                 Y                 Z
Electronic contribution:     -2.686644737      -0.093127268      -1.519506658
Nuclear contribution   :      3.293495738      -0.195254343       1.833650074
                        -----------------------------------------
Total Dipole Moment    :      0.606851000      -0.288381611       0.314143416
                        -----------------------------------------
Magnitude (a.u.)       :      0.741699519
Magnitude (Debye)      :      1.885250353

Rotational constants in cm-1:             0.124585             0.034848             0.029401
Rotational constants in MHz :          3734.977891          1044.727170           881.413827

                             ****ORCA TERMINATED NORMALLY****
TOTAL RUN TIME: 0 days 0 hours 0 minutes 7 seconds 945 msec
