                         Program Version 6.0.0  -   RELEASE  -
|  1> ! pbe def2-sv(p) def2/J RI DEFGRID1 loosescf d4 GCP(DFT/SV(P)) printgap
|  2> %output
|  3>     printlevel normal
|  4> end
|  5> * xyz 0 1
|  6> C -1.0760354098 -0.5696449719 -0.1632402454
|  7> C 0.0086163606 0.219026369 0.5876226232
|  8> C 1.3171967827 -0.5746015427 0.6533325443
|  9> O 1.7734730335 -0.7627998383 -0.6709039655
| 10> O 0.2079994667 1.4723242675 -0.0301913858
| 11> O -2.2990869477 0.1280329257 -0.1851807979
| 12> H -1.2690505401 -1.5188263137 0.3390407229
| 13> H -0.7296490637 -0.7689418013 -1.1866435158
| 14> H -0.3418198015 0.4384108687 1.6012532086
| 15> H 1.1324626432 -1.5340158294 1.1488135135
| 16> H 2.0494433543 -0.0004197231 1.234336863
| 17> H 2.6029257643 -1.2577449238 -0.6595680406
| 18> H 0.7295057622 1.3211788176 -0.8343746389
| 19> H -2.1085898157 1.050538534 -0.4168518448
| 20> *
| 21>
| 22>                          ****END OF INPUT****

CARTESIAN COORDINATES (ANGSTROEM)
---------------------------------
  C     -1.076035   -0.569645   -0.163240
  C      0.008616    0.219026    0.587623
  C      1.317197   -0.574602    0.653333
  O      1.773473   -0.762800   -0.670904
  O      0.207999    1.472324   -0.030191
  O     -2.299087    0.128033   -0.185181
  H     -1.269051   -1.518826    0.339041
  H     -0.729649   -0.768942   -1.186644
  H     -0.341820    0.438411    1.601253
  H      1.132463   -1.534016    1.148814
  H      2.049443   -0.000420    1.234337
  H      2.602926   -1.257745   -0.659568
  H      0.729506    1.321179   -0.834375
  H     -2.108590    1.050539   -0.416852

 Total Charge           Charge          ....    0
 Multiplicity           Mult            ....    1
 Number of Electrons    NEL             ....   50
 Basis Dimension        Dim             ....  100

ORBITAL ENERGIES
----------------

  NO   OCC          E(Eh)            E(eV)
   0   2.0000     -18.766494      -510.6623
   1   2.0000     -18.751693      -510.2595
   2   2.0000     -18.729620      -509.6589
   3   2.0000      -9.941208      -270.5140
   4   2.0000      -9.938795      -270.4484
   5   2.0000      -9.919905      -269.9343
   6   2.0000      -0.948254       -25.8033
   7   2.0000      -0.925252       -25.1774
   8   2.0000      -0.900764       -24.5110
   9   2.0000      -0.682746       -18.5785
  10   2.0000      -0.600844       -16.3498
  11   2.0000      -0.549028       -14.9398
  12   2.0000      -0.488425       -13.2907
  13   2.0000      -0.457735       -12.4556
  14   2.0000      -0.428721       -11.6661
  15   2.0000      -0.416258       -11.3270
  16   2.0000      -0.385291       -10.4843
  17   2.0000      -0.376757       -10.2521
  18   2.0000      -0.349432        -9.5085
  19   2.0000      -0.313172        -8.5218
  20   2.0000      -0.282924        -7.6988
  21   2.0000      -0.271707        -7.3935
  22   2.0000      -0.238808        -6.4983
  23   2.0000      -0.229825        -6.2539
  24   2.0000      -0.196710        -5.3527
  25   0.0000       0.008842         0.2406
  26   0.0000       0.050433         1.3723
  27   0.0000       0.058247         1.5850
  28   0.0000       0.084078         2.2879
  29   0.0000       0.086791         2.3617

MULLIKEN ATOMIC CHARGES
-----------------------
   0 C :    0.053398
   1 C :   -0.015235
   2 C :    0.002812
   3 O :   -0.447700
   4 O :   -0.443167
   5 O :   -0.441968
   6 H :    0.074569
   7 H :    0.069935
   8 H :    0.080593
   9 H :    0.076809
  10 H :    0.085189
  11 H :    0.309479
  12 H :    0.302885
  13 H :    0.292402
Sum of atomic charges:   -0.0000000

LOEWDIN ATOMIC CHARGES
----------------------
   0 C :   -0.136904
   1 C :   -0.091483
   2 C :   -0.136011
   3 O :   -0.346456
   4 O :   -0.324100
   5 O :   -0.345757
   6 H :    0.110787
   7 H :    0.096726
   8 H :    0.118361
   9 H :    0.102010
  10 H :    0.101700
  11 H :    0.292634
  12 H :    0.282717
  13 H :    0.275776

  Mayer bond orders larger than 0.100000
B(  0-C ,  1-C ) :   1.0477 B(  0-C ,  5-O ) :   1.0752 B(  0-C ,  6-H ) :   0.9194
B(  0-C ,  7-H ) :   0.9044 B(  1-C ,  2-C ) :   1.0597 B(  1-C ,  4-O ) :   1.0217
B(  1-C ,  8-H ) :   0.8952 B(  2-C ,  3-O ) :   1.0530 B(  2-C ,  9-H ) :   0.9139
B(  2-C , 10-H ) :   0.9153 B(  3-O , 11-H ) :   0.8475 B(  4-O , 12-H ) :   0.8390
B(  5-O , 13-H ) :   0.8377

Dispersion correction           -0.009239210
FINAL SINGLE POINT ENERGY      -344.011406324915

DIPOLE MOMENT
-------------

Method             : SCF
Type of density    : Electron Density
Multiplicity       :   1
Irrep              :   0
Energy             :  -344.0856448294745746 Eh
Relativity type    :
Basis              : AO
                                X                 Y                 Z
Electronic contribution:     -0.663113864       1.672335095      -1.095608726
Nuclear contribution   :      1.932825211      -2.117046197       1.137044057
                        -----------------------------------------
Total Dipole Moment    :      1.269711347      -0.444711101       0.041435331
                        -----------------------------------------
Magnitude (a.u.)       :      1.345976135
Magnitude (Debye)      :      3.421199448

Rotational constants in cm-1:             0.203702             0.076417             0.066575
Rotational constants in MHz :          6106.819212          2290.928264          1995.865490

                             ****ORCA TERMINATED NORMALLY****
TOTAL RUN TIME: 0 days 0 hours 0 minutes 6 seconds 674 msec
