                         Program Version 6.0.0  -   RELEASE  -
|  1> ! r2scan-3c def2/J RI DEFGRID2 scfconv6 printgap
|  2> %output
|  3>     printlevel normal
|  4> end
|  5> * xyz 0 1
|  6> C -1.2530835211 0.2433691497 -0.2238927356
|  7> C 0.1482735273 0.6704537857 0.2582436409
|  8> C 1.2379607948 -0.23143707 -0.349764483
|  9> O 1.1780694433 -1.5526487545 0.1280160784
| 10> O 0.3815306667 2.0300678754 -0.0253892269
| 11> O -1.6086481669 -1.0507930213 0.2102533676
| 12> H -1.2682382606 0.203749017 -1.317410516
| 13> H -1.9836678998 0.9901552079 0.1076855811
| 14> H 0.1988220339 0.5894313755 1.350407796
| 15> H 2.2227486502 0.1526046696 -0.0709904456
| 16> H 1.1517241655 -0.2170288183 -1.447032786
| 17> H 0.2705469781 -1.878548314 -0.0041900345
| 18> H 0.4034110621 2.162050619 -0.9839226042
| 19> H -1.8034293292 -1.0324313541 1.1574969519
| 20> *
| 21>
| 22>                          ****END OF INPUT****

CARTESIAN COORDINATES (ANGSTROEM)
---------------------------------
  C     -1.253084    0.243369   -0.223893
  C      0.148274    0.670454    0.258244
  C      1.237961   -0.231437   -0.349764
  O      1.178069   -1.552649    0.128016
  O      0.381531    2.030068   -0.025389
  O     -1.608648   -1.050793    0.210253
  H     -1.268238    0.203749   -1.317411
  H     -1.983668    0.990155    0.107686
  H      0.198822    0.589431    1.350408
  H      2.222749    0.152605   -0.070990
  H      1.151724   -0.217029   -1.447033
  H      0.270547   -1.878548   -0.004190
  H      0.403411    2.162051   -0.983923
  H     -1.803429   -1.032431    1.157497

 Total Charge           Charge          ....    0
 Multiplicity           Mult            ....    1
 Number of Electrons    NEL             ....   50
 Basis Dimension        Dim             ....  169

ORBITAL ENERGIES
----------------

  NO   OCC          E(Eh)            E(eV)
   0   2.0000     -18.976323      -516.3720
   1   2.0000     -18.964888      -516.0608
   2   2.0000     -18.940605      -515.4001
   3   2.0000     -10.091304      -274.5983
   4   2.0000     -10.089521      -274.5498
   5   2.0000     -10.076260      -274.1890
   6   2.0000      -1.016738       -27.6669
   7   2.0000      -1.001029       -27.2394
   8   2.0000      -0.978074       -26.6147
   9   2.0000      -0.724906       -19.7257
  10   2.0000      -0.650144       -17.6913
  11   2.0000      -0.591175       -16.0867
  12   2.0000      -0.504233       -13.7209
  13   2.0000      -0.496437       -13.5087
  14   2.0000      -0.467910       -12.7325
  15   2.0000      -0.424876       -11.5615
  16   2.0000      -0.416468       -11.3327
  17   2.0000      -0.384027       -10.4499
  18   2.0000      -0.372714       -10.1421
  19   2.0000      -0.343940        -9.3591
  20   2.0000      -0.328647        -8.9429
  21   2.0000      -0.292379        -7.9560
  22   2.0000      -0.283327        -7.7097
  23   2.0000      -0.248841        -6.7713
  24   2.0000      -0.221110        -6.0167
  25   0.0000       0.021844         0.5944
  26   0.0000       0.061770         1.6809
  27   0.0000       0.088471         2.4074
  28   0.0000       0.112615         3.0644
  29   0.0000       0.130701         3.5565

MULLIKEN ATOMIC CHARGES
-----------------------
   0 C :   -0.191725
   1 C :   -0.013010
   2 C :   -0.176905
   3 O :   -0.423044
   4 O :   -0.403121
   5 O :   -0.436021
   6 H :    0.139935
   7 H :    0.150669
   8 H :    0.147443
   9 H :    0.151634
  10 H :    0.122413
  11 H :    0.321367
  12 H :    0.298054
  13 H :    0.312312
Sum of atomic charges:    0.0000000

LOEWDIN ATOMIC CHARGES
----------------------
   0 C :    0.021870
   1 C :    0.070316
   2 C :    0.020127
   3 O :   -0.607623
   4 O :   -0.588052
   5 O :   -0.613542
   6 H :    0.178972
   7 H :    0.170637
   8 H :    0.187462
   9 H :    0.183993
  10 H :    0.155809
  11 H :    0.277746
  12 H :    0.271105
  13 H :    0.271180

  Mayer bond orders larger than 0.100000
B(  0-C ,  1-C ) :   0.9159 B(  0-C ,  5-O ) :   0.9514 B(  0-C ,  6-H ) :   0.9673
B(  0-C ,  7-H ) :   0.9714 B(  1-C ,  2-C ) :   0.9283 B(  1-C ,  4-O ) :   0.9459
B(  1-C ,  8-H ) :   0.9525 B(  2-C ,  3-O ) :   0.9787 B(  2-C ,  9-H ) :   0.9678
B(  2-C , 10-H ) :   0.9711 B(  3-O , 11-H ) :   0.8466 B(  4-O , 12-H ) :   0.8912
B(  5-O , 13-H ) :   0.8899

Dispersion correction           -0.003088981
FINAL SINGLE POINT ENERGY      -344.722712746294

DIPOLE MOMENT
-------------

Method             : SCF
Type of density    : Electron Density
Multiplicity       :   1
Irrep              :   0
Energy             :  -344.7305207916581935 Eh
Relativity type    :
Basis              : AO
                                X                 Y                 Z
Electronic contribution:      0.092465016      -0.530294540       0.919099076
Nuclear contribution   :     -0.758850010       0.901496298      -1.128625524
                        -----------------------------------------
Total Dipole Moment    :     -0.666384994       0.371201758      -0.209526448
                        -----------------------------------------
Magnitude (a.u.)       :      0.791050591
Magnitude (Debye)      :      2.010690810

Rotational constants in cm-1:             0.130385             0.110715             0.064956
Rotational constants in MHz :          3908.838731          3319.156508          1947.333739

                             ****ORCA TERMINATED NORMALLY****
TOTAL RUN TIME: 0 days 0 hours 0 minutes 20 seconds 983 msec
