                         Program Version 6.0.0  -   RELEASE  -
|  1> ! r2scan-3c def2/J RI DEFGRID2 scfconv6 printgap
|  2> %output
|  3>     printlevel normal
|  4> end
|  5> %cpcm
|  6>     smd true
|  7>     smdsolvent "water"
|  8> end
|  9> * xyz 0 1
| 10> C -1.2530835211 0.2433691497 -0.2238927356
| 11> C 0.1482735273 0.6704537857 0.2582436409
| 12> C 1.2379607948 -0.23143707 -0.349764483
| 13> O 1.1780694433 -1.5526487545 0.1280160784
| 14> O 0.3815306667 2.0300678754 -0.0253892269
| 15> O -1.6086481669 -1.0507930213 0.2102533676
| 16> H -1.2682382606 0.203749017 -1.317410516
| 17> H -1.9836678998 0.9901552079 0.1076855811
| 18> H 0.1988220339 0.5894313755 1.350407796
| 19> H 2.2227486502 0.1526046696 -0.0709904456
| 20> H 1.1517241655 -0.2170288183 -1.447032786
| 21> H 0.2705469781 -1.878548314 -0.0041900345
| 22> H 0.4034110621 2.162050619 -0.9839226042
| 23> H -1.8034293292 -1.0324313541 1.1574969519
| 24> *
| 25>
| 26>                          ****END OF INPUT****

CARTESIAN COORDINATES (ANGSTROEM)
---------------------------------
  C     -1.253084    0.243369   -0.223893
  C      0.148274    0.670454    0.258244
  C      1.237961   -0.231437   -0.349764
  O      1.178069   -1.552649    0.128016
  O      0.381531    2.030068   -0.025389
  O     -1.608648   -1.050793    0.210253
  H     -1.268238    0.203749   -1.317411
  H     -1.983668    0.990155    0.107686
  H      0.198822    0.589431    1.350408
  H      2.222749    0.152605   -0.070990
  H      1.151724   -0.217029   -1.447033
  H      0.270547   -1.878548   -0.004190
  H      0.403411    2.162051   -0.983923
  H     -1.803429   -1.032431    1.157497

 Total Charge           Charge          ....    0
 Multiplicity           Mult            ....    1
 Number of Electrons    NEL             ....   50
 Basis Dimension        Dim             ....  169

ORBITAL ENERGIES
----------------

  NO   OCC          E(Eh)            E(eV)
   0   2.0000     -18.961194      -515.9603
   1   2.0000     -18.959534      -515.9152
   2   2.0000     -18.949565      -515.6439
   3   2.0000     -10.079041      -274.2647
   4   2.0000     -10.073031      -274.1011
   5   2.0000     -10.069934      -274.0168
   6   2.0000      -1.005591       -27.3635
   7   2.0000      -0.991381       -26.9768
   8   2.0000      -0.983355       -26.7585
   9   2.0000      -0.713777       -19.4229
  10   2.0000      -0.639611       -17.4047
  11   2.0000      -0.580880       -15.8066
  12   2.0000      -0.497612       -13.5407
  13   2.0000      -0.481768       -13.1096
  14   2.0000      -0.458489       -12.4761
  15   2.0000      -0.417634       -11.3644
  16   2.0000      -0.408191       -11.1074
  17   2.0000      -0.381918       -10.3925
  18   2.0000      -0.365996        -9.9593
  19   2.0000      -0.334994        -9.1156
  20   2.0000      -0.326030        -8.8717
  21   2.0000      -0.290127        -7.8948
  22   2.0000      -0.277084        -7.5398
  23   2.0000      -0.247685        -6.7399
  24   2.0000      -0.220514        -6.0005
  25   0.0000       0.041451         1.1279
  26   0.0000       0.089691         2.4406
  27   0.0000       0.103747         2.8231
  28   0.0000       0.125831         3.4240
  29   0.0000       0.143568         3.9067

MULLIKEN ATOMIC CHARGES
-----------------------
   0 C :   -0.184572
   1 C :    0.005058
   2 C :   -0.191526
   3 O :   -0.503192
   4 O :   -0.486553
   5 O :   -0.495301
   6 H :    0.163022
   7 H :    0.154388
   8 H :    0.163833
   9 H :    0.156817
  10 H :    0.149644
  11 H :    0.355030
  12 H :    0.354876
  13 H :    0.358478
Sum of atomic charges:    0.0000000

LOEWDIN ATOMIC CHARGES
----------------------
   0 C :    0.026290
   1 C :    0.073949
   2 C :    0.019791
   3 O :   -0.647956
   4 O :   -0.616348
   5 O :   -0.629972
   6 H :    0.187216
   7 H :    0.175049
   8 H :    0.192508
   9 H :    0.185198
  10 H :    0.169173
  11 H :    0.286200
  12 H :    0.290747
  13 H :    0.288154

  Mayer bond orders larger than 0.100000
B(  0-C ,  1-C ) :   0.9183 B(  0-C ,  5-O ) :   0.9488 B(  0-C ,  6-H ) :   0.9653
B(  0-C ,  7-H ) :   0.9607 B(  1-C ,  2-C ) :   0.9241 B(  1-C ,  4-O ) :   0.9416
B(  1-C ,  8-H ) :   0.9575 B(  2-C ,  3-O ) :   0.9585 B(  2-C ,  9-H ) :   0.9631
B(  2-C , 10-H ) :   0.9650 B(  3-O , 11-H ) :   0.8303 B(  4-O , 12-H ) :   0.8627
B(  5-O , 13-H ) :   0.8645

Dispersion correction           -0.003088981
FINAL SINGLE POINT ENERGY      -344.743549342774

DIPOLE MOMENT
-------------

Method             : SCF
Type of density    : Electron Density
Multiplicity       :   1
Irrep              :   0
Energy             :  -344.7513573881375351 Eh
Relativity type    :
Basis              : AO
                                X                 Y                 Z
Electronic contribution:     -0.104685138      -0.396310039       0.764044095
Nuclear contribution   :     -0.758850010       0.901496298      -1.128625524
                        -----------------------------------------
Total Dipole Moment    :     -0.863535148       0.505186260      -0.364581429
                        -----------------------------------------
Magnitude (a.u.)       :      1.064812531
Magnitude (Debye)      :      2.706538362

Rotational constants in cm-1:             0.130385             0.110715             0.064956
Rotational constants in MHz :          3908.838731          3319.156508          1947.333739

                             ****ORCA TERMINATED NORMALLY****
TOTAL RUN TIME: 0 days 0 hours 0 minutes 24 seconds 53 msec
