                         Program Version 6.0.0  -   RELEASE  -
|  1> ! r2scan-3c def2/J RI DEFGRID2 scfconv6 printgap
|  2> %output
|  3>     printlevel normal
|  4> end
|  5> * xyz 0 1
|  6> C -3.0365974486 0.6928682701 0.1602102471
|  7> C -1.8083812147 -0.1886693479 0.3685915672
|  8> C -1.8681028313 -1.4294568452 -0.5187792171
|  9> C -0.5436014523 0.6170268977 0.0763599293
| 10> O 0.6009840707 -0.1508283381 0.4707259376
| 11> C 1.7769758469 0.153235592 -0.0622908973
| 12> O 1.9342447583 1.055970033 -0.8600552082
| 13> C 2.8619204526 -0.7567888785 0.4300687999
| 14> H -3.9398736257 0.1274204319 0.3699362091
| 15> H -3.079132859 1.0436935983 -0.8681259185
| 16> H -3.0084206269 1.5570685322 0.8186240785
| 17> H -1.7620171306 -0.5048670043 1.4151230518
| 18> H -2.7451138311 -2.0233416601 -0.2771532346
| 19> H -0.9826357089 -2.0423284416 -0.3707628082
| 20> H -1.9214443317 -1.1425340124 -1.566845192
| 21> H -0.4571627418 0.8572949935 -0.98883016
| 22> H -0.5349380379 1.5547402927 0.6418308812
| 23> H 2.5180040041 -1.3063272683 1.2993757558
| 24> H 3.7467921383 -0.1711694577 0.6612368342
| 25> H 3.117520581 -1.4522620353 -0.3663632427
| 26> *
| 27>
| 28>                          ****END OF INPUT****

CARTESIAN COORDINATES (ANGSTROEM)
---------------------------------
  C     -3.036597    0.692868    0.160210
  C     -1.808381   -0.188669    0.368592
  C     -1.868103   -1.429457   -0.518779
  C     -0.543601    0.617027    0.076360
  O      0.600984   -0.150828    0.470726
  C      1.776976    0.153236   -0.062291
  O      1.934245    1.055970   -0.860055
  C      2.861920   -0.756789    0.430069
  H     -3.939874    0.127420    0.369936
  H     -3.079133    1.043694   -0.868126
  H     -3.008421    1.557069    0.818624
  H     -1.762017   -0.504867    1.415123
  H     -2.745114   -2.023342   -0.277153
  H     -0.982636   -2.042328   -0.370763
  H     -1.921444   -1.142534   -1.566845
  H     -0.457163    0.857295   -0.988830
  H     -0.534938    1.554740    0.641831
  H      2.518004   -1.306327    1.299376
  H      3.746792   -0.171169    0.661237
  H      3.117521   -1.452262   -0.366363

 Total Charge           Charge          ....    0
 Multiplicity           Mult            ....    1
 Number of Electrons    NEL             ....   64
 Basis Dimension        Dim             ....  222

ORBITAL ENERGIES
----------------

  NO   OCC          E(Eh)            E(eV)
   0   2.0000     -18.997910      -516.9594
   1   2.0000     -18.926663      -515.0207
   2   2.0000     -10.155079      -276.3338
   3   2.0000     -10.086413      -274.4653
   4   2.0000     -10.045538      -273.3530
   5   2.0000     -10.038872      -273.1716
   6   2.0000     -10.026486      -272.8345
   7   2.0000     -10.020816      -272.6803
   8   2.0000      -1.072809       -29.1926
   9   2.0000      -0.974441       -26.5159
  10   2.0000      -0.786134       -21.3918
  11   2.0000      -0.727776       -19.8038
  12   2.0000      -0.662432       -18.0257
  13   2.0000      -0.659239       -17.9388
  14   2.0000      -0.551299       -15.0016
  15   2.0000      -0.534581       -14.5467
  16   2.0000      -0.466059       -12.6821
  17   2.0000      -0.455619       -12.3980
  18   2.0000      -0.443018       -12.0551
  19   2.0000      -0.426914       -11.6169
  20   2.0000      -0.405369       -11.0306
  21   2.0000      -0.396612       -10.7924
  22   2.0000      -0.379309       -10.3215
  23   2.0000      -0.368100       -10.0165
  24   2.0000      -0.359266        -9.7761
  25   2.0000      -0.341412        -9.2903
  26   2.0000      -0.329447        -8.9647
  27   2.0000      -0.316333        -8.6079
  28   2.0000      -0.309247        -8.4150
  29   2.0000      -0.300095        -8.1660
  30   2.0000      -0.270500        -7.3607
  31   2.0000      -0.235289        -6.4025
  32   0.0000      -0.013910        -0.3785
  33   0.0000       0.070119         1.9080
  34   0.0000       0.080185         2.1820
  35   0.0000       0.119082         3.2404
  36   0.0000       0.125168         3.4060

MULLIKEN ATOMIC CHARGES
-----------------------
   0 C :   -0.481689
   1 C :    0.003292
   2 C :   -0.490822
   3 C :   -0.220682
   4 O :   -0.168997
   5 C :    0.413467
   6 O :   -0.423933
   7 C :   -0.525244
   8 H :    0.151560
   9 H :    0.150439
  10 H :    0.146990
  11 H :    0.144125
  12 H :    0.148914
  13 H :    0.159495
  14 H :    0.148021
  15 H :    0.180172
  16 H :    0.146841
  17 H :    0.170202
  18 H :    0.173599
  19 H :    0.174248
Sum of atomic charges:   -0.0000000

LOEWDIN ATOMIC CHARGES
----------------------
   0 C :   -0.409277
   1 C :   -0.219495
   2 C :   -0.408573
   3 C :    0.045191
   4 O :   -0.604497
   5 C :    0.353666
   6 O :   -0.432551
   7 C :   -0.336621
   8 H :    0.157200
   9 H :    0.156595
  10 H :    0.155064
  11 H :    0.163974
  12 H :    0.154317
  13 H :    0.162161
  14 H :    0.155700
  15 H :    0.192986
  16 H :    0.181291
  17 H :    0.173732
  18 H :    0.178050
  19 H :    0.181087

  Mayer bond orders larger than 0.100000
B(  0-C ,  1-C ) :   0.9079 B(  0-C ,  8-H ) :   0.9709 B(  0-C ,  9-H ) :   0.9803
B(  0-C , 10-H ) :   0.9727 B(  1-C ,  2-C ) :   0.9203 B(  1-C ,  3-C ) :   0.9330
B(  1-C , 11-H ) :   0.9438 B(  2-C , 12-H ) :   0.9742 B(  2-C , 13-H ) :   0.9690
B(  2-C , 14-H ) :   0.9805 B(  3-C ,  4-O ) :   0.8082 B(  3-C , 15-H ) :   0.9726
B(  3-C , 16-H ) :   0.9465 B(  4-O ,  5-C ) :   1.0583 B(  5-C ,  6-O ) :   1.8322
B(  5-C ,  7-C ) :   0.9403 B(  7-C , 17-H ) :   0.9851 B(  7-C , 18-H ) :   0.9675
B(  7-C , 19-H ) :   0.9406

Dispersion correction           -0.005113726
FINAL SINGLE POINT ENERGY      -386.238024804607

DIPOLE MOMENT
-------------

Method             : SCF
Type of density    : Electron Density
Multiplicity       :   1
Irrep              :   0
Energy             :  -386.2448234725137013 Eh
Relativity type    :
Basis              : AO
                                X                 Y                 Z
Electronic contribution:      7.968999609       2.699050268      -0.188478133
Nuclear contribution   :     -8.451335561      -3.272612374       0.714782380
                        -----------------------------------------
Total Dipole Moment    :     -0.482335952      -0.573562106       0.526304247
                        -----------------------------------------
Magnitude (a.u.)       :      0.915760679
Magnitude (Debye)      :      2.327678662

Rotational constants in cm-1:             0.148141             0.033069             0.030073
Rotational constants in MHz :          4441.155864           991.391301           901.561340

                             ****ORCA TERMINATED NORMALLY****
TOTAL RUN TIME: 0 days 0 hours 0 minutes 30 seconds 645 msec
