                         Program Version 6.0.0  -   RELEASE  -
|  1> ! r2scan-3c def2/J RI DEFGRID2 scfconv6 printgap
|  2> %output
|  3>     printlevel normal
|  4> end
|  5> %cpcm
|  6>     smd true
|  7>     smdsolvent "water"
|  8> end
|  9> * xyz 0 1
| 10> C -3.0365974486 0.6928682701 0.1602102471
| 11> C -1.8083812147 -0.1886693479 0.3685915672
| 12> C -1.8681028313 -1.4294568452 -0.5187792171
| 13> C -0.5436014523 0.6170268977 0.0763599293
| 14> O 0.6009840707 -0.1508283381 0.4707259376
| 15> C 1.7769758469 0.153235592 -0.0622908973
| 16> O 1.9342447583 1.055970033 -0.8600552082
| 17> C 2.8619204526 -0.7567888785 0.4300687999
| 18> H -3.9398736257 0.1274204319 0.3699362091
| 19> H -3.079132859 1.0436935983 -0.8681259185
| 20> H -3.0084206269 1.5570685322 0.8186240785
| 21> H -1.7620171306 -0.5048670043 1.4151230518
| 22> H -2.7451138311 -2.0233416601 -0.2771532346
| 23> H -0.9826357089 -2.0423284416 -0.3707628082
| 24> H -1.9214443317 -1.1425340124 -1.566845192
| 25> H -0.4571627418 0.8572949935 -0.98883016
| 26> H -0.5349380379 1.5547402927 0.6418308812
| 27> H 2.5180040041 -1.3063272683 1.2993757558
| 28> H 3.7467921383 -0.1711694577 0.6612368342
| 29> H 3.117520581 -1.4522620353 -0.3663632427
| 30> *
| 31>
| 32>                          ****END OF INPUT****

CARTESIAN COORDINATES (ANGSTROEM)
---------------------------------
  C     -3.036597    0.692868    0.160210
  C     -1.808381   -0.188669    0.368592
  C     -1.868103   -1.429457   -0.518779
  C     -0.543601    0.617027    0.076360
  O      0.600984   -0.150828    0.470726
  C      1.776976    0.153236   -0.062291
  O      1.934245    1.055970   -0.860055
  C      2.861920   -0.756789    0.430069
  H     -3.939874    0.127420    0.369936
  H     -3.079133    1.043694   -0.868126
  H     -3.008421    1.557069    0.818624
  H     -1.762017   -0.504867    1.415123
  H     -2.745114   -2.023342   -0.277153
  H     -0.982636   -2.042328   -0.370763
  H     -1.921444   -1.142534   -1.566845
  H     -0.457163    0.857295   -0.988830
  H     -0.534938    1.554740    0.641831
  H      2.518004   -1.306327    1.299376
  H      3.746792   -0.171169    0.661237
  H      3.117521   -1.452262   -0.366363

 Total Charge           Charge          ....    0
 Multiplicity           Mult            ....    1
 Number of Electrons    NEL             ....   64
 Basis Dimension        Dim             ....  222

ORBITAL ENERGIES
----------------

  NO   OCC          E(Eh)            E(eV)
   0   2.0000     -19.003526      -517.1122
   1   2.0000     -18.942820      -515.4603
   2   2.0000     -10.165500      -276.6173
   3   2.0000     -10.079136      -274.2672
   4   2.0000     -10.034552      -273.0540
   5   2.0000     -10.030287      -272.9380
   6   2.0000     -10.012108      -272.4433
   7   2.0000     -10.009443      -272.3708
   8   2.0000      -1.079960       -29.3872
   9   2.0000      -0.988602       -26.9012
  10   2.0000      -0.776921       -21.1411
  11   2.0000      -0.722639       -19.6640
  12   2.0000      -0.655626       -17.8405
  13   2.0000      -0.647099       -17.6085
  14   2.0000      -0.544961       -14.8291
  15   2.0000      -0.529753       -14.4153
  16   2.0000      -0.464618       -12.6429
  17   2.0000      -0.461491       -12.5578
  18   2.0000      -0.448107       -12.1936
  19   2.0000      -0.420133       -11.4324
  20   2.0000      -0.398658       -10.8480
  21   2.0000      -0.389471       -10.5980
  22   2.0000      -0.373711       -10.1692
  23   2.0000      -0.358190        -9.7469
  24   2.0000      -0.348133        -9.4732
  25   2.0000      -0.337229        -9.1765
  26   2.0000      -0.330332        -8.9888
  27   2.0000      -0.306979        -8.3533
  28   2.0000      -0.302165        -8.2223
  29   2.0000      -0.291180        -7.9234
  30   2.0000      -0.275439        -7.4951
  31   2.0000      -0.252660        -6.8752
  32   0.0000      -0.021504        -0.5851
  33   0.0000       0.074724         2.0333
  34   0.0000       0.092423         2.5149
  35   0.0000       0.124895         3.3986
  36   0.0000       0.133717         3.6386

MULLIKEN ATOMIC CHARGES
-----------------------
   0 C :   -0.530267
   1 C :    0.016975
   2 C :   -0.531882
   3 C :   -0.229627
   4 O :   -0.184255
   5 C :    0.464025
   6 O :   -0.514851
   7 C :   -0.560935
   8 H :    0.165141
   9 H :    0.163431
  10 H :    0.160869
  11 H :    0.155874
  12 H :    0.164251
  13 H :    0.160862
  14 H :    0.162485
  15 H :    0.181801
  16 H :    0.171946
  17 H :    0.188090
  18 H :    0.192200
  19 H :    0.203868
Sum of atomic charges:    0.0000000

LOEWDIN ATOMIC CHARGES
----------------------
   0 C :   -0.415021
   1 C :   -0.214619
   2 C :   -0.416158
   3 C :    0.046119
   4 O :   -0.604511
   5 C :    0.365130
   6 O :   -0.497235
   7 C :   -0.334579
   8 H :    0.160750
   9 H :    0.159867
  10 H :    0.159036
  11 H :    0.167456
  12 H :    0.158549
  13 H :    0.161030
  14 H :    0.159446
  15 H :    0.194410
  16 H :    0.189850
  17 H :    0.182430
  18 H :    0.185395
  19 H :    0.192655

  Mayer bond orders larger than 0.100000
B(  0-C ,  1-C ) :   0.9009 B(  0-C ,  8-H ) :   0.9680 B(  0-C ,  9-H ) :   0.9793
B(  0-C , 10-H ) :   0.9695 B(  1-C ,  2-C ) :   0.9113 B(  1-C ,  3-C ) :   0.9389
B(  1-C , 11-H ) :   0.9448 B(  2-C , 12-H ) :   0.9719 B(  2-C , 13-H ) :   0.9672
B(  2-C , 14-H ) :   0.9787 B(  3-C ,  4-O ) :   0.7940 B(  3-C , 15-H ) :   0.9671
B(  3-C , 16-H ) :   0.9361 B(  4-O ,  5-C ) :   1.0893 B(  5-C ,  6-O ) :   1.7557
B(  5-C ,  7-C ) :   0.9413 B(  7-C , 17-H ) :   0.9743 B(  7-C , 18-H ) :   0.9582
B(  7-C , 19-H ) :   0.9286

Dispersion correction           -0.005113726
FINAL SINGLE POINT ENERGY      -386.243232383142

DIPOLE MOMENT
-------------

Method             : SCF
Type of density    : Electron Density
Multiplicity       :   1
Irrep              :   0
Energy             :  -386.2500310510482677 Eh
Relativity type    :
Basis              : AO
                                X                 Y                 Z
Electronic contribution:      7.824277418       2.490832395       0.019738295
Nuclear contribution   :     -8.451335561      -3.272612374       0.714782380
                        -----------------------------------------
Total Dipole Moment    :     -0.627058143      -0.781779980       0.734520674
                        -----------------------------------------
Magnitude (a.u.)       :      1.242538720
Magnitude (Debye)      :      3.158282435

Rotational constants in cm-1:             0.148141             0.033069             0.030073
Rotational constants in MHz :          4441.155864           991.391301           901.561340

                             ****ORCA TERMINATED NORMALLY****
TOTAL RUN TIME: 0 days 0 hours 0 minutes 37 seconds 610 msec
