                         Program Version 6.0.0  -   RELEASE  -
|  1> ! r2scan-3c def2/J RI DEFGRID2 scfconv6 printgap
|  2> %output
|  3>     printlevel normal
|  4> end
|  5> * xyz 0 1
|  6> C -3.2430791513 1.1810413423 0.1925843915
|  7> C -1.9011799307 0.79140354 -0.3325371484
|  8> O -1.689623526 0.1933262063 -1.3642628399
|  9> O -0.9242199708 1.2114837041 0.4848697857
| 10> C 0.3930046044 0.8341218756 0.2552208918
| 11> C 1.3410754907 1.8421551329 0.1708653672
| 12> C 2.6711954734 1.5221538416 -0.0380960592
| 13> C 3.0555261521 0.1978992908 -0.1823378701
| 14> C 2.1126361606 -0.8079845171 -0.0998105243
| 15> C 0.770317852 -0.5068298328 0.131009585
| 16> C -0.2187599652 -1.5982867493 0.2739878668
| 17> O -1.2627876208 -1.5073762702 0.8946672836
| 18> O 0.1550082825 -2.7188549532 -0.3190107938
| 19> H -3.9570280548 1.2343208611 -0.6226189397
| 20> H -3.1760039064 2.1211332672 0.7302871867
| 21> H -3.552690297 0.4026670442 0.8889386876
| 22> H 1.0179729165 2.8657235696 0.2709135818
| 23> H 3.4042594275 2.3105319285 -0.0962933279
| 24> H 4.0897255858 -0.050706348 -0.3564223384
| 25> H 2.3978156656 -1.842786895 -0.2010069167
| 26> H -0.5017534378 -3.4344257861 -0.2120864226
| 27> *
| 28>
| 29>                          ****END OF INPUT****

CARTESIAN COORDINATES (ANGSTROEM)
---------------------------------
  C     -3.243079    1.181041    0.192584
  C     -1.901180    0.791404   -0.332537
  O     -1.689624    0.193326   -1.364263
  O     -0.924220    1.211484    0.484870
  C      0.393005    0.834122    0.255221
  C      1.341075    1.842155    0.170865
  C      2.671195    1.522154   -0.038096
  C      3.055526    0.197899   -0.182338
  C      2.112636   -0.807985   -0.099811
  C      0.770318   -0.506830    0.131010
  C     -0.218760   -1.598287    0.273988
  O     -1.262788   -1.507376    0.894667
  O      0.155008   -2.718855   -0.319011
  H     -3.957028    1.234321   -0.622619
  H     -3.176004    2.121133    0.730287
  H     -3.552690    0.402667    0.888939
  H      1.017973    2.865724    0.270914
  H      3.404259    2.310532   -0.096293
  H      4.089726   -0.050706   -0.356422
  H      2.397816   -1.842787   -0.201007
  H     -0.501753   -3.434426   -0.212086

 Total Charge           Charge          ....    0
 Multiplicity           Mult            ....    1
 Number of Electrons    NEL             ....   94
 Basis Dimension        Dim             ....  307

ORBITAL ENERGIES
----------------

  NO   OCC          E(Eh)            E(eV)
   0   2.0000     -19.013815      -517.3922
   1   2.0000     -19.008251      -517.2408
   2   2.0000     -18.936301      -515.2829
   3   2.0000     -18.933282      -515.2008
   4   2.0000     -10.170628      -276.7569
   5   2.0000     -10.164166      -276.5810
   6   2.0000     -10.120605      -275.3957
   7   2.0000     -10.067277      -273.9445
   8   2.0000     -10.057644      -273.6824
   9   2.0000     -10.057150      -273.6690
  10   2.0000     -10.054158      -273.5876
  11   2.0000     -10.050093      -273.4769
  12   2.0000     -10.038497      -273.1614
  13   2.0000      -1.089772       -29.6542
  14   2.0000      -1.081036       -29.4165
  15   2.0000      -0.986851       -26.8536
  16   2.0000      -0.981579       -26.7101
  17   2.0000      -0.848771       -23.0962
  18   2.0000      -0.756461       -20.5843
  19   2.0000      -0.752685       -20.4816
  20   2.0000      -0.711260       -19.3544
  21   2.0000      -0.651613       -17.7313
  22   2.0000      -0.612194       -16.6586
  23   2.0000      -0.600757       -16.3474
  24   2.0000      -0.546712       -14.8768
  25   2.0000      -0.504477       -13.7275
  26   2.0000      -0.470163       -12.7938
  27   2.0000      -0.463479       -12.6119
  28   2.0000      -0.456276       -12.4159
  29   2.0000      -0.452344       -12.3089
  30   2.0000      -0.440833       -11.9957
  31   2.0000      -0.426468       -11.6048
  32   2.0000      -0.419427       -11.4132
  33   2.0000      -0.417962       -11.3733
  34   2.0000      -0.381837       -10.3903
  35   2.0000      -0.377429       -10.2704
  36   2.0000      -0.370222       -10.0742
  37   2.0000      -0.361691        -9.8421
  38   2.0000      -0.352906        -9.6031
  39   2.0000      -0.342368        -9.3163
  40   2.0000      -0.333159        -9.0657
  41   2.0000      -0.303983        -8.2718
  42   2.0000      -0.286769        -7.8034
  43   2.0000      -0.261030        -7.1030
  44   2.0000      -0.244078        -6.6417
  45   2.0000      -0.242537        -6.5998
  46   2.0000      -0.239643        -6.5210
  47   0.0000      -0.081497        -2.2177
  48   0.0000      -0.049175        -1.3381
  49   0.0000      -0.013345        -0.3631
  50   0.0000       0.013861         0.3772
  51   0.0000       0.054141         1.4733

MULLIKEN ATOMIC CHARGES
-----------------------
   0 C :   -0.557728
   1 C :    0.403156
   2 O :   -0.388259
   3 O :   -0.122504
   4 C :    0.195993
   5 C :   -0.265656
   6 C :   -0.102982
   7 C :   -0.147773
   8 C :   -0.185913
   9 C :    0.065927
  10 C :    0.330318
  11 O :   -0.383537
  12 O :   -0.347597
  13 H :    0.175425
  14 H :    0.166607
  15 H :    0.195437
  16 H :    0.160682
  17 H :    0.151488
  18 H :    0.149436
  19 H :    0.170837
  20 H :    0.336642
Sum of atomic charges:    0.0000000

LOEWDIN ATOMIC CHARGES
----------------------
   0 C :   -0.328621
   1 C :    0.379187
   2 O :   -0.398655
   3 O :   -0.518831
   4 C :    0.239316
   5 C :   -0.113544
   6 C :   -0.135180
   7 C :   -0.163533
   8 C :   -0.102647
   9 C :   -0.001816
  10 C :    0.379207
  11 O :   -0.408023
  12 O :   -0.391163
  13 H :    0.176414
  14 H :    0.176314
  15 H :    0.191960
  16 H :    0.183983
  17 H :    0.171614
  18 H :    0.170789
  19 H :    0.189259
  20 H :    0.303969

  Mayer bond orders larger than 0.100000
B(  0-C ,  1-C ) :   0.9356 B(  0-C , 13-H ) :   0.9831 B(  0-C , 14-H ) :   0.9725
B(  0-C , 15-H ) :   0.9309 B(  1-C ,  2-O ) :   1.9044 B(  1-C ,  3-O ) :   0.9437
B(  3-O ,  4-C ) :   0.9335 B(  4-C ,  5-C ) :   1.3968 B(  4-C ,  9-C ) :   1.4807
B(  5-C ,  6-C ) :   1.3549 B(  5-C , 16-H ) :   0.9468 B(  6-C ,  7-C ) :   1.3960
B(  6-C , 17-H ) :   0.9465 B(  7-C ,  8-C ) :   1.3781 B(  7-C , 18-H ) :   0.9486
B(  8-C ,  9-C ) :   1.2898 B(  8-C , 19-H ) :   0.9494 B(  9-C , 10-C ) :   0.9925
B( 10-C , 11-O ) :   1.9173 B( 10-C , 12-O ) :   1.0716 B( 12-O , 20-H ) :   0.8568

Dispersion correction           -0.008140143
FINAL SINGLE POINT ENERGY      -648.585738304591

DIPOLE MOMENT
-------------

Method             : SCF
Type of density    : Electron Density
Multiplicity       :   1
Irrep              :   0
Energy             :  -648.5878498300028241 Eh
Relativity type    :
Basis              : AO
                                X                 Y                 Z
Electronic contribution:      0.922214674      -3.152476172      -0.112240898
Nuclear contribution   :     -0.315635090       3.341704136       0.372377427
                        -----------------------------------------
Total Dipole Moment    :      0.606579584       0.189227963       0.260136529
                        -----------------------------------------
Magnitude (a.u.)       :      0.686598156
Magnitude (Debye)      :      1.745193820

Rotational constants in cm-1:             0.040941             0.025295             0.017395
Rotational constants in MHz :          1227.375775           758.328522           521.492535

                             ****ORCA TERMINATED NORMALLY****
TOTAL RUN TIME: 0 days 0 hours 0 minutes 46 seconds 397 msec
