                         Program Version 6.0.0  -   RELEASE  -
|  1> ! r2scan-3c def2/J RI DEFGRID2 scfconv6 printgap
|  2> %output
|  3>     printlevel normal
|  4> end
|  5> %cpcm
|  6>     smd true
|  7>     smdsolvent "water"
|  8> end
|  9> * xyz 0 1
| 10> C -3.2430791513 1.1810413423 0.1925843915
| 11> C -1.9011799307 0.79140354 -0.3325371484
| 12> O -1.689623526 0.1933262063 -1.3642628399
| 13> O -0.9242199708 1.2114837041 0.4848697857
| 14> C 0.3930046044 0.8341218756 0.2552208918
| 15> C 1.3410754907 1.8421551329 0.1708653672
| 16> C 2.6711954734 1.5221538416 -0.0380960592
| 17> C 3.0555261521 0.1978992908 -0.1823378701
| 18> C 2.1126361606 -0.8079845171 -0.0998105243
| 19> C 0.770317852 -0.5068298328 0.131009585
| 20> C -0.2187599652 -1.5982867493 0.2739878668
| 21> O -1.2627876208 -1.5073762702 0.8946672836
| 22> O 0.1550082825 -2.7188549532 -0.3190107938
| 23> H -3.9570280548 1.2343208611 -0.6226189397
| 24> H -3.1760039064 2.1211332672 0.7302871867
| 25> H -3.552690297 0.4026670442 0.8889386876
| 26> H 1.0179729165 2.8657235696 0.2709135818
| 27> H 3.4042594275 2.3105319285 -0.0962933279
| 28> H 4.0897255858 -0.050706348 -0.3564223384
| 29> H 2.3978156656 -1.842786895 -0.2010069167
| 30> H -0.5017534378 -3.4344257861 -0.2120864226
| 31> *
| 32>
| 33>                          ****END OF INPUT****

CARTESIAN COORDINATES (ANGSTROEM)
---------------------------------
  C     -3.243079    1.181041    0.192584
  C     -1.901180    0.791404   -0.332537
  O     -1.689624    0.193326   -1.364263
  O     -0.924220    1.211484    0.484870
  C      0.393005    0.834122    0.255221
  C      1.341075    1.842155    0.170865
  C      2.671195    1.522154   -0.038096
  C      3.055526    0.197899   -0.182338
  C      2.112636   -0.807985   -0.099811
  C      0.770318   -0.506830    0.131010
  C     -0.218760   -1.598287    0.273988
  O     -1.262788   -1.507376    0.894667
  O      0.155008   -2.718855   -0.319011
  H     -3.957028    1.234321   -0.622619
  H     -3.176004    2.121133    0.730287
  H     -3.552690    0.402667    0.888939
  H      1.017973    2.865724    0.270914
  H      3.404259    2.310532   -0.096293
  H      4.089726   -0.050706   -0.356422
  H      2.397816   -1.842787   -0.201007
  H     -0.501753   -3.434426   -0.212086

 Total Charge           Charge          ....    0
 Multiplicity           Mult            ....    1
 Number of Electrons    NEL             ....   94
 Basis Dimension        Dim             ....  307

ORBITAL ENERGIES
----------------

  NO   OCC          E(Eh)            E(eV)
   0   2.0000     -19.023408      -517.6533
   1   2.0000     -19.006398      -517.1904
   2   2.0000     -18.952291      -515.7180
   3   2.0000     -18.948702      -515.6204
   4   2.0000     -10.179599      -277.0010
   5   2.0000     -10.178828      -276.9800
   6   2.0000     -10.121450      -275.4186
   7   2.0000     -10.068206      -273.9698
   8   2.0000     -10.053978      -273.5827
   9   2.0000     -10.051492      -273.5150
  10   2.0000     -10.049735      -273.4672
  11   2.0000     -10.044180      -273.3160
  12   2.0000     -10.034302      -273.0472
  13   2.0000      -1.100200       -29.9380
  14   2.0000      -1.084237       -29.5036
  15   2.0000      -1.004969       -27.3466
  16   2.0000      -0.991126       -26.9699
  17   2.0000      -0.848031       -23.0761
  18   2.0000      -0.756553       -20.5868
  19   2.0000      -0.751857       -20.4591
  20   2.0000      -0.709566       -19.3083
  21   2.0000      -0.649726       -17.6799
  22   2.0000      -0.612407       -16.6644
  23   2.0000      -0.598159       -16.2767
  24   2.0000      -0.544028       -14.8037
  25   2.0000      -0.502869       -13.6838
  26   2.0000      -0.476094       -12.9552
  27   2.0000      -0.472770       -12.8647
  28   2.0000      -0.464767       -12.6470
  29   2.0000      -0.461568       -12.5599
  30   2.0000      -0.441363       -12.0101
  31   2.0000      -0.430502       -11.7145
  32   2.0000      -0.421888       -11.4802
  33   2.0000      -0.415594       -11.3089
  34   2.0000      -0.384650       -10.4669
  35   2.0000      -0.375996       -10.2314
  36   2.0000      -0.371429       -10.1071
  37   2.0000      -0.361651        -9.8410
  38   2.0000      -0.353137        -9.6094
  39   2.0000      -0.343000        -9.3335
  40   2.0000      -0.332515        -9.0482
  41   2.0000      -0.313041        -8.5183
  42   2.0000      -0.298784        -8.1303
  43   2.0000      -0.268009        -7.2929
  44   2.0000      -0.258835        -7.0432
  45   2.0000      -0.252842        -6.8802
  46   2.0000      -0.243291        -6.6203
  47   0.0000      -0.085371        -2.3231
  48   0.0000      -0.049884        -1.3574
  49   0.0000      -0.022774        -0.6197
  50   0.0000       0.010075         0.2741
  51   0.0000       0.069581         1.8934

MULLIKEN ATOMIC CHARGES
-----------------------
   0 C :   -0.572782
   1 C :    0.424425
   2 O :   -0.465565
   3 O :   -0.131052
   4 C :    0.180599
   5 C :   -0.275982
   6 C :   -0.125860
   7 C :   -0.181763
   8 C :   -0.203253
   9 C :    0.047244
  10 C :    0.355867
  11 O :   -0.450483
  12 O :   -0.363690
  13 H :    0.193863
  14 H :    0.195967
  15 H :    0.211352
  16 H :    0.196760
  17 H :    0.191042
  18 H :    0.186481
  19 H :    0.199298
  20 H :    0.387531
Sum of atomic charges:    0.0000000

LOEWDIN ATOMIC CHARGES
----------------------
   0 C :   -0.324501
   1 C :    0.384727
   2 O :   -0.454572
   3 O :   -0.521497
   4 C :    0.225770
   5 C :   -0.110415
   6 C :   -0.128552
   7 C :   -0.160126
   8 C :   -0.102471
   9 C :   -0.016485
  10 C :    0.382191
  11 O :   -0.458598
  12 O :   -0.379647
  13 H :    0.184370
  14 H :    0.189090
  15 H :    0.198752
  16 H :    0.197393
  17 H :    0.186078
  18 H :    0.184310
  19 H :    0.199104
  20 H :    0.325080

  Mayer bond orders larger than 0.100000
B(  0-C ,  1-C ) :   0.9515 B(  0-C , 13-H ) :   0.9722 B(  0-C , 14-H ) :   0.9610
B(  0-C , 15-H ) :   0.9138 B(  1-C ,  2-O ) :   1.8310 B(  1-C ,  3-O ) :   0.9626
B(  3-O ,  4-C ) :   0.9104 B(  4-C ,  5-C ) :   1.3748 B(  4-C ,  9-C ) :   1.4323
B(  5-C ,  6-C ) :   1.3343 B(  5-C , 16-H ) :   0.9558 B(  6-C ,  7-C ) :   1.3652
B(  6-C , 17-H ) :   0.9487 B(  7-C ,  8-C ) :   1.3634 B(  7-C , 18-H ) :   0.9546
B(  8-C ,  9-C ) :   1.2565 B(  8-C , 19-H ) :   0.9581 B(  9-C , 10-C ) :   0.9983
B( 10-C , 11-O ) :   1.8588 B( 10-C , 12-O ) :   1.1057 B( 12-O , 20-H ) :   0.8302

Dispersion correction           -0.008140143
FINAL SINGLE POINT ENERGY      -648.601225955191

DIPOLE MOMENT
-------------

Method             : SCF
Type of density    : Electron Density
Multiplicity       :   1
Irrep              :   0
Energy             :  -648.6033374806031588 Eh
Relativity type    :
Basis              : AO
                                X                 Y                 Z
Electronic contribution:      1.322448024      -2.976223800       0.017614212
Nuclear contribution   :     -0.315635090       3.341704136       0.372377427
                        -----------------------------------------
Total Dipole Moment    :      1.006812934       0.365480336       0.389991639
                        -----------------------------------------
Magnitude (a.u.)       :      1.139886678
Magnitude (Debye)      :      2.897361678

Rotational constants in cm-1:             0.040941             0.025295             0.017395
Rotational constants in MHz :          1227.375775           758.328522           521.492535

                             ****ORCA TERMINATED NORMALLY****
TOTAL RUN TIME: 0 days 0 hours 1 minutes 8 seconds 636 msec
