                         Program Version 6.0.0  -   RELEASE  -
|  1> ! pbe def2-sv(p) def2/J RI DEFGRID1 loosescf d4 GCP(DFT/SV(P)) printgap
|  2> %output
|  3>     printlevel normal
|  4> end
|  5> * xyz 0 1
|  6> C 2.2077001573 -0.6427448167 -0.5129041369
|  7> O 0.7922064393 -0.8699175122 -0.5099036747
|  8> S -0.0613972657 0.3787960963 -0.0580058057
|  9> O -0.0466488037 1.3860447221 -1.0724752253
| 10> O 0.3453729717 0.7740420173 1.2604181043
| 11> O -1.4809950123 -0.2516286537 -0.0446961032
| 12> C -1.7162798985 -1.2345321121 0.9793355676
| 13> H 2.5067322873 -0.2741453013 0.468116717
| 14> H 2.4511078602 0.0940445022 -1.2778132716
| 15> H 2.6617937912 -1.6057845105 -0.7322523541
| 16> H -1.2501165036 -0.8904914306 1.9016314244
| 17> H -1.2846228176 -2.1830013706 0.6635193303
| 18> H -2.7959012546 -1.3062323742 1.0841157644
| 19> *
| 20>
| 21>                          ****END OF INPUT****

CARTESIAN COORDINATES (ANGSTROEM)
---------------------------------
  C      2.207700   -0.642745   -0.512904
  O      0.792206   -0.869918   -0.509904
  S     -0.061397    0.378796   -0.058006
  O     -0.046649    1.386045   -1.072475
  O      0.345373    0.774042    1.260418
  O     -1.480995   -0.251629   -0.044696
  C     -1.716280   -1.234532    0.979336
  H      2.506732   -0.274145    0.468117
  H      2.451108    0.094045   -1.277813
  H      2.661794   -1.605785   -0.732252
  H     -1.250117   -0.890491    1.901631
  H     -1.284623   -2.183001    0.663519
  H     -2.795901   -1.306232    1.084116

 Total Charge           Charge          ....    0
 Multiplicity           Mult            ....    1
 Number of Electrons    NEL             ....   66
 Basis Dimension        Dim             ....  114

ORBITAL ENERGIES
----------------

  NO   OCC          E(Eh)            E(eV)
   0   2.0000     -88.284822     -2402.3521
   1   2.0000     -18.825835      -512.2770
   2   2.0000     -18.817550      -512.0516
   3   2.0000     -18.752783      -510.2892
   4   2.0000     -18.748144      -510.1629
   5   2.0000      -9.961632      -271.0698
   6   2.0000      -9.959985      -271.0250
   7   2.0000      -7.895576      -214.8496
   8   2.0000      -5.923417      -161.1844
   9   2.0000      -5.922521      -161.1600
  10   2.0000      -5.919620      -161.0811
  11   2.0000      -1.102029       -29.9877
  12   2.0000      -0.987545       -26.8725
  13   2.0000      -0.956633       -26.0313
  14   2.0000      -0.922455       -25.1013
  15   2.0000      -0.702048       -19.1037
  16   2.0000      -0.663018       -18.0416
  17   2.0000      -0.553217       -15.0538
  18   2.0000      -0.523765       -14.2524
  19   2.0000      -0.467612       -12.7244
  20   2.0000      -0.459382       -12.5004
  21   2.0000      -0.436707       -11.8834
  22   2.0000      -0.432014       -11.7557
  23   2.0000      -0.423237       -11.5169
  24   2.0000      -0.389818       -10.6075
  25   2.0000      -0.363146        -9.8817
  26   2.0000      -0.344421        -9.3722
  27   2.0000      -0.316384        -8.6092
  28   2.0000      -0.307466        -8.3666
  29   2.0000      -0.303946        -8.2708
  30   2.0000      -0.284423        -7.7395
  31   2.0000      -0.267702        -7.2845
  32   2.0000      -0.243948        -6.6382
  33   0.0000       0.016887         0.4595
  34   0.0000       0.041341         1.1249
  35   0.0000       0.048297         1.3142
  36   0.0000       0.060894         1.6570
  37   0.0000       0.075609         2.0574

MULLIKEN ATOMIC CHARGES
-----------------------
   0 C :   -0.121561
   1 O :   -0.386488
   2 S :    0.933751
   3 O :   -0.372982
   4 O :   -0.396815
   5 O :   -0.351940
   6 C :   -0.125633
   7 H :    0.135026
   8 H :    0.134018
   9 H :    0.139427
  10 H :    0.139424
  11 H :    0.131288
  12 H :    0.142486
Sum of atomic charges:    0.0000000

LOEWDIN ATOMIC CHARGES
----------------------
   0 C :   -0.221891
   1 O :   -0.279516
   2 S :    1.120006
   3 O :   -0.439509
   4 O :   -0.454167
   5 O :   -0.248256
   6 C :   -0.222472
   7 H :    0.120218
   8 H :    0.121659
   9 H :    0.130112
  10 H :    0.122119
  11 H :    0.119759
  12 H :    0.131938

  Mayer bond orders larger than 0.100000
B(  0-C ,  1-O ) :   0.9048 B(  0-C ,  7-H ) :   0.9431 B(  0-C ,  8-H ) :   0.9490
B(  0-C ,  9-H ) :   0.9569 B(  1-O ,  2-S ) :   1.0142 B(  2-S ,  3-O ) :   1.8348
B(  2-S ,  4-O ) :   1.7709 B(  2-S ,  5-O ) :   1.0683 B(  5-O ,  6-C ) :   0.8938
B(  6-C , 10-H ) :   0.9352 B(  6-C , 11-H ) :   0.9529 B(  6-C , 12-H ) :   0.9553

Dispersion correction           -0.011655348
FINAL SINGLE POINT ENERGY      -777.743770822615

DIPOLE MOMENT
-------------

Method             : SCF
Type of density    : Electron Density
Multiplicity       :   1
Irrep              :   0
Energy             :  -777.8030447847304458 Eh
Relativity type    :
Basis              : AO
                                X                 Y                 Z
Electronic contribution:     -1.902658240       4.379679358      -1.654252720
Nuclear contribution   :      2.143456033      -5.779898056       1.973262059
                        -----------------------------------------
Total Dipole Moment    :      0.240797792      -1.400218698       0.319009339
                        -----------------------------------------
Magnitude (a.u.)       :      1.456146606
Magnitude (Debye)      :      3.701230530

Rotational constants in cm-1:             0.116242             0.070126             0.059840
Rotational constants in MHz :          3484.849845          2102.330637          1793.952126

                             ****ORCA TERMINATED NORMALLY****
TOTAL RUN TIME: 0 days 0 hours 0 minutes 7 seconds 469 msec
