                         Program Version 6.0.0  -   RELEASE  -
|  1> ! r2scan-3c def2/J RI DEFGRID2 scfconv6 printgap
|  2> %output
|  3>     printlevel normal
|  4> end
|  5> * xyz 0 1
|  6> C 2.0236789445 -0.2833265619 0.7305191925
|  7> C 1.4247171848 0.6567020931 -0.3099141456
|  8> C 0.2463283055 0.0848553757 -1.1043835992
|  9> C -1.0935519671 -0.1249981968 -0.3757163734
| 10> C -1.5007860516 1.0900415061 0.4548384388
| 11> C -1.1317519462 -1.3927650045 0.4768325316
| 12> H 2.9798570628 0.1057304453 1.0748151435
| 13> H 1.3757552552 -0.3848188309 1.5960981702
| 14> H 2.1892607131 -1.269960784 0.3040142511
| 15> H 1.1296708538 1.5910998145 0.168982475
| 16> H 2.2058301507 0.9010754506 -1.0353212977
| 17> H 0.0583760395 0.7756824482 -1.9314036957
| 18> H 0.5510763385 -0.8679868715 -1.5444893822
| 19> H -1.8439452772 -0.2527786993 -1.1670015273
| 20> H -0.8502169169 1.2053484736 1.3179716448
| 21> H -2.5203420433 0.9709928764 0.8147567134
| 22> H -1.4522351894 1.9971310738 -0.1434325249
| 23> H -2.1514212054 -1.5872881265 0.8034318133
| 24> H -0.7881049194 -2.2508501985 -0.0960014855
| 25> H -0.5097823301 -1.2969509798 1.3608394774
| 26> *
| 27>
| 28>                          ****END OF INPUT****

CARTESIAN COORDINATES (ANGSTROEM)
---------------------------------
  C      2.023679   -0.283327    0.730519
  C      1.424717    0.656702   -0.309914
  C      0.246328    0.084855   -1.104384
  C     -1.093552   -0.124998   -0.375716
  C     -1.500786    1.090042    0.454838
  C     -1.131752   -1.392765    0.476833
  H      2.979857    0.105730    1.074815
  H      1.375755   -0.384819    1.596098
  H      2.189261   -1.269961    0.304014
  H      1.129671    1.591100    0.168982
  H      2.205830    0.901075   -1.035321
  H      0.058376    0.775682   -1.931404
  H      0.551076   -0.867987   -1.544489
  H     -1.843945   -0.252779   -1.167002
  H     -0.850217    1.205348    1.317972
  H     -2.520342    0.970993    0.814757
  H     -1.452235    1.997131   -0.143433
  H     -2.151421   -1.587288    0.803432
  H     -0.788105   -2.250850   -0.096001
  H     -0.509782   -1.296951    1.360839

 Total Charge           Charge          ....    0
 Multiplicity           Mult            ....    1
 Number of Electrons    NEL             ....   50
 Basis Dimension        Dim             ....  184

ORBITAL ENERGIES
----------------

  NO   OCC          E(Eh)            E(eV)
   0   2.0000     -10.029790      -272.9245
   1   2.0000     -10.021129      -272.6888
   2   2.0000     -10.018428      -272.6153
   3   2.0000     -10.012768      -272.4613
   4   2.0000     -10.012730      -272.4602
   5   2.0000     -10.010322      -272.3947
   6   2.0000      -0.777261       -21.1503
   7   2.0000      -0.723339       -19.6831
   8   2.0000      -0.648435       -17.6448
   9   2.0000      -0.644757       -17.5447
  10   2.0000      -0.565149       -15.3785
  11   2.0000      -0.504059       -13.7161
  12   2.0000      -0.442110       -12.0304
  13   2.0000      -0.420232       -11.4351
  14   2.0000      -0.398633       -10.8474
  15   2.0000      -0.381436       -10.3794
  16   2.0000      -0.380109       -10.3433
  17   2.0000      -0.351302        -9.5594
  18   2.0000      -0.343249        -9.3403
  19   2.0000      -0.325864        -8.8672
  20   2.0000      -0.318707        -8.6725
  21   2.0000      -0.306939        -8.3522
  22   2.0000      -0.285650        -7.7729
  23   2.0000      -0.276867        -7.5339
  24   2.0000      -0.269204        -7.3254
  25   0.0000       0.078546         2.1373
  26   0.0000       0.112111         3.0507
  27   0.0000       0.119157         3.2424
  28   0.0000       0.127986         3.4827
  29   0.0000       0.134175         3.6511

MULLIKEN ATOMIC CHARGES
-----------------------
   0 C :   -0.468738
   1 C :   -0.262517
   2 C :   -0.280555
   3 C :   -0.014646
   4 C :   -0.506224
   5 C :   -0.490335
   6 H :    0.142764
   7 H :    0.139612
   8 H :    0.146814
   9 H :    0.148953
  10 H :    0.136851
  11 H :    0.142658
  12 H :    0.142367
  13 H :    0.141855
  14 H :    0.153475
  15 H :    0.145662
  16 H :    0.150121
  17 H :    0.143002
  18 H :    0.146181
  19 H :    0.142697
Sum of atomic charges:    0.0000000

LOEWDIN ATOMIC CHARGES
----------------------
   0 C :   -0.426653
   1 C :   -0.315583
   2 C :   -0.309159
   3 C :   -0.247117
   4 C :   -0.418314
   5 C :   -0.418063
   6 H :    0.149573
   7 H :    0.145687
   8 H :    0.150548
   9 H :    0.153087
  10 H :    0.152268
  11 H :    0.157538
  12 H :    0.155674
  13 H :    0.155052
  14 H :    0.151678
  15 H :    0.153552
  16 H :    0.154308
  17 H :    0.151779
  18 H :    0.152959
  19 H :    0.151185

  Mayer bond orders larger than 0.100000
B(  0-C ,  1-C ) :   0.8858 B(  0-C ,  6-H ) :   0.9684 B(  0-C ,  7-H ) :   0.9813
B(  0-C ,  8-H ) :   0.9830 B(  1-C ,  2-C ) :   0.9025 B(  1-C ,  9-H ) :   0.9800
B(  1-C , 10-H ) :   0.9607 B(  2-C ,  3-C ) :   0.9010 B(  2-C , 11-H ) :   0.9657
B(  2-C , 12-H ) :   0.9903 B(  3-C ,  4-C ) :   0.8896 B(  3-C ,  5-C ) :   0.9304
B(  3-C , 13-H ) :   0.9613 B(  4-C , 14-H ) :   0.9801 B(  4-C , 15-H ) :   0.9698
B(  4-C , 16-H ) :   0.9756 B(  5-C , 17-H ) :   0.9709 B(  5-C , 18-H ) :   0.9771
B(  5-C , 19-H ) :   0.9783

Dispersion correction           -0.005256451
FINAL SINGLE POINT ENERGY      -236.983542799425

DIPOLE MOMENT
-------------

Method             : SCF
Type of density    : Electron Density
Multiplicity       :   1
Irrep              :   0
Energy             :  -236.9879580311859399 Eh
Relativity type    :
Basis              : AO
                                X                 Y                 Z
Electronic contribution:     -0.361193878       0.365673444      -1.489449088
Nuclear contribution   :      0.350664507      -0.341090925       1.429063181
                        -----------------------------------------
Total Dipole Moment    :     -0.010529371       0.024582519      -0.060385907
                        -----------------------------------------
Magnitude (a.u.)       :      0.066042605
Magnitude (Debye)      :      0.167866961

Rotational constants in cm-1:             0.149737             0.078604             0.069705
Rotational constants in MHz :          4489.007858          2356.490256          2089.708312

                             ****ORCA TERMINATED NORMALLY****
TOTAL RUN TIME: 0 days 0 hours 0 minutes 16 seconds 999 msec
