                         Program Version 6.0.0  -   RELEASE  -
|  1> ! r2scan-3c def2/J RI DEFGRID2 scfconv6 printgap
|  2> %output
|  3>     printlevel normal
|  4> end
|  5> %cpcm
|  6>     smd true
|  7>     smdsolvent "water"
|  8> end
|  9> * xyz 0 1
| 10> C 2.0236789445 -0.2833265619 0.7305191925
| 11> C 1.4247171848 0.6567020931 -0.3099141456
| 12> C 0.2463283055 0.0848553757 -1.1043835992
| 13> C -1.0935519671 -0.1249981968 -0.3757163734
| 14> C -1.5007860516 1.0900415061 0.4548384388
| 15> C -1.1317519462 -1.3927650045 0.4768325316
| 16> H 2.9798570628 0.1057304453 1.0748151435
| 17> H 1.3757552552 -0.3848188309 1.5960981702
| 18> H 2.1892607131 -1.269960784 0.3040142511
| 19> H 1.1296708538 1.5910998145 0.168982475
| 20> H 2.2058301507 0.9010754506 -1.0353212977
| 21> H 0.0583760395 0.7756824482 -1.9314036957
| 22> H 0.5510763385 -0.8679868715 -1.5444893822
| 23> H -1.8439452772 -0.2527786993 -1.1670015273
| 24> H -0.8502169169 1.2053484736 1.3179716448
| 25> H -2.5203420433 0.9709928764 0.8147567134
| 26> H -1.4522351894 1.9971310738 -0.1434325249
| 27> H -2.1514212054 -1.5872881265 0.8034318133
| 28> H -0.7881049194 -2.2508501985 -0.0960014855
| 29> H -0.5097823301 -1.2969509798 1.3608394774
| 30> *
| 31>
| 32>                          ****END OF INPUT****

CARTESIAN COORDINATES (ANGSTROEM)
---------------------------------
  C      2.023679   -0.283327    0.730519
  C      1.424717    0.656702   -0.309914
  C      0.246328    0.084855   -1.104384
  C     -1.093552   -0.124998   -0.375716
  C     -1.500786    1.090042    0.454838
  C     -1.131752   -1.392765    0.476833
  H      2.979857    0.105730    1.074815
  H      1.375755   -0.384819    1.596098
  H      2.189261   -1.269961    0.304014
  H      1.129671    1.591100    0.168982
  H      2.205830    0.901075   -1.035321
  H      0.058376    0.775682   -1.931404
  H      0.551076   -0.867987   -1.544489
  H     -1.843945   -0.252779   -1.167002
  H     -0.850217    1.205348    1.317972
  H     -2.520342    0.970993    0.814757
  H     -1.452235    1.997131   -0.143433
  H     -2.151421   -1.587288    0.803432
  H     -0.788105   -2.250850   -0.096001
  H     -0.509782   -1.296951    1.360839

 Total Charge           Charge          ....    0
 Multiplicity           Mult            ....    1
 Number of Electrons    NEL             ....   50
 Basis Dimension        Dim             ....  184

ORBITAL ENERGIES
----------------

  NO   OCC          E(Eh)            E(eV)
   0   2.0000     -10.022525      -272.7268
   1   2.0000     -10.013829      -272.4901
   2   2.0000     -10.010759      -272.4066
   3   2.0000     -10.005300      -272.2580
   4   2.0000     -10.004814      -272.2448
   5   2.0000     -10.003068      -272.1973
   6   2.0000      -0.769905       -20.9502
   7   2.0000      -0.716251       -19.4902
   8   2.0000      -0.641655       -17.4603
   9   2.0000      -0.637638       -17.3510
  10   2.0000      -0.558292       -15.1919
  11   2.0000      -0.496999       -13.5240
  12   2.0000      -0.434558       -11.8249
  13   2.0000      -0.412956       -11.2371
  14   2.0000      -0.391481       -10.6527
  15   2.0000      -0.374051       -10.1784
  16   2.0000      -0.372900       -10.1471
  17   2.0000      -0.343988        -9.3604
  18   2.0000      -0.336287        -9.1508
  19   2.0000      -0.318255        -8.6602
  20   2.0000      -0.311436        -8.4746
  21   2.0000      -0.299781        -8.1575
  22   2.0000      -0.278291        -7.5727
  23   2.0000      -0.269609        -7.3364
  24   2.0000      -0.261690        -7.1209
  25   0.0000       0.086786         2.3616
  26   0.0000       0.119594         3.2543
  27   0.0000       0.126028         3.4294
  28   0.0000       0.133998         3.6463
  29   0.0000       0.139673         3.8007

MULLIKEN ATOMIC CHARGES
-----------------------
   0 C :   -0.511585
   1 C :   -0.268062
   2 C :   -0.298246
   3 C :    0.005431
   4 C :   -0.545667
   5 C :   -0.539164
   6 H :    0.151370
   7 H :    0.156202
   8 H :    0.156190
   9 H :    0.154542
  10 H :    0.144095
  11 H :    0.149671
  12 H :    0.150827
  13 H :    0.147332
  14 H :    0.165177
  15 H :    0.155810
  16 H :    0.159055
  17 H :    0.153227
  18 H :    0.157171
  19 H :    0.156623
Sum of atomic charges:    0.0000000

LOEWDIN ATOMIC CHARGES
----------------------
   0 C :   -0.435470
   1 C :   -0.317739
   2 C :   -0.312250
   3 C :   -0.245146
   4 C :   -0.426320
   5 C :   -0.427533
   6 H :    0.151189
   7 H :    0.149885
   8 H :    0.152370
   9 H :    0.154545
  10 H :    0.153617
  11 H :    0.158994
  12 H :    0.157783
  13 H :    0.156622
  14 H :    0.154751
  15 H :    0.155349
  16 H :    0.156389
  17 H :    0.153727
  18 H :    0.155033
  19 H :    0.154206

  Mayer bond orders larger than 0.100000
B(  0-C ,  1-C ) :   0.8741 B(  0-C ,  6-H ) :   0.9664 B(  0-C ,  7-H ) :   0.9793
B(  0-C ,  8-H ) :   0.9806 B(  1-C ,  2-C ) :   0.8996 B(  1-C ,  9-H ) :   0.9799
B(  1-C , 10-H ) :   0.9615 B(  2-C ,  3-C ) :   0.8976 B(  2-C , 11-H ) :   0.9660
B(  2-C , 12-H ) :   0.9897 B(  3-C ,  4-C ) :   0.8839 B(  3-C ,  5-C ) :   0.9175
B(  3-C , 13-H ) :   0.9625 B(  4-C , 14-H ) :   0.9775 B(  4-C , 15-H ) :   0.9687
B(  4-C , 16-H ) :   0.9730 B(  5-C , 17-H ) :   0.9694 B(  5-C , 18-H ) :   0.9749
B(  5-C , 19-H ) :   0.9774

Dispersion correction           -0.005256451
FINAL SINGLE POINT ENERGY      -236.980390230974

DIPOLE MOMENT
-------------

Method             : SCF
Type of density    : Electron Density
Multiplicity       :   1
Irrep              :   0
Energy             :  -236.9848054627347551 Eh
Relativity type    :
Basis              : AO
                                X                 Y                 Z
Electronic contribution:     -0.366235339       0.373838733      -1.495469841
Nuclear contribution   :      0.350664507      -0.341090925       1.429063181
                        -----------------------------------------
Total Dipole Moment    :     -0.015570832       0.032747808      -0.066406660
                        -----------------------------------------
Magnitude (a.u.)       :      0.075661842
Magnitude (Debye)      :      0.192317118

Rotational constants in cm-1:             0.149737             0.078604             0.069705
Rotational constants in MHz :          4489.007858          2356.490256          2089.708312

                             ****ORCA TERMINATED NORMALLY****
TOTAL RUN TIME: 0 days 0 hours 0 minutes 20 seconds 762 msec
