                         Program Version 6.0.0  -   RELEASE  -
|  1> ! r2scan-3c def2/J RI DEFGRID2 scfconv6 printgap
|  2> %output
|  3>     printlevel normal
|  4> end
|  5> * xyz 0 1
|  6> C 2.4400586299 0.9433217058 -0.1485061762
|  7> C 1.1730977217 0.2272599822 0.3131316806
|  8> C 1.3987722609 -1.2820686871 0.3561740176
|  9> C 0.0096226005 0.5649900367 -0.6343328022
| 10> C -1.3081905299 -0.0152519736 -0.1884287858
| 11> O -1.9369555401 -0.7906389135 -0.884520562
| 12> C -1.8005559895 0.4198919813 1.1613731176
| 13> H 2.296537981 2.0208200559 -0.1477708929
| 14> H 3.2681397686 0.7061235938 0.5144845061
| 15> H 2.7075158655 0.6316920118 -1.1555121316
| 16> H 0.9247790906 0.5783807911 1.3185863558
| 17> H 2.190439186 -1.5296608351 1.05896672
| 18> H 1.6848722322 -1.6491116122 -0.627199558
| 19> H 0.4923369338 -1.8036984009 0.6573597678
| 20> H 0.2325478188 0.1886839796 -1.6349569627
| 21> H -0.104061907 1.6494466736 -0.6873665885
| 22> H -2.8670067909 0.2289614294 1.2456977165
| 23> H -1.2882888784 -0.1664736013 1.9221122697
| 24> H -1.5852075768 1.4690666075 1.3349957
| 25> *
| 26>
| 27>                          ****END OF INPUT****

CARTESIAN COORDINATES (ANGSTROEM)
---------------------------------
  C      2.440059    0.943322   -0.148506
  C      1.173098    0.227260    0.313132
  C      1.398772   -1.282069    0.356174
  C      0.009623    0.564990   -0.634333
  C     -1.308191   -0.015252   -0.188429
  O     -1.936956   -0.790639   -0.884521
  C     -1.800556    0.419892    1.161373
  H      2.296538    2.020820   -0.147771
  H      3.268140    0.706124    0.514485
  H      2.707516    0.631692   -1.155512
  H      0.924779    0.578381    1.318586
  H      2.190439   -1.529661    1.058967
  H      1.684872   -1.649112   -0.627200
  H      0.492337   -1.803698    0.657360
  H      0.232548    0.188684   -1.634957
  H     -0.104062    1.649447   -0.687367
  H     -2.867007    0.228961    1.245698
  H     -1.288289   -0.166474    1.922112
  H     -1.585208    1.469067    1.334996

 Total Charge           Charge          ....    0
 Multiplicity           Mult            ....    1
 Number of Electrons    NEL             ....   56
 Basis Dimension        Dim             ....  198

ORBITAL ENERGIES
----------------

  NO   OCC          E(Eh)            E(eV)
   0   2.0000     -18.935140      -515.2514
   1   2.0000     -10.117205      -275.3031
   2   2.0000     -10.050688      -273.4931
   3   2.0000     -10.035538      -273.0809
   4   2.0000     -10.034200      -273.0445
   5   2.0000     -10.025444      -272.8062
   6   2.0000     -10.023203      -272.7452
   7   2.0000      -1.000343       -27.2207
   8   2.0000      -0.792059       -21.5530
   9   2.0000      -0.724096       -19.7037
  10   2.0000      -0.669266       -18.2117
  11   2.0000      -0.659737       -17.9524
  12   2.0000      -0.549692       -14.9579
  13   2.0000      -0.501143       -13.6368
  14   2.0000      -0.449802       -12.2397
  15   2.0000      -0.436862       -11.8876
  16   2.0000      -0.426846       -11.6151
  17   2.0000      -0.408476       -11.1152
  18   2.0000      -0.393429       -10.7057
  19   2.0000      -0.378779       -10.3071
  20   2.0000      -0.362838        -9.8733
  21   2.0000      -0.348565        -9.4849
  22   2.0000      -0.345911        -9.4127
  23   2.0000      -0.333375        -9.0716
  24   2.0000      -0.316166        -8.6033
  25   2.0000      -0.307085        -8.3562
  26   2.0000      -0.301636        -8.2079
  27   2.0000      -0.210244        -5.7210
  28   0.0000      -0.045939        -1.2501
  29   0.0000       0.070618         1.9216
  30   0.0000       0.100993         2.7481
  31   0.0000       0.117148         3.1878
  32   0.0000       0.121305         3.3009

MULLIKEN ATOMIC CHARGES
-----------------------
   0 C :   -0.470524
   1 C :   -0.065845
   2 C :   -0.474868
   3 C :   -0.295270
   4 C :    0.254617
   5 O :   -0.336770
   6 C :   -0.511941
   7 H :    0.144860
   8 H :    0.149672
   9 H :    0.152216
  10 H :    0.151397
  11 H :    0.148123
  12 H :    0.157417
  13 H :    0.152448
  14 H :    0.171786
  15 H :    0.158057
  16 H :    0.178837
  17 H :    0.175312
  18 H :    0.160477
Sum of atomic charges:   -0.0000000

LOEWDIN ATOMIC CHARGES
----------------------
   0 C :   -0.411352
   1 C :   -0.235044
   2 C :   -0.406892
   3 C :   -0.274593
   4 C :    0.210561
   5 O :   -0.462358
   6 C :   -0.391091
   7 H :    0.153240
   8 H :    0.154888
   9 H :    0.156329
  10 H :    0.157216
  11 H :    0.154437
  12 H :    0.158978
  13 H :    0.158760
  14 H :    0.180902
  15 H :    0.174602
  16 H :    0.176831
  17 H :    0.178641
  18 H :    0.165944

  Mayer bond orders larger than 0.100000
B(  0-C ,  1-C ) :   0.9079 B(  0-C ,  7-H ) :   0.9769 B(  0-C ,  8-H ) :   0.9739
B(  0-C ,  9-H ) :   0.9861 B(  1-C ,  2-C ) :   0.9110 B(  1-C ,  3-C ) :   0.8843
B(  1-C , 10-H ) :   0.9466 B(  2-C , 11-H ) :   0.9694 B(  2-C , 12-H ) :   0.9816
B(  2-C , 13-H ) :   0.9632 B(  3-C ,  4-C ) :   0.9051 B(  3-C , 14-H ) :   0.9866
B(  3-C , 15-H ) :   0.9462 B(  4-C ,  5-O ) :   1.9796 B(  4-C ,  6-C ) :   0.9008
B(  6-C , 16-H ) :   0.9707 B(  6-C , 17-H ) :   0.9385 B(  6-C , 18-H ) :   0.9598

Dispersion correction           -0.005129001
FINAL SINGLE POINT ENERGY      -311.004749644239

DIPOLE MOMENT
-------------

Method             : SCF
Type of density    : Electron Density
Multiplicity       :   1
Irrep              :   0
Energy             :  -311.0084709801399754 Eh
Relativity type    :
Basis              : AO
                                X                 Y                 Z
Electronic contribution:     -6.706913601      -1.460350286      -2.831102526
Nuclear contribution   :      7.432122344       2.168783675       3.551340550
                        -----------------------------------------
Total Dipole Moment    :      0.725208744       0.708433389       0.720238024
                        -----------------------------------------
Magnitude (a.u.)       :      1.243602991
Magnitude (Debye)      :      3.160987596

Rotational constants in cm-1:             0.145991             0.051184             0.049059
Rotational constants in MHz :          4376.688592          1534.452756          1470.753342

                             ****ORCA TERMINATED NORMALLY****
TOTAL RUN TIME: 0 days 0 hours 0 minutes 29 seconds 117 msec
