                         Program Version 6.0.0  -   RELEASE  -
|  1> ! r2scan-3c def2/J RI DEFGRID2 scfconv6 printgap
|  2> %output
|  3>     printlevel normal
|  4> end
|  5> %cpcm
|  6>     smd true
|  7>     smdsolvent "water"
|  8> end
|  9> * xyz 0 1
| 10> C 2.4400586299 0.9433217058 -0.1485061762
| 11> C 1.1730977217 0.2272599822 0.3131316806
| 12> C 1.3987722609 -1.2820686871 0.3561740176
| 13> C 0.0096226005 0.5649900367 -0.6343328022
| 14> C -1.3081905299 -0.0152519736 -0.1884287858
| 15> O -1.9369555401 -0.7906389135 -0.884520562
| 16> C -1.8005559895 0.4198919813 1.1613731176
| 17> H 2.296537981 2.0208200559 -0.1477708929
| 18> H 3.2681397686 0.7061235938 0.5144845061
| 19> H 2.7075158655 0.6316920118 -1.1555121316
| 20> H 0.9247790906 0.5783807911 1.3185863558
| 21> H 2.190439186 -1.5296608351 1.05896672
| 22> H 1.6848722322 -1.6491116122 -0.627199558
| 23> H 0.4923369338 -1.8036984009 0.6573597678
| 24> H 0.2325478188 0.1886839796 -1.6349569627
| 25> H -0.104061907 1.6494466736 -0.6873665885
| 26> H -2.8670067909 0.2289614294 1.2456977165
| 27> H -1.2882888784 -0.1664736013 1.9221122697
| 28> H -1.5852075768 1.4690666075 1.3349957
| 29> *
| 30>
| 31>                          ****END OF INPUT****

CARTESIAN COORDINATES (ANGSTROEM)
---------------------------------
  C      2.440059    0.943322   -0.148506
  C      1.173098    0.227260    0.313132
  C      1.398772   -1.282069    0.356174
  C      0.009623    0.564990   -0.634333
  C     -1.308191   -0.015252   -0.188429
  O     -1.936956   -0.790639   -0.884521
  C     -1.800556    0.419892    1.161373
  H      2.296538    2.020820   -0.147771
  H      3.268140    0.706124    0.514485
  H      2.707516    0.631692   -1.155512
  H      0.924779    0.578381    1.318586
  H      2.190439   -1.529661    1.058967
  H      1.684872   -1.649112   -0.627200
  H      0.492337   -1.803698    0.657360
  H      0.232548    0.188684   -1.634957
  H     -0.104062    1.649447   -0.687367
  H     -2.867007    0.228961    1.245698
  H     -1.288289   -0.166474    1.922112
  H     -1.585208    1.469067    1.334996

 Total Charge           Charge          ....    0
 Multiplicity           Mult            ....    1
 Number of Electrons    NEL             ....   56
 Basis Dimension        Dim             ....  198

ORBITAL ENERGIES
----------------

  NO   OCC          E(Eh)            E(eV)
   0   2.0000     -18.945558      -515.5348
   1   2.0000     -10.124135      -275.4917
   2   2.0000     -10.036643      -273.1109
   3   2.0000     -10.025875      -272.8179
   4   2.0000     -10.022119      -272.7157
   5   2.0000     -10.010088      -272.3884
   6   2.0000     -10.009650      -272.3764
   7   2.0000      -1.013549       -27.5801
   8   2.0000      -0.779914       -21.2225
   9   2.0000      -0.714821       -19.4513
  10   2.0000      -0.659116       -17.9355
  11   2.0000      -0.645856       -17.5746
  12   2.0000      -0.538124       -14.6431
  13   2.0000      -0.495852       -13.4928
  14   2.0000      -0.441962       -12.0264
  15   2.0000      -0.432589       -11.7713
  16   2.0000      -0.420151       -11.4329
  17   2.0000      -0.404435       -11.0052
  18   2.0000      -0.383641       -10.4394
  19   2.0000      -0.370574       -10.0838
  20   2.0000      -0.349914        -9.5216
  21   2.0000      -0.338666        -9.2156
  22   2.0000      -0.336750        -9.1634
  23   2.0000      -0.332873        -9.0579
  24   2.0000      -0.305346        -8.3089
  25   2.0000      -0.294312        -8.0086
  26   2.0000      -0.290434        -7.9031
  27   2.0000      -0.221514        -6.0277
  28   0.0000      -0.048857        -1.3295
  29   0.0000       0.084793         2.3073
  30   0.0000       0.112692         3.0665
  31   0.0000       0.132088         3.5943
  32   0.0000       0.136076         3.7028

MULLIKEN ATOMIC CHARGES
-----------------------
   0 C :   -0.522529
   1 C :   -0.022357
   2 C :   -0.532500
   3 C :   -0.308302
   4 C :    0.290005
   5 O :   -0.448161
   6 C :   -0.542046
   7 H :    0.159668
   8 H :    0.161793
   9 H :    0.163182
  10 H :    0.169750
  11 H :    0.162704
  12 H :    0.168352
  13 H :    0.159980
  14 H :    0.171992
  15 H :    0.188675
  16 H :    0.180967
  17 H :    0.207616
  18 H :    0.191212
Sum of atomic charges:   -0.0000000

LOEWDIN ATOMIC CHARGES
----------------------
   0 C :   -0.418279
   1 C :   -0.226435
   2 C :   -0.416373
   3 C :   -0.271840
   4 C :    0.228208
   5 O :   -0.542908
   6 C :   -0.388233
   7 H :    0.157315
   8 H :    0.158045
   9 H :    0.158274
  10 H :    0.164821
  11 H :    0.158956
  12 H :    0.159648
  13 H :    0.159122
  14 H :    0.180357
  15 H :    0.189114
  16 H :    0.177009
  17 H :    0.192925
  18 H :    0.180274

  Mayer bond orders larger than 0.100000
B(  0-C ,  1-C ) :   0.8938 B(  0-C ,  7-H ) :   0.9743 B(  0-C ,  8-H ) :   0.9715
B(  0-C ,  9-H ) :   0.9854 B(  1-C ,  2-C ) :   0.8882 B(  1-C ,  3-C ) :   0.8840
B(  1-C , 10-H ) :   0.9448 B(  2-C , 11-H ) :   0.9662 B(  2-C , 12-H ) :   0.9822
B(  2-C , 13-H ) :   0.9630 B(  3-C ,  4-C ) :   0.9254 B(  3-C , 14-H ) :   0.9880
B(  3-C , 15-H ) :   0.9285 B(  4-C ,  5-O ) :   1.8990 B(  4-C ,  6-C ) :   0.9279
B(  6-C , 16-H ) :   0.9649 B(  6-C , 17-H ) :   0.9238 B(  6-C , 18-H ) :   0.9467

Dispersion correction           -0.005129001
FINAL SINGLE POINT ENERGY      -311.011552220236

DIPOLE MOMENT
-------------

Method             : SCF
Type of density    : Electron Density
Multiplicity       :   1
Irrep              :   0
Energy             :  -311.0152735561365489 Eh
Relativity type    :
Basis              : AO
                                X                 Y                 Z
Electronic contribution:     -6.425107249      -1.081575548      -2.469460452
Nuclear contribution   :      7.432122344       2.168783675       3.551340550
                        -----------------------------------------
Total Dipole Moment    :      1.007015096       1.087208128       1.081880098
                        -----------------------------------------
Magnitude (a.u.)       :      1.834820281
Magnitude (Debye)      :      4.663742519

Rotational constants in cm-1:             0.145991             0.051184             0.049059
Rotational constants in MHz :          4376.688592          1534.452756          1470.753342

                             ****ORCA TERMINATED NORMALLY****
TOTAL RUN TIME: 0 days 0 hours 0 minutes 31 seconds 540 msec
