                         Program Version 6.0.0  -   RELEASE  -
|  1> ! r2scan-3c def2/J RI DEFGRID2 scfconv6 printgap
|  2> %output
|  3>     printlevel normal
|  4> end
|  5> * xyz 0 1
|  6> C 2.6395268918 0.5617175147 0.5562289759
|  7> C 1.3183653891 -0.1505706772 0.8264315116
|  8> C 0.2891221881 0.0399186977 -0.2995901866
|  9> H 0.3509628917 1.0749402929 -0.6551568811
| 10> C 0.6381905482 -0.8887470254 -1.4636564421
| 11> C -1.1446492149 -0.1946414544 0.2238121291
| 12> C -1.6036267712 0.9719282261 1.1010063745
| 13> C -2.1617999778 -0.372961661 -0.9046192462
| 14> H 3.3290130437 0.401001936 1.3818183485
| 15> H 3.1096324803 0.1945413046 -0.3524932346
| 16> H 2.477351144 1.6320486181 0.4486644353
| 17> H 0.915979321 0.2288676649 1.7662563075
| 18> H 1.5006802837 -1.2194973737 0.9594953265
| 19> H 0.4512127771 -1.9253394201 -1.1902430672
| 20> H 0.058183666 -0.6497385094 -2.3499381113
| 21> H 1.6898542041 -0.7895202061 -1.719561515
| 22> H -1.1392549377 -1.1090260396 0.8288344081
| 23> H -0.9242929932 1.1491472392 1.9299968707
| 24> H -2.5890369498 0.7671287248 1.5132795468
| 25> H -1.6633950307 1.8825839049 0.5084096839
| 26> H -3.1658938915 -0.4234650591 -0.488981439
| 27> H -1.9848541581 -1.2872381261 -1.4626182781
| 28> H -2.1197583411 0.4710682474 -1.5898262351
| 29> *
| 30>
| 31>                          ****END OF INPUT****

CARTESIAN COORDINATES (ANGSTROEM)
---------------------------------
  C      2.639527    0.561718    0.556229
  C      1.318365   -0.150571    0.826432
  C      0.289122    0.039919   -0.299590
  H      0.350963    1.074940   -0.655157
  C      0.638191   -0.888747   -1.463656
  C     -1.144649   -0.194641    0.223812
  C     -1.603627    0.971928    1.101006
  C     -2.161800   -0.372962   -0.904619
  H      3.329013    0.401002    1.381818
  H      3.109632    0.194541   -0.352493
  H      2.477351    1.632049    0.448664
  H      0.915979    0.228868    1.766256
  H      1.500680   -1.219497    0.959495
  H      0.451213   -1.925339   -1.190243
  H      0.058184   -0.649739   -2.349938
  H      1.689854   -0.789520   -1.719562
  H     -1.139255   -1.109026    0.828834
  H     -0.924293    1.149147    1.929997
  H     -2.589037    0.767129    1.513280
  H     -1.663395    1.882584    0.508410
  H     -3.165894   -0.423465   -0.488981
  H     -1.984854   -1.287238   -1.462618
  H     -2.119758    0.471068   -1.589826

 Total Charge           Charge          ....    0
 Multiplicity           Mult            ....    1
 Number of Electrons    NEL             ....   58
 Basis Dimension        Dim             ....  213

ORBITAL ENERGIES
----------------

  NO   OCC          E(Eh)            E(eV)
   0   2.0000     -10.029279      -272.9106
   1   2.0000     -10.027289      -272.8564
   2   2.0000     -10.019709      -272.6502
   3   2.0000     -10.013800      -272.4894
   4   2.0000     -10.011894      -272.4375
   5   2.0000     -10.011610      -272.4298
   6   2.0000     -10.011542      -272.4279
   7   2.0000      -0.788651       -21.4603
   8   2.0000      -0.729954       -19.8630
   9   2.0000      -0.682201       -18.5636
  10   2.0000      -0.645768       -17.5722
  11   2.0000      -0.604696       -16.4546
  12   2.0000      -0.552243       -15.0273
  13   2.0000      -0.515691       -14.0327
  14   2.0000      -0.434895       -11.8341
  15   2.0000      -0.418753       -11.3949
  16   2.0000      -0.415846       -11.3158
  17   2.0000      -0.386642       -10.5211
  18   2.0000      -0.377218       -10.2646
  19   2.0000      -0.365522        -9.9464
  20   2.0000      -0.351746        -9.5715
  21   2.0000      -0.338890        -9.2217
  22   2.0000      -0.332835        -9.0569
  23   2.0000      -0.322422        -8.7736
  24   2.0000      -0.310354        -8.4452
  25   2.0000      -0.303973        -8.2715
  26   2.0000      -0.283314        -7.7094
  27   2.0000      -0.273380        -7.4391
  28   2.0000      -0.270274        -7.3545
  29   0.0000       0.083192         2.2638
  30   0.0000       0.106147         2.8884
  31   0.0000       0.113710         3.0942
  32   0.0000       0.116177         3.1613
  33   0.0000       0.122398         3.3306

MULLIKEN ATOMIC CHARGES
-----------------------
   0 C :   -0.491307
   1 C :   -0.256636
   2 C :   -0.051974
   3 H :    0.156155
   4 C :   -0.533994
   5 C :   -0.029954
   6 C :   -0.505349
   7 C :   -0.500882
   8 H :    0.146834
   9 H :    0.136990
  10 H :    0.148306
  11 H :    0.133813
  12 H :    0.143806
  13 H :    0.162631
  14 H :    0.157993
  15 H :    0.139813
  16 H :    0.150838
  17 H :    0.137420
  18 H :    0.146793
  19 H :    0.152499
  20 H :    0.143138
  21 H :    0.156129
  22 H :    0.156935
Sum of atomic charges:   -0.0000000

LOEWDIN ATOMIC CHARGES
----------------------
   0 C :   -0.422462
   1 C :   -0.309182
   2 C :   -0.234269
   3 H :    0.158898
   4 C :   -0.413631
   5 C :   -0.240003
   6 C :   -0.417211
   7 C :   -0.416398
   8 H :    0.150157
   9 H :    0.147683
  10 H :    0.149688
  11 H :    0.153435
  12 H :    0.155136
  13 H :    0.154770
  14 H :    0.154324
  15 H :    0.152726
  16 H :    0.158908
  17 H :    0.149988
  18 H :    0.152362
  19 H :    0.153464
  20 H :    0.152960
  21 H :    0.153981
  22 H :    0.154676

  Mayer bond orders larger than 0.100000
B(  0-C ,  1-C ) :   0.9070 B(  0-C ,  8-H ) :   0.9735 B(  0-C ,  9-H ) :   0.9771
B(  0-C , 10-H ) :   0.9938 B(  1-C ,  2-C ) :   0.8746 B(  1-C , 11-H ) :   0.9739
B(  1-C , 12-H ) :   0.9666 B(  2-C ,  3-H ) :   0.9924 B(  2-C ,  4-C ) :   0.8539
B(  2-C ,  5-C ) :   0.8641 B(  4-C , 13-H ) :   0.9943 B(  4-C , 14-H ) :   0.9702
B(  4-C , 15-H ) :   0.9729 B(  5-C ,  6-C ) :   0.9229 B(  5-C ,  7-C ) :   0.8701
B(  5-C , 16-H ) :   0.9567 B(  6-C , 17-H ) :   0.9688 B(  6-C , 18-H ) :   0.9750
B(  6-C , 19-H ) :   0.9939 B(  7-C , 20-H ) :   0.9769 B(  7-C , 21-H ) :   0.9696
B(  7-C , 22-H ) :   0.9891

Dispersion correction           -0.006446227
FINAL SINGLE POINT ENERGY      -276.285530442402

DIPOLE MOMENT
-------------

Method             : SCF
Type of density    : Electron Density
Multiplicity       :   1
Irrep              :   0
Energy             :  -276.2903004964933871 Eh
Relativity type    :
Basis              : AO
                                X                 Y                 Z
Electronic contribution:     -0.281365819      -0.387887911       0.468434004
Nuclear contribution   :      0.278055579       0.372922172      -0.442872085
                        -----------------------------------------
Total Dipole Moment    :     -0.003310240      -0.014965740       0.025561919
                        -----------------------------------------
Magnitude (a.u.)       :      0.029805079
Magnitude (Debye)      :      0.075758491

Rotational constants in cm-1:             0.124124             0.056334             0.042550
Rotational constants in MHz :          3721.147810          1688.860413          1275.629005

                             ****ORCA TERMINATED NORMALLY****
TOTAL RUN TIME: 0 days 0 hours 0 minutes 23 seconds 439 msec
