                         Program Version 6.0.0  -   RELEASE  -
|  1> ! r2scan-3c def2/J RI DEFGRID2 scfconv6 printgap
|  2> %output
|  3>     printlevel normal
|  4> end
|  5> %cpcm
|  6>     smd true
|  7>     smdsolvent "water"
|  8> end
|  9> * xyz 0 1
| 10> C 2.6395268918 0.5617175147 0.5562289759
| 11> C 1.3183653891 -0.1505706772 0.8264315116
| 12> C 0.2891221881 0.0399186977 -0.2995901866
| 13> H 0.3509628917 1.0749402929 -0.6551568811
| 14> C 0.6381905482 -0.8887470254 -1.4636564421
| 15> C -1.1446492149 -0.1946414544 0.2238121291
| 16> C -1.6036267712 0.9719282261 1.1010063745
| 17> C -2.1617999778 -0.372961661 -0.9046192462
| 18> H 3.3290130437 0.401001936 1.3818183485
| 19> H 3.1096324803 0.1945413046 -0.3524932346
| 20> H 2.477351144 1.6320486181 0.4486644353
| 21> H 0.915979321 0.2288676649 1.7662563075
| 22> H 1.5006802837 -1.2194973737 0.9594953265
| 23> H 0.4512127771 -1.9253394201 -1.1902430672
| 24> H 0.058183666 -0.6497385094 -2.3499381113
| 25> H 1.6898542041 -0.7895202061 -1.719561515
| 26> H -1.1392549377 -1.1090260396 0.8288344081
| 27> H -0.9242929932 1.1491472392 1.9299968707
| 28> H -2.5890369498 0.7671287248 1.5132795468
| 29> H -1.6633950307 1.8825839049 0.5084096839
| 30> H -3.1658938915 -0.4234650591 -0.488981439
| 31> H -1.9848541581 -1.2872381261 -1.4626182781
| 32> H -2.1197583411 0.4710682474 -1.5898262351
| 33> *
| 34>
| 35>                          ****END OF INPUT****

CARTESIAN COORDINATES (ANGSTROEM)
---------------------------------
  C      2.639527    0.561718    0.556229
  C      1.318365   -0.150571    0.826432
  C      0.289122    0.039919   -0.299590
  H      0.350963    1.074940   -0.655157
  C      0.638191   -0.888747   -1.463656
  C     -1.144649   -0.194641    0.223812
  C     -1.603627    0.971928    1.101006
  C     -2.161800   -0.372962   -0.904619
  H      3.329013    0.401002    1.381818
  H      3.109632    0.194541   -0.352493
  H      2.477351    1.632049    0.448664
  H      0.915979    0.228868    1.766256
  H      1.500680   -1.219497    0.959495
  H      0.451213   -1.925339   -1.190243
  H      0.058184   -0.649739   -2.349938
  H      1.689854   -0.789520   -1.719562
  H     -1.139255   -1.109026    0.828834
  H     -0.924293    1.149147    1.929997
  H     -2.589037    0.767129    1.513280
  H     -1.663395    1.882584    0.508410
  H     -3.165894   -0.423465   -0.488981
  H     -1.984854   -1.287238   -1.462618
  H     -2.119758    0.471068   -1.589826

 Total Charge           Charge          ....    0
 Multiplicity           Mult            ....    1
 Number of Electrons    NEL             ....   58
 Basis Dimension        Dim             ....  213

ORBITAL ENERGIES
----------------

  NO   OCC          E(Eh)            E(eV)
   0   2.0000     -10.021811      -272.7073
   1   2.0000     -10.019428      -272.6425
   2   2.0000     -10.011852      -272.4363
   3   2.0000     -10.006320      -272.2858
   4   2.0000     -10.004116      -272.2258
   5   2.0000     -10.003925      -272.2206
   6   2.0000     -10.003572      -272.2110
   7   2.0000      -0.780981       -21.2516
   8   2.0000      -0.722614       -19.6633
   9   2.0000      -0.674905       -18.3651
  10   2.0000      -0.638752       -17.3813
  11   2.0000      -0.597508       -16.2590
  12   2.0000      -0.545069       -14.8321
  13   2.0000      -0.508058       -13.8250
  14   2.0000      -0.427165       -11.6237
  15   2.0000      -0.411378       -11.1942
  16   2.0000      -0.408312       -11.1107
  17   2.0000      -0.379174       -10.3178
  18   2.0000      -0.369668       -10.0592
  19   2.0000      -0.358323        -9.7505
  20   2.0000      -0.344327        -9.3696
  21   2.0000      -0.331275        -9.0144
  22   2.0000      -0.325463        -8.8563
  23   2.0000      -0.314906        -8.5690
  24   2.0000      -0.302630        -8.2350
  25   2.0000      -0.296416        -8.0659
  26   2.0000      -0.275320        -7.4918
  27   2.0000      -0.265862        -7.2345
  28   2.0000      -0.262733        -7.1493
  29   0.0000       0.091601         2.4926
  30   0.0000       0.113593         3.0910
  31   0.0000       0.121250         3.2994
  32   0.0000       0.123442         3.3590
  33   0.0000       0.128362         3.4929

MULLIKEN ATOMIC CHARGES
-----------------------
   0 C :   -0.534076
   1 C :   -0.271657
   2 C :   -0.043920
   3 H :    0.162924
   4 C :   -0.571305
   5 C :   -0.015839
   6 C :   -0.551813
   7 C :   -0.540030
   8 H :    0.156076
   9 H :    0.151165
  10 H :    0.158248
  11 H :    0.145710
  12 H :    0.151463
  13 H :    0.172295
  14 H :    0.164996
  15 H :    0.152542
  16 H :    0.156116
  17 H :    0.150760
  18 H :    0.158158
  19 H :    0.163086
  20 H :    0.154023
  21 H :    0.163571
  22 H :    0.167507
Sum of atomic charges:   -0.0000000

LOEWDIN ATOMIC CHARGES
----------------------
   0 C :   -0.431545
   1 C :   -0.312094
   2 C :   -0.233440
   3 H :    0.160707
   4 C :   -0.421473
   5 C :   -0.238375
   6 C :   -0.426269
   7 C :   -0.424315
   8 H :    0.151919
   9 H :    0.150973
  10 H :    0.151786
  11 H :    0.156181
  12 H :    0.156593
  13 H :    0.157283
  14 H :    0.155600
  15 H :    0.155293
  16 H :    0.160223
  17 H :    0.152998
  18 H :    0.154599
  19 H :    0.155665
  20 H :    0.154850
  21 H :    0.155620
  22 H :    0.157221

  Mayer bond orders larger than 0.100000
B(  0-C ,  1-C ) :   0.8976 B(  0-C ,  8-H ) :   0.9713 B(  0-C ,  9-H ) :   0.9750
B(  0-C , 10-H ) :   0.9907 B(  1-C ,  2-C ) :   0.8671 B(  1-C , 11-H ) :   0.9741
B(  1-C , 12-H ) :   0.9674 B(  2-C ,  3-H ) :   0.9924 B(  2-C ,  4-C ) :   0.8503
B(  2-C ,  5-C ) :   0.8639 B(  4-C , 13-H ) :   0.9904 B(  4-C , 14-H ) :   0.9686
B(  4-C , 15-H ) :   0.9713 B(  5-C ,  6-C ) :   0.9117 B(  5-C ,  7-C ) :   0.8650
B(  5-C , 16-H ) :   0.9587 B(  6-C , 17-H ) :   0.9669 B(  6-C , 18-H ) :   0.9732
B(  6-C , 19-H ) :   0.9916 B(  7-C , 20-H ) :   0.9759 B(  7-C , 21-H ) :   0.9676
B(  7-C , 22-H ) :   0.9862

Dispersion correction           -0.006446227
FINAL SINGLE POINT ENERGY      -276.281638432832

DIPOLE MOMENT
-------------

Method             : SCF
Type of density    : Electron Density
Multiplicity       :   1
Irrep              :   0
Energy             :  -276.2864084869239036 Eh
Relativity type    :
Basis              : AO
                                X                 Y                 Z
Electronic contribution:     -0.279588234      -0.389913230       0.474473553
Nuclear contribution   :      0.278055579       0.372922172      -0.442872085
                        -----------------------------------------
Total Dipole Moment    :     -0.001532655      -0.016991058       0.031601468
                        -----------------------------------------
Magnitude (a.u.)       :      0.035912364
Magnitude (Debye)      :      0.091281975

Rotational constants in cm-1:             0.124124             0.056334             0.042550
Rotational constants in MHz :          3721.147810          1688.860413          1275.629005

                             ****ORCA TERMINATED NORMALLY****
TOTAL RUN TIME: 0 days 0 hours 0 minutes 25 seconds 283 msec
