                         Program Version 6.0.0  -   RELEASE  -
|  1> ! pbe def2-sv(p) def2/J RI DEFGRID1 loosescf d4 GCP(DFT/SV(P)) printgap
|  2> %output
|  3>     printlevel normal
|  4> end
|  5> * xyz 0 1
|  6> C 2.7147641005 -0.1926720955 0.129138165
|  7> C 1.235777587 -0.1407563251 0.4921155675
|  8> C 0.3546581469 -0.1933237877 -0.7542949503
|  9> C -1.1343946964 0.0350093035 -0.4662947669
| 10> H -1.67202138 -0.0324315268 -1.4287485365
| 11> C -1.7199315193 -1.0019510029 0.4921400012
| 12> O -1.2753419892 1.3531071085 0.0414139968
| 13> H 3.327838337 -0.1626440755 1.0264472935
| 14> H 2.9837975647 0.6530636609 -0.4996313498
| 15> H 2.941080578 -1.1083302467 -0.4128803088
| 16> H 1.0000087916 -0.9806594317 1.1470952156
| 17> H 1.0205290392 0.7839603349 1.03051053
| 18> H 0.6777498314 0.5892064199 -1.4443725757
| 19> H 0.4695919103 -1.1564904326 -1.253896711
| 20> H -2.8011325062 -0.8968423603 0.550028644
| 21> H -1.4884740685 -2.0026005766 0.1397966268
| 22> H -1.3042362628 -0.8690510126 1.4871112612
| 23> H -2.1998121125 1.50373963 0.2785735013
| 24> *
| 25>
| 26>                          ****END OF INPUT****

CARTESIAN COORDINATES (ANGSTROEM)
---------------------------------
  C      2.714764   -0.192672    0.129138
  C      1.235778   -0.140756    0.492116
  C      0.354658   -0.193324   -0.754295
  C     -1.134395    0.035009   -0.466295
  H     -1.672021   -0.032432   -1.428749
  C     -1.719932   -1.001951    0.492140
  O     -1.275342    1.353107    0.041414
  H      3.327838   -0.162644    1.026447
  H      2.983798    0.653064   -0.499631
  H      2.941081   -1.108330   -0.412880
  H      1.000009   -0.980659    1.147095
  H      1.020529    0.783960    1.030511
  H      0.677750    0.589206   -1.444373
  H      0.469592   -1.156490   -1.253897
  H     -2.801133   -0.896842    0.550029
  H     -1.488474   -2.002601    0.139797
  H     -1.304236   -0.869051    1.487111
  H     -2.199812    1.503740    0.278574

 Total Charge           Charge          ....    0
 Multiplicity           Mult            ....    1
 Number of Electrons    NEL             ....   50
 Basis Dimension        Dim             ....  108

ORBITAL ENERGIES
----------------

  NO   OCC          E(Eh)            E(eV)
   0   2.0000     -18.737325      -509.8685
   1   2.0000      -9.934468      -270.3306
   2   2.0000      -9.876800      -268.7614
   3   2.0000      -9.875169      -268.7170
   4   2.0000      -9.874472      -268.6980
   5   2.0000      -9.867062      -268.4964
   6   2.0000      -0.914833       -24.8939
   7   2.0000      -0.713308       -19.4101
   8   2.0000      -0.664909       -18.0931
   9   2.0000      -0.608145       -16.5485
  10   2.0000      -0.541937       -14.7469
  11   2.0000      -0.501344       -13.6423
  12   2.0000      -0.450716       -12.2646
  13   2.0000      -0.413440       -11.2503
  14   2.0000      -0.393414       -10.7053
  15   2.0000      -0.385007       -10.4766
  16   2.0000      -0.360202        -9.8016
  17   2.0000      -0.335406        -9.1269
  18   2.0000      -0.332543        -9.0490
  19   2.0000      -0.319358        -8.6902
  20   2.0000      -0.300128        -8.1669
  21   2.0000      -0.284809        -7.7500
  22   2.0000      -0.277741        -7.5577
  23   2.0000      -0.261680        -7.1207
  24   2.0000      -0.209584        -5.7031
  25   0.0000       0.023210         0.6316
  26   0.0000       0.056488         1.5371
  27   0.0000       0.071240         1.9385
  28   0.0000       0.073246         1.9931
  29   0.0000       0.087260         2.3745

MULLIKEN ATOMIC CHARGES
-----------------------
   0 C :   -0.254552
   1 C :   -0.218126
   2 C :   -0.150596
   3 C :    0.044957
   4 H :    0.055536
   5 C :   -0.287540
   6 O :   -0.428517
   7 H :    0.099570
   8 H :    0.097832
   9 H :    0.091337
  10 H :    0.085245
  11 H :    0.101639
  12 H :    0.084497
  13 H :    0.078238
  14 H :    0.093523
  15 H :    0.098034
  16 H :    0.115202
  17 H :    0.293721
Sum of atomic charges:    0.0000000

LOEWDIN ATOMIC CHARGES
----------------------
   0 C :   -0.338520
   1 C :   -0.238349
   2 C :   -0.228961
   3 C :   -0.056038
   4 H :    0.093711
   5 C :   -0.356814
   6 O :   -0.334355
   7 H :    0.117491
   8 H :    0.116704
   9 H :    0.114124
  10 H :    0.112081
  11 H :    0.120726
  12 H :    0.119645
  13 H :    0.115929
  14 H :    0.114064
  15 H :    0.124178
  16 H :    0.122872
  17 H :    0.281512

  Mayer bond orders larger than 0.100000
B(  0-C ,  1-C ) :   1.1565 B(  0-C ,  7-H ) :   0.9538 B(  0-C ,  8-H ) :   0.9549
B(  0-C ,  9-H ) :   0.9537 B(  1-C ,  2-C ) :   1.1296 B(  1-C , 10-H ) :   0.9218
B(  1-C , 11-H ) :   0.9222 B(  2-C ,  3-C ) :   1.0816 B(  2-C , 12-H ) :   0.9149
B(  2-C , 13-H ) :   0.9184 B(  3-C ,  4-H ) :   0.9087 B(  3-C ,  5-C ) :   1.1033
B(  3-C ,  6-O ) :   1.0545 B(  5-C , 14-H ) :   0.9456 B(  5-C , 15-H ) :   0.9396
B(  5-C , 16-H ) :   0.9382 B(  6-O , 17-H ) :   0.8537

Dispersion correction           -0.012576855
FINAL SINGLE POINT ENERGY      -272.304832644182

DIPOLE MOMENT
-------------

Method             : SCF
Type of density    : Electron Density
Multiplicity       :   1
Irrep              :   0
Energy             :  -272.3746581465568966 Eh
Relativity type    :
Basis              : AO
                                X                 Y                 Z
Electronic contribution:     -3.257820213       3.128460089      -0.571269285
Nuclear contribution   :      2.753271557      -3.431497961       0.582307565
                        -----------------------------------------
Total Dipole Moment    :     -0.504548656      -0.303037872       0.011038281
                        -----------------------------------------
Magnitude (a.u.)       :      0.588662163
Magnitude (Debye)      :      1.496260309

Rotational constants in cm-1:             0.206162             0.063756             0.057506
Rotational constants in MHz :          6180.570251          1911.355232          1723.998592

                             ****ORCA TERMINATED NORMALLY****
TOTAL RUN TIME: 0 days 0 hours 0 minutes 7 seconds 952 msec
