                         Program Version 6.0.0  -   RELEASE  -
|  1> ! pbe def2-sv(p) def2/J RI DEFGRID1 loosescf d4 GCP(DFT/SV(P)) printgap
|  2> %output
|  3>     printlevel normal
|  4> end
|  5> * xyz 0 1
|  6> C 1.6345218182 -1.2160619932 -0.6290286828
|  7> C 1.0815021899 -0.2780585372 0.4431399706
|  8> C 1.2794980624 1.1795440038 0.0301414775
|  9> C -0.3832111281 -0.6026951548 0.7786157601
| 10> C -1.4088961258 -0.2819208162 -0.3166271939
| 11> O -1.9917896214 1.0005512501 -0.1878990752
| 12> H 2.6923194791 -1.0205621038 -0.787816751
| 13> H 1.119571076 -1.0768968331 -1.576379656
| 14> H 1.5187020961 -2.2537052463 -0.3257709351
| 15> H 1.6548177823 -0.4489656521 1.362031432
| 16> H 2.3404787827 1.3956777738 -0.074263533
| 17> H 0.8712140928 1.8509304115 0.7821644743
| 18> H 0.8067011733 1.3777345756 -0.9291452372
| 19> H -0.6804712319 -0.0530117862 1.6748561047
| 20> H -0.4484336601 -1.666781549 1.0105731948
| 21> H -0.966440753 -0.3939978922 -1.3138140871
| 22> H -2.2532608644 -0.9714762433 -0.2440082454
| 23> H -1.2953175218 1.6689138751 -0.2451518024
| 24> *
| 25>
| 26>                          ****END OF INPUT****

CARTESIAN COORDINATES (ANGSTROEM)
---------------------------------
  C      1.634522   -1.216062   -0.629029
  C      1.081502   -0.278059    0.443140
  C      1.279498    1.179544    0.030141
  C     -0.383211   -0.602695    0.778616
  C     -1.408896   -0.281921   -0.316627
  O     -1.991790    1.000551   -0.187899
  H      2.692319   -1.020562   -0.787817
  H      1.119571   -1.076897   -1.576380
  H      1.518702   -2.253705   -0.325771
  H      1.654818   -0.448966    1.362031
  H      2.340479    1.395678   -0.074264
  H      0.871214    1.850930    0.782164
  H      0.806701    1.377735   -0.929145
  H     -0.680471   -0.053012    1.674856
  H     -0.448434   -1.666782    1.010573
  H     -0.966441   -0.393998   -1.313814
  H     -2.253261   -0.971476   -0.244008
  H     -1.295318    1.668914   -0.245152

 Total Charge           Charge          ....    0
 Multiplicity           Mult            ....    1
 Number of Electrons    NEL             ....   50
 Basis Dimension        Dim             ....  108

ORBITAL ENERGIES
----------------

  NO   OCC          E(Eh)            E(eV)
   0   2.0000     -18.734758      -509.7987
   1   2.0000      -9.924389      -270.0563
   2   2.0000      -9.899700      -269.3845
   3   2.0000      -9.883408      -268.9412
   4   2.0000      -9.880772      -268.8695
   5   2.0000      -9.876470      -268.7524
   6   2.0000      -0.910961       -24.7885
   7   2.0000      -0.733644       -19.9635
   8   2.0000      -0.648926       -17.6582
   9   2.0000      -0.617682       -16.8080
  10   2.0000      -0.566863       -15.4251
  11   2.0000      -0.496565       -13.5122
  12   2.0000      -0.453987       -12.3536
  13   2.0000      -0.416700       -11.3390
  14   2.0000      -0.397684       -10.8215
  15   2.0000      -0.395000       -10.7485
  16   2.0000      -0.363741        -9.8979
  17   2.0000      -0.354619        -9.6497
  18   2.0000      -0.347294        -9.4504
  19   2.0000      -0.322305        -8.7704
  20   2.0000      -0.301987        -8.2175
  21   2.0000      -0.289785        -7.8854
  22   2.0000      -0.285576        -7.7709
  23   2.0000      -0.259840        -7.0706
  24   2.0000      -0.207007        -5.6329
  25   0.0000       0.021625         0.5884
  26   0.0000       0.047835         1.3016
  27   0.0000       0.060330         1.6417
  28   0.0000       0.074679         2.0321
  29   0.0000       0.090352         2.4586

MULLIKEN ATOMIC CHARGES
-----------------------
   0 C :   -0.254472
   1 C :   -0.169448
   2 C :   -0.286300
   3 C :   -0.167769
   4 C :    0.008042
   5 O :   -0.445961
   6 H :    0.099478
   7 H :    0.100234
   8 H :    0.099851
   9 H :    0.075309
  10 H :    0.106516
  11 H :    0.106549
  12 H :    0.101873
  13 H :    0.089908
  14 H :    0.079928
  15 H :    0.079297
  16 H :    0.084771
  17 H :    0.292193
Sum of atomic charges:   -0.0000000

LOEWDIN ATOMIC CHARGES
----------------------
   0 C :   -0.332592
   1 C :   -0.158612
   2 C :   -0.339844
   3 C :   -0.245650
   4 C :   -0.122982
   5 O :   -0.342985
   6 H :    0.118651
   7 H :    0.114633
   8 H :    0.117980
   9 H :    0.116736
  10 H :    0.122780
  11 H :    0.117090
  12 H :    0.113383
  13 H :    0.119672
  14 H :    0.119145
  15 H :    0.094041
  16 H :    0.114310
  17 H :    0.274244

  Mayer bond orders larger than 0.100000
B(  0-C ,  1-C ) :   1.1102 B(  0-C ,  6-H ) :   0.9498 B(  0-C ,  7-H ) :   0.9425
B(  0-C ,  8-H ) :   0.9508 B(  1-C ,  2-C ) :   1.1059 B(  1-C ,  3-C ) :   1.0929
B(  1-C ,  9-H ) :   0.9032 B(  2-C , 10-H ) :   0.9466 B(  2-C , 11-H ) :   0.9462
B(  2-C , 12-H ) :   0.9347 B(  3-C ,  4-C ) :   1.0826 B(  3-C , 13-H ) :   0.9144
B(  3-C , 14-H ) :   0.9127 B(  4-C ,  5-O ) :   1.0634 B(  4-C , 15-H ) :   0.9266
B(  4-C , 16-H ) :   0.9293 B(  5-O , 17-H ) :   0.8487

Dispersion correction           -0.013349224
FINAL SINGLE POINT ENERGY      -272.297864839017

DIPOLE MOMENT
-------------

Method             : SCF
Type of density    : Electron Density
Multiplicity       :   1
Irrep              :   0
Energy             :  -272.3678454502589261 Eh
Relativity type    :
Basis              : AO
                                X                 Y                 Z
Electronic contribution:     -4.290781844       1.396721375       0.620202266
Nuclear contribution   :      4.998885833      -1.478839835      -0.628285691
                        -----------------------------------------
Total Dipole Moment    :      0.708103989      -0.082118460      -0.008083425
                        -----------------------------------------
Magnitude (a.u.)       :      0.712895534
Magnitude (Debye)      :      1.812036443

Rotational constants in cm-1:             0.174762             0.075708             0.064269
Rotational constants in MHz :          5239.223661          2269.671552          1926.729959

                             ****ORCA TERMINATED NORMALLY****
TOTAL RUN TIME: 0 days 0 hours 0 minutes 8 seconds 150 msec
