                         Program Version 6.0.0  -   RELEASE  -
|  1> ! r2scan-3c def2/J RI DEFGRID2 scfconv6 printgap
|  2> %output
|  3>     printlevel normal
|  4> end
|  5> * xyz 0 1
|  6> C -1.4566473342 0.3593243216 -0.2200806411
|  7> C 0.0035043388 0.3835515683 0.2649413884
|  8> C 0.8218815959 -0.7264714328 -0.4086076598
|  9> O 2.0960832668 -0.8756563307 0.1715672329
| 10> O 0.5916039826 1.6499736198 0.0561764693
| 11> O -2.1269523644 -0.8296867649 0.1164900957
| 12> H -1.479764943 0.4095473916 -1.31256417
| 13> H -1.9766688636 1.2373864083 0.1836257699
| 14> H 0.0378020581 0.2335610053 1.350169169
| 15> H 0.9154946875 -0.5090135616 -1.4828871222
| 16> H 0.3089890127 -1.6822316224 -0.2892450544
| 17> H 2.5067354802 0.0002981347 0.2296705037
| 18> H 0.5463599025 1.873724503 -0.8847135999
| 19> H -2.2375110277 -0.8798500809 1.0762473279
| 20> *
| 21>
| 22>                          ****END OF INPUT****

CARTESIAN COORDINATES (ANGSTROEM)
---------------------------------
  C     -1.456647    0.359324   -0.220081
  C      0.003504    0.383552    0.264941
  C      0.821882   -0.726471   -0.408608
  O      2.096083   -0.875656    0.171567
  O      0.591604    1.649974    0.056176
  O     -2.126952   -0.829687    0.116490
  H     -1.479765    0.409547   -1.312564
  H     -1.976669    1.237386    0.183626
  H      0.037802    0.233561    1.350169
  H      0.915495   -0.509014   -1.482887
  H      0.308989   -1.682232   -0.289245
  H      2.506735    0.000298    0.229671
  H      0.546360    1.873725   -0.884714
  H     -2.237511   -0.879850    1.076247

 Total Charge           Charge          ....    0
 Multiplicity           Mult            ....    1
 Number of Electrons    NEL             ....   50
 Basis Dimension        Dim             ....  169

ORBITAL ENERGIES
----------------

  NO   OCC          E(Eh)            E(eV)
   0   2.0000     -18.968614      -516.1622
   1   2.0000     -18.963522      -516.0237
   2   2.0000     -18.947659      -515.5920
   3   2.0000     -10.090119      -274.5661
   4   2.0000     -10.087783      -274.5025
   5   2.0000     -10.076582      -274.1977
   6   2.0000      -1.013037       -27.5661
   7   2.0000      -0.998649       -27.1746
   8   2.0000      -0.981155       -26.6986
   9   2.0000      -0.727690       -19.8014
  10   2.0000      -0.646188       -17.5837
  11   2.0000      -0.594377       -16.1738
  12   2.0000      -0.495542       -13.4844
  13   2.0000      -0.493269       -13.4225
  14   2.0000      -0.469198       -12.7675
  15   2.0000      -0.424484       -11.5508
  16   2.0000      -0.416556       -11.3351
  17   2.0000      -0.397542       -10.8177
  18   2.0000      -0.365298        -9.9403
  19   2.0000      -0.344141        -9.3646
  20   2.0000      -0.319484        -8.6936
  21   2.0000      -0.291860        -7.9419
  22   2.0000      -0.278173        -7.5695
  23   2.0000      -0.249713        -6.7950
  24   2.0000      -0.227128        -6.1805
  25   0.0000       0.029464         0.8018
  26   0.0000       0.065499         1.7823
  27   0.0000       0.079487         2.1630
  28   0.0000       0.103464         2.8154
  29   0.0000       0.133224         3.6252

MULLIKEN ATOMIC CHARGES
-----------------------
   0 C :   -0.192471
   1 C :    0.001105
   2 C :   -0.178233
   3 O :   -0.416775
   4 O :   -0.421790
   5 O :   -0.419845
   6 H :    0.136313
   7 H :    0.148227
   8 H :    0.142106
   9 H :    0.128187
  10 H :    0.161240
  11 H :    0.311004
  12 H :    0.297630
  13 H :    0.303303
Sum of atomic charges:   -0.0000000

LOEWDIN ATOMIC CHARGES
----------------------
   0 C :    0.021339
   1 C :    0.063742
   2 C :    0.019100
   3 O :   -0.601023
   4 O :   -0.592864
   5 O :   -0.606801
   6 H :    0.178986
   7 H :    0.167752
   8 H :    0.187947
   9 H :    0.158468
  10 H :    0.191477
  11 H :    0.272619
  12 H :    0.270647
  13 H :    0.268611

  Mayer bond orders larger than 0.100000
B(  0-C ,  1-C ) :   0.9175 B(  0-C ,  5-O ) :   0.9765 B(  0-C ,  6-H ) :   0.9646
B(  0-C ,  7-H ) :   0.9743 B(  1-C ,  2-C ) :   0.9353 B(  1-C ,  4-O ) :   0.9473
B(  1-C ,  8-H ) :   0.9532 B(  2-C ,  3-O ) :   0.9566 B(  2-C ,  9-H ) :   0.9712
B(  2-C , 10-H ) :   0.9604 B(  3-O , 11-H ) :   0.8780 B(  4-O , 12-H ) :   0.8917
B(  5-O , 13-H ) :   0.8931

Dispersion correction           -0.003013974
FINAL SINGLE POINT ENERGY      -344.723195912747

DIPOLE MOMENT
-------------

Method             : SCF
Type of density    : Electron Density
Multiplicity       :   1
Irrep              :   0
Energy             :  -344.7305450698296454 Eh
Relativity type    :
Basis              : AO
                                X                 Y                 Z
Electronic contribution:      0.922567196      -0.052234838       0.910005543
Nuclear contribution   :     -1.285004094       0.640346181      -1.054739483
                        -----------------------------------------
Total Dipole Moment    :     -0.362436898       0.588111343      -0.144733940
                        -----------------------------------------
Magnitude (a.u.)       :      0.705821061
Magnitude (Debye)      :      1.794054561

Rotational constants in cm-1:             0.172401             0.079246             0.058874
Rotational constants in MHz :          5168.458785          2375.726760          1765.007554

                             ****ORCA TERMINATED NORMALLY****
TOTAL RUN TIME: 0 days 0 hours 0 minutes 20 seconds 474 msec
