                         Program Version 6.0.0  -   RELEASE  -
|  1> ! r2scan-3c def2/J RI DEFGRID2 scfconv6 printgap
|  2> %output
|  3>     printlevel normal
|  4> end
|  5> %cpcm
|  6>     smd true
|  7>     smdsolvent "water"
|  8> end
|  9> * xyz 0 1
| 10> C -1.4566473342 0.3593243216 -0.2200806411
| 11> C 0.0035043388 0.3835515683 0.2649413884
| 12> C 0.8218815959 -0.7264714328 -0.4086076598
| 13> O 2.0960832668 -0.8756563307 0.1715672329
| 14> O 0.5916039826 1.6499736198 0.0561764693
| 15> O -2.1269523644 -0.8296867649 0.1164900957
| 16> H -1.479764943 0.4095473916 -1.31256417
| 17> H -1.9766688636 1.2373864083 0.1836257699
| 18> H 0.0378020581 0.2335610053 1.350169169
| 19> H 0.9154946875 -0.5090135616 -1.4828871222
| 20> H 0.3089890127 -1.6822316224 -0.2892450544
| 21> H 2.5067354802 0.0002981347 0.2296705037
| 22> H 0.5463599025 1.873724503 -0.8847135999
| 23> H -2.2375110277 -0.8798500809 1.0762473279
| 24> *
| 25>
| 26>                          ****END OF INPUT****

CARTESIAN COORDINATES (ANGSTROEM)
---------------------------------
  C     -1.456647    0.359324   -0.220081
  C      0.003504    0.383552    0.264941
  C      0.821882   -0.726471   -0.408608
  O      2.096083   -0.875656    0.171567
  O      0.591604    1.649974    0.056176
  O     -2.126952   -0.829687    0.116490
  H     -1.479765    0.409547   -1.312564
  H     -1.976669    1.237386    0.183626
  H      0.037802    0.233561    1.350169
  H      0.915495   -0.509014   -1.482887
  H      0.308989   -1.682232   -0.289245
  H      2.506735    0.000298    0.229671
  H      0.546360    1.873725   -0.884714
  H     -2.237511   -0.879850    1.076247

 Total Charge           Charge          ....    0
 Multiplicity           Mult            ....    1
 Number of Electrons    NEL             ....   50
 Basis Dimension        Dim             ....  169

ORBITAL ENERGIES
----------------

  NO   OCC          E(Eh)            E(eV)
   0   2.0000     -18.958938      -515.8989
   1   2.0000     -18.956153      -515.8231
   2   2.0000     -18.953138      -515.7411
   3   2.0000     -10.078849      -274.2594
   4   2.0000     -10.073078      -274.1024
   5   2.0000     -10.069371      -274.0015
   6   2.0000      -1.005109       -27.3504
   7   2.0000      -0.991061       -26.9681
   8   2.0000      -0.981757       -26.7150
   9   2.0000      -0.716973       -19.5098
  10   2.0000      -0.636912       -17.3312
  11   2.0000      -0.583448       -15.8764
  12   2.0000      -0.490584       -13.3495
  13   2.0000      -0.481779       -13.1099
  14   2.0000      -0.458173       -12.4675
  15   2.0000      -0.417059       -11.3488
  16   2.0000      -0.411215       -11.1897
  17   2.0000      -0.390601       -10.6288
  18   2.0000      -0.360148        -9.8001
  19   2.0000      -0.338196        -9.2028
  20   2.0000      -0.320459        -8.7201
  21   2.0000      -0.285374        -7.7654
  22   2.0000      -0.273813        -7.4508
  23   2.0000      -0.250225        -6.8090
  24   2.0000      -0.224707        -6.1146
  25   0.0000       0.050197         1.3659
  26   0.0000       0.091372         2.4864
  27   0.0000       0.093340         2.5399
  28   0.0000       0.120470         3.2782
  29   0.0000       0.145652         3.9634

MULLIKEN ATOMIC CHARGES
-----------------------
   0 C :   -0.196898
   1 C :    0.031829
   2 C :   -0.194218
   3 O :   -0.499468
   4 O :   -0.492176
   5 O :   -0.498720
   6 H :    0.161654
   7 H :    0.153056
   8 H :    0.160759
   9 H :    0.152808
  10 H :    0.161477
  11 H :    0.351983
  12 H :    0.352398
  13 H :    0.355516
Sum of atomic charges:   -0.0000000

LOEWDIN ATOMIC CHARGES
----------------------
   0 C :    0.025555
   1 C :    0.069498
   2 C :    0.017966
   3 O :   -0.639638
   4 O :   -0.615131
   5 O :   -0.638289
   6 H :    0.187629
   7 H :    0.173539
   8 H :    0.193700
   9 H :    0.171380
  10 H :    0.190404
  11 H :    0.286291
  12 H :    0.290127
  13 H :    0.286968

  Mayer bond orders larger than 0.100000
B(  0-C ,  1-C ) :   0.9219 B(  0-C ,  5-O ) :   0.9675 B(  0-C ,  6-H ) :   0.9657
B(  0-C ,  7-H ) :   0.9628 B(  1-C ,  2-C ) :   0.9316 B(  1-C ,  4-O ) :   0.9399
B(  1-C ,  8-H ) :   0.9502 B(  2-C ,  3-O ) :   0.9398 B(  2-C ,  9-H ) :   0.9635
B(  2-C , 10-H ) :   0.9610 B(  3-O , 11-H ) :   0.8577 B(  4-O , 12-H ) :   0.8651
B(  5-O , 13-H ) :   0.8656

Dispersion correction           -0.003013974
FINAL SINGLE POINT ENERGY      -344.745355189928

DIPOLE MOMENT
-------------

Method             : SCF
Type of density    : Electron Density
Multiplicity       :   1
Irrep              :   0
Energy             :  -344.7527043470099670 Eh
Relativity type    :
Basis              : AO
                                X                 Y                 Z
Electronic contribution:      0.823052287       0.196937310       0.797224623
Nuclear contribution   :     -1.285004094       0.640346181      -1.054739483
                        -----------------------------------------
Total Dipole Moment    :     -0.461951806       0.837283491      -0.257514860
                        -----------------------------------------
Magnitude (a.u.)       :      0.990331772
Magnitude (Debye)      :      2.517223318

Rotational constants in cm-1:             0.172401             0.079246             0.058874
Rotational constants in MHz :          5168.458785          2375.726760          1765.007554

                             ****ORCA TERMINATED NORMALLY****
TOTAL RUN TIME: 0 days 0 hours 0 minutes 23 seconds 969 msec
