                         Program Version 6.0.0  -   RELEASE  -
|  1> ! r2scan-3c def2/J RI DEFGRID2 scfconv6 printgap
|  2> %output
|  3>     printlevel normal
|  4> end
|  5> * xyz 0 1
|  6> C -2.6091991373 -0.1771338986 -0.3836640806
|  7> C -1.6629953194 -1.1826236182 -0.458820151
|  8> C -0.3498143309 -0.9401842223 -0.0892749247
|  9> C 0.0404643433 0.3135936398 0.3576957709
| 10> C -0.9212016848 1.318405695 0.4276589034
| 11> C -2.2323554479 1.0788894094 0.0630479698
| 12> C 1.4469419728 0.6477876876 0.7860095123
| 13> C 2.5171366011 -0.3808033238 0.4312952031
| 14> O 2.6124141947 -0.4963166625 -0.9753691452
| 15> H -3.631664784 -0.3678136439 -0.673560739
| 16> H -1.9453997372 -2.1648256637 -0.8086176882
| 17> H 0.368600151 -1.7397961416 -0.1684020179
| 18> H -0.6329152419 2.3014452543 0.772302775
| 19> H -2.9615804204 1.873336942 0.1237107245
| 20> H 1.7269280244 1.5977850699 0.3245360332
| 21> H 1.4601117399 0.7871463464 1.8704070763
| 22> H 3.4748598189 -0.0380249125 0.8467169291
| 23> H 2.2764764661 -1.3521325591 0.8839985687
| 24> H 3.3338742142 -1.0974033205 -1.2011846945
| 25> *
| 26>
| 27>                          ****END OF INPUT****

CARTESIAN COORDINATES (ANGSTROEM)
---------------------------------
  C     -2.609199   -0.177134   -0.383664
  C     -1.662995   -1.182624   -0.458820
  C     -0.349814   -0.940184   -0.089275
  C      0.040464    0.313594    0.357696
  C     -0.921202    1.318406    0.427659
  C     -2.232355    1.078889    0.063048
  C      1.446942    0.647788    0.786010
  C      2.517137   -0.380803    0.431295
  O      2.612414   -0.496317   -0.975369
  H     -3.631665   -0.367814   -0.673561
  H     -1.945400   -2.164826   -0.808618
  H      0.368600   -1.739796   -0.168402
  H     -0.632915    2.301445    0.772303
  H     -2.961580    1.873337    0.123711
  H      1.726928    1.597785    0.324536
  H      1.460112    0.787146    1.870407
  H      3.474860   -0.038025    0.846717
  H      2.276476   -1.352133    0.883999
  H      3.333874   -1.097403   -1.201185

 Total Charge           Charge          ....    0
 Multiplicity           Mult            ....    1
 Number of Electrons    NEL             ....   66
 Basis Dimension        Dim             ....  226

ORBITAL ENERGIES
----------------

  NO   OCC          E(Eh)            E(eV)
   0   2.0000     -18.951731      -515.7028
   1   2.0000     -10.082463      -274.3578
   2   2.0000     -10.038306      -273.1562
   3   2.0000     -10.036561      -273.1087
   4   2.0000     -10.027960      -272.8747
   5   2.0000     -10.027292      -272.8565
   6   2.0000     -10.025708      -272.8134
   7   2.0000     -10.025648      -272.8117
   8   2.0000     -10.024792      -272.7885
   9   2.0000      -0.988396       -26.8956
  10   2.0000      -0.823246       -22.4017
  11   2.0000      -0.751410       -20.4469
  12   2.0000      -0.709374       -19.3031
  13   2.0000      -0.685961       -18.6660
  14   2.0000      -0.600614       -16.3435
  15   2.0000      -0.567433       -15.4406
  16   2.0000      -0.539988       -14.6938
  17   2.0000      -0.492611       -13.4046
  18   2.0000      -0.480093       -13.0640
  19   2.0000      -0.435714       -11.8564
  20   2.0000      -0.416687       -11.3386
  21   2.0000      -0.412540       -11.2258
  22   2.0000      -0.382825       -10.4172
  23   2.0000      -0.381551       -10.3825
  24   2.0000      -0.368082       -10.0160
  25   2.0000      -0.352629        -9.5955
  26   2.0000      -0.327308        -8.9065
  27   2.0000      -0.316527        -8.6131
  28   2.0000      -0.303042        -8.2462
  29   2.0000      -0.289544        -7.8789
  30   2.0000      -0.242729        -6.6050
  31   2.0000      -0.228946        -6.2299
  32   2.0000      -0.220356        -5.9962
  33   0.0000      -0.026212        -0.7133
  34   0.0000      -0.021444        -0.5835
  35   0.0000       0.055577         1.5123
  36   0.0000       0.093935         2.5561
  37   0.0000       0.102896         2.7999

MULLIKEN ATOMIC CHARGES
-----------------------
   0 C :   -0.152593
   1 C :   -0.179519
   2 C :   -0.141165
   3 C :    0.154414
   4 C :   -0.212077
   5 C :   -0.153663
   6 C :   -0.344502
   7 C :   -0.141575
   8 O :   -0.417666
   9 H :    0.144759
  10 H :    0.143222
  11 H :    0.144533
  12 H :    0.143055
  13 H :    0.143726
  14 H :    0.164136
  15 H :    0.162617
  16 H :    0.126458
  17 H :    0.122001
  18 H :    0.293839
Sum of atomic charges:   -0.0000000

LOEWDIN ATOMIC CHARGES
----------------------
   0 C :   -0.174389
   1 C :   -0.163139
   2 C :   -0.152705
   3 C :   -0.083015
   4 C :   -0.162860
   5 C :   -0.163536
   6 C :   -0.255564
   7 C :    0.007515
   8 O :   -0.623733
   9 H :    0.165498
  10 H :    0.165631
  11 H :    0.173430
  12 H :    0.168088
  13 H :    0.165881
  14 H :    0.176217
  15 H :    0.174526
  16 H :    0.159519
  17 H :    0.155811
  18 H :    0.266825

  Mayer bond orders larger than 0.100000
B(  0-C ,  1-C ) :   1.4273 B(  0-C ,  5-C ) :   1.4180 B(  0-C ,  9-H ) :   0.9483
B(  1-C ,  2-C ) :   1.4388 B(  1-C , 10-H ) :   0.9482 B(  2-C ,  3-C ) :   1.4738
B(  2-C , 11-H ) :   0.9297 B(  3-C ,  4-C ) :   1.3805 B(  3-C ,  6-C ) :   0.8208
B(  4-C ,  5-C ) :   1.4504 B(  4-C , 12-H ) :   0.9564 B(  5-C , 13-H ) :   0.9483
B(  6-C ,  7-C ) :   0.9484 B(  6-C , 14-H ) :   1.0000 B(  6-C , 15-H ) :   0.9686
B(  7-C ,  8-O ) :   0.9508 B(  7-C , 16-H ) :   0.9604 B(  7-C , 17-H ) :   0.9563
B(  8-O , 18-H ) :   0.9012

Dispersion correction           -0.006098140
FINAL SINGLE POINT ENERGY      -385.986427263973

DIPOLE MOMENT
-------------

Method             : SCF
Type of density    : Electron Density
Multiplicity       :   1
Irrep              :   0
Energy             :  -385.9875017496468104 Eh
Relativity type    :
Basis              : AO
                                X                 Y                 Z
Electronic contribution:     -2.726792337      -0.053107260      -1.469623524
Nuclear contribution   :      3.293495738      -0.195254343       1.833650074
                        -----------------------------------------
Total Dipole Moment    :      0.566703400      -0.248361603       0.364026550
                        -----------------------------------------
Magnitude (a.u.)       :      0.717879906
Magnitude (Debye)      :      1.824705709

Rotational constants in cm-1:             0.124585             0.034848             0.029401
Rotational constants in MHz :          3734.977891          1044.727170           881.413827

                             ****ORCA TERMINATED NORMALLY****
TOTAL RUN TIME: 0 days 0 hours 0 minutes 25 seconds 578 msec
