                         Program Version 6.0.0  -   RELEASE  -
|  1> ! r2scan-3c def2/J RI DEFGRID2 scfconv6 printgap
|  2> %output
|  3>     printlevel normal
|  4> end
|  5> %cpcm
|  6>     smd true
|  7>     smdsolvent "water"
|  8> end
|  9> * xyz 0 1
| 10> C -2.6091991373 -0.1771338986 -0.3836640806
| 11> C -1.6629953194 -1.1826236182 -0.458820151
| 12> C -0.3498143309 -0.9401842223 -0.0892749247
| 13> C 0.0404643433 0.3135936398 0.3576957709
| 14> C -0.9212016848 1.318405695 0.4276589034
| 15> C -2.2323554479 1.0788894094 0.0630479698
| 16> C 1.4469419728 0.6477876876 0.7860095123
| 17> C 2.5171366011 -0.3808033238 0.4312952031
| 18> O 2.6124141947 -0.4963166625 -0.9753691452
| 19> H -3.631664784 -0.3678136439 -0.673560739
| 20> H -1.9453997372 -2.1648256637 -0.8086176882
| 21> H 0.368600151 -1.7397961416 -0.1684020179
| 22> H -0.6329152419 2.3014452543 0.772302775
| 23> H -2.9615804204 1.873336942 0.1237107245
| 24> H 1.7269280244 1.5977850699 0.3245360332
| 25> H 1.4601117399 0.7871463464 1.8704070763
| 26> H 3.4748598189 -0.0380249125 0.8467169291
| 27> H 2.2764764661 -1.3521325591 0.8839985687
| 28> H 3.3338742142 -1.0974033205 -1.2011846945
| 29> *
| 30>
| 31>                          ****END OF INPUT****

CARTESIAN COORDINATES (ANGSTROEM)
---------------------------------
  C     -2.609199   -0.177134   -0.383664
  C     -1.662995   -1.182624   -0.458820
  C     -0.349814   -0.940184   -0.089275
  C      0.040464    0.313594    0.357696
  C     -0.921202    1.318406    0.427659
  C     -2.232355    1.078889    0.063048
  C      1.446942    0.647788    0.786010
  C      2.517137   -0.380803    0.431295
  O      2.612414   -0.496317   -0.975369
  H     -3.631665   -0.367814   -0.673561
  H     -1.945400   -2.164826   -0.808618
  H      0.368600   -1.739796   -0.168402
  H     -0.632915    2.301445    0.772303
  H     -2.961580    1.873337    0.123711
  H      1.726928    1.597785    0.324536
  H      1.460112    0.787146    1.870407
  H      3.474860   -0.038025    0.846717
  H      2.276476   -1.352133    0.883999
  H      3.333874   -1.097403   -1.201185

 Total Charge           Charge          ....    0
 Multiplicity           Mult            ....    1
 Number of Electrons    NEL             ....   66
 Basis Dimension        Dim             ....  226

ORBITAL ENERGIES
----------------

  NO   OCC          E(Eh)            E(eV)
   0   2.0000     -18.951363      -515.6928
   1   2.0000     -10.072466      -274.0857
   2   2.0000     -10.041867      -273.2531
   3   2.0000     -10.030887      -272.9543
   4   2.0000     -10.030813      -272.9523
   5   2.0000     -10.029566      -272.9184
   6   2.0000     -10.028666      -272.8939
   7   2.0000     -10.028409      -272.8869
   8   2.0000     -10.027978      -272.8751
   9   2.0000      -0.986737       -26.8505
  10   2.0000      -0.828050       -22.5324
  11   2.0000      -0.750294       -20.4165
  12   2.0000      -0.713364       -19.4116
  13   2.0000      -0.684597       -18.6288
  14   2.0000      -0.597325       -16.2540
  15   2.0000      -0.569387       -15.4938
  16   2.0000      -0.539418       -14.6783
  17   2.0000      -0.487395       -13.2627
  18   2.0000      -0.478699       -13.0261
  19   2.0000      -0.432998       -11.7825
  20   2.0000      -0.416338       -11.3291
  21   2.0000      -0.411318       -11.1925
  22   2.0000      -0.383193       -10.4272
  23   2.0000      -0.379589       -10.3291
  24   2.0000      -0.367987       -10.0134
  25   2.0000      -0.350550        -9.5389
  26   2.0000      -0.331790        -9.0285
  27   2.0000      -0.317128        -8.6295
  28   2.0000      -0.302937        -8.2433
  29   2.0000      -0.288249        -7.8437
  30   2.0000      -0.244412        -6.6508
  31   2.0000      -0.235425        -6.4062
  32   2.0000      -0.226484        -6.1629
  33   0.0000      -0.032338        -0.8800
  34   0.0000      -0.027742        -0.7549
  35   0.0000       0.073791         2.0079
  36   0.0000       0.101883         2.7724
  37   0.0000       0.110229         2.9995

MULLIKEN ATOMIC CHARGES
-----------------------
   0 C :   -0.184512
   1 C :   -0.215679
   2 C :   -0.188791
   3 C :    0.108909
   4 C :   -0.222881
   5 C :   -0.194917
   6 C :   -0.353060
   7 C :   -0.137802
   8 O :   -0.501399
   9 H :    0.177680
  10 H :    0.175841
  11 H :    0.174907
  12 H :    0.175929
  13 H :    0.176435
  14 H :    0.184061
  15 H :    0.189142
  16 H :    0.148058
  17 H :    0.141120
  18 H :    0.346959
Sum of atomic charges:   -0.0000000

LOEWDIN ATOMIC CHARGES
----------------------
   0 C :   -0.187551
   1 C :   -0.174680
   2 C :   -0.172298
   3 C :   -0.093774
   4 C :   -0.170360
   5 C :   -0.174225
   6 C :   -0.257940
   7 C :    0.012045
   8 O :   -0.659272
   9 H :    0.176145
  10 H :    0.176626
  11 H :    0.182508
  12 H :    0.179889
  13 H :    0.176876
  14 H :    0.179881
  15 H :    0.185407
  16 H :    0.169597
  17 H :    0.165389
  18 H :    0.285737

  Mayer bond orders larger than 0.100000
B(  0-C ,  1-C ) :   1.3881 B(  0-C ,  5-C ) :   1.3741 B(  0-C ,  9-H ) :   0.9557
B(  1-C ,  2-C ) :   1.3984 B(  1-C , 10-H ) :   0.9596 B(  2-C ,  3-C ) :   1.4180
B(  2-C , 11-H ) :   0.9454 B(  3-C ,  4-C ) :   1.3546 B(  3-C ,  6-C ) :   0.8111
B(  4-C ,  5-C ) :   1.4134 B(  4-C , 12-H ) :   0.9638 B(  5-C , 13-H ) :   0.9596
B(  6-C ,  7-C ) :   0.9252 B(  6-C , 14-H ) :   1.0115 B(  6-C , 15-H ) :   0.9588
B(  7-C ,  8-O ) :   0.9335 B(  7-C , 16-H ) :   0.9617 B(  7-C , 17-H ) :   0.9541
B(  8-O , 18-H ) :   0.8743

Dispersion correction           -0.006098140
FINAL SINGLE POINT ENERGY      -385.997645749062

DIPOLE MOMENT
-------------

Method             : SCF
Type of density    : Electron Density
Multiplicity       :   1
Irrep              :   0
Energy             :  -385.9987202347355151 Eh
Relativity type    :
Basis              : AO
                                X                 Y                 Z
Electronic contribution:     -2.536711698      -0.125801216      -1.208617579
Nuclear contribution   :      3.293495738      -0.195254343       1.833650074
                        -----------------------------------------
Total Dipole Moment    :      0.756784040      -0.321055559       0.625032495
                        -----------------------------------------
Magnitude (a.u.)       :      1.032697620
Magnitude (Debye)      :      2.624908745

Rotational constants in cm-1:             0.124585             0.034848             0.029401
Rotational constants in MHz :          3734.977891          1044.727170           881.413827

                             ****ORCA TERMINATED NORMALLY****
TOTAL RUN TIME: 0 days 0 hours 0 minutes 29 seconds 973 msec
