                         Program Version 6.0.0  -   RELEASE  -
|  1> ! pbe def2-sv(p) def2/J RI DEFGRID1 loosescf d4 GCP(DFT/SV(P)) printgap
|  2> %output
|  3>     printlevel normal
|  4> end
|  5> * xyz 0 1
|  6> C 1.5911691978 0.7533590356 -0.972599737
|  7> C 1.39175574 0.1293878788 0.4072996569
|  8> C 1.6749347723 -1.3699487293 0.3716622858
|  9> C -0.0198383342 0.4368421596 0.939004818
| 10> C -1.1542143118 0.0451140497 0.020132519
| 11> O -1.1866284568 -0.9939986891 -0.6093817264
| 12> C -2.2718216763 1.0462908058 -0.0447700439
| 13> H 2.6128589198 0.6024760453 -1.3117003376
| 14> H 0.9210103446 0.292443809 -1.6955366461
| 15> H 1.3922548909 1.8223070072 -0.9448956201
| 16> H 2.1015004361 0.5951158566 1.1010795284
| 17> H 2.682993031 -1.5540942635 0.0075628676
| 18> H 0.9715713494 -1.8717872767 -0.2876980656
| 19> H 1.5838983003 -1.8017559935 1.3660394083
| 20> H -0.0981025368 1.5000580414 1.1649672916
| 21> H -0.1707581371 -0.1179131986 1.8692218461
| 22> H -3.1115939555 0.6427605992 -0.6038830873
| 23> H -2.5848550965 1.3191968618 0.9593319998
| 24> H -1.9072991876 1.9439365613 -0.5399966912
| 25> *
| 26>
| 27>                          ****END OF INPUT****

CARTESIAN COORDINATES (ANGSTROEM)
---------------------------------
  C      1.591169    0.753359   -0.972600
  C      1.391756    0.129388    0.407300
  C      1.674935   -1.369949    0.371662
  C     -0.019838    0.436842    0.939005
  C     -1.154214    0.045114    0.020133
  O     -1.186628   -0.993999   -0.609382
  C     -2.271822    1.046291   -0.044770
  H      2.612859    0.602476   -1.311700
  H      0.921010    0.292444   -1.695537
  H      1.392255    1.822307   -0.944896
  H      2.101500    0.595116    1.101080
  H      2.682993   -1.554094    0.007563
  H      0.971571   -1.871787   -0.287698
  H      1.583898   -1.801756    1.366039
  H     -0.098103    1.500058    1.164967
  H     -0.170758   -0.117913    1.869222
  H     -3.111594    0.642761   -0.603883
  H     -2.584855    1.319197    0.959332
  H     -1.907299    1.943937   -0.539997

 Total Charge           Charge          ....    0
 Multiplicity           Mult            ....    1
 Number of Electrons    NEL             ....   56
 Basis Dimension        Dim             ....  122

ORBITAL ENERGIES
----------------

  NO   OCC          E(Eh)            E(eV)
   0   2.0000     -18.739267      -509.9214
   1   2.0000      -9.975563      -271.4489
   2   2.0000      -9.901655      -269.4377
   3   2.0000      -9.892483      -269.1881
   4   2.0000      -9.886254      -269.0186
   5   2.0000      -9.872931      -268.6561
   6   2.0000      -9.863345      -268.3953
   7   2.0000      -0.936998       -25.4970
   8   2.0000      -0.734409       -19.9843
   9   2.0000      -0.682606       -18.5747
  10   2.0000      -0.623960       -16.9788
  11   2.0000      -0.607534       -16.5318
  12   2.0000      -0.516224       -14.0472
  13   2.0000      -0.455462       -12.3938
  14   2.0000      -0.431853       -11.7513
  15   2.0000      -0.418893       -11.3987
  16   2.0000      -0.402016       -10.9394
  17   2.0000      -0.381850       -10.3907
  18   2.0000      -0.379037       -10.3141
  19   2.0000      -0.364179        -9.9098
  20   2.0000      -0.344535        -9.3753
  21   2.0000      -0.331536        -9.0216
  22   2.0000      -0.326502        -8.8846
  23   2.0000      -0.308398        -8.3919
  24   2.0000      -0.290736        -7.9113
  25   2.0000      -0.288194        -7.8422
  26   2.0000      -0.286755        -7.8030
  27   2.0000      -0.193847        -5.2748
  28   0.0000      -0.052006        -1.4152
  29   0.0000       0.024264         0.6602
  30   0.0000       0.060556         1.6478
  31   0.0000       0.080777         2.1981
  32   0.0000       0.084477         2.2987

MULLIKEN ATOMIC CHARGES
-----------------------
   0 C :   -0.260813
   1 C :   -0.166795
   2 C :   -0.258809
   3 C :   -0.130856
   4 C :   -0.018958
   5 O :   -0.165040
   6 C :   -0.257765
   7 H :    0.102186
   8 H :    0.118232
   9 H :    0.092297
  10 H :    0.073102
  11 H :    0.093180
  12 H :    0.125765
  13 H :    0.090330
  14 H :    0.085524
  15 H :    0.112020
  16 H :    0.116341
  17 H :    0.123703
  18 H :    0.126355
Sum of atomic charges:    0.0000000

LOEWDIN ATOMIC CHARGES
----------------------
   0 C :   -0.335221
   1 C :   -0.146813
   2 C :   -0.339293
   3 C :   -0.244921
   4 C :    0.047022
   5 O :   -0.128898
   6 C :   -0.362066
   7 H :    0.120205
   8 H :    0.123044
   9 H :    0.113382
  10 H :    0.115569
  11 H :    0.115114
  12 H :    0.126761
  13 H :    0.113963
  14 H :    0.122291
  15 H :    0.144886
  16 H :    0.132246
  17 H :    0.138883
  18 H :    0.143846

  Mayer bond orders larger than 0.100000
B(  0-C ,  1-C ) :   1.1164 B(  0-C ,  7-H ) :   0.9504 B(  0-C ,  8-H ) :   0.9397
B(  0-C ,  9-H ) :   0.9506 B(  1-C ,  2-C ) :   1.1073 B(  1-C ,  3-C ) :   1.0676
B(  1-C , 10-H ) :   0.9065 B(  2-C , 11-H ) :   0.9477 B(  2-C , 12-H ) :   0.9344
B(  2-C , 13-H ) :   0.9499 B(  3-C ,  4-C ) :   0.9703 B(  3-C , 14-H ) :   0.9142
B(  3-C , 15-H ) :   0.8803 B(  4-C ,  5-O ) :   2.1547 B(  4-C ,  6-C ) :   1.0798
B(  6-C , 16-H ) :   0.9356 B(  6-C , 17-H ) :   0.9278 B(  6-C , 18-H ) :   0.9213

Dispersion correction           -0.015331202
FINAL SINGLE POINT ENERGY      -310.354607335803

DIPOLE MOMENT
-------------

Method             : SCF
Type of density    : Electron Density
Multiplicity       :   1
Irrep              :   0
Energy             :  -310.4193955296806848 Eh
Relativity type    :
Basis              : AO
                                X                 Y                 Z
Electronic contribution:     -4.057869860      -2.327540199      -0.505286147
Nuclear contribution   :      4.104205511       3.149445674       1.008393314
                        -----------------------------------------
Total Dipole Moment    :      0.046335652       0.821905475       0.503107167
                        -----------------------------------------
Magnitude (a.u.)       :      0.964775842
Magnitude (Debye)      :      2.452265305

Rotational constants in cm-1:             0.138474             0.058751             0.053381
Rotational constants in MHz :          4151.343290          1761.301491          1600.331000

                             ****ORCA TERMINATED NORMALLY****
TOTAL RUN TIME: 0 days 0 hours 0 minutes 9 seconds 613 msec
