                         Program Version 6.0.0  -   RELEASE  -
|  1> ! pbe def2-sv(p) def2/J RI DEFGRID1 loosescf d4 GCP(DFT/SV(P)) printgap
|  2> %output
|  3>     printlevel normal
|  4> end
|  5> * xyz 0 1
|  6> C 1.9559983937 -0.7969285082 -0.1217813014
|  7> C 1.2163998567 0.4191202262 0.4237787435
|  8> C -0.0384694866 0.7742068459 -0.3866705747
|  9> C -1.1039344466 -0.2693905918 -0.273723785
| 10> C -2.2549729573 -0.0923383829 0.3475868296
| 11> H 2.8734854767 -0.9610012829 0.438603224
| 12> H 2.2149812622 -0.6474572133 -1.1678031974
| 13> H 1.3456992429 -1.6924835645 -0.0408881893
| 14> H 0.9285896506 0.2365976059 1.4614411864
| 15> H 1.8889378364 1.279666814 0.4106397512
| 16> H 0.2431644245 0.8892367434 -1.4366484618
| 17> H -0.4302190992 1.7288840379 -0.0300578975
| 18> H -0.8808441516 -1.2218200477 -0.7354251065
| 19> H -2.9955547273 -0.8711127637 0.4151378878
| 20> H -2.5073690111 0.8463629272 0.8138150339
| 21> *
| 22>
| 23>                          ****END OF INPUT****

CARTESIAN COORDINATES (ANGSTROEM)
---------------------------------
  C      1.955998   -0.796929   -0.121781
  C      1.216400    0.419120    0.423779
  C     -0.038469    0.774207   -0.386671
  C     -1.103934   -0.269391   -0.273724
  C     -2.254973   -0.092338    0.347587
  H      2.873485   -0.961001    0.438603
  H      2.214981   -0.647457   -1.167803
  H      1.345699   -1.692484   -0.040888
  H      0.928590    0.236598    1.461441
  H      1.888938    1.279667    0.410640
  H      0.243164    0.889237   -1.436648
  H     -0.430219    1.728884   -0.030058
  H     -0.880844   -1.221820   -0.735425
  H     -2.995555   -0.871113    0.415138
  H     -2.507369    0.846363    0.813815

 Total Charge           Charge          ....    0
 Multiplicity           Mult            ....    1
 Number of Electrons    NEL             ....   40
 Basis Dimension        Dim             ....   90

ORBITAL ENERGIES
----------------

  NO   OCC          E(Eh)            E(eV)
   0   2.0000      -9.888266      -269.0734
   1   2.0000      -9.885704      -269.0037
   2   2.0000      -9.885590      -269.0006
   3   2.0000      -9.874051      -268.6866
   4   2.0000      -9.873675      -268.6764
   5   2.0000      -0.727535       -19.7972
   6   2.0000      -0.673116       -18.3164
   7   2.0000      -0.604751       -16.4561
   8   2.0000      -0.532314       -14.4850
   9   2.0000      -0.485046       -13.1988
  10   2.0000      -0.426968       -11.6184
  11   2.0000      -0.404857       -11.0167
  12   2.0000      -0.377807       -10.2806
  13   2.0000      -0.367906       -10.0112
  14   2.0000      -0.340361        -9.2617
  15   2.0000      -0.322291        -8.7700
  16   2.0000      -0.300924        -8.1886
  17   2.0000      -0.291835        -7.9412
  18   2.0000      -0.279044        -7.5932
  19   2.0000      -0.225232        -6.1289
  20   0.0000      -0.014777        -0.4021
  21   0.0000       0.047152         1.2831
  22   0.0000       0.061927         1.6851
  23   0.0000       0.081055         2.2056
  24   0.0000       0.083408         2.2697

MULLIKEN ATOMIC CHARGES
-----------------------
   0 C :   -0.292319
   1 C :   -0.182828
   2 C :   -0.114180
   3 C :   -0.131395
   4 C :   -0.202820
   5 H :    0.104923
   6 H :    0.097632
   7 H :    0.107568
   8 H :    0.091959
   9 H :    0.087498
  10 H :    0.088962
  11 H :    0.081887
  12 H :    0.077279
  13 H :    0.095708
  14 H :    0.090129
Sum of atomic charges:   -0.0000000

LOEWDIN ATOMIC CHARGES
----------------------
   0 C :   -0.343989
   1 C :   -0.229347
   2 C :   -0.222173
   3 C :   -0.134190
   4 C :   -0.256346
   5 H :    0.120638
   6 H :    0.116478
   7 H :    0.117425
   8 H :    0.117488
   9 H :    0.115624
  10 H :    0.122210
  11 H :    0.119725
  12 H :    0.119012
  13 H :    0.119780
  14 H :    0.117665

  Mayer bond orders larger than 0.100000
B(  0-C ,  1-C ) :   1.1555 B(  0-C ,  5-H ) :   0.9523 B(  0-C ,  6-H ) :   0.9552
B(  0-C ,  7-H ) :   0.9512 B(  1-C ,  2-C ) :   1.1010 B(  1-C ,  8-H ) :   0.9278
B(  1-C ,  9-H ) :   0.9260 B(  2-C ,  3-C ) :   1.0862 B(  2-C , 10-H ) :   0.9076
B(  2-C , 11-H ) :   0.9173 B(  3-C ,  4-C ) :   2.0724 B(  3-C , 12-H ) :   0.9304
B(  4-C , 13-H ) :   0.9255 B(  4-C , 14-H ) :   0.9179

Dispersion correction           -0.009937805
FINAL SINGLE POINT ENERGY      -196.025697611790

DIPOLE MOMENT
-------------

Method             : SCF
Type of density    : Electron Density
Multiplicity       :   1
Irrep              :   0
Energy             :  -196.0742246310834673 Eh
Relativity type    :
Basis              : AO
                                X                 Y                 Z
Electronic contribution:     -2.362663677       0.409438223      -0.141733042
Nuclear contribution   :      2.515116558      -0.387583718       0.120849834
                        -----------------------------------------
Total Dipole Moment    :      0.152452881       0.021854505      -0.020883208
                        -----------------------------------------
Magnitude (a.u.)       :      0.155420747
Magnitude (Debye)      :      0.395048144

Rotational constants in cm-1:             0.385528             0.088797             0.081719
Rotational constants in MHz :         11557.850988          2662.063916          2449.876089

                             ****ORCA TERMINATED NORMALLY****
TOTAL RUN TIME: 0 days 0 hours 0 minutes 6 seconds 480 msec
