                         Program Version 6.0.0  -   RELEASE  -
|  1> ! pbe def2-sv(p) def2/J RI DEFGRID1 loosescf d4 GCP(DFT/SV(P)) printgap
|  2> %output
|  3>     printlevel normal
|  4> end
|  5> * xyz 0 1
|  6> C 3.5977096806 -0.4991403251 0.1813744102
|  7> C 2.1701662939 -0.215394142 0.5349399516
|  8> C 1.6608320982 -0.5024885129 1.7220538322
|  9> C 1.3406729144 0.3866444791 -0.5791802643
| 10> H 2.0244886613 0.8522246386 -1.2934542368
| 11> C 0.55538218 -0.7327073336 -1.2976100635
| 12> C -0.8817933807 -0.319465697 -1.6377997032
| 13> C -1.5589935915 0.1108493567 -0.3731385293
| 14> C -0.8971125432 0.9847248767 0.4094109514
| 15> C 0.4113165466 1.5051198215 -0.0452353407
| 16> C -2.842234192 -0.4339548211 0.0094224761
| 17> O -3.4652698812 -0.1517535585 1.0199431516
| 18> H 3.6433564678 -1.1398415624 -0.6979142716
| 19> H 4.1169679819 0.4287236357 -0.0546443072
| 20> H 4.1137276605 -0.9896092464 1.0017801211
| 21> H 0.6294909909 -0.3053505616 1.9646590324
| 22> H 2.2524534502 -0.9538202687 2.5003025025
| 23> H 1.0751319405 -1.0251721008 -2.2096700756
| 24> H 0.5070846689 -1.6077313672 -0.6461171996
| 25> H -0.8623043475 0.5128255977 -2.3454799356
| 26> H -1.4109443586 -1.1519639954 -2.1016275458
| 27> H -1.3265443048 1.3158301429 1.3437183167
| 28> H 0.2173072946 2.1945480426 -0.8725469957
| 29> H 0.9179377607 2.0581417123 0.7440972159
| 30> H -3.2661750454 -1.1664935327 -0.703970485
| 31> *
| 32>
| 33>                          ****END OF INPUT****

CARTESIAN COORDINATES (ANGSTROEM)
---------------------------------
  C      3.597710   -0.499140    0.181374
  C      2.170166   -0.215394    0.534940
  C      1.660832   -0.502489    1.722054
  C      1.340673    0.386644   -0.579180
  H      2.024489    0.852225   -1.293454
  C      0.555382   -0.732707   -1.297610
  C     -0.881793   -0.319466   -1.637800
  C     -1.558994    0.110849   -0.373139
  C     -0.897113    0.984725    0.409411
  C      0.411317    1.505120   -0.045235
  C     -2.842234   -0.433955    0.009422
  O     -3.465270   -0.151754    1.019943
  H      3.643356   -1.139842   -0.697914
  H      4.116968    0.428724   -0.054644
  H      4.113728   -0.989609    1.001780
  H      0.629491   -0.305351    1.964659
  H      2.252453   -0.953820    2.500303
  H      1.075132   -1.025172   -2.209670
  H      0.507085   -1.607731   -0.646117
  H     -0.862304    0.512826   -2.345480
  H     -1.410944   -1.151964   -2.101628
  H     -1.326544    1.315830    1.343718
  H      0.217307    2.194548   -0.872547
  H      0.917938    2.058142    0.744097
  H     -3.266175   -1.166494   -0.703970

 Total Charge           Charge          ....    0
 Multiplicity           Mult            ....    1
 Number of Electrons    NEL             ....   82
 Basis Dimension        Dim             ....  182

ORBITAL ENERGIES
----------------

  NO   OCC          E(Eh)            E(eV)
   0   2.0000     -18.733124      -509.7542
   1   2.0000      -9.960105      -271.0282
   2   2.0000      -9.912055      -269.7207
   3   2.0000      -9.909411      -269.6488
   4   2.0000      -9.904041      -269.5027
   5   2.0000      -9.903320      -269.4830
   6   2.0000      -9.902459      -269.4596
   7   2.0000      -9.900807      -269.4147
   8   2.0000      -9.899426      -269.3771
   9   2.0000      -9.886830      -269.0343
  10   2.0000      -9.872836      -268.6535
  11   2.0000      -0.925434       -25.1823
  12   2.0000      -0.785519       -21.3751
  13   2.0000      -0.732739       -19.9388
  14   2.0000      -0.683656       -18.6032
  15   2.0000      -0.674214       -18.3463
  16   2.0000      -0.617924       -16.8146
  17   2.0000      -0.589183       -16.0325
  18   2.0000      -0.570564       -15.5258
  19   2.0000      -0.523102       -14.2343
  20   2.0000      -0.481104       -13.0915
  21   2.0000      -0.461541       -12.5592
  22   2.0000      -0.443699       -12.0737
  23   2.0000      -0.439826       -11.9683
  24   2.0000      -0.405622       -11.0375
  25   2.0000      -0.397155       -10.8071
  26   2.0000      -0.388300       -10.5662
  27   2.0000      -0.372787       -10.1441
  28   2.0000      -0.367110        -9.9896
  29   2.0000      -0.362437        -9.8624
  30   2.0000      -0.354322        -9.6416
  31   2.0000      -0.352793        -9.6000
  32   2.0000      -0.340720        -9.2715
  33   2.0000      -0.334209        -9.0943
  34   2.0000      -0.324536        -8.8311
  35   2.0000      -0.300108        -8.1663
  36   2.0000      -0.288156        -7.8411
  37   2.0000      -0.281339        -7.6556
  38   2.0000      -0.232397        -6.3238
  39   2.0000      -0.216863        -5.9011
  40   2.0000      -0.196252        -5.3403
  41   0.0000      -0.093244        -2.5373
  42   0.0000      -0.018354        -0.4994
  43   0.0000       0.022132         0.6022
  44   0.0000       0.030999         0.8435
  45   0.0000       0.049954         1.3593

MULLIKEN ATOMIC CHARGES
-----------------------
   0 C :   -0.208029
   1 C :   -0.078498
   2 C :   -0.236562
   3 C :   -0.143025
   4 H :    0.056221
   5 C :   -0.103425
   6 C :   -0.067052
   7 C :   -0.061344
   8 C :   -0.172750
   9 C :   -0.026783
  10 C :    0.036233
  11 O :   -0.173293
  12 H :    0.107939
  13 H :    0.110966
  14 H :    0.100281
  15 H :    0.105562
  16 H :    0.084592
  17 H :    0.085296
  18 H :    0.096679
  19 H :    0.090367
  20 H :    0.083903
  21 H :    0.079051
  22 H :    0.102021
  23 H :    0.103086
  24 H :    0.028567
Sum of atomic charges:   -0.0000000

LOEWDIN ATOMIC CHARGES
----------------------
   0 C :   -0.321563
   1 C :   -0.049690
   2 C :   -0.268382
   3 C :   -0.124966
   4 H :    0.119772
   5 C :   -0.204356
   6 C :   -0.210540
   7 C :   -0.118650
   8 C :   -0.069023
   9 C :   -0.210724
  10 C :   -0.005936
  11 O :   -0.138319
  12 H :    0.128221
  13 H :    0.129293
  14 H :    0.124725
  15 H :    0.123029
  16 H :    0.120217
  17 H :    0.120774
  18 H :    0.126890
  19 H :    0.127758
  20 H :    0.122687
  21 H :    0.131901
  22 H :    0.140561
  23 H :    0.130774
  24 H :    0.075546

  Mayer bond orders larger than 0.100000
B(  0-C ,  1-C ) :   1.1314 B(  0-C , 12-H ) :   0.9308 B(  0-C , 13-H ) :   0.9274
B(  0-C , 14-H ) :   0.9412 B(  1-C ,  2-C ) :   2.0482 B(  1-C ,  3-C ) :   0.9991
B(  2-C , 15-H ) :   0.8939 B(  2-C , 16-H ) :   0.9033 B(  3-C ,  4-H ) :   0.8777
B(  3-C ,  5-C ) :   1.0794 B(  3-C ,  9-C ) :   1.0917 B(  5-C ,  6-C ) :   1.1503
B(  5-C , 17-H ) :   0.9086 B(  5-C , 18-H ) :   0.9125 B(  6-C ,  7-C ) :   1.0944
B(  6-C , 19-H ) :   0.8749 B(  6-C , 20-H ) :   0.8976 B(  7-C ,  8-C ) :   1.7387
B(  7-C , 10-C ) :   1.0381 B(  8-C ,  9-C ) :   1.0977 B(  8-C , 11-O ) :   0.1152
B(  8-C , 21-H ) :   0.9384 B(  9-C , 22-H ) :   0.8589 B(  9-C , 23-H ) :   0.9133
B( 10-C , 11-O ) :   2.1328 B( 10-C , 24-H ) :   0.9123

Dispersion correction           -0.027181493
FINAL SINGLE POINT ENERGY      -463.615966967618

DIPOLE MOMENT
-------------

Method             : SCF
Type of density    : Electron Density
Multiplicity       :   1
Irrep              :   0
Energy             :  -463.6911266917891226 Eh
Relativity type    :
Basis              : AO
                                X                 Y                 Z
Electronic contribution:    -10.590107073       1.054717640       2.247888484
Nuclear contribution   :     11.799543812      -0.919485720      -3.147319272
                        -----------------------------------------
Total Dipole Moment    :      1.209436739       0.135231920      -0.899430788
                        -----------------------------------------
Magnitude (a.u.)       :      1.513274807
Magnitude (Debye)      :      3.846438877

Rotational constants in cm-1:             0.074146             0.022073             0.020206
Rotational constants in MHz :          2222.833976           661.743178           605.771221

                             ****ORCA TERMINATED NORMALLY****
TOTAL RUN TIME: 0 days 0 hours 0 minutes 16 seconds 405 msec
