                         Program Version 6.0.0  -   RELEASE  -
|  1> ! r2scan-3c def2/J RI DEFGRID2 scfconv6 printgap
|  2> %output
|  3>     printlevel normal
|  4> end
|  5> * xyz 0 1
|  6> C -1.9233544352 0.4632078588 -0.4491611016
|  7> O -1.2386254853 -0.3421510605 0.5057623627
|  8> C 0.0423183379 -0.6948150046 0.1297016016
|  9> O 0.87147992 0.4429338822 0.0808029331
| 10> C 2.2175509588 0.1318679973 -0.2197013695
| 11> H -2.9062143818 0.6470029299 -0.0256758719
| 12> H -2.0131237562 -0.0718248823 -1.3993638283
| 13> H -1.3948790433 1.4053023491 -0.604944206
| 14> H 0.4026644423 -1.4007457209 0.8929198488
| 15> H 0.0471919563 -1.1922479849 -0.8629888043
| 16> H 2.7448826505 1.0813466383 -0.2374817201
| 17> H 2.2925544134 -0.3585759602 -1.1957016695
| 18> H 2.6448077913 -0.5215162665 0.547176859
| 19> *
| 20>
| 21>                          ****END OF INPUT****

CARTESIAN COORDINATES (ANGSTROEM)
---------------------------------
  C     -1.923354    0.463208   -0.449161
  O     -1.238625   -0.342151    0.505762
  C      0.042318   -0.694815    0.129702
  O      0.871480    0.442934    0.080803
  C      2.217551    0.131868   -0.219701
  H     -2.906214    0.647003   -0.025676
  H     -2.013124   -0.071825   -1.399364
  H     -1.394879    1.405302   -0.604944
  H      0.402664   -1.400746    0.892920
  H      0.047192   -1.192248   -0.862989
  H      2.744883    1.081347   -0.237482
  H      2.292554   -0.358576   -1.195702
  H      2.644808   -0.521516    0.547177

 Total Charge           Charge          ....    0
 Multiplicity           Mult            ....    1
 Number of Electrons    NEL             ....   42
 Basis Dimension        Dim             ....  145

ORBITAL ENERGIES
----------------

  NO   OCC          E(Eh)            E(eV)
   0   2.0000     -18.960712      -515.9472
   1   2.0000     -18.955649      -515.8094
   2   2.0000     -10.123798      -275.4825
   3   2.0000     -10.076648      -274.1995
   4   2.0000     -10.069539      -274.0061
   5   2.0000      -1.034138       -28.1403
   6   2.0000      -0.976991       -26.5853
   7   2.0000      -0.699565       -19.0361
   8   2.0000      -0.651039       -17.7157
   9   2.0000      -0.582456       -15.8494
  10   2.0000      -0.472080       -12.8460
  11   2.0000      -0.469479       -12.7752
  12   2.0000      -0.466562       -12.6958
  13   2.0000      -0.409153       -11.1336
  14   2.0000      -0.394702       -10.7404
  15   2.0000      -0.390787       -10.6339
  16   2.0000      -0.353184        -9.6106
  17   2.0000      -0.303884        -8.2691
  18   2.0000      -0.295749        -8.0477
  19   2.0000      -0.239883        -6.5275
  20   2.0000      -0.226095        -6.1524
  21   0.0000       0.072945         1.9849
  22   0.0000       0.077028         2.0960
  23   0.0000       0.110286         3.0010
  24   0.0000       0.120559         3.2806
  25   0.0000       0.135117         3.6767

MULLIKEN ATOMIC CHARGES
-----------------------
   0 C :   -0.295533
   1 O :   -0.224171
   2 C :   -0.058810
   3 O :   -0.235420
   4 C :   -0.280821
   5 H :    0.147697
   6 H :    0.130393
   7 H :    0.163195
   8 H :    0.126771
   9 H :    0.109596
  10 H :    0.151341
  11 H :    0.131456
  12 H :    0.134306
Sum of atomic charges:   -0.0000000

LOEWDIN ATOMIC CHARGES
----------------------
   0 C :   -0.070832
   1 O :   -0.696883
   2 C :    0.240158
   3 O :   -0.738614
   4 C :   -0.071485
   5 H :    0.175407
   6 H :    0.158219
   7 H :    0.169221
   8 H :    0.183046
   9 H :    0.162566
  10 H :    0.177540
  11 H :    0.155298
  12 H :    0.156360

  Mayer bond orders larger than 0.100000
B(  0-C ,  1-O ) :   0.8674 B(  0-C ,  5-H ) :   0.9737 B(  0-C ,  6-H ) :   0.9653
B(  0-C ,  7-H ) :   0.9662 B(  1-O ,  2-C ) :   1.0864 B(  2-C ,  3-O ) :   0.9058
B(  2-C ,  8-H ) :   0.9528 B(  2-C ,  9-H ) :   0.9537 B(  3-O ,  4-C ) :   0.8803
B(  4-C , 10-H ) :   0.9722 B(  4-C , 11-H ) :   0.9647 B(  4-C , 12-H ) :   0.9670

Dispersion correction           -0.002369050
FINAL SINGLE POINT ENERGY      -269.481773058204

DIPOLE MOMENT
-------------

Method             : SCF
Type of density    : Electron Density
Multiplicity       :   1
Irrep              :   0
Energy             :  -269.4921395629526160 Eh
Relativity type    :
Basis              : AO
                                X                 Y                 Z
Electronic contribution:     -1.352192724       0.195289394       2.161816186
Nuclear contribution   :      1.700031953      -0.384333829      -2.698903418
                        -----------------------------------------
Total Dipole Moment    :      0.347839229      -0.189044436      -0.537087232
                        -----------------------------------------
Magnitude (a.u.)       :      0.667227564
Magnitude (Debye)      :      1.695957688

Rotational constants in cm-1:             0.495042             0.091747             0.084209
Rotational constants in MHz :         14840.980927          2750.512664          2524.526196

                             ****ORCA TERMINATED NORMALLY****
TOTAL RUN TIME: 0 days 0 hours 0 minutes 14 seconds 810 msec
