                         Program Version 6.0.0  -   RELEASE  -
|  1> ! r2scan-3c def2/J RI DEFGRID2 scfconv6 printgap
|  2> %output
|  3>     printlevel normal
|  4> end
|  5> %cpcm
|  6>     smd true
|  7>     smdsolvent "water"
|  8> end
|  9> * xyz 0 1
| 10> C -1.9233544352 0.4632078588 -0.4491611016
| 11> O -1.2386254853 -0.3421510605 0.5057623627
| 12> C 0.0423183379 -0.6948150046 0.1297016016
| 13> O 0.87147992 0.4429338822 0.0808029331
| 14> C 2.2175509588 0.1318679973 -0.2197013695
| 15> H -2.9062143818 0.6470029299 -0.0256758719
| 16> H -2.0131237562 -0.0718248823 -1.3993638283
| 17> H -1.3948790433 1.4053023491 -0.604944206
| 18> H 0.4026644423 -1.4007457209 0.8929198488
| 19> H 0.0471919563 -1.1922479849 -0.8629888043
| 20> H 2.7448826505 1.0813466383 -0.2374817201
| 21> H 2.2925544134 -0.3585759602 -1.1957016695
| 22> H 2.6448077913 -0.5215162665 0.547176859
| 23> *
| 24>
| 25>                          ****END OF INPUT****

CARTESIAN COORDINATES (ANGSTROEM)
---------------------------------
  C     -1.923354    0.463208   -0.449161
  O     -1.238625   -0.342151    0.505762
  C      0.042318   -0.694815    0.129702
  O      0.871480    0.442934    0.080803
  C      2.217551    0.131868   -0.219701
  H     -2.906214    0.647003   -0.025676
  H     -2.013124   -0.071825   -1.399364
  H     -1.394879    1.405302   -0.604944
  H      0.402664   -1.400746    0.892920
  H      0.047192   -1.192248   -0.862989
  H      2.744883    1.081347   -0.237482
  H      2.292554   -0.358576   -1.195702
  H      2.644808   -0.521516    0.547177

 Total Charge           Charge          ....    0
 Multiplicity           Mult            ....    1
 Number of Electrons    NEL             ....   42
 Basis Dimension        Dim             ....  145

ORBITAL ENERGIES
----------------

  NO   OCC          E(Eh)            E(eV)
   0   2.0000     -18.969431      -516.1845
   1   2.0000     -18.960688      -515.9466
   2   2.0000     -10.121102      -275.4092
   3   2.0000     -10.066638      -273.9271
   4   2.0000     -10.065968      -273.9089
   5   2.0000      -1.040063       -28.3016
   6   2.0000      -0.982348       -26.7310
   7   2.0000      -0.698623       -19.0105
   8   2.0000      -0.646888       -17.6027
   9   2.0000      -0.578971       -15.7546
  10   2.0000      -0.471993       -12.8436
  11   2.0000      -0.470019       -12.7899
  12   2.0000      -0.466652       -12.6983
  13   2.0000      -0.405089       -11.0230
  14   2.0000      -0.391452       -10.6519
  15   2.0000      -0.387114       -10.5339
  16   2.0000      -0.347333        -9.4514
  17   2.0000      -0.308407        -8.3922
  18   2.0000      -0.301065        -8.1924
  19   2.0000      -0.247203        -6.7267
  20   2.0000      -0.228729        -6.2240
  21   0.0000       0.073208         1.9921
  22   0.0000       0.080876         2.2008
  23   0.0000       0.123328         3.3559
  24   0.0000       0.128914         3.5079
  25   0.0000       0.143546         3.9061

MULLIKEN ATOMIC CHARGES
-----------------------
   0 C :   -0.309563
   1 O :   -0.290946
   2 C :   -0.057259
   3 O :   -0.297858
   4 C :   -0.300975
   5 H :    0.167260
   6 H :    0.158938
   7 H :    0.164716
   8 H :    0.149608
   9 H :    0.140205
  10 H :    0.167154
  11 H :    0.153840
  12 H :    0.154879
Sum of atomic charges:   -0.0000000

LOEWDIN ATOMIC CHARGES
----------------------
   0 C :   -0.071100
   1 O :   -0.736330
   2 C :    0.241148
   3 O :   -0.773181
   4 C :   -0.069658
   5 H :    0.182595
   6 H :    0.170245
   7 H :    0.170793
   8 H :    0.192924
   9 H :    0.177672
  10 H :    0.183018
  11 H :    0.165963
  12 H :    0.165910

  Mayer bond orders larger than 0.100000
B(  0-C ,  1-O ) :   0.8595 B(  0-C ,  5-H ) :   0.9658 B(  0-C ,  6-H ) :   0.9597
B(  0-C ,  7-H ) :   0.9615 B(  1-O ,  2-C ) :   1.0669 B(  2-C ,  3-O ) :   0.9103
B(  2-C ,  8-H ) :   0.9455 B(  2-C ,  9-H ) :   0.9481 B(  3-O ,  4-C ) :   0.8708
B(  4-C , 10-H ) :   0.9643 B(  4-C , 11-H ) :   0.9594 B(  4-C , 12-H ) :   0.9610

Dispersion correction           -0.002369050
FINAL SINGLE POINT ENERGY      -269.486482722142

DIPOLE MOMENT
-------------

Method             : SCF
Type of density    : Electron Density
Multiplicity       :   1
Irrep              :   0
Energy             :  -269.4968492268905038 Eh
Relativity type    :
Basis              : AO
                                X                 Y                 Z
Electronic contribution:     -1.210581814       0.021614606       1.913472278
Nuclear contribution   :      1.700031953      -0.384333829      -2.698903418
                        -----------------------------------------
Total Dipole Moment    :      0.489450139      -0.362719223      -0.785431140
                        -----------------------------------------
Magnitude (a.u.)       :      0.993996352
Magnitude (Debye)      :      2.526537940

Rotational constants in cm-1:             0.495042             0.091747             0.084209
Rotational constants in MHz :         14840.980927          2750.512664          2524.526196

                             ****ORCA TERMINATED NORMALLY****
TOTAL RUN TIME: 0 days 0 hours 0 minutes 18 seconds 834 msec
