                         Program Version 6.0.0  -   RELEASE  -
|  1> ! pbe def2-sv(p) def2/J RI DEFGRID1 loosescf d4 GCP(DFT/SV(P)) printgap
|  2> %output
|  3>     printlevel normal
|  4> end
|  5> * xyz 0 1
|  6> C 2.5278158265 0.7446428299 0.3221119991
|  7> C 1.2626050439 -0.1051428587 0.24506965
|  8> C 1.402023439 -1.1816595175 -0.8289610914
|  9> C 0.0485186786 0.7825988988 -0.0465347692
| 10> C -1.2601435627 0.0635619904 0.1285353244
| 11> O -1.4513806109 -0.8867376787 0.857221424
| 12> O -2.2280498506 0.6026239317 -0.6003592752
| 13> H 2.4479681023 1.4865331721 1.1125632594
| 14> H 2.6946714679 1.258896888 -0.6213513616
| 15> H 3.3901336684 0.1162620003 0.5280423011
| 16> H 1.0962075783 -0.59632804 1.2097386574
| 17> H 2.2568816812 -1.8186970237 -0.6176637361
| 18> H 0.5113718118 -1.8056828898 -0.8576147782
| 19> H 1.5426597616 -0.7277094907 -1.8074744677
| 20> H 0.0865737664 1.1878881234 -1.0582470597
| 21> H 0.0315077644 1.6256351682 0.6493241134
| 22> H -3.0895684099 0.1604819354 -0.4723462471
| 23> *
| 24>
| 25>                          ****END OF INPUT****

CARTESIAN COORDINATES (ANGSTROEM)
---------------------------------
  C      2.527816    0.744643    0.322112
  C      1.262605   -0.105143    0.245070
  C      1.402023   -1.181660   -0.828961
  C      0.048519    0.782599   -0.046535
  C     -1.260144    0.063562    0.128535
  O     -1.451381   -0.886738    0.857221
  O     -2.228050    0.602624   -0.600359
  H      2.447968    1.486533    1.112563
  H      2.694671    1.258897   -0.621351
  H      3.390134    0.116262    0.528042
  H      1.096208   -0.596328    1.209739
  H      2.256882   -1.818697   -0.617664
  H      0.511372   -1.805683   -0.857615
  H      1.542660   -0.727709   -1.807474
  H      0.086574    1.187888   -1.058247
  H      0.031508    1.625635    0.649324
  H     -3.089568    0.160482   -0.472346

 Total Charge           Charge          ....    0
 Multiplicity           Mult            ....    1
 Number of Electrons    NEL             ....   56
 Basis Dimension        Dim             ....  118

ORBITAL ENERGIES
----------------

  NO   OCC          E(Eh)            E(eV)
   0   2.0000     -18.800457      -511.5864
   1   2.0000     -18.737092      -509.8622
   2   2.0000     -10.013973      -272.4941
   3   2.0000      -9.900731      -269.4126
   4   2.0000      -9.898050      -269.3396
   5   2.0000      -9.877254      -268.7737
   6   2.0000      -9.873607      -268.6745
   7   2.0000      -1.008692       -27.4479
   8   2.0000      -0.910826       -24.7848
   9   2.0000      -0.738132       -20.0856
  10   2.0000      -0.659325       -17.9412
  11   2.0000      -0.612884       -16.6774
  12   2.0000      -0.569578       -15.4990
  13   2.0000      -0.498474       -13.5642
  14   2.0000      -0.447079       -12.1656
  15   2.0000      -0.431246       -11.7348
  16   2.0000      -0.412914       -11.2360
  17   2.0000      -0.396122       -10.7790
  18   2.0000      -0.383139       -10.4258
  19   2.0000      -0.359979        -9.7955
  20   2.0000      -0.344450        -9.3730
  21   2.0000      -0.337108        -9.1732
  22   2.0000      -0.323510        -8.8032
  23   2.0000      -0.295605        -8.0438
  24   2.0000      -0.291985        -7.9453
  25   2.0000      -0.287433        -7.8214
  26   2.0000      -0.272917        -7.4264
  27   2.0000      -0.222305        -6.0492
  28   0.0000      -0.022216        -0.6045
  29   0.0000       0.025183         0.6853
  30   0.0000       0.038615         1.0508
  31   0.0000       0.073313         1.9950
  32   0.0000       0.082368         2.2414

MULLIKEN ATOMIC CHARGES
-----------------------
   0 C :   -0.230734
   1 C :   -0.186093
   2 C :   -0.256312
   3 C :   -0.152636
   4 C :    0.085833
   5 O :   -0.195168
   6 O :   -0.285986
   7 H :    0.097367
   8 H :    0.091486
   9 H :    0.101935
  10 H :    0.092559
  11 H :    0.101605
  12 H :    0.114786
  13 H :    0.089981
  14 H :    0.100212
  15 H :    0.118308
  16 H :    0.312857
Sum of atomic charges:   -0.0000000

LOEWDIN ATOMIC CHARGES
----------------------
   0 C :   -0.327603
   1 C :   -0.154356
   2 C :   -0.331045
   3 C :   -0.241525
   4 C :    0.026721
   5 O :   -0.172584
   6 O :   -0.207290
   7 H :    0.116717
   8 H :    0.116073
   9 H :    0.119772
  10 H :    0.124169
  11 H :    0.119764
  12 H :    0.121926
  13 H :    0.114428
  14 H :    0.133089
  15 H :    0.145177
  16 H :    0.296566

  Mayer bond orders larger than 0.100000
B(  0-C ,  1-C ) :   1.1140 B(  0-C ,  7-H ) :   0.9504 B(  0-C ,  8-H ) :   0.9474
B(  0-C ,  9-H ) :   0.9527 B(  1-C ,  2-C ) :   1.1104 B(  1-C ,  3-C ) :   1.0790
B(  1-C , 10-H ) :   0.8946 B(  2-C , 11-H ) :   0.9521 B(  2-C , 12-H ) :   0.9472
B(  2-C , 13-H ) :   0.9485 B(  3-C ,  4-C ) :   1.0067 B(  3-C , 14-H ) :   0.9038
B(  3-C , 15-H ) :   0.8880 B(  4-C ,  5-O ) :   2.0843 B(  4-C ,  6-O ) :   1.2841
B(  6-O , 16-H ) :   0.8209

Dispersion correction           -0.012896148
FINAL SINGLE POINT ENERGY      -346.247560905339

DIPOLE MOMENT
-------------

Method             : SCF
Type of density    : Electron Density
Multiplicity       :   1
Irrep              :   0
Energy             :  -346.3125827895188991 Eh
Relativity type    :
Basis              : AO
                                X                 Y                 Z
Electronic contribution:    -10.326087677      -0.384562530       1.467495124
Nuclear contribution   :     10.235648067       0.828204532      -1.811572763
                        -----------------------------------------
Total Dipole Moment    :     -0.090439610       0.443642002      -0.344077639
                        -----------------------------------------
Magnitude (a.u.)       :      0.568671233
Magnitude (Debye)      :      1.445447402

Rotational constants in cm-1:             0.164654             0.050643             0.046809
Rotational constants in MHz :          4936.198546          1518.229894          1403.297234

                             ****ORCA TERMINATED NORMALLY****
TOTAL RUN TIME: 0 days 0 hours 0 minutes 9 seconds 326 msec
