                         Program Version 6.0.0  -   RELEASE  -
|  1> ! r2scan-3c def2/J RI DEFGRID2 scfconv6 printgap
|  2> %output
|  3>     printlevel normal
|  4> end
|  5> * xyz 0 1
|  6> C -2.655768131 -0.3337006864 -0.7443117088
|  7> C -1.9979081748 0.5817045774 0.281114015
|  8> C -0.7708057485 -0.0590411393 0.9396802876
|  9> C 0.4310685624 -0.1091387601 0.0316360814
| 10> O 0.4240224395 -0.3745904252 -1.151451454
| 11> O 1.5401863525 0.1730225973 0.7108441478
| 12> C 2.8000831408 0.1478994404 0.0324194945
| 13> H -3.5049034399 0.1645052619 -1.204667416
| 14> H -1.944764997 -0.5976568418 -1.5227275124
| 15> H -3.0061139995 -1.247704228 -0.2703315212
| 16> H -2.7175763316 0.8233857861 1.064600758
| 17> H -1.7003190576 1.5142495025 -0.2021623188
| 18> H -1.0086467644 -1.0878822485 1.2200761214
| 19> H -0.4803903372 0.4838096218 1.8389606966
| 20> H 3.4670005632 -0.4858164452 0.6127339724
| 21> H 3.1837748806 1.1661073183 -0.008040409
| 22> H 2.6697018604 -0.2470584826 -0.975759985
| 23> *
| 24>
| 25>                          ****END OF INPUT****

CARTESIAN COORDINATES (ANGSTROEM)
---------------------------------
  C     -2.655768   -0.333701   -0.744312
  C     -1.997908    0.581705    0.281114
  C     -0.770806   -0.059041    0.939680
  C      0.431069   -0.109139    0.031636
  O      0.424022   -0.374590   -1.151451
  O      1.540186    0.173023    0.710844
  C      2.800083    0.147899    0.032419
  H     -3.504903    0.164505   -1.204667
  H     -1.944765   -0.597657   -1.522728
  H     -3.006114   -1.247704   -0.270332
  H     -2.717576    0.823386    1.064601
  H     -1.700319    1.514250   -0.202162
  H     -1.008647   -1.087882    1.220076
  H     -0.480390    0.483810    1.838961
  H      3.467001   -0.485816    0.612734
  H      3.183775    1.166107   -0.008040
  H      2.669702   -0.247058   -0.975760

 Total Charge           Charge          ....    0
 Multiplicity           Mult            ....    1
 Number of Electrons    NEL             ....   56
 Basis Dimension        Dim             ....  193

ORBITAL ENERGIES
----------------

  NO   OCC          E(Eh)            E(eV)
   0   2.0000     -18.999418      -517.0004
   1   2.0000     -18.930652      -515.1292
   2   2.0000     -10.155138      -276.3354
   3   2.0000     -10.084989      -274.4265
   4   2.0000     -10.042943      -273.2824
   5   2.0000     -10.033914      -273.0367
   6   2.0000     -10.008918      -272.3565
   7   2.0000      -1.072928       -29.1959
   8   2.0000      -0.978446       -26.6249
   9   2.0000      -0.769258       -20.9326
  10   2.0000      -0.712315       -19.3831
  11   2.0000      -0.656031       -17.8515
  12   2.0000      -0.571112       -15.5407
  13   2.0000      -0.528832       -14.3902
  14   2.0000      -0.473788       -12.8924
  15   2.0000      -0.454478       -12.3670
  16   2.0000      -0.445618       -12.1259
  17   2.0000      -0.415538       -11.3074
  18   2.0000      -0.407136       -11.0787
  19   2.0000      -0.390057       -10.6140
  20   2.0000      -0.366186        -9.9644
  21   2.0000      -0.350580        -9.5398
  22   2.0000      -0.320997        -8.7348
  23   2.0000      -0.313167        -8.5217
  24   2.0000      -0.308693        -8.4000
  25   2.0000      -0.306487        -8.3399
  26   2.0000      -0.273587        -7.4447
  27   2.0000      -0.236819        -6.4442
  28   0.0000      -0.015705        -0.4274
  29   0.0000       0.068974         1.8769
  30   0.0000       0.090158         2.4533
  31   0.0000       0.113754         3.0954
  32   0.0000       0.127713         3.4752

MULLIKEN ATOMIC CHARGES
-----------------------
   0 C :   -0.514592
   1 C :   -0.206549
   2 C :   -0.272242
   3 C :    0.363796
   4 O :   -0.439513
   5 O :   -0.192197
   6 C :   -0.307529
   7 H :    0.141418
   8 H :    0.191510
   9 H :    0.136567
  10 H :    0.146715
  11 H :    0.136470
  12 H :    0.164782
  13 H :    0.166684
  14 H :    0.147516
  15 H :    0.148425
  16 H :    0.188738
Sum of atomic charges:   -0.0000000

LOEWDIN ATOMIC CHARGES
----------------------
   0 C :   -0.421986
   1 C :   -0.294127
   2 C :   -0.231406
   3 C :    0.363318
   4 O :   -0.447958
   5 O :   -0.606412
   6 C :   -0.047087
   7 H :    0.149220
   8 H :    0.173299
   9 H :    0.147467
  10 H :    0.153211
  11 H :    0.159081
  12 H :    0.182779
  13 H :    0.180868
  14 H :    0.173793
  15 H :    0.173003
  16 H :    0.192937

  Mayer bond orders larger than 0.100000
B(  0-C ,  1-C ) :   0.9046 B(  0-C ,  7-H ) :   0.9704 B(  0-C ,  8-H ) :   0.9722
B(  0-C ,  9-H ) :   0.9811 B(  1-C ,  2-C ) :   0.8828 B(  1-C , 10-H ) :   0.9717
B(  1-C , 11-H ) :   0.9748 B(  2-C ,  3-C ) :   0.9876 B(  2-C , 12-H ) :   0.9390
B(  2-C , 13-H ) :   0.9595 B(  3-C ,  4-O ) :   1.8468 B(  3-C ,  5-O ) :   1.0768
B(  5-O ,  6-C ) :   0.8406 B(  6-C , 14-H ) :   0.9654 B(  6-C , 15-H ) :   0.9634
B(  6-C , 16-H ) :   0.9670

Dispersion correction           -0.004025692
FINAL SINGLE POINT ENERGY      -346.928668627188

DIPOLE MOMENT
-------------

Method             : SCF
Type of density    : Electron Density
Multiplicity       :   1
Irrep              :   0
Energy             :  -346.9356296912777111 Eh
Relativity type    :
Basis              : AO
                                X                 Y                 Z
Electronic contribution:      4.982023563      -0.266731479       0.132699380
Nuclear contribution   :     -4.701340292       0.452903785       0.511975974
                        -----------------------------------------
Total Dipole Moment    :      0.280683271       0.186172306       0.644675354
                        -----------------------------------------
Magnitude (a.u.)       :      0.727357916
Magnitude (Debye)      :      1.848796896

Rotational constants in cm-1:             0.228938             0.047151             0.041451
Rotational constants in MHz :          6863.385719          1413.556293          1242.660069

                             ****ORCA TERMINATED NORMALLY****
TOTAL RUN TIME: 0 days 0 hours 0 minutes 22 seconds 755 msec
