                         Program Version 6.0.0  -   RELEASE  -
|  1> ! r2scan-3c def2/J RI DEFGRID2 scfconv6 printgap
|  2> %output
|  3>     printlevel normal
|  4> end
|  5> %cpcm
|  6>     smd true
|  7>     smdsolvent "water"
|  8> end
|  9> * xyz 0 1
| 10> C -2.655768131 -0.3337006864 -0.7443117088
| 11> C -1.9979081748 0.5817045774 0.281114015
| 12> C -0.7708057485 -0.0590411393 0.9396802876
| 13> C 0.4310685624 -0.1091387601 0.0316360814
| 14> O 0.4240224395 -0.3745904252 -1.151451454
| 15> O 1.5401863525 0.1730225973 0.7108441478
| 16> C 2.8000831408 0.1478994404 0.0324194945
| 17> H -3.5049034399 0.1645052619 -1.204667416
| 18> H -1.944764997 -0.5976568418 -1.5227275124
| 19> H -3.0061139995 -1.247704228 -0.2703315212
| 20> H -2.7175763316 0.8233857861 1.064600758
| 21> H -1.7003190576 1.5142495025 -0.2021623188
| 22> H -1.0086467644 -1.0878822485 1.2200761214
| 23> H -0.4803903372 0.4838096218 1.8389606966
| 24> H 3.4670005632 -0.4858164452 0.6127339724
| 25> H 3.1837748806 1.1661073183 -0.008040409
| 26> H 2.6697018604 -0.2470584826 -0.975759985
| 27> *
| 28>
| 29>                          ****END OF INPUT****

CARTESIAN COORDINATES (ANGSTROEM)
---------------------------------
  C     -2.655768   -0.333701   -0.744312
  C     -1.997908    0.581705    0.281114
  C     -0.770806   -0.059041    0.939680
  C      0.431069   -0.109139    0.031636
  O      0.424022   -0.374590   -1.151451
  O      1.540186    0.173023    0.710844
  C      2.800083    0.147899    0.032419
  H     -3.504903    0.164505   -1.204667
  H     -1.944765   -0.597657   -1.522728
  H     -3.006114   -1.247704   -0.270332
  H     -2.717576    0.823386    1.064601
  H     -1.700319    1.514250   -0.202162
  H     -1.008647   -1.087882    1.220076
  H     -0.480390    0.483810    1.838961
  H      3.467001   -0.485816    0.612734
  H      3.183775    1.166107   -0.008040
  H      2.669702   -0.247058   -0.975760

 Total Charge           Charge          ....    0
 Multiplicity           Mult            ....    1
 Number of Electrons    NEL             ....   56
 Basis Dimension        Dim             ....  193

ORBITAL ENERGIES
----------------

  NO   OCC          E(Eh)            E(eV)
   0   2.0000     -19.003027      -517.0987
   1   2.0000     -18.942516      -515.4521
   2   2.0000     -10.162672      -276.5404
   3   2.0000     -10.074182      -274.1324
   4   2.0000     -10.035807      -273.0882
   5   2.0000     -10.026985      -272.8481
   6   2.0000     -10.007357      -272.3140
   7   2.0000      -1.077755       -29.3272
   8   2.0000      -0.988575       -26.9005
   9   2.0000      -0.764487       -20.8027
  10   2.0000      -0.708033       -19.2666
  11   2.0000      -0.650794       -17.7090
  12   2.0000      -0.566378       -15.4119
  13   2.0000      -0.526437       -14.3251
  14   2.0000      -0.472623       -12.8607
  15   2.0000      -0.458171       -12.4675
  16   2.0000      -0.447807       -12.1854
  17   2.0000      -0.411774       -11.2049
  18   2.0000      -0.405273       -11.0280
  19   2.0000      -0.385201       -10.4818
  20   2.0000      -0.363842        -9.9006
  21   2.0000      -0.349857        -9.5201
  22   2.0000      -0.321444        -8.7469
  23   2.0000      -0.310745        -8.4558
  24   2.0000      -0.304389        -8.2828
  25   2.0000      -0.302385        -8.2283
  26   2.0000      -0.278411        -7.5760
  27   2.0000      -0.247617        -6.7380
  28   0.0000      -0.020929        -0.5695
  29   0.0000       0.074590         2.0297
  30   0.0000       0.097581         2.6553
  31   0.0000       0.124410         3.3854
  32   0.0000       0.131557         3.5798

MULLIKEN ATOMIC CHARGES
-----------------------
   0 C :   -0.547931
   1 C :   -0.227947
   2 C :   -0.278795
   3 C :    0.390529
   4 O :   -0.514134
   5 O :   -0.210445
   6 C :   -0.322200
   7 H :    0.156129
   8 H :    0.171281
   9 H :    0.157001
  10 H :    0.164834
  11 H :    0.151599
  12 H :    0.195349
  13 H :    0.181267
  14 H :    0.173722
  15 H :    0.175372
  16 H :    0.184370
Sum of atomic charges:   -0.0000000

LOEWDIN ATOMIC CHARGES
----------------------
   0 C :   -0.429803
   1 C :   -0.293899
   2 C :   -0.227864
   3 C :    0.372914
   4 O :   -0.502940
   5 O :   -0.610472
   6 C :   -0.042211
   7 H :    0.153026
   8 H :    0.163301
   9 H :    0.153510
  10 H :    0.160649
  11 H :    0.161765
  12 H :    0.193861
  13 H :    0.187948
  14 H :    0.184914
  15 H :    0.183740
  16 H :    0.191561

  Mayer bond orders larger than 0.100000
B(  0-C ,  1-C ) :   0.8933 B(  0-C ,  7-H ) :   0.9682 B(  0-C ,  8-H ) :   0.9775
B(  0-C ,  9-H ) :   0.9778 B(  1-C ,  2-C ) :   0.8629 B(  1-C , 10-H ) :   0.9666
B(  1-C , 11-H ) :   0.9788 B(  2-C ,  3-C ) :   0.9898 B(  2-C , 12-H ) :   0.9304
B(  2-C , 13-H ) :   0.9514 B(  3-C ,  4-O ) :   1.7927 B(  3-C ,  5-O ) :   1.0951
B(  5-O ,  6-C ) :   0.8287 B(  6-C , 14-H ) :   0.9562 B(  6-C , 15-H ) :   0.9545
B(  6-C , 16-H ) :   0.9635

Dispersion correction           -0.004025692
FINAL SINGLE POINT ENERGY      -346.931841539342

DIPOLE MOMENT
-------------

Method             : SCF
Type of density    : Electron Density
Multiplicity       :   1
Irrep              :   0
Energy             :  -346.9388026034315544 Eh
Relativity type    :
Basis              : AO
                                X                 Y                 Z
Electronic contribution:      5.033154621      -0.187658749       0.484873472
Nuclear contribution   :     -4.701340292       0.452903785       0.511975974
                        -----------------------------------------
Total Dipole Moment    :      0.331814329       0.265245035       0.996849447
                        -----------------------------------------
Magnitude (a.u.)       :      1.083588712
Magnitude (Debye)      :      2.754263622

Rotational constants in cm-1:             0.228938             0.047151             0.041451
Rotational constants in MHz :          6863.385719          1413.556293          1242.660069

                             ****ORCA TERMINATED NORMALLY****
TOTAL RUN TIME: 0 days 0 hours 0 minutes 32 seconds 718 msec
