                         Program Version 6.0.0  -   RELEASE  -
|  1> ! pbe def2-sv(p) def2/J RI DEFGRID1 loosescf d4 GCP(DFT/SV(P)) printgap
|  2> %output
|  3>     printlevel normal
|  4> end
|  5> * xyz 0 1
|  6> C 3.4105498352 0.9704341947 0.152219367
|  7> C 2.5568065289 -0.2591962444 0.0404719197
|  8> C 3.1096797849 -1.4617605231 0.1022528364
|  9> C 1.0783875092 -0.0478716797 -0.2255849726
| 10> H 0.9795888123 0.0988939709 -1.3097005301
| 11> C 0.2228620336 -1.2609413518 0.1777818146
| 12> C -1.2286592796 -0.9138339598 0.5656961982
| 13> C -1.7089984376 0.3705657313 -0.0348906483
| 14> C -0.8723569414 1.4212333776 -0.0485852416
| 15> C 0.5185022428 1.2334171463 0.4332967988
| 16> C -3.0566809288 0.4667833526 -0.5524170364
| 17> O -3.871796486 -0.4381422974 -0.5914449891
| 18> H 3.233454631 1.6377195604 -0.6890029769
| 19> H 3.193229914 1.5101739135 1.0717529192
| 20> H 4.4620338153 0.6972857772 0.1600799984
| 21> H 2.5539110073 -2.3761427068 0.0013403427
| 22> H 4.1701717806 -1.5775225211 0.2512250003
| 23> H 0.209144528 -1.9707964677 -0.6494196932
| 24> H 0.6852367644 -1.755690652 1.0320469897
| 25> H -1.9053647178 -1.720709344 0.2811533401
| 26> H -1.288585814 -0.8077906746 1.6524492736
| 27> H -1.17522583 2.3757526351 -0.4521681727
| 28> H 1.1241493645 2.1017031004 0.1897115536
| 29> H 0.5210705409 1.0922384219 1.517301088
| 30> H -3.3279685656 1.467130465 -0.9403291314
| 31> *
| 32>
| 33>                          ****END OF INPUT****

CARTESIAN COORDINATES (ANGSTROEM)
---------------------------------
  C      3.410550    0.970434    0.152219
  C      2.556807   -0.259196    0.040472
  C      3.109680   -1.461761    0.102253
  C      1.078388   -0.047872   -0.225585
  H      0.979589    0.098894   -1.309701
  C      0.222862   -1.260941    0.177782
  C     -1.228659   -0.913834    0.565696
  C     -1.708998    0.370566   -0.034891
  C     -0.872357    1.421233   -0.048585
  C      0.518502    1.233417    0.433297
  C     -3.056681    0.466783   -0.552417
  O     -3.871796   -0.438142   -0.591445
  H      3.233455    1.637720   -0.689003
  H      3.193230    1.510174    1.071753
  H      4.462034    0.697286    0.160080
  H      2.553911   -2.376143    0.001340
  H      4.170172   -1.577523    0.251225
  H      0.209145   -1.970796   -0.649420
  H      0.685237   -1.755691    1.032047
  H     -1.905365   -1.720709    0.281153
  H     -1.288586   -0.807791    1.652449
  H     -1.175226    2.375753   -0.452168
  H      1.124149    2.101703    0.189712
  H      0.521071    1.092238    1.517301
  H     -3.327969    1.467130   -0.940329

 Total Charge           Charge          ....    0
 Multiplicity           Mult            ....    1
 Number of Electrons    NEL             ....   82
 Basis Dimension        Dim             ....  182

ORBITAL ENERGIES
----------------

  NO   OCC          E(Eh)            E(eV)
   0   2.0000     -18.742140      -509.9996
   1   2.0000      -9.962075      -271.0818
   2   2.0000      -9.916816      -269.8503
   3   2.0000      -9.911881      -269.7160
   4   2.0000      -9.906234      -269.5623
   5   2.0000      -9.906229      -269.5622
   6   2.0000      -9.903507      -269.4881
   7   2.0000      -9.892319      -269.1837
   8   2.0000      -9.892223      -269.1811
   9   2.0000      -9.888432      -269.0779
  10   2.0000      -9.876084      -268.7419
  11   2.0000      -0.931570       -25.3493
  12   2.0000      -0.784323       -21.3425
  13   2.0000      -0.734769       -19.9941
  14   2.0000      -0.681652       -18.5487
  15   2.0000      -0.676822       -18.4173
  16   2.0000      -0.621219       -16.9042
  17   2.0000      -0.590556       -16.0699
  18   2.0000      -0.557612       -15.1734
  19   2.0000      -0.525957       -14.3120
  20   2.0000      -0.483743       -13.1633
  21   2.0000      -0.466477       -12.6935
  22   2.0000      -0.451636       -12.2896
  23   2.0000      -0.433680       -11.8010
  24   2.0000      -0.404606       -11.0099
  25   2.0000      -0.402657       -10.9569
  26   2.0000      -0.384449       -10.4614
  27   2.0000      -0.378954       -10.3119
  28   2.0000      -0.369293       -10.0490
  29   2.0000      -0.368088       -10.0162
  30   2.0000      -0.355778        -9.6812
  31   2.0000      -0.344762        -9.3814
  32   2.0000      -0.339089        -9.2271
  33   2.0000      -0.333869        -9.0850
  34   2.0000      -0.320862        -8.7311
  35   2.0000      -0.303317        -8.2537
  36   2.0000      -0.284064        -7.7298
  37   2.0000      -0.279503        -7.6057
  38   2.0000      -0.237021        -6.4497
  39   2.0000      -0.223358        -6.0779
  40   2.0000      -0.200565        -5.4577
  41   0.0000      -0.090001        -2.4491
  42   0.0000      -0.020182        -0.5492
  43   0.0000       0.019670         0.5352
  44   0.0000       0.028760         0.7826
  45   0.0000       0.049895         1.3577

MULLIKEN ATOMIC CHARGES
-----------------------
   0 C :   -0.229327
   1 C :   -0.058439
   2 C :   -0.222627
   3 C :   -0.146139
   4 H :    0.091004
   5 C :   -0.154566
   6 C :   -0.039596
   7 C :   -0.059324
   8 C :   -0.166208
   9 C :   -0.052802
  10 C :    0.038400
  11 O :   -0.172527
  12 H :    0.112227
  13 H :    0.118708
  14 H :    0.099752
  15 H :    0.094055
  16 H :    0.080418
  17 H :    0.098227
  18 H :    0.088943
  19 H :    0.095167
  20 H :    0.092808
  21 H :    0.064229
  22 H :    0.093863
  23 H :    0.102377
  24 H :    0.031377
Sum of atomic charges:    0.0000000

LOEWDIN ATOMIC CHARGES
----------------------
   0 C :   -0.323472
   1 C :   -0.053573
   2 C :   -0.265523
   3 C :   -0.124378
   4 H :    0.134421
   5 C :   -0.213986
   6 C :   -0.212492
   7 C :   -0.101625
   8 C :   -0.086370
   9 C :   -0.216185
  10 C :   -0.005785
  11 O :   -0.134522
  12 H :    0.126537
  13 H :    0.129427
  14 H :    0.125837
  15 H :    0.119817
  16 H :    0.118316
  17 H :    0.125758
  18 H :    0.124097
  19 H :    0.132113
  20 H :    0.135594
  21 H :    0.124720
  22 H :    0.125500
  23 H :    0.138099
  24 H :    0.077674

  Mayer bond orders larger than 0.100000
B(  0-C ,  1-C ) :   1.1241 B(  0-C , 12-H ) :   0.9322 B(  0-C , 13-H ) :   0.9207
B(  0-C , 14-H ) :   0.9340 B(  1-C ,  2-C ) :   2.0534 B(  1-C ,  3-C ) :   0.9973
B(  2-C , 15-H ) :   0.8994 B(  2-C , 16-H ) :   0.8979 B(  3-C ,  4-H ) :   0.8558
B(  3-C ,  5-C ) :   1.1284 B(  3-C ,  9-C ) :   1.1199 B(  5-C ,  6-C ) :   1.1278
B(  5-C , 17-H ) :   0.9096 B(  5-C , 18-H ) :   0.9007 B(  6-C ,  7-C ) :   1.1212
B(  6-C , 19-H ) :   0.8908 B(  6-C , 20-H ) :   0.8744 B(  7-C ,  8-C ) :   1.7172
B(  7-C , 10-C ) :   1.0342 B(  8-C ,  9-C ) :   1.0850 B(  8-C , 11-O ) :   0.1053
B(  8-C , 21-H ) :   0.9428 B(  9-C , 22-H ) :   0.8943 B(  9-C , 23-H ) :   0.8675
B( 10-C , 11-O ) :   2.1018 B( 10-C , 24-H ) :   0.9174

Dispersion correction           -0.026321665
FINAL SINGLE POINT ENERGY      -463.618303000851

DIPOLE MOMENT
-------------

Method             : SCF
Type of density    : Electron Density
Multiplicity       :   1
Irrep              :   0
Energy             :  -463.6948869999597491 Eh
Relativity type    :
Basis              : AO
                                X                 Y                 Z
Electronic contribution:    -11.364629239      -0.022112051      -1.780841586
Nuclear contribution   :     12.546741577       0.718000578       1.976807806
                        -----------------------------------------
Total Dipole Moment    :      1.182112338       0.695888527       0.195966220
                        -----------------------------------------
Magnitude (a.u.)       :      1.385659836
Magnitude (Debye)      :      3.522067401

Rotational constants in cm-1:             0.095243             0.019134             0.016650
Rotational constants in MHz :          2855.306385           573.633179           499.153307

                             ****ORCA TERMINATED NORMALLY****
TOTAL RUN TIME: 0 days 0 hours 0 minutes 18 seconds 114 msec
