                         Program Version 6.0.0  -   RELEASE  -
|  1> ! pbe def2-sv(p) def2/J RI DEFGRID1 loosescf d4 GCP(DFT/SV(P)) printgap
|  2> %output
|  3>     printlevel normal
|  4> end
|  5> * xyz 0 1
|  6> C -3.0180726277 0.2506339379 0.724588311
|  7> C -2.2857148515 0.213684299 -0.6121104894
|  8> C -1.0672920438 -0.7119194681 -0.6078938104
|  9> C 0.069806137 -0.2513380546 0.3054581841
| 10> C 1.2679228896 -1.2297122758 0.2758094281
| 11> C 2.469889519 -0.4187544291 -0.217798146
| 12> C 2.1413826697 1.007929347 0.2090045475
| 13> C 0.6516197656 1.1125993649 -0.1035216335
| 14> H -3.2926231137 -0.7549210158 1.0357796938
| 15> H -2.3967660164 0.693132052 1.4986693228
| 16> H -3.9255497031 0.8438659215 0.6400409037
| 17> H -2.9780158371 -0.1370068096 -1.3813938001
| 18> H -1.9767602203 1.2243045506 -0.8841202461
| 19> H -1.3867397296 -1.7097801082 -0.2962243035
| 20> H -0.6835346348 -0.7903592237 -1.6284970732
| 21> H -0.3095127156 -0.1887273228 1.3281772602
| 22> H 1.4632679725 -1.613764427 1.2773550902
| 23> H 1.0696926108 -2.0824564143 -0.3726239649
| 24> H 3.4103668503 -0.7781581422 0.1972378593
| 25> H 2.5349629726 -0.4673034267 -1.305859601
| 26> H 2.3095108923 1.1246793531 1.2809409511
| 27> H 2.7341662458 1.7542572828 -0.3181595256
| 28> H 0.174424029 1.9394421377 0.4204974053
| 29> H 0.5176977066 1.2630882759 -1.1764569376
| 30> *
| 31>
| 32>                          ****END OF INPUT****

CARTESIAN COORDINATES (ANGSTROEM)
---------------------------------
  C     -3.018073    0.250634    0.724588
  C     -2.285715    0.213684   -0.612110
  C     -1.067292   -0.711919   -0.607894
  C      0.069806   -0.251338    0.305458
  C      1.267923   -1.229712    0.275809
  C      2.469890   -0.418754   -0.217798
  C      2.141383    1.007929    0.209005
  C      0.651620    1.112599   -0.103522
  H     -3.292623   -0.754921    1.035780
  H     -2.396766    0.693132    1.498669
  H     -3.925550    0.843866    0.640041
  H     -2.978016   -0.137007   -1.381394
  H     -1.976760    1.224305   -0.884120
  H     -1.386740   -1.709780   -0.296224
  H     -0.683535   -0.790359   -1.628497
  H     -0.309513   -0.188727    1.328177
  H      1.463268   -1.613764    1.277355
  H      1.069693   -2.082456   -0.372624
  H      3.410367   -0.778158    0.197238
  H      2.534963   -0.467303   -1.305860
  H      2.309511    1.124679    1.280941
  H      2.734166    1.754257   -0.318160
  H      0.174424    1.939442    0.420497
  H      0.517698    1.263088   -1.176457

 Total Charge           Charge          ....    0
 Multiplicity           Mult            ....    1
 Number of Electrons    NEL             ....   64
 Basis Dimension        Dim             ....  144

ORBITAL ENERGIES
----------------

  NO   OCC          E(Eh)            E(eV)
   0   2.0000      -9.882939      -268.9284
   1   2.0000      -9.878045      -268.7953
   2   2.0000      -9.876418      -268.7510
   3   2.0000      -9.875909      -268.7372
   4   2.0000      -9.875164      -268.7169
   5   2.0000      -9.874273      -268.6926
   6   2.0000      -9.872758      -268.6514
   7   2.0000      -9.869385      -268.5596
   8   2.0000      -0.758782       -20.6475
   9   2.0000      -0.704027       -19.1576
  10   2.0000      -0.642823       -17.4921
  11   2.0000      -0.629684       -17.1346
  12   2.0000      -0.583688       -15.8830
  13   2.0000      -0.520342       -14.1592
  14   2.0000      -0.501885       -13.6570
  15   2.0000      -0.479314       -13.0428
  16   2.0000      -0.434262       -11.8169
  17   2.0000      -0.418086       -11.3767
  18   2.0000      -0.401973       -10.9382
  19   2.0000      -0.383497       -10.4355
  20   2.0000      -0.367154        -9.9908
  21   2.0000      -0.355233        -9.6664
  22   2.0000      -0.347579        -9.4581
  23   2.0000      -0.313251        -8.5240
  24   2.0000      -0.300553        -8.1785
  25   2.0000      -0.296049        -8.0559
  26   2.0000      -0.289564        -7.8794
  27   2.0000      -0.287810        -7.8317
  28   2.0000      -0.280524        -7.6335
  29   2.0000      -0.267464        -7.2781
  30   2.0000      -0.266788        -7.2597
  31   2.0000      -0.257205        -6.9989
  32   0.0000       0.029453         0.8015
  33   0.0000       0.045328         1.2334
  34   0.0000       0.052667         1.4331
  35   0.0000       0.070221         1.9108
  36   0.0000       0.086300         2.3483

MULLIKEN ATOMIC CHARGES
-----------------------
   0 C :   -0.295108
   1 C :   -0.159072
   2 C :   -0.137273
   3 C :   -0.202723
   4 C :   -0.087361
   5 C :   -0.169453
   6 C :   -0.152745
   7 C :   -0.133652
   8 H :    0.096468
   9 H :    0.109565
  10 H :    0.101542
  11 H :    0.081990
  12 H :    0.089365
  13 H :    0.078148
  14 H :    0.074416
  15 H :    0.067360
  16 H :    0.073097
  17 H :    0.074705
  18 H :    0.085482
  19 H :    0.077824
  20 H :    0.079232
  21 H :    0.086261
  22 H :    0.086909
  23 H :    0.075023
Sum of atomic charges:   -0.0000000

LOEWDIN ATOMIC CHARGES
----------------------
   0 C :   -0.342621
   1 C :   -0.235335
   2 C :   -0.217646
   3 C :   -0.147615
   4 C :   -0.220233
   5 C :   -0.227941
   6 C :   -0.226955
   7 C :   -0.222676
   8 H :    0.116347
   9 H :    0.116013
  10 H :    0.118975
  11 H :    0.115155
  12 H :    0.114795
  13 H :    0.112073
  14 H :    0.111329
  15 H :    0.114233
  16 H :    0.116685
  17 H :    0.115610
  18 H :    0.115285
  19 H :    0.114600
  20 H :    0.114727
  21 H :    0.114705
  22 H :    0.115856
  23 H :    0.114634

  Mayer bond orders larger than 0.100000
B(  0-C ,  1-C ) :   1.1540 B(  0-C ,  8-H ) :   0.9548 B(  0-C ,  9-H ) :   0.9496
B(  0-C , 10-H ) :   0.9518 B(  1-C ,  2-C ) :   1.1244 B(  1-C , 11-H ) :   0.9256
B(  1-C , 12-H ) :   0.9180 B(  2-C ,  3-C ) :   1.0961 B(  2-C , 13-H ) :   0.9189
B(  2-C , 14-H ) :   0.9106 B(  3-C ,  4-C ) :   1.1082 B(  3-C ,  7-C ) :   1.1214
B(  3-C , 15-H ) :   0.8898 B(  4-C ,  5-C ) :   1.1605 B(  4-C , 16-H ) :   0.9140
B(  4-C , 17-H ) :   0.9163 B(  5-C ,  6-C ) :   1.1271 B(  5-C , 18-H ) :   0.9259
B(  5-C , 19-H ) :   0.9191 B(  6-C ,  7-C ) :   1.1254 B(  6-C , 20-H ) :   0.9210
B(  6-C , 21-H ) :   0.9281 B(  7-C , 22-H ) :   0.9183 B(  7-C , 23-H ) :   0.9087

Dispersion correction           -0.020988532
FINAL SINGLE POINT ENERGY      -313.693103590848

DIPOLE MOMENT
-------------

Method             : SCF
Type of density    : Electron Density
Multiplicity       :   1
Irrep              :   0
Energy             :  -313.7741239991350994 Eh
Relativity type    :
Basis              : AO
                                X                 Y                 Z
Electronic contribution:      2.561761221      -0.280842821      -0.279005222
Nuclear contribution   :     -2.566263084       0.300486757       0.295861943
                        -----------------------------------------
Total Dipole Moment    :     -0.004501864       0.019643937       0.016856721
                        -----------------------------------------
Magnitude (a.u.)       :      0.026273562
Magnitude (Debye)      :      0.066782088

Rotational constants in cm-1:             0.144899             0.036879             0.033623
Rotational constants in MHz :          4343.975881          1105.601039          1007.989809

                             ****ORCA TERMINATED NORMALLY****
TOTAL RUN TIME: 0 days 0 hours 0 minutes 11 seconds 277 msec
