                         Program Version 6.0.0  -   RELEASE  -
|  1> ! r2scan-3c def2/J RI DEFGRID2 scfconv6 printgap
|  2> %output
|  3>     printlevel normal
|  4> end
|  5> * xyz 0 1
|  6> C -1.9039766946 1.2266354909 1.1657842771
|  7> C -2.0148824772 1.0034218954 -0.3110581044
|  8> O -3.0476134767 1.0594965126 -0.9358573775
|  9> O -0.8846859161 0.7504046468 -0.9911637551
| 10> C 0.3539503431 0.6302730894 -0.372255412
| 11> C 1.2000366069 1.7296775317 -0.3557308748
| 12> C 2.4803426993 1.610268497 0.1577860876
| 13> C 2.9271252111 0.3905140562 0.6418944618
| 14> C 2.0940554329 -0.7112365658 0.6129907317
| 15> C 0.7960796768 -0.6059322392 0.1136782057
| 16> C -0.0951998632 -1.7893125316 0.1078583912
| 17> O -1.3096029904 -1.7360677746 0.1729188886
| 18> O 0.565984981 -2.9321246204 0.0502047785
| 19> H -1.7059308941 0.2668397925 1.6401126012
| 20> H -2.8466502445 1.6190483328 1.5329646214
| 21> H -1.0873408787 1.9073942957 1.3929418919
| 22> H 0.8425591688 2.6655928671 -0.7553603391
| 23> H 3.128006095 2.4719390099 0.1729709731
| 24> H 3.9256505556 0.2972808307 1.0364110054
| 25> H 2.4295436139 -1.6676209405 0.9803731675
| 26> H -0.025366317 -3.7099863369 0.062284282
| 27> *
| 28>
| 29>                          ****END OF INPUT****

CARTESIAN COORDINATES (ANGSTROEM)
---------------------------------
  C     -1.903977    1.226635    1.165784
  C     -2.014882    1.003422   -0.311058
  O     -3.047613    1.059497   -0.935857
  O     -0.884686    0.750405   -0.991164
  C      0.353950    0.630273   -0.372255
  C      1.200037    1.729678   -0.355731
  C      2.480343    1.610268    0.157786
  C      2.927125    0.390514    0.641894
  C      2.094055   -0.711237    0.612991
  C      0.796080   -0.605932    0.113678
  C     -0.095200   -1.789313    0.107858
  O     -1.309603   -1.736068    0.172919
  O      0.565985   -2.932125    0.050205
  H     -1.705931    0.266840    1.640113
  H     -2.846650    1.619048    1.532965
  H     -1.087341    1.907394    1.392942
  H      0.842559    2.665593   -0.755360
  H      3.128006    2.471939    0.172971
  H      3.925651    0.297281    1.036411
  H      2.429544   -1.667621    0.980373
  H     -0.025366   -3.709986    0.062284

 Total Charge           Charge          ....    0
 Multiplicity           Mult            ....    1
 Number of Electrons    NEL             ....   94
 Basis Dimension        Dim             ....  307

ORBITAL ENERGIES
----------------

  NO   OCC          E(Eh)            E(eV)
   0   2.0000     -19.019685      -517.5519
   1   2.0000     -19.011066      -517.3174
   2   2.0000     -18.948657      -515.6192
   3   2.0000     -18.924402      -514.9592
   4   2.0000     -10.181652      -277.0568
   5   2.0000     -10.159979      -276.4671
   6   2.0000     -10.130182      -275.6563
   7   2.0000     -10.078710      -274.2557
   8   2.0000     -10.069097      -273.9941
   9   2.0000     -10.068729      -273.9840
  10   2.0000     -10.064437      -273.8673
  11   2.0000     -10.061522      -273.7879
  12   2.0000     -10.038707      -273.1671
  13   2.0000      -1.095265       -29.8037
  14   2.0000      -1.081982       -29.4422
  15   2.0000      -0.994029       -27.0489
  16   2.0000      -0.983526       -26.7631
  17   2.0000      -0.858120       -23.3506
  18   2.0000      -0.765991       -20.8437
  19   2.0000      -0.749070       -20.3832
  20   2.0000      -0.717089       -19.5130
  21   2.0000      -0.662978       -18.0405
  22   2.0000      -0.624968       -17.0062
  23   2.0000      -0.606718       -16.5096
  24   2.0000      -0.556371       -15.1396
  25   2.0000      -0.515629       -14.0310
  26   2.0000      -0.479775       -13.0553
  27   2.0000      -0.474994       -12.9252
  28   2.0000      -0.463478       -12.6119
  29   2.0000      -0.456292       -12.4163
  30   2.0000      -0.445327       -12.1180
  31   2.0000      -0.431877       -11.7520
  32   2.0000      -0.430062       -11.7026
  33   2.0000      -0.417055       -11.3487
  34   2.0000      -0.386128       -10.5071
  35   2.0000      -0.377667       -10.2769
  36   2.0000      -0.373284       -10.1576
  37   2.0000      -0.368752       -10.0342
  38   2.0000      -0.360078        -9.7982
  39   2.0000      -0.346148        -9.4192
  40   2.0000      -0.339023        -9.2253
  41   2.0000      -0.307272        -8.3613
  42   2.0000      -0.281309        -7.6548
  43   2.0000      -0.271421        -7.3857
  44   2.0000      -0.262275        -7.1369
  45   2.0000      -0.251487        -6.8433
  46   2.0000      -0.230849        -6.2817
  47   0.0000      -0.091892        -2.5005
  48   0.0000      -0.059651        -1.6232
  49   0.0000      -0.013667        -0.3719
  50   0.0000      -0.000567        -0.0154
  51   0.0000       0.043967         1.1964

MULLIKEN ATOMIC CHARGES
-----------------------
   0 C :   -0.519143
   1 C :    0.346345
   2 O :   -0.352534
   3 O :   -0.114412
   4 C :    0.091766
   5 C :   -0.213230
   6 C :   -0.094177
   7 C :   -0.144356
   8 C :   -0.184328
   9 C :    0.064555
  10 C :    0.315247
  11 O :   -0.385715
  12 O :   -0.342149
  13 H :    0.202015
  14 H :    0.181905
  15 H :    0.165840
  16 H :    0.167495
  17 H :    0.153791
  18 H :    0.151757
  19 H :    0.170744
  20 H :    0.338586
Sum of atomic charges:   -0.0000000

LOEWDIN ATOMIC CHARGES
----------------------
   0 C :   -0.342189
   1 C :    0.371049
   2 O :   -0.372755
   3 O :   -0.509995
   4 C :    0.221746
   5 C :   -0.120043
   6 C :   -0.131345
   7 C :   -0.160224
   8 C :   -0.101991
   9 C :   -0.009409
  10 C :    0.378188
  11 O :   -0.403784
  12 O :   -0.395513
  13 H :    0.195484
  14 H :    0.179247
  15 H :    0.175751
  16 H :    0.186425
  17 H :    0.173164
  18 H :    0.172248
  19 H :    0.189127
  20 H :    0.304819

  Mayer bond orders larger than 0.100000
B(  0-C ,  1-C ) :   0.9241 B(  0-C , 13-H ) :   0.9367 B(  0-C , 14-H ) :   0.9582
B(  0-C , 15-H ) :   0.9536 B(  1-C ,  2-O ) :   2.0603 B(  1-C ,  3-O ) :   1.0002
B(  3-O ,  4-C ) :   0.9393 B(  4-C ,  5-C ) :   1.4239 B(  4-C ,  9-C ) :   1.4631
B(  5-C ,  6-C ) :   1.3566 B(  5-C , 16-H ) :   0.9405 B(  6-C ,  7-C ) :   1.3904
B(  6-C , 17-H ) :   0.9482 B(  7-C ,  8-C ) :   1.3801 B(  7-C , 18-H ) :   0.9498
B(  8-C ,  9-C ) :   1.3132 B(  8-C , 19-H ) :   0.9486 B(  9-C , 10-C ) :   1.0027
B( 10-C , 11-O ) :   1.8900 B( 10-C , 12-O ) :   1.0748 B( 12-O , 20-H ) :   0.8560

Dispersion correction           -0.008345450
FINAL SINGLE POINT ENERGY      -648.579056333615

DIPOLE MOMENT
-------------

Method             : SCF
Type of density    : Electron Density
Multiplicity       :   1
Irrep              :   0
Energy             :  -648.5808508980097713 Eh
Relativity type    :
Basis              : AO
                                X                 Y                 Z
Electronic contribution:     -2.239676413      -3.740906149      -4.547299821
Nuclear contribution   :      4.303092437       3.570100600       5.662626953
                        -----------------------------------------
Total Dipole Moment    :      2.063416024      -0.170805549       1.115327132
                        -----------------------------------------
Magnitude (a.u.)       :      2.351768448
Magnitude (Debye)      :      5.977720337

Rotational constants in cm-1:             0.037094             0.025413             0.016854
Rotational constants in MHz :          1112.046867           761.872704           505.272133

                             ****ORCA TERMINATED NORMALLY****
TOTAL RUN TIME: 0 days 0 hours 0 minutes 46 seconds 466 msec
