                         Program Version 6.0.0  -   RELEASE  -
|  1> ! r2scan-3c def2/J RI DEFGRID2 scfconv6 printgap
|  2> %output
|  3>     printlevel normal
|  4> end
|  5> %cpcm
|  6>     smd true
|  7>     smdsolvent "water"
|  8> end
|  9> * xyz 0 1
| 10> C -1.9039766946 1.2266354909 1.1657842771
| 11> C -2.0148824772 1.0034218954 -0.3110581044
| 12> O -3.0476134767 1.0594965126 -0.9358573775
| 13> O -0.8846859161 0.7504046468 -0.9911637551
| 14> C 0.3539503431 0.6302730894 -0.372255412
| 15> C 1.2000366069 1.7296775317 -0.3557308748
| 16> C 2.4803426993 1.610268497 0.1577860876
| 17> C 2.9271252111 0.3905140562 0.6418944618
| 18> C 2.0940554329 -0.7112365658 0.6129907317
| 19> C 0.7960796768 -0.6059322392 0.1136782057
| 20> C -0.0951998632 -1.7893125316 0.1078583912
| 21> O -1.3096029904 -1.7360677746 0.1729188886
| 22> O 0.565984981 -2.9321246204 0.0502047785
| 23> H -1.7059308941 0.2668397925 1.6401126012
| 24> H -2.8466502445 1.6190483328 1.5329646214
| 25> H -1.0873408787 1.9073942957 1.3929418919
| 26> H 0.8425591688 2.6655928671 -0.7553603391
| 27> H 3.128006095 2.4719390099 0.1729709731
| 28> H 3.9256505556 0.2972808307 1.0364110054
| 29> H 2.4295436139 -1.6676209405 0.9803731675
| 30> H -0.025366317 -3.7099863369 0.062284282
| 31> *
| 32>
| 33>                          ****END OF INPUT****

CARTESIAN COORDINATES (ANGSTROEM)
---------------------------------
  C     -1.903977    1.226635    1.165784
  C     -2.014882    1.003422   -0.311058
  O     -3.047613    1.059497   -0.935857
  O     -0.884686    0.750405   -0.991164
  C      0.353950    0.630273   -0.372255
  C      1.200037    1.729678   -0.355731
  C      2.480343    1.610268    0.157786
  C      2.927125    0.390514    0.641894
  C      2.094055   -0.711237    0.612991
  C      0.796080   -0.605932    0.113678
  C     -0.095200   -1.789313    0.107858
  O     -1.309603   -1.736068    0.172919
  O      0.565985   -2.932125    0.050205
  H     -1.705931    0.266840    1.640113
  H     -2.846650    1.619048    1.532965
  H     -1.087341    1.907394    1.392942
  H      0.842559    2.665593   -0.755360
  H      3.128006    2.471939    0.172971
  H      3.925651    0.297281    1.036411
  H      2.429544   -1.667621    0.980373
  H     -0.025366   -3.709986    0.062284

 Total Charge           Charge          ....    0
 Multiplicity           Mult            ....    1
 Number of Electrons    NEL             ....   94
 Basis Dimension        Dim             ....  307

ORBITAL ENERGIES
----------------

  NO   OCC          E(Eh)            E(eV)
   0   2.0000     -19.021948      -517.6135
   1   2.0000     -19.007060      -517.2084
   2   2.0000     -18.950986      -515.6825
   3   2.0000     -18.950542      -515.6705
   4   2.0000     -10.180075      -277.0139
   5   2.0000     -10.179641      -277.0021
   6   2.0000     -10.122934      -275.4590
   7   2.0000     -10.069775      -274.0125
   8   2.0000     -10.055049      -273.6118
   9   2.0000     -10.052248      -273.5356
  10   2.0000     -10.050701      -273.4935
  11   2.0000     -10.045524      -273.3526
  12   2.0000     -10.034667      -273.0572
  13   2.0000      -1.096411       -29.8349
  14   2.0000      -1.085007       -29.5245
  15   2.0000      -1.008164       -27.4335
  16   2.0000      -0.991984       -26.9933
  17   2.0000      -0.847385       -23.0585
  18   2.0000      -0.754016       -20.5178
  19   2.0000      -0.741068       -20.1655
  20   2.0000      -0.716660       -19.5013
  21   2.0000      -0.652920       -17.7669
  22   2.0000      -0.619793       -16.8654
  23   2.0000      -0.595316       -16.1994
  24   2.0000      -0.545728       -14.8500
  25   2.0000      -0.505152       -13.7459
  26   2.0000      -0.482942       -13.1415
  27   2.0000      -0.469272       -12.7695
  28   2.0000      -0.466139       -12.6843
  29   2.0000      -0.457387       -12.4461
  30   2.0000      -0.442963       -12.0536
  31   2.0000      -0.433997       -11.8097
  32   2.0000      -0.418910       -11.3991
  33   2.0000      -0.414565       -11.2809
  34   2.0000      -0.391307       -10.6480
  35   2.0000      -0.373444       -10.1619
  36   2.0000      -0.366575        -9.9750
  37   2.0000      -0.365203        -9.9377
  38   2.0000      -0.349842        -9.5197
  39   2.0000      -0.343019        -9.3340
  40   2.0000      -0.336207        -9.1487
  41   2.0000      -0.304802        -8.2941
  42   2.0000      -0.297792        -8.1033
  43   2.0000      -0.268979        -7.3193
  44   2.0000      -0.263509        -7.1704
  45   2.0000      -0.253656        -6.9023
  46   2.0000      -0.242736        -6.6052
  47   0.0000      -0.083949        -2.2844
  48   0.0000      -0.048784        -1.3275
  49   0.0000      -0.030199        -0.8218
  50   0.0000       0.007102         0.1933
  51   0.0000       0.068145         1.8543

MULLIKEN ATOMIC CHARGES
-----------------------
   0 C :   -0.538170
   1 C :    0.371723
   2 O :   -0.454322
   3 O :   -0.134201
   4 C :    0.096916
   5 C :   -0.219884
   6 C :   -0.123538
   7 C :   -0.176349
   8 C :   -0.204919
   9 C :    0.073878
  10 C :    0.335291
  11 O :   -0.454622
  12 O :   -0.355786
  13 H :    0.221718
  14 H :    0.194347
  15 H :    0.204161
  16 H :    0.199875
  17 H :    0.191540
  18 H :    0.187385
  19 H :    0.198896
  20 H :    0.386058
Sum of atomic charges:   -0.0000000

LOEWDIN ATOMIC CHARGES
----------------------
   0 C :   -0.336290
   1 C :    0.377913
   2 O :   -0.450097
   3 O :   -0.521320
   4 C :    0.215269
   5 C :   -0.111780
   6 C :   -0.126458
   7 C :   -0.155807
   8 C :   -0.101254
   9 C :   -0.011990
  10 C :    0.387654
  11 O :   -0.458757
  12 O :   -0.382072
  13 H :    0.204146
  14 H :    0.184186
  15 H :    0.193437
  16 H :    0.198096
  17 H :    0.186508
  18 H :    0.184793
  19 H :    0.198829
  20 H :    0.324995

  Mayer bond orders larger than 0.100000
B(  0-C ,  1-C ) :   0.9403 B(  0-C , 13-H ) :   0.9176 B(  0-C , 14-H ) :   0.9539
B(  0-C , 15-H ) :   0.9382 B(  1-C ,  2-O ) :   1.9754 B(  1-C ,  3-O ) :   1.0438
B(  3-O ,  4-C ) :   0.9184 B(  4-C ,  5-C ) :   1.4018 B(  4-C ,  9-C ) :   1.4345
B(  5-C ,  6-C ) :   1.3421 B(  5-C , 16-H ) :   0.9439 B(  6-C ,  7-C ) :   1.3660
B(  6-C , 17-H ) :   0.9488 B(  7-C ,  8-C ) :   1.3630 B(  7-C , 18-H ) :   0.9544
B(  8-C ,  9-C ) :   1.2730 B(  8-C , 19-H ) :   0.9578 B(  9-C , 10-C ) :   1.0065
B( 10-C , 11-O ) :   1.8362 B( 10-C , 12-O ) :   1.1113 B( 12-O , 20-H ) :   0.8309

Dispersion correction           -0.008345450
FINAL SINGLE POINT ENERGY      -648.598528604414

DIPOLE MOMENT
-------------

Method             : SCF
Type of density    : Electron Density
Multiplicity       :   1
Irrep              :   0
Energy             :  -648.6003231688090409 Eh
Relativity type    :
Basis              : AO
                                X                 Y                 Z
Electronic contribution:     -1.310219848      -3.643984446      -4.023575771
Nuclear contribution   :      4.303092437       3.570100600       5.662626953
                        -----------------------------------------
Total Dipole Moment    :      2.992872589      -0.073883847       1.639051182
                        -----------------------------------------
Magnitude (a.u.)       :      3.413097410
Magnitude (Debye)      :      8.675404172

Rotational constants in cm-1:             0.037094             0.025413             0.016854
Rotational constants in MHz :          1112.046867           761.872704           505.272133

                             ****ORCA TERMINATED NORMALLY****
TOTAL RUN TIME: 0 days 0 hours 0 minutes 59 seconds 168 msec
