                         Program Version 6.0.0  -   RELEASE  -
|  1> ! r2scan-3c def2/J RI DEFGRID2 scfconv6 printgap
|  2> %output
|  3>     printlevel normal
|  4> end
|  5> * xyz 0 1
|  6> C -3.1003241152 0.4280241931 -0.3054495714
|  7> C -1.783173798 -0.3367267367 -0.3599021996
|  8> C -0.8334803064 0.0571022227 0.78207447
|  9> O 0.3720777817 0.6573983204 0.287283714
| 10> C 1.3977018669 -0.134515012 -0.0112956903
| 11> O 1.3749312818 -1.3399705037 0.1263039188
| 12> C 2.567351426 0.6536723839 -0.5195347784
| 13> H -3.7366287084 0.1336697592 -1.1354774508
| 14> H -3.6243942079 0.2153380117 0.6225164616
| 15> H -2.9216014725 1.4980933782 -0.3691926379
| 16> H -1.2819493959 -0.1289656673 -1.3074992063
| 17> H -1.9755692335 -1.4090564504 -0.3213212664
| 18> H -1.2792455496 0.8241570119 1.416113468
| 19> H -0.5589689582 -0.8122945035 1.3858723431
| 20> H 3.3917873372 -0.0167259825 -0.7376126889
| 21> H 2.8597433979 1.3823863042 0.2314594195
| 22> H 2.2722514213 1.1933640578 -1.4152836339
| 23> *
| 24>
| 25>                          ****END OF INPUT****

CARTESIAN COORDINATES (ANGSTROEM)
---------------------------------
  C     -3.100324    0.428024   -0.305450
  C     -1.783174   -0.336727   -0.359902
  C     -0.833480    0.057102    0.782074
  O      0.372078    0.657398    0.287284
  C      1.397702   -0.134515   -0.011296
  O      1.374931   -1.339971    0.126304
  C      2.567351    0.653672   -0.519535
  H     -3.736629    0.133670   -1.135477
  H     -3.624394    0.215338    0.622516
  H     -2.921601    1.498093   -0.369193
  H     -1.281949   -0.128966   -1.307499
  H     -1.975569   -1.409056   -0.321321
  H     -1.279246    0.824157    1.416113
  H     -0.558969   -0.812295    1.385872
  H      3.391787   -0.016726   -0.737613
  H      2.859743    1.382386    0.231459
  H      2.272251    1.193364   -1.415284

 Total Charge           Charge          ....    0
 Multiplicity           Mult            ....    1
 Number of Electrons    NEL             ....   56
 Basis Dimension        Dim             ....  193

ORBITAL ENERGIES
----------------

  NO   OCC          E(Eh)            E(eV)
   0   2.0000     -18.994937      -516.8785
   1   2.0000     -18.928619      -515.0739
   2   2.0000     -10.155187      -276.3367
   3   2.0000     -10.087423      -274.4927
   4   2.0000     -10.038989      -273.1748
   5   2.0000     -10.034895      -273.0634
   6   2.0000     -10.025217      -272.8000
   7   2.0000      -1.070649       -29.1338
   8   2.0000      -0.975348       -26.5406
   9   2.0000      -0.765762       -20.8374
  10   2.0000      -0.722710       -19.6660
  11   2.0000      -0.660588       -17.9755
  12   2.0000      -0.584950       -15.9173
  13   2.0000      -0.523696       -14.2505
  14   2.0000      -0.468421       -12.7464
  15   2.0000      -0.448525       -12.2050
  16   2.0000      -0.443496       -12.0681
  17   2.0000      -0.418691       -11.3932
  18   2.0000      -0.401509       -10.9256
  19   2.0000      -0.389509       -10.5991
  20   2.0000      -0.377749       -10.2791
  21   2.0000      -0.356421        -9.6987
  22   2.0000      -0.335526        -9.1301
  23   2.0000      -0.325468        -8.8564
  24   2.0000      -0.323310        -8.7977
  25   2.0000      -0.298255        -8.1159
  26   2.0000      -0.267984        -7.2922
  27   2.0000      -0.236446        -6.4340
  28   0.0000      -0.013676        -0.3721
  29   0.0000       0.071837         1.9548
  30   0.0000       0.084591         2.3018
  31   0.0000       0.109170         2.9707
  32   0.0000       0.117291         3.1917

MULLIKEN ATOMIC CHARGES
-----------------------
   0 C :   -0.478702
   1 C :   -0.209181
   2 C :   -0.174482
   3 O :   -0.188409
   4 C :    0.429293
   5 O :   -0.435494
   6 C :   -0.517462
   7 H :    0.147033
   8 H :    0.145149
   9 H :    0.147489
  10 H :    0.148706
  11 H :    0.151403
  12 H :    0.153047
  13 H :    0.170368
  14 H :    0.177388
  15 H :    0.167430
  16 H :    0.166426
Sum of atomic charges:   -0.0000000

LOEWDIN ATOMIC CHARGES
----------------------
   0 C :   -0.420983
   1 C :   -0.288443
   2 C :    0.038920
   3 O :   -0.604419
   4 C :    0.352618
   5 O :   -0.431060
   6 C :   -0.335513
   7 H :    0.152756
   8 H :    0.150232
   9 H :    0.151368
  10 H :    0.169846
  11 H :    0.160168
  12 H :    0.181687
  13 H :    0.192167
  14 H :    0.174249
  15 H :    0.178437
  16 H :    0.177971

  Mayer bond orders larger than 0.100000
B(  0-C ,  1-C ) :   0.9010 B(  0-C ,  7-H ) :   0.9712 B(  0-C ,  8-H ) :   0.9780
B(  0-C ,  9-H ) :   0.9793 B(  1-C ,  2-C ) :   0.8944 B(  1-C , 10-H ) :   0.9774
B(  1-C , 11-H ) :   0.9593 B(  2-C ,  3-O ) :   0.8367 B(  2-C , 12-H ) :   0.9797
B(  2-C , 13-H ) :   0.9616 B(  3-O ,  4-C ) :   1.0609 B(  4-C ,  5-O ) :   1.8153
B(  4-C ,  6-C ) :   0.9546 B(  6-C , 14-H ) :   0.9895 B(  6-C , 15-H ) :   0.9521
B(  6-C , 16-H ) :   0.9509

Dispersion correction           -0.003920542
FINAL SINGLE POINT ENERGY      -346.931566793495

DIPOLE MOMENT
-------------

Method             : SCF
Type of density    : Electron Density
Multiplicity       :   1
Irrep              :   0
Energy             :  -346.9381501386870355 Eh
Relativity type    :
Basis              : AO
                                X                 Y                 Z
Electronic contribution:      6.064763937      -1.957637616       1.448979985
Nuclear contribution   :     -6.404836362       2.691769645      -1.523479524
                        -----------------------------------------
Total Dipole Moment    :     -0.340072425       0.734132028      -0.074499540
                        -----------------------------------------
Magnitude (a.u.)       :      0.812495705
Magnitude (Debye)      :      2.065199958

Rotational constants in cm-1:             0.215818             0.043170             0.040134
Rotational constants in MHz :          6470.047754          1294.204462          1203.177941

                             ****ORCA TERMINATED NORMALLY****
TOTAL RUN TIME: 0 days 0 hours 0 minutes 19 seconds 384 msec
