                         Program Version 6.0.0  -   RELEASE  -
|  1> ! r2scan-3c def2/J RI DEFGRID2 scfconv6 printgap
|  2> %output
|  3>     printlevel normal
|  4> end
|  5> %cpcm
|  6>     smd true
|  7>     smdsolvent "water"
|  8> end
|  9> * xyz 0 1
| 10> C -3.1003241152 0.4280241931 -0.3054495714
| 11> C -1.783173798 -0.3367267367 -0.3599021996
| 12> C -0.8334803064 0.0571022227 0.78207447
| 13> O 0.3720777817 0.6573983204 0.287283714
| 14> C 1.3977018669 -0.134515012 -0.0112956903
| 15> O 1.3749312818 -1.3399705037 0.1263039188
| 16> C 2.567351426 0.6536723839 -0.5195347784
| 17> H -3.7366287084 0.1336697592 -1.1354774508
| 18> H -3.6243942079 0.2153380117 0.6225164616
| 19> H -2.9216014725 1.4980933782 -0.3691926379
| 20> H -1.2819493959 -0.1289656673 -1.3074992063
| 21> H -1.9755692335 -1.4090564504 -0.3213212664
| 22> H -1.2792455496 0.8241570119 1.416113468
| 23> H -0.5589689582 -0.8122945035 1.3858723431
| 24> H 3.3917873372 -0.0167259825 -0.7376126889
| 25> H 2.8597433979 1.3823863042 0.2314594195
| 26> H 2.2722514213 1.1933640578 -1.4152836339
| 27> *
| 28>
| 29>                          ****END OF INPUT****

CARTESIAN COORDINATES (ANGSTROEM)
---------------------------------
  C     -3.100324    0.428024   -0.305450
  C     -1.783174   -0.336727   -0.359902
  C     -0.833480    0.057102    0.782074
  O      0.372078    0.657398    0.287284
  C      1.397702   -0.134515   -0.011296
  O      1.374931   -1.339971    0.126304
  C      2.567351    0.653672   -0.519535
  H     -3.736629    0.133670   -1.135477
  H     -3.624394    0.215338    0.622516
  H     -2.921601    1.498093   -0.369193
  H     -1.281949   -0.128966   -1.307499
  H     -1.975569   -1.409056   -0.321321
  H     -1.279246    0.824157    1.416113
  H     -0.558969   -0.812295    1.385872
  H      3.391787   -0.016726   -0.737613
  H      2.859743    1.382386    0.231459
  H      2.272251    1.193364   -1.415284

 Total Charge           Charge          ....    0
 Multiplicity           Mult            ....    1
 Number of Electrons    NEL             ....   56
 Basis Dimension        Dim             ....  193

ORBITAL ENERGIES
----------------

  NO   OCC          E(Eh)            E(eV)
   0   2.0000     -19.000625      -517.0333
   1   2.0000     -18.944179      -515.4973
   2   2.0000     -10.165260      -276.6108
   3   2.0000     -10.080008      -274.2910
   4   2.0000     -10.030282      -272.9378
   5   2.0000     -10.025120      -272.7974
   6   2.0000     -10.011951      -272.4390
   7   2.0000      -1.077966       -29.3330
   8   2.0000      -0.988892       -26.9091
   9   2.0000      -0.758717       -20.6457
  10   2.0000      -0.716107       -19.4863
  11   2.0000      -0.653155       -17.7732
  12   2.0000      -0.577597       -15.7172
  13   2.0000      -0.520363       -14.1598
  14   2.0000      -0.468492       -12.7483
  15   2.0000      -0.457794       -12.4572
  16   2.0000      -0.445669       -12.1273
  17   2.0000      -0.411080       -11.1860
  18   2.0000      -0.394692       -10.7401
  19   2.0000      -0.385203       -10.4819
  20   2.0000      -0.370677       -10.0866
  21   2.0000      -0.349977        -9.5234
  22   2.0000      -0.333512        -9.0753
  23   2.0000      -0.325055        -8.8452
  24   2.0000      -0.313203        -8.5227
  25   2.0000      -0.292237        -7.9522
  26   2.0000      -0.272454        -7.4139
  27   2.0000      -0.253156        -6.8887
  28   0.0000      -0.021262        -0.5786
  29   0.0000       0.077830         2.1179
  30   0.0000       0.090596         2.4652
  31   0.0000       0.120489         3.2787
  32   0.0000       0.127824         3.4783

MULLIKEN ATOMIC CHARGES
-----------------------
   0 C :   -0.511372
   1 C :   -0.223488
   2 C :   -0.183215
   3 O :   -0.205353
   4 C :    0.474274
   5 O :   -0.523332
   6 C :   -0.556168
   7 H :    0.157295
   8 H :    0.158586
   9 H :    0.157254
  10 H :    0.163214
  11 H :    0.159468
  12 H :    0.177509
  13 H :    0.176656
  14 H :    0.185642
  15 H :    0.196145
  16 H :    0.196885
Sum of atomic charges:   -0.0000000

LOEWDIN ATOMIC CHARGES
----------------------
   0 C :   -0.425288
   1 C :   -0.290488
   2 C :    0.042212
   3 O :   -0.606457
   4 C :    0.363993
   5 O :   -0.493440
   6 C :   -0.334276
   7 H :    0.155227
   8 H :    0.154642
   9 H :    0.154478
  10 H :    0.172884
  11 H :    0.162189
  12 H :    0.192456
  13 H :    0.193238
  14 H :    0.178096
  15 H :    0.190128
  16 H :    0.190406

  Mayer bond orders larger than 0.100000
B(  0-C ,  1-C ) :   0.9034 B(  0-C ,  7-H ) :   0.9694 B(  0-C ,  8-H ) :   0.9744
B(  0-C ,  9-H ) :   0.9769 B(  1-C ,  2-C ) :   0.8796 B(  1-C , 10-H ) :   0.9790
B(  1-C , 11-H ) :   0.9547 B(  2-C ,  3-O ) :   0.8183 B(  2-C , 12-H ) :   0.9694
B(  2-C , 13-H ) :   0.9619 B(  3-O ,  4-C ) :   1.0873 B(  4-C ,  5-O ) :   1.7471
B(  4-C ,  6-C ) :   0.9520 B(  6-C , 14-H ) :   0.9827 B(  6-C , 15-H ) :   0.9402
B(  6-C , 16-H ) :   0.9388

Dispersion correction           -0.003920542
FINAL SINGLE POINT ENERGY      -346.937074627604

DIPOLE MOMENT
-------------

Method             : SCF
Type of density    : Electron Density
Multiplicity       :   1
Irrep              :   0
Energy             :  -346.9436579727956769 Eh
Relativity type    :
Basis              : AO
                                X                 Y                 Z
Electronic contribution:      5.972198944      -1.619739363       1.445974231
Nuclear contribution   :     -6.404836362       2.691769645      -1.523479524
                        -----------------------------------------
Total Dipole Moment    :     -0.432637418       1.072030282      -0.077505293
                        -----------------------------------------
Magnitude (a.u.)       :      1.158633303
Magnitude (Debye)      :      2.945011812

Rotational constants in cm-1:             0.215818             0.043170             0.040134
Rotational constants in MHz :          6470.047754          1294.204462          1203.177941

                             ****ORCA TERMINATED NORMALLY****
TOTAL RUN TIME: 0 days 0 hours 0 minutes 24 seconds 879 msec
