                         Program Version 6.0.0  -   RELEASE  -
|  1> ! pbe def2-sv(p) def2/J RI DEFGRID1 loosescf d4 GCP(DFT/SV(P)) printgap
|  2> %output
|  3>     printlevel normal
|  4> end
|  5> * xyz 0 1
|  6> C -2.0354067089 0.62741689 -0.1803812559
|  7> C -1.3106432213 -0.5568647218 0.447740243
|  8> C 0.0815343988 -0.7465522379 -0.1449025769
|  9> O 0.8952697442 0.3522795765 0.2244851636
| 10> C 2.2008646417 0.2738269472 -0.2969257982
| 11> H -1.4438542741 1.5299260144 -0.0511382414
| 12> H -2.1866117728 0.4607882117 -1.2444275273
| 13> H -3.0039357232 0.7721624457 0.290145254
| 14> H -1.8802211146 -1.4734089964 0.2900361174
| 15> H -1.2040230947 -0.393590177 1.520870812
| 16> H 0.533282758 -1.6781347615 0.2301989214
| 17> H 0.0251408329 -0.8111344807 -1.2424201208
| 18> H 2.7246974481 1.159813031 0.0530568174
| 19> H 2.1857522388 0.2602969431 -1.3929553572
| 20> H 2.7134192747 -0.626237874 0.0622967798
| 21> *
| 22>
| 23>                          ****END OF INPUT****

CARTESIAN COORDINATES (ANGSTROEM)
---------------------------------
  C     -2.035407    0.627417   -0.180381
  C     -1.310643   -0.556865    0.447740
  C      0.081534   -0.746552   -0.144903
  O      0.895270    0.352280    0.224485
  C      2.200865    0.273827   -0.296926
  H     -1.443854    1.529926   -0.051138
  H     -2.186612    0.460788   -1.244428
  H     -3.003936    0.772162    0.290145
  H     -1.880221   -1.473409    0.290036
  H     -1.204023   -0.393590    1.520871
  H      0.533283   -1.678135    0.230199
  H      0.025141   -0.811134   -1.242420
  H      2.724697    1.159813    0.053057
  H      2.185752    0.260297   -1.392955
  H      2.713419   -0.626238    0.062297

 Total Charge           Charge          ....    0
 Multiplicity           Mult            ....    1
 Number of Electrons    NEL             ....   42
 Basis Dimension        Dim             ....   90

ORBITAL ENERGIES
----------------

  NO   OCC          E(Eh)            E(eV)
   0   2.0000     -18.749093      -510.1888
   1   2.0000      -9.926673      -270.1185
   2   2.0000      -9.922300      -269.9995
   3   2.0000      -9.882834      -268.9256
   4   2.0000      -9.868123      -268.5253
   5   2.0000      -0.929850       -25.3025
   6   2.0000      -0.703744       -19.1498
   7   2.0000      -0.627203       -17.0671
   8   2.0000      -0.574537       -15.6339
   9   2.0000      -0.515085       -14.0162
  10   2.0000      -0.441303       -12.0085
  11   2.0000      -0.425505       -11.5786
  12   2.0000      -0.405756       -11.0412
  13   2.0000      -0.380098       -10.3430
  14   2.0000      -0.363310        -9.8862
  15   2.0000      -0.347107        -9.4453
  16   2.0000      -0.306347        -8.3361
  17   2.0000      -0.296511        -8.0685
  18   2.0000      -0.294296        -8.0082
  19   2.0000      -0.262538        -7.1440
  20   2.0000      -0.202760        -5.5174
  21   0.0000       0.038359         1.0438
  22   0.0000       0.061372         1.6700
  23   0.0000       0.084035         2.2867
  24   0.0000       0.087796         2.3890
  25   0.0000       0.099819         2.7162

MULLIKEN ATOMIC CHARGES
-----------------------
   0 C :   -0.287634
   1 C :   -0.168389
   2 C :   -0.002443
   3 O :   -0.343348
   4 C :   -0.099939
   5 H :    0.114284
   6 H :    0.092669
   7 H :    0.102625
   8 H :    0.085451
   9 H :    0.094731
  10 H :    0.069666
  11 H :    0.061392
  12 H :    0.114547
  13 H :    0.083479
  14 H :    0.082909
Sum of atomic charges:    0.0000000

LOEWDIN ATOMIC CHARGES
----------------------
   0 C :   -0.343515
   1 C :   -0.244594
   2 C :   -0.108961
   3 O :   -0.183968
   4 C :   -0.207125
   5 H :    0.122820
   6 H :    0.114924
   7 H :    0.118062
   8 H :    0.119676
   9 H :    0.122255
  10 H :    0.093207
  11 H :    0.091816
  12 H :    0.114967
  13 H :    0.095435
  14 H :    0.095001

  Mayer bond orders larger than 0.100000
B(  0-C ,  1-C ) :   1.1525 B(  0-C ,  5-H ) :   0.9524 B(  0-C ,  6-H ) :   0.9558
B(  0-C ,  7-H ) :   0.9551 B(  1-C ,  2-C ) :   1.1131 B(  1-C ,  8-H ) :   0.9223
B(  1-C ,  9-H ) :   0.9225 B(  2-C ,  3-O ) :   1.0148 B(  2-C , 10-H ) :   0.9170
B(  2-C , 11-H ) :   0.9121 B(  3-O ,  4-C ) :   1.0251 B(  4-C , 12-H ) :   0.9643
B(  4-C , 13-H ) :   0.9421 B(  4-C , 14-H ) :   0.9419

Dispersion correction           -0.008919462
FINAL SINGLE POINT ENERGY      -233.085967139522

DIPOLE MOMENT
-------------

Method             : SCF
Type of density    : Electron Density
Multiplicity       :   1
Irrep              :   0
Energy             :  -233.1451873271246882 Eh
Relativity type    :
Basis              : AO
                                X                 Y                 Z
Electronic contribution:      1.586072162       0.440625586       1.168525199
Nuclear contribution   :     -1.428037035      -0.744842953      -1.389221049
                        -----------------------------------------
Total Dipole Moment    :      0.158035127      -0.304217368      -0.220695850
                        -----------------------------------------
Magnitude (a.u.)       :      0.407713093
Magnitude (Debye)      :      1.036324324

Rotational constants in cm-1:             0.414489             0.086714             0.079209
Rotational constants in MHz :         12426.076906          2599.634913          2374.618396

                             ****ORCA TERMINATED NORMALLY****
TOTAL RUN TIME: 0 days 0 hours 0 minutes 6 seconds 591 msec
