                         Program Version 6.0.0  -   RELEASE  -
|  1> ! pbe def2-sv(p) def2/J RI DEFGRID1 loosescf d4 GCP(DFT/SV(P)) printgap
|  2> %output
|  3>     printlevel normal
|  4> end
|  5> * xyz 0 1
|  6> C -2.5480489891 0.2302620872 0.8821477386
|  7> C -1.7398866846 0.6749892189 -0.340817228
|  8> C -0.5071912005 -0.1837409621 -0.4541062629
|  9> O -0.4456062432 -1.229659652 -1.0688112072
| 10> O 0.5052312578 0.3254626289 0.2305859411
| 11> C 1.751952268 -0.3904181126 0.2619094311
| 12> C 2.8790521085 0.6103862267 0.437171467
| 13> H -1.9650027472 0.3661017221 1.7894126312
| 14> H -3.4559745809 0.8210285899 0.9555588891
| 15> H -2.818142325 -0.8194112967 0.7927371535
| 16> H -1.4377433149 1.7149379738 -0.2290024322
| 17> H -2.3337143806 0.5473350087 -1.2451045211
| 18> H 1.7114328887 -1.0938281935 1.0993319238
| 19> H 1.8488012371 -0.9590592207 -0.6685412267
| 20> H 2.7292277285 1.1800559142 1.3495621806
| 21> H 3.8236184618 0.0796001045 0.4959772687
| 22> H 2.9068341299 1.2969948209 -0.4042336661
| 23> *
| 24>
| 25>                          ****END OF INPUT****

CARTESIAN COORDINATES (ANGSTROEM)
---------------------------------
  C     -2.548049    0.230262    0.882148
  C     -1.739887    0.674989   -0.340817
  C     -0.507191   -0.183741   -0.454106
  O     -0.445606   -1.229660   -1.068811
  O      0.505231    0.325463    0.230586
  C      1.751952   -0.390418    0.261909
  C      2.879052    0.610386    0.437171
  H     -1.965003    0.366102    1.789413
  H     -3.455975    0.821029    0.955559
  H     -2.818142   -0.819411    0.792737
  H     -1.437743    1.714938   -0.229002
  H     -2.333714    0.547335   -1.245105
  H      1.711433   -1.093828    1.099332
  H      1.848801   -0.959059   -0.668541
  H      2.729228    1.180056    1.349562
  H      3.823618    0.079600    0.495977
  H      2.906834    1.296995   -0.404234

 Total Charge           Charge          ....    0
 Multiplicity           Mult            ....    1
 Number of Electrons    NEL             ....   56
 Basis Dimension        Dim             ....  118

ORBITAL ENERGIES
----------------

  NO   OCC          E(Eh)            E(eV)
   0   2.0000     -18.797108      -511.4953
   1   2.0000     -18.728158      -509.6191
   2   2.0000     -10.002910      -272.1930
   3   2.0000      -9.945890      -270.6414
   4   2.0000      -9.897914      -269.3359
   5   2.0000      -9.889456      -269.1058
   6   2.0000      -9.887849      -269.0621
   7   2.0000      -1.003415       -27.3043
   8   2.0000      -0.905655       -24.6441
   9   2.0000      -0.722347       -19.6561
  10   2.0000      -0.689443       -18.7607
  11   2.0000      -0.603019       -16.4090
  12   2.0000      -0.558937       -15.2095
  13   2.0000      -0.505868       -13.7654
  14   2.0000      -0.452930       -12.3249
  15   2.0000      -0.430548       -11.7158
  16   2.0000      -0.415173       -11.2974
  17   2.0000      -0.395246       -10.7552
  18   2.0000      -0.385519       -10.4905
  19   2.0000      -0.358964        -9.7679
  20   2.0000      -0.355076        -9.6621
  21   2.0000      -0.345079        -9.3901
  22   2.0000      -0.325270        -8.8510
  23   2.0000      -0.314218        -8.5503
  24   2.0000      -0.309826        -8.4308
  25   2.0000      -0.292241        -7.9523
  26   2.0000      -0.254079        -6.9138
  27   2.0000      -0.213133        -5.7996
  28   0.0000      -0.017805        -0.4845
  29   0.0000       0.041603         1.1321
  30   0.0000       0.056057         1.5254
  31   0.0000       0.080760         2.1976
  32   0.0000       0.088528         2.4090

MULLIKEN ATOMIC CHARGES
-----------------------
   0 C :   -0.302707
   1 C :   -0.131460
   2 C :    0.094773
   3 O :   -0.213761
   4 O :   -0.244621
   5 C :   -0.027021
   6 C :   -0.280048
   7 H :    0.110888
   8 H :    0.116337
   9 H :    0.118230
  10 H :    0.099074
  11 H :    0.105410
  12 H :    0.102218
  13 H :    0.113830
  14 H :    0.113436
  15 H :    0.111253
  16 H :    0.114170
Sum of atomic charges:   -0.0000000

LOEWDIN ATOMIC CHARGES
----------------------
   0 C :   -0.330221
   1 C :   -0.249505
   2 C :    0.034582
   3 O :   -0.173873
   4 O :   -0.071264
   5 C :   -0.110812
   6 C :   -0.350877
   7 H :    0.121889
   8 H :    0.123882
   9 H :    0.125800
  10 H :    0.129646
  11 H :    0.134987
  12 H :    0.115109
  13 H :    0.119197
  14 H :    0.125446
  15 H :    0.129874
  16 H :    0.126139

  Mayer bond orders larger than 0.100000
B(  0-C ,  1-C ) :   1.1424 B(  0-C ,  7-H ) :   0.9542 B(  0-C ,  8-H ) :   0.9526
B(  0-C ,  9-H ) :   0.9529 B(  1-C ,  2-C ) :   1.0255 B(  1-C , 10-H ) :   0.9078
B(  1-C , 11-H ) :   0.9099 B(  2-C ,  3-O ) :   2.0583 B(  2-C ,  4-O ) :   1.2019
B(  4-O ,  5-C ) :   0.9117 B(  5-C ,  6-C ) :   1.1572 B(  5-C , 12-H ) :   0.9359
B(  5-C , 13-H ) :   0.9166 B(  6-C , 14-H ) :   0.9488 B(  6-C , 15-H ) :   0.9448
B(  6-C , 16-H ) :   0.9524

Dispersion correction           -0.011654845
FINAL SINGLE POINT ENERGY      -346.243476465974

DIPOLE MOMENT
-------------

Method             : SCF
Type of density    : Electron Density
Multiplicity       :   1
Irrep              :   0
Energy             :  -346.3080447808110307 Eh
Relativity type    :
Basis              : AO
                                X                 Y                 Z
Electronic contribution:     -0.662583337      -2.377408288      -3.183749629
Nuclear contribution   :      0.947810970       2.926580789       3.679915308
                        -----------------------------------------
Total Dipole Moment    :      0.285227633       0.549172500       0.496165679
                        -----------------------------------------
Magnitude (a.u.)       :      0.793174394
Magnitude (Debye)      :      2.016089087

Rotational constants in cm-1:             0.179526             0.047855             0.041895
Rotational constants in MHz :          5382.058507          1434.656381          1255.991254

                             ****ORCA TERMINATED NORMALLY****
TOTAL RUN TIME: 0 days 0 hours 0 minutes 8 seconds 934 msec
