                         Program Version 6.0.0  -   RELEASE  -
|  1> ! pbe def2-sv(p) def2/J RI DEFGRID1 loosescf d4 GCP(DFT/SV(P)) printgap
|  2> %output
|  3>     printlevel normal
|  4> end
|  5> * xyz 0 1
|  6> C 2.0509189169 -2.5120987397 0.1957498505
|  7> O 0.8116401097 -1.8491762423 -0.018063707
|  8> C 0.6632450871 -0.5146069137 0.0145925374
|  9> C 1.6377588112 0.4896468076 0.0489702049
| 10> C 1.2799855684 1.8309424558 0.0309690875
| 11> C -0.0398088645 2.2270747784 -0.0369061359
| 12> C -1.0199862629 1.2503952471 -0.0839484
| 13> C -0.6854255456 -0.0960332814 -0.0427942985
| 14> C -1.7555025638 -1.140610371 -0.0785547037
| 15> O -2.6127149118 -1.1963457327 -0.9331363644
| 16> O -1.6816308236 -1.9808537077 0.9308884997
| 17> Cl -2.6831399314 1.7136077823 -0.155559946
| 18> Cl 3.3503876582 0.1756555444 0.1014573962
| 19> H 2.5054062285 -2.2123995402 1.1397679344
| 20> H 2.7423707017 -2.3417429779 -0.6298900525
| 21> H 1.7847738268 -3.5665173224 0.236204265
| 22> H 2.0606984471 2.5736480262 0.0631149144
| 23> H -0.3078852736 3.2687308561 -0.0543649404
| 24> H -2.368455577 -2.6770313072 0.8977168344
| 25> *
| 26>
| 27>                          ****END OF INPUT****

CARTESIAN COORDINATES (ANGSTROEM)
---------------------------------
  C      2.050919   -2.512099    0.195750
  O      0.811640   -1.849176   -0.018064
  C      0.663245   -0.514607    0.014593
  C      1.637759    0.489647    0.048970
  C      1.279986    1.830942    0.030969
  C     -0.039809    2.227075   -0.036906
  C     -1.019986    1.250395   -0.083948
  C     -0.685426   -0.096033   -0.042794
  C     -1.755503   -1.140610   -0.078555
  O     -2.612715   -1.196346   -0.933136
  O     -1.681631   -1.980854    0.930888
  Cl    -2.683140    1.713608   -0.155560
  Cl     3.350388    0.175656    0.101457
  H      2.505406   -2.212400    1.139768
  H      2.742371   -2.341743   -0.629890
  H      1.784774   -3.566517    0.236204
  H      2.060698    2.573648    0.063115
  H     -0.307885    3.268731   -0.054365
  H     -2.368456   -2.677031    0.897717

 Total Charge           Charge          ....    0
 Multiplicity           Mult            ....    1
 Number of Electrons    NEL             ....  112
 Basis Dimension        Dim             ....  202

ORBITAL ENERGIES
----------------

  NO   OCC          E(Eh)            E(eV)
   0   2.0000    -100.652806     -2738.9021
   1   2.0000    -100.641500     -2738.5944
   2   2.0000     -18.809375      -511.8291
   3   2.0000     -18.801747      -511.6215
   4   2.0000     -18.739138      -509.9179
   5   2.0000     -10.020323      -272.6668
   6   2.0000      -9.987224      -271.7662
   7   2.0000      -9.963384      -271.1175
   8   2.0000      -9.963319      -271.1157
   9   2.0000      -9.949289      -270.7339
  10   2.0000      -9.924379      -270.0561
  11   2.0000      -9.918719      -269.9021
  12   2.0000      -9.909811      -269.6597
  13   2.0000      -9.188452      -250.0305
  14   2.0000      -9.177435      -249.7307
  15   2.0000      -7.019956      -191.0227
  16   2.0000      -7.008932      -190.7227
  17   2.0000      -7.008205      -190.7030
  18   2.0000      -7.007875      -190.6940
  19   2.0000      -6.997501      -190.4117
  20   2.0000      -6.996526      -190.3851
  21   2.0000      -1.014395       -27.6031
  22   2.0000      -0.991633       -26.9837
  23   2.0000      -0.914328       -24.8801
  24   2.0000      -0.830921       -22.6105
  25   2.0000      -0.806920       -21.9574
  26   2.0000      -0.757764       -20.6198
  27   2.0000      -0.715912       -19.4810
  28   2.0000      -0.669748       -18.2248
  29   2.0000      -0.640534       -17.4298
  30   2.0000      -0.614721       -16.7274
  31   2.0000      -0.562156       -15.2970
  32   2.0000      -0.541082       -14.7236
  33   2.0000      -0.493850       -13.4384
  34   2.0000      -0.478804       -13.0289
  35   2.0000      -0.466973       -12.7070
  36   2.0000      -0.438022       -11.9192
  37   2.0000      -0.430494       -11.7143
  38   2.0000      -0.411451       -11.1962
  39   2.0000      -0.410180       -11.1616
  40   2.0000      -0.400834       -10.9072
  41   2.0000      -0.396326       -10.7846
  42   2.0000      -0.375503       -10.2180
  43   2.0000      -0.364136        -9.9087
  44   2.0000      -0.353300        -9.6138
  45   2.0000      -0.334430        -9.1003
  46   2.0000      -0.332526        -9.0485
  47   2.0000      -0.320233        -8.7140
  48   2.0000      -0.308735        -8.4011
  49   2.0000      -0.283019        -7.7013
  50   2.0000      -0.273389        -7.4393
  51   2.0000      -0.268673        -7.3110
  52   2.0000      -0.261921        -7.1272
  53   2.0000      -0.235152        -6.3988
  54   2.0000      -0.217616        -5.9216
  55   2.0000      -0.205892        -5.6026
  56   0.0000      -0.070894        -1.9291
  57   0.0000      -0.045595        -1.2407
  58   0.0000      -0.014693        -0.3998
  59   0.0000      -0.004707        -0.1281
  60   0.0000       0.019037         0.5180

MULLIKEN ATOMIC CHARGES
-----------------------
   0 C :   -0.110335
   1 O :   -0.247875
   2 C :    0.167548
   3 C :    0.009646
   4 C :   -0.073630
   5 C :   -0.107545
   6 C :    0.098360
   7 C :   -0.062608
   8 C :    0.094742
   9 O :   -0.167116
  10 O :   -0.269572
  11 Cl:   -0.051360
  12 Cl:   -0.074552
  13 H :    0.120696
  14 H :    0.122701
  15 H :    0.124567
  16 H :    0.057432
  17 H :    0.051394
  18 H :    0.317506
Sum of atomic charges:    0.0000000

LOEWDIN ATOMIC CHARGES
----------------------
   0 C :   -0.211091
   1 O :   -0.068176
   2 C :    0.033869
   3 C :   -0.174662
   4 C :   -0.123233
   5 C :   -0.152731
   6 C :   -0.113035
   7 C :   -0.099393
   8 C :    0.021198
   9 O :   -0.149380
  10 O :   -0.184900
  11 Cl:    0.158415
  12 Cl:    0.146945
  13 H :    0.112439
  14 H :    0.110805
  15 H :    0.121913
  16 H :    0.135222
  17 H :    0.135384
  18 H :    0.300410

  Mayer bond orders larger than 0.100000
B(  0-C ,  1-O ) :   0.9425 B(  0-C , 13-H ) :   0.9465 B(  0-C , 14-H ) :   0.9457
B(  0-C , 15-H ) :   0.9539 B(  1-O ,  2-C ) :   1.2518 B(  2-C ,  3-C ) :   1.3292
B(  2-C ,  7-C ) :   1.3395 B(  3-C ,  4-C ) :   1.3674 B(  3-C , 12-Cl) :   0.9815
B(  4-C ,  5-C ) :   1.3347 B(  4-C , 16-H ) :   0.9591 B(  5-C ,  6-C ) :   1.3432
B(  5-C , 17-H ) :   0.9722 B(  6-C ,  7-C ) :   1.4776 B(  6-C , 11-Cl) :   1.0407
B(  7-C ,  8-C ) :   0.8610 B(  8-C ,  9-O ) :   2.1233 B(  8-C , 10-O ) :   1.3072
B( 10-O , 18-H ) :   0.8193

Dispersion correction           -0.026934235
FINAL SINGLE POINT ENERGY     -1452.781524138502

DIPOLE MOMENT
-------------

Method             : SCF
Type of density    : Electron Density
Multiplicity       :   1
Irrep              :   0
Energy             : -1452.8363092852150658 Eh
Relativity type    :
Basis              : AO
                                X                 Y                 Z
Electronic contribution:     -4.183772461       6.739670809      -1.000687485
Nuclear contribution   :      5.073072929      -7.259097464       1.622696564
                        -----------------------------------------
Total Dipole Moment    :      0.889300468      -0.519426655       0.622009078
                        -----------------------------------------
Magnitude (a.u.)       :      1.203143660
Magnitude (Debye)      :      3.058148148

Rotational constants in cm-1:             0.032218             0.015972             0.011077
Rotational constants in MHz :           965.863175           478.841984           332.074540

                             ****ORCA TERMINATED NORMALLY****
TOTAL RUN TIME: 0 days 0 hours 0 minutes 15 seconds 698 msec
