                         Program Version 6.0.0  -   RELEASE  -
|  1> ! r2scan-3c def2/J RI DEFGRID2 scfconv6 printgap
|  2> %output
|  3>     printlevel normal
|  4> end
|  5> * xyz 0 1
|  6> C -2.1744540536 -0.5773790342 -0.5549405208
|  7> C -1.3199033166 -0.2684275516 0.669760125
|  8> C -0.4959366603 1.011064084 0.5217235593
|  9> C 0.614749032 0.8999045765 -0.5304487488
| 10> C 1.5740901534 -0.1317368756 -0.1932207675
| 11> C 2.3565963823 -0.987534638 0.1039041064
| 12> H -2.8054512203 -1.4419502349 -0.3633249919
| 13> H -1.5540986408 -0.801146028 -1.4189967493
| 14> H -2.8153890734 0.2682037609 -0.7961034701
| 15> H -1.9740022072 -0.1591182589 1.5380207265
| 16> H -0.6452924974 -1.105292393 0.8644666111
| 17> H -1.15587333 1.8368697271 0.2468504113
| 18> H -0.0409014937 1.2496935177 1.4859842389
| 19> H 1.1420957311 1.8550852198 -0.6019053303
| 20> H 0.1854377422 0.6770492897 -1.5097614088
| 21> H 3.0483456862 -1.7346204109 0.3548443551
| 22> *
| 23>
| 24>                          ****END OF INPUT****

CARTESIAN COORDINATES (ANGSTROEM)
---------------------------------
  C     -2.174454   -0.577379   -0.554941
  C     -1.319903   -0.268428    0.669760
  C     -0.495937    1.011064    0.521724
  C      0.614749    0.899905   -0.530449
  C      1.574090   -0.131737   -0.193221
  C      2.356596   -0.987535    0.103904
  H     -2.805451   -1.441950   -0.363325
  H     -1.554099   -0.801146   -1.418997
  H     -2.815389    0.268204   -0.796103
  H     -1.974002   -0.159118    1.538021
  H     -0.645292   -1.105292    0.864467
  H     -1.155873    1.836870    0.246850
  H     -0.040901    1.249694    1.485984
  H      1.142096    1.855085   -0.601905
  H      0.185438    0.677049   -1.509761
  H      3.048346   -1.734620    0.354844

 Total Charge           Charge          ....    0
 Multiplicity           Mult            ....    1
 Number of Electrons    NEL             ....   46
 Basis Dimension        Dim             ....  164

ORBITAL ENERGIES
----------------

  NO   OCC          E(Eh)            E(eV)
   0   2.0000     -10.055496      -273.6240
   1   2.0000     -10.035031      -273.0671
   2   2.0000     -10.030857      -272.9535
   3   2.0000     -10.025020      -272.7947
   4   2.0000     -10.017271      -272.5838
   5   2.0000     -10.016609      -272.5658
   6   2.0000      -0.786482       -21.4013
   7   2.0000      -0.728870       -19.8336
   8   2.0000      -0.683074       -18.5874
   9   2.0000      -0.623534       -16.9672
  10   2.0000      -0.548571       -14.9274
  11   2.0000      -0.494470       -13.4552
  12   2.0000      -0.445279       -12.1167
  13   2.0000      -0.441194       -12.0055
  14   2.0000      -0.414423       -11.2770
  15   2.0000      -0.375662       -10.2223
  16   2.0000      -0.367646       -10.0042
  17   2.0000      -0.354799        -9.6546
  18   2.0000      -0.304476        -8.2852
  19   2.0000      -0.303601        -8.2614
  20   2.0000      -0.301726        -8.2104
  21   2.0000      -0.244471        -6.6524
  22   2.0000      -0.243557        -6.6275
  23   0.0000       0.022437         0.6105
  24   0.0000       0.026409         0.7186
  25   0.0000       0.084743         2.3060
  26   0.0000       0.114090         3.1045
  27   0.0000       0.119296         3.2462

MULLIKEN ATOMIC CHARGES
-----------------------
   0 C :   -0.484268
   1 C :   -0.246441
   2 C :   -0.259578
   3 C :   -0.429479
   4 C :    0.074097
   5 C :   -0.195923
   6 H :    0.147403
   7 H :    0.148709
   8 H :    0.143422
   9 H :    0.140591
  10 H :    0.161609
  11 H :    0.148716
  12 H :    0.151219
  13 H :    0.165529
  14 H :    0.178291
  15 H :    0.156104
Sum of atomic charges:    0.0000000

LOEWDIN ATOMIC CHARGES
----------------------
   0 C :   -0.425050
   1 C :   -0.314658
   2 C :   -0.292423
   3 C :   -0.280057
   4 C :   -0.082177
   5 C :   -0.221058
   6 H :    0.152693
   7 H :    0.148789
   8 H :    0.149115
   9 H :    0.152960
  10 H :    0.163273
  11 H :    0.155375
  12 H :    0.161900
  13 H :    0.176802
  14 H :    0.175331
  15 H :    0.179184

  Mayer bond orders larger than 0.100000
B(  0-C ,  1-C ) :   0.8880 B(  0-C ,  6-H ) :   0.9683 B(  0-C ,  7-H ) :   0.9821
B(  0-C ,  8-H ) :   0.9798 B(  1-C ,  2-C ) :   0.9150 B(  1-C ,  9-H ) :   0.9621
B(  1-C , 10-H ) :   0.9782 B(  2-C ,  3-C ) :   0.8824 B(  2-C , 11-H ) :   0.9816
B(  2-C , 12-H ) :   0.9685 B(  3-C ,  4-C ) :   0.9431 B(  3-C , 13-H ) :   0.9606
B(  3-C , 14-H ) :   1.0152 B(  4-C ,  5-C ) :   2.6377 B(  5-C , 15-H ) :   1.0536

Dispersion correction           -0.003920100
FINAL SINGLE POINT ENERGY      -234.509145049538

DIPOLE MOMENT
-------------

Method             : SCF
Type of density    : Electron Density
Multiplicity       :   1
Irrep              :   0
Energy             :  -234.5112551365913021 Eh
Relativity type    :
Basis              : AO
                                X                 Y                 Z
Electronic contribution:      5.936983921      -0.413836494       0.194105699
Nuclear contribution   :     -6.206130284       0.604909207      -0.187564643
                        -----------------------------------------
Total Dipole Moment    :     -0.269146363       0.191072714       0.006541056
                        -----------------------------------------
Magnitude (a.u.)       :      0.330138353
Magnitude (Debye)      :      0.839145004

Rotational constants in cm-1:             0.206900             0.068985             0.062132
Rotational constants in MHz :          6202.699541          2068.110810          1862.684647

                             ****ORCA TERMINATED NORMALLY****
TOTAL RUN TIME: 0 days 0 hours 0 minutes 17 seconds 2 msec
