                         Program Version 6.0.0  -   RELEASE  -
|  1> ! r2scan-3c def2/J RI DEFGRID2 scfconv6 printgap
|  2> %output
|  3>     printlevel normal
|  4> end
|  5> %cpcm
|  6>     smd true
|  7>     smdsolvent "water"
|  8> end
|  9> * xyz 0 1
| 10> C -2.1744540536 -0.5773790342 -0.5549405208
| 11> C -1.3199033166 -0.2684275516 0.669760125
| 12> C -0.4959366603 1.011064084 0.5217235593
| 13> C 0.614749032 0.8999045765 -0.5304487488
| 14> C 1.5740901534 -0.1317368756 -0.1932207675
| 15> C 2.3565963823 -0.987534638 0.1039041064
| 16> H -2.8054512203 -1.4419502349 -0.3633249919
| 17> H -1.5540986408 -0.801146028 -1.4189967493
| 18> H -2.8153890734 0.2682037609 -0.7961034701
| 19> H -1.9740022072 -0.1591182589 1.5380207265
| 20> H -0.6452924974 -1.105292393 0.8644666111
| 21> H -1.15587333 1.8368697271 0.2468504113
| 22> H -0.0409014937 1.2496935177 1.4859842389
| 23> H 1.1420957311 1.8550852198 -0.6019053303
| 24> H 0.1854377422 0.6770492897 -1.5097614088
| 25> H 3.0483456862 -1.7346204109 0.3548443551
| 26> *
| 27>
| 28>                          ****END OF INPUT****

CARTESIAN COORDINATES (ANGSTROEM)
---------------------------------
  C     -2.174454   -0.577379   -0.554941
  C     -1.319903   -0.268428    0.669760
  C     -0.495937    1.011064    0.521724
  C      0.614749    0.899905   -0.530449
  C      1.574090   -0.131737   -0.193221
  C      2.356596   -0.987535    0.103904
  H     -2.805451   -1.441950   -0.363325
  H     -1.554099   -0.801146   -1.418997
  H     -2.815389    0.268204   -0.796103
  H     -1.974002   -0.159118    1.538021
  H     -0.645292   -1.105292    0.864467
  H     -1.155873    1.836870    0.246850
  H     -0.040901    1.249694    1.485984
  H      1.142096    1.855085   -0.601905
  H      0.185438    0.677049   -1.509761
  H      3.048346   -1.734620    0.354844

 Total Charge           Charge          ....    0
 Multiplicity           Mult            ....    1
 Number of Electrons    NEL             ....   46
 Basis Dimension        Dim             ....  164

ORBITAL ENERGIES
----------------

  NO   OCC          E(Eh)            E(eV)
   0   2.0000     -10.046986      -273.3924
   1   2.0000     -10.037036      -273.1216
   2   2.0000     -10.025734      -272.8141
   3   2.0000     -10.019664      -272.6489
   4   2.0000     -10.017842      -272.5993
   5   2.0000     -10.007971      -272.3307
   6   2.0000      -0.781057       -21.2536
   7   2.0000      -0.727075       -19.7847
   8   2.0000      -0.681972       -18.5574
   9   2.0000      -0.616604       -16.7787
  10   2.0000      -0.541572       -14.7369
  11   2.0000      -0.491511       -13.3747
  12   2.0000      -0.438428       -11.9302
  13   2.0000      -0.433188       -11.7877
  14   2.0000      -0.408136       -11.1059
  15   2.0000      -0.367616       -10.0033
  16   2.0000      -0.359567        -9.7843
  17   2.0000      -0.346484        -9.4283
  18   2.0000      -0.296815        -8.0767
  19   2.0000      -0.295588        -8.0434
  20   2.0000      -0.294333        -8.0092
  21   2.0000      -0.250670        -6.8211
  22   2.0000      -0.249431        -6.7874
  23   0.0000       0.019727         0.5368
  24   0.0000       0.023496         0.6394
  25   0.0000       0.088093         2.3971
  26   0.0000       0.122552         3.3348
  27   0.0000       0.125606         3.4179

MULLIKEN ATOMIC CHARGES
-----------------------
   0 C :   -0.518819
   1 C :   -0.256144
   2 C :   -0.276294
   3 C :   -0.423323
   4 C :   -0.003798
   5 C :   -0.226707
   6 H :    0.156248
   7 H :    0.160814
   8 H :    0.156342
   9 H :    0.152561
  10 H :    0.154237
  11 H :    0.166880
  12 H :    0.160596
  13 H :    0.190375
  14 H :    0.204208
  15 H :    0.202825
Sum of atomic charges:    0.0000000

LOEWDIN ATOMIC CHARGES
----------------------
   0 C :   -0.432489
   1 C :   -0.317030
   2 C :   -0.291912
   3 C :   -0.280809
   4 C :   -0.094711
   5 C :   -0.252296
   6 H :    0.153875
   7 H :    0.152172
   8 H :    0.153492
   9 H :    0.156411
  10 H :    0.158461
  11 H :    0.162702
  12 H :    0.163406
  13 H :    0.186794
  14 H :    0.185643
  15 H :    0.196289

  Mayer bond orders larger than 0.100000
B(  0-C ,  1-C ) :   0.8850 B(  0-C ,  6-H ) :   0.9668 B(  0-C ,  7-H ) :   0.9788
B(  0-C ,  8-H ) :   0.9762 B(  1-C ,  2-C ) :   0.9093 B(  1-C ,  9-H ) :   0.9612
B(  1-C , 10-H ) :   0.9824 B(  2-C ,  3-C ) :   0.8687 B(  2-C , 11-H ) :   0.9764
B(  2-C , 12-H ) :   0.9722 B(  3-C ,  4-C ) :   0.9404 B(  3-C , 13-H ) :   0.9512
B(  3-C , 14-H ) :   1.0050 B(  4-C ,  5-C ) :   2.5812 B(  5-C , 15-H ) :   1.0558

Dispersion correction           -0.003920100
FINAL SINGLE POINT ENERGY      -234.509689196715

DIPOLE MOMENT
-------------

Method             : SCF
Type of density    : Electron Density
Multiplicity       :   1
Irrep              :   0
Energy             :  -234.5117992837683119 Eh
Relativity type    :
Basis              : AO
                                X                 Y                 Z
Electronic contribution:      5.820613617      -0.268339711       0.145466597
Nuclear contribution   :     -6.206130284       0.604909207      -0.187564643
                        -----------------------------------------
Total Dipole Moment    :     -0.385516667       0.336569496      -0.042098047
                        -----------------------------------------
Magnitude (a.u.)       :      0.513492329
Magnitude (Debye)      :      1.305193775

Rotational constants in cm-1:             0.206900             0.068985             0.062132
Rotational constants in MHz :          6202.699541          2068.110810          1862.684647

                             ****ORCA TERMINATED NORMALLY****
TOTAL RUN TIME: 0 days 0 hours 0 minutes 19 seconds 924 msec
