                         Program Version 6.0.0  -   RELEASE  -
|  1> ! r2scan-3c def2/J RI DEFGRID2 scfconv6 printgap
|  2> %output
|  3>     printlevel normal
|  4> end
|  5> %cpcm
|  6>     smd true
|  7>     smdsolvent "water"
|  8> end
|  9> * xyz 0 1
| 10> C -2.0350089134 0.8385497771 -0.6470866542
| 11> C -1.3198510843 0.5520994592 0.669320874
| 12> C -0.0182568535 -0.2505965554 0.534353591
| 13> H 0.3981953998 -0.3646455294 1.5425555701
| 14> C -0.2647084616 -1.6442184714 -0.044245976
| 15> C 1.0263339195 0.5164822889 -0.2901868642
| 16> O 2.345376609 0.0493254993 -0.0928628471
| 17> H -1.4063854507 1.4238530906 -1.3125434893
| 18> H -2.3133847987 -0.0835538268 -1.1490177071
| 19> H -2.9429798339 1.4047228472 -0.4536283756
| 20> H -1.9954946982 -0.0027083414 1.3241621922
| 21> H -1.0920278765 1.5004863605 1.1614795451
| 22> H -0.5383942209 -1.5848195257 -1.0947939487
| 23> H -1.0691341399 -2.136380835 0.4966007873
| 24> H 0.6249741072 -2.2629750129 0.0457562823
| 25> H 1.0495246781 1.563446626 0.0234020316
| 26> H 0.7735107619 0.4783977466 -1.3574139372
| 27> H 2.4018675333 -0.8655902985 -0.3998435183
| 28> *
| 29>
| 30>                          ****END OF INPUT****

CARTESIAN COORDINATES (ANGSTROEM)
---------------------------------
  C     -2.035009    0.838550   -0.647087
  C     -1.319851    0.552099    0.669321
  C     -0.018257   -0.250597    0.534354
  H      0.398195   -0.364646    1.542556
  C     -0.264708   -1.644218   -0.044246
  C      1.026334    0.516482   -0.290187
  O      2.345377    0.049325   -0.092863
  H     -1.406385    1.423853   -1.312543
  H     -2.313385   -0.083554   -1.149018
  H     -2.942980    1.404723   -0.453628
  H     -1.995495   -0.002708    1.324162
  H     -1.092028    1.500486    1.161480
  H     -0.538394   -1.584820   -1.094794
  H     -1.069134   -2.136381    0.496601
  H      0.624974   -2.262975    0.045756
  H      1.049525    1.563447    0.023402
  H      0.773511    0.478398   -1.357414
  H      2.401868   -0.865590   -0.399844

 Total Charge           Charge          ....    0
 Multiplicity           Mult            ....    1
 Number of Electrons    NEL             ....   50
 Basis Dimension        Dim             ....  179

ORBITAL ENERGIES
----------------

  NO   OCC          E(Eh)            E(eV)
   0   2.0000     -18.949704      -515.6477
   1   2.0000     -10.064303      -273.8636
   2   2.0000     -10.024011      -272.7672
   3   2.0000     -10.016851      -272.5724
   4   2.0000     -10.007881      -272.3283
   5   2.0000     -10.007387      -272.3148
   6   2.0000      -0.985250       -26.8100
   7   2.0000      -0.766806       -20.8658
   8   2.0000      -0.686590       -18.6831
   9   2.0000      -0.639596       -17.4043
  10   2.0000      -0.591748       -16.1023
  11   2.0000      -0.515665       -14.0320
  12   2.0000      -0.472611       -12.8604
  13   2.0000      -0.424124       -11.5410
  14   2.0000      -0.415092       -11.2952
  15   2.0000      -0.392704       -10.6860
  16   2.0000      -0.375264       -10.2115
  17   2.0000      -0.348317        -9.4782
  18   2.0000      -0.344508        -9.3745
  19   2.0000      -0.339500        -9.2383
  20   2.0000      -0.305502        -8.3131
  21   2.0000      -0.290776        -7.9124
  22   2.0000      -0.283580        -7.7166
  23   2.0000      -0.278690        -7.5835
  24   2.0000      -0.233525        -6.3545
  25   0.0000       0.072719         1.9788
  26   0.0000       0.092556         2.5186
  27   0.0000       0.121925         3.3178
  28   0.0000       0.129382         3.5207
  29   0.0000       0.136085         3.7031

MULLIKEN ATOMIC CHARGES
-----------------------
   0 C :   -0.531088
   1 C :   -0.282689
   2 C :    0.011489
   3 H :    0.159473
   4 C :   -0.564977
   5 C :   -0.227108
   6 O :   -0.509361
   7 H :    0.163022
   8 H :    0.163882
   9 H :    0.155409
  10 H :    0.153890
  11 H :    0.152428
  12 H :    0.171870
  13 H :    0.163343
  14 H :    0.158238
  15 H :    0.155486
  16 H :    0.155894
  17 H :    0.350799
Sum of atomic charges:    0.0000000

LOEWDIN ATOMIC CHARGES
----------------------
   0 C :   -0.431529
   1 C :   -0.310115
   2 C :   -0.232449
   3 H :    0.166466
   4 C :   -0.423701
   5 C :    0.004164
   6 O :   -0.655708
   7 H :    0.153963
   8 H :    0.154225
   9 H :    0.153263
  10 H :    0.157524
  11 H :    0.157480
  12 H :    0.158644
  13 H :    0.159738
  14 H :    0.156569
  15 H :    0.181635
  16 H :    0.166692
  17 H :    0.283138

  Mayer bond orders larger than 0.100000
B(  0-C ,  1-C ) :   0.8839 B(  0-C ,  7-H ) :   0.9750 B(  0-C ,  8-H ) :   0.9781
B(  0-C ,  9-H ) :   0.9660 B(  1-C ,  2-C ) :   0.8878 B(  1-C , 10-H ) :   0.9758
B(  1-C , 11-H ) :   0.9753 B(  2-C ,  3-H ) :   0.9621 B(  2-C ,  4-C ) :   0.8974
B(  2-C ,  5-C ) :   0.8882 B(  4-C , 12-H ) :   0.9804 B(  4-C , 13-H ) :   0.9713
B(  4-C , 14-H ) :   0.9626 B(  5-C ,  6-O ) :   0.9299 B(  5-C , 15-H ) :   0.9726
B(  5-C , 16-H ) :   0.9753 B(  6-O , 17-H ) :   0.8671

Dispersion correction           -0.004462869
FINAL SINGLE POINT ENERGY      -272.903248180019

DIPOLE MOMENT
-------------

Method             : SCF
Type of density    : Electron Density
Multiplicity       :   1
Irrep              :   0
Energy             :  -272.9087483063552781 Eh
Relativity type    :
Basis              : AO
                                X                 Y                 Z
Electronic contribution:      5.006152901       0.386204104       0.844683511
Nuclear contribution   :     -5.697118645      -0.871541287      -1.102111033
                        -----------------------------------------
Total Dipole Moment    :     -0.690965744      -0.485337183      -0.257427522
                        -----------------------------------------
Magnitude (a.u.)       :      0.882754082
Magnitude (Debye)      :      2.243782561

Rotational constants in cm-1:             0.178326             0.072340             0.061390
Rotational constants in MHz :          5346.070984          2168.707643          1840.412169

                             ****ORCA TERMINATED NORMALLY****
TOTAL RUN TIME: 0 days 0 hours 0 minutes 27 seconds 604 msec
