                         Program Version 6.0.0  -   RELEASE  -
|  1> ! pbe def2-sv(p) def2/J RI DEFGRID1 loosescf d4 GCP(DFT/SV(P)) printgap
|  2> %output
|  3>     printlevel normal
|  4> end
|  5> * xyz 0 1
|  6> C -3.3210837696 0.8071689785 0.2154358766
|  7> C -2.6777231299 0.3175413555 1.3399651118
|  8> C -1.5012566265 -0.3994574813 1.2092197178
|  9> C -0.957696642 -0.6345865626 -0.0476314924
| 10> C -1.6090418429 -0.1413870538 -1.1714426566
| 11> C -2.785356357 0.5758198195 -1.0406021992
| 12> C 0.3400670722 -1.3828606104 -0.1877788188
| 13> N 1.4788356435 -0.4860898676 -0.1095774026
| 14> C 1.472368249 0.8746246991 -0.0167032178
| 15> C 2.7828529566 1.2573001401 0.0170799543
| 16> N 3.5900952113 0.1646094804 -0.0538982452
| 17> C 2.7766995407 -0.8577942477 -0.1286850371
| 18> H -4.2378587585 1.3673629823 0.3176125301
| 19> H -3.0921028624 0.4951642088 2.3206642172
| 20> H -0.9990767574 -0.7766880138 2.0879111154
| 21> H -1.1907352026 -0.3170913625 -2.1516920741
| 22> H -3.2833801227 0.9552637839 -1.9197745862
| 23> H 0.4358222046 -2.1268671172 0.6094668988
| 24> H 0.3737356798 -1.9011031918 -1.151952427
| 25> H 0.568778557 1.4456775711 0.0190110412
| 26> H 3.1960849995 2.2432690943 0.0877118483
| 27> H 3.0926420414 -1.8792127433 -0.1977361589
| 28> *
| 29>
| 30>                          ****END OF INPUT****

CARTESIAN COORDINATES (ANGSTROEM)
---------------------------------
  C     -3.321084    0.807169    0.215436
  C     -2.677723    0.317541    1.339965
  C     -1.501257   -0.399457    1.209220
  C     -0.957697   -0.634587   -0.047631
  C     -1.609042   -0.141387   -1.171443
  C     -2.785356    0.575820   -1.040602
  C      0.340067   -1.382861   -0.187779
  N      1.478836   -0.486090   -0.109577
  C      1.472368    0.874625   -0.016703
  C      2.782853    1.257300    0.017080
  N      3.590095    0.164609   -0.053898
  C      2.776700   -0.857794   -0.128685
  H     -4.237859    1.367363    0.317613
  H     -3.092103    0.495164    2.320664
  H     -0.999077   -0.776688    2.087911
  H     -1.190735   -0.317091   -2.151692
  H     -3.283380    0.955264   -1.919775
  H      0.435822   -2.126867    0.609467
  H      0.373736   -1.901103   -1.151952
  H      0.568779    1.445678    0.019011
  H      3.196085    2.243269    0.087712
  H      3.092642   -1.879213   -0.197736

 Total Charge           Charge          ....    0
 Multiplicity           Mult            ....    1
 Number of Electrons    NEL             ....   84
 Basis Dimension        Dim             ....  188

ORBITAL ENERGIES
----------------

  NO   OCC          E(Eh)            E(eV)
   0   2.0000     -14.054154      -382.4330
   1   2.0000     -13.953980      -379.7071
   2   2.0000      -9.948242      -270.7054
   3   2.0000      -9.920964      -269.9631
   4   2.0000      -9.920402      -269.9479
   5   2.0000      -9.908560      -269.6256
   6   2.0000      -9.908523      -269.6246
   7   2.0000      -9.908088      -269.6128
   8   2.0000      -9.907834      -269.6059
   9   2.0000      -9.907742      -269.6034
  10   2.0000      -9.904347      -269.5110
  11   2.0000      -9.886426      -269.0233
  12   2.0000      -0.932034       -25.3619
  13   2.0000      -0.810824       -22.0637
  14   2.0000      -0.786398       -21.3990
  15   2.0000      -0.707658       -19.2564
  16   2.0000      -0.686576       -18.6827
  17   2.0000      -0.668815       -18.1994
  18   2.0000      -0.632178       -17.2024
  19   2.0000      -0.561032       -15.2665
  20   2.0000      -0.550853       -14.9895
  21   2.0000      -0.529760       -14.4155
  22   2.0000      -0.509573       -13.8662
  23   2.0000      -0.492877       -13.4119
  24   2.0000      -0.469795       -12.7838
  25   2.0000      -0.448317       -12.1993
  26   2.0000      -0.419137       -11.4053
  27   2.0000      -0.404039       -10.9945
  28   2.0000      -0.394864       -10.7448
  29   2.0000      -0.389963       -10.6114
  30   2.0000      -0.380163       -10.3447
  31   2.0000      -0.373881       -10.1738
  32   2.0000      -0.351212        -9.5570
  33   2.0000      -0.350460        -9.5365
  34   2.0000      -0.344213        -9.3665
  35   2.0000      -0.317580        -8.6418
  36   2.0000      -0.314614        -8.5611
  37   2.0000      -0.247519        -6.7353
  38   2.0000      -0.246098        -6.6967
  39   2.0000      -0.234486        -6.3807
  40   2.0000      -0.204035        -5.5521
  41   2.0000      -0.194016        -5.2794
  42   0.0000      -0.055420        -1.5080
  43   0.0000      -0.051263        -1.3949
  44   0.0000      -0.002235        -0.0608
  45   0.0000       0.027181         0.7396
  46   0.0000       0.042960         1.1690

MULLIKEN ATOMIC CHARGES
-----------------------
   0 C :   -0.044550
   1 C :   -0.047064
   2 C :   -0.088943
   3 C :   -0.020380
   4 C :   -0.093405
   5 C :   -0.046379
   6 C :    0.057458
   7 N :   -0.162159
   8 C :   -0.044044
   9 C :   -0.081933
  10 N :   -0.122701
  11 C :   -0.013291
  12 H :    0.061402
  13 H :    0.060322
  14 H :    0.051346
  15 H :    0.051257
  16 H :    0.059989
  17 H :    0.104001
  18 H :    0.104766
  19 H :    0.089471
  20 H :    0.058695
  21 H :    0.066141
Sum of atomic charges:   -0.0000000

LOEWDIN ATOMIC CHARGES
----------------------
   0 C :   -0.117330
   1 C :   -0.117104
   2 C :   -0.113033
   3 C :   -0.059017
   4 C :   -0.114830
   5 C :   -0.117526
   6 C :   -0.119701
   7 N :    0.049101
   8 C :   -0.154930
   9 C :   -0.154021
  10 N :   -0.114103
  11 C :   -0.119218
  12 H :    0.127249
  13 H :    0.127730
  14 H :    0.127148
  15 H :    0.126857
  16 H :    0.127661
  17 H :    0.129348
  18 H :    0.128486
  19 H :    0.130264
  20 H :    0.114314
  21 H :    0.112656

  Mayer bond orders larger than 0.100000
B(  0-C ,  1-C ) :   1.3784 B(  0-C ,  5-C ) :   1.3791 B(  0-C , 12-H ) :   0.9650
B(  1-C ,  2-C ) :   1.3757 B(  1-C , 13-H ) :   0.9641 B(  2-C ,  3-C ) :   1.3889
B(  2-C , 14-H ) :   0.9640 B(  3-C ,  4-C ) :   1.3895 B(  3-C ,  6-C ) :   1.0622
B(  4-C ,  5-C ) :   1.3738 B(  4-C , 15-H ) :   0.9634 B(  5-C , 16-H ) :   0.9643
B(  6-C ,  7-N ) :   0.9609 B(  6-C , 17-H ) :   0.9071 B(  6-C , 18-H ) :   0.9066
B(  7-N ,  8-C ) :   1.2089 B(  7-N , 11-C ) :   1.2148 B(  8-C ,  9-C ) :   1.4557
B(  8-C , 19-H ) :   0.9560 B(  9-C , 10-N ) :   1.4135 B(  9-C , 20-H ) :   0.9770
B( 10-N , 11-C ) :   1.6362 B( 11-C , 21-H ) :   0.9573

Dispersion correction           -0.026041745
FINAL SINGLE POINT ENERGY      -495.508612692445

DIPOLE MOMENT
-------------

Method             : SCF
Type of density    : Electron Density
Multiplicity       :   1
Irrep              :   0
Energy             :  -495.5704001804502923 Eh
Relativity type    :
Basis              : AO
                                X                 Y                 Z
Electronic contribution:      3.131061009       0.043378405      -0.039473959
Nuclear contribution   :     -4.790705663      -0.465431661       0.019012942
                        -----------------------------------------
Total Dipole Moment    :     -1.659644655      -0.422053256      -0.020461017
                        -----------------------------------------
Magnitude (a.u.)       :      1.712591015
Magnitude (Debye)      :      4.353060417

Rotational constants in cm-1:             0.086812             0.017593             0.017304
Rotational constants in MHz :          2602.545726           527.420991           518.750058

                             ****ORCA TERMINATED NORMALLY****
TOTAL RUN TIME: 0 days 0 hours 0 minutes 13 seconds 740 msec
