                         Program Version 6.0.0  -   RELEASE  -
|  1> ! pbe def2-sv(p) def2/J RI DEFGRID1 loosescf d4 GCP(DFT/SV(P)) printgap
|  2> %output
|  3>     printlevel normal
|  4> end
|  5> * xyz 0 1
|  6> C 1.8061137704 0.5504192437 -1.116302094
|  7> C 1.0686327438 -0.1828165108 0.0037015961
|  8> H 0.6676237217 -1.1289257841 -0.3897396224
|  9> C -0.0725813339 0.6583399578 0.5976944851
| 10> C -1.4933792928 0.2889585957 0.1487962911
| 11> C -1.6742260079 0.4026367806 -1.3634357932
| 12> C -1.9066467918 -1.0985500878 0.6373041606
| 13> O 1.9532508644 -0.4853476663 1.0774039884
| 14> H 2.2791403984 1.4450362255 -0.7168022332
| 15> H 2.5741083895 -0.0858642133 -1.5521364993
| 16> H 1.110488492 0.8379753273 -1.8977189546
| 17> H -0.0114371044 0.5434439219 1.6823663402
| 18> H 0.109887977 1.7103356177 0.3711699641
| 19> H -2.1613724788 1.0184821488 0.6221603399
| 20> H -1.0676275935 -0.3346558437 -1.8830355643
| 21> H -1.3927162101 1.3945379142 -1.7086262937
| 22> H -2.7151952091 0.231653435 -1.6279711764
| 23> H -2.9535452269 -1.2806537045 0.4062561305
| 24> H -1.3154575492 -1.8758560745 0.1598627232
| 25> H -1.7709615822 -1.179355395 1.7130725418
| 26> H 2.7173031087 -0.968138064 0.7345201533
| 27> *
| 28>
| 29>                          ****END OF INPUT****

CARTESIAN COORDINATES (ANGSTROEM)
---------------------------------
  C      1.806114    0.550419   -1.116302
  C      1.068633   -0.182817    0.003702
  H      0.667624   -1.128926   -0.389740
  C     -0.072581    0.658340    0.597694
  C     -1.493379    0.288959    0.148796
  C     -1.674226    0.402637   -1.363436
  C     -1.906647   -1.098550    0.637304
  O      1.953251   -0.485348    1.077404
  H      2.279140    1.445036   -0.716802
  H      2.574108   -0.085864   -1.552136
  H      1.110488    0.837975   -1.897719
  H     -0.011437    0.543444    1.682366
  H      0.109888    1.710336    0.371170
  H     -2.161372    1.018482    0.622160
  H     -1.067628   -0.334656   -1.883036
  H     -1.392716    1.394538   -1.708626
  H     -2.715195    0.231653   -1.627971
  H     -2.953545   -1.280654    0.406256
  H     -1.315458   -1.875856    0.159863
  H     -1.770962   -1.179355    1.713073
  H      2.717303   -0.968138    0.734520

 Total Charge           Charge          ....    0
 Multiplicity           Mult            ....    1
 Number of Electrons    NEL             ....   58
 Basis Dimension        Dim             ....  126

ORBITAL ENERGIES
----------------

  NO   OCC          E(Eh)            E(eV)
   0   2.0000     -18.734338      -509.7873
   1   2.0000      -9.933880      -270.3146
   2   2.0000      -9.893372      -269.2123
   3   2.0000      -9.874292      -268.6931
   4   2.0000      -9.874253      -268.6921
   5   2.0000      -9.872415      -268.6421
   6   2.0000      -9.869106      -268.5520
   7   2.0000      -0.911353       -24.7992
   8   2.0000      -0.730133       -19.8679
   9   2.0000      -0.671990       -18.2858
  10   2.0000      -0.613340       -16.6898
  11   2.0000      -0.606547       -16.5050
  12   2.0000      -0.539560       -14.6822
  13   2.0000      -0.481153       -13.0928
  14   2.0000      -0.457895       -12.4600
  15   2.0000      -0.410793       -11.1783
  16   2.0000      -0.401550       -10.9267
  17   2.0000      -0.379027       -10.3139
  18   2.0000      -0.375005       -10.2044
  19   2.0000      -0.363310        -9.8862
  20   2.0000      -0.343772        -9.3545
  21   2.0000      -0.327125        -8.9015
  22   2.0000      -0.323550        -8.8042
  23   2.0000      -0.309075        -8.4104
  24   2.0000      -0.289349        -7.8736
  25   2.0000      -0.280902        -7.6437
  26   2.0000      -0.278829        -7.5873
  27   2.0000      -0.258095        -7.0231
  28   2.0000      -0.207464        -5.6454
  29   0.0000       0.027665         0.7528
  30   0.0000       0.041613         1.1323
  31   0.0000       0.061766         1.6807
  32   0.0000       0.074305         2.0219
  33   0.0000       0.088390         2.4052

MULLIKEN ATOMIC CHARGES
-----------------------
   0 C :   -0.278321
   1 C :    0.005169
   2 H :    0.069471
   3 C :   -0.101349
   4 C :   -0.190455
   5 C :   -0.254355
   6 C :   -0.243740
   7 O :   -0.431727
   8 H :    0.105689
   9 H :    0.089041
  10 H :    0.102403
  11 H :    0.093101
  12 H :    0.075830
  13 H :    0.071224
  14 H :    0.102251
  15 H :    0.101603
  16 H :    0.098196
  17 H :    0.096294
  18 H :    0.098599
  19 H :    0.102012
  20 H :    0.289065
Sum of atomic charges:    0.0000000

LOEWDIN ATOMIC CHARGES
----------------------
   0 C :   -0.354826
   1 C :   -0.054312
   2 H :    0.092141
   3 C :   -0.219949
   4 C :   -0.155677
   5 C :   -0.333557
   6 C :   -0.330503
   7 O :   -0.336470
   8 H :    0.121688
   9 H :    0.111842
  10 H :    0.123165
  11 H :    0.125527
  12 H :    0.115093
  13 H :    0.116536
  14 H :    0.114365
  15 H :    0.116522
  16 H :    0.118436
  17 H :    0.117277
  18 H :    0.115081
  19 H :    0.119535
  20 H :    0.278084

  Mayer bond orders larger than 0.100000
B(  0-C ,  1-C ) :   1.1148 B(  0-C ,  8-H ) :   0.9384 B(  0-C ,  9-H ) :   0.9449
B(  0-C , 10-H ) :   0.9306 B(  1-C ,  2-H ) :   0.9155 B(  1-C ,  3-C ) :   1.0401
B(  1-C ,  7-O ) :   1.0542 B(  3-C ,  4-C ) :   1.0875 B(  3-C , 11-H ) :   0.9092
B(  3-C , 12-H ) :   0.9170 B(  4-C ,  5-C ) :   1.1092 B(  4-C ,  6-C ) :   1.1133
B(  4-C , 13-H ) :   0.8987 B(  5-C , 14-H ) :   0.9403 B(  5-C , 15-H ) :   0.9465
B(  5-C , 16-H ) :   0.9477 B(  6-C , 17-H ) :   0.9500 B(  6-C , 18-H ) :   0.9426
B(  6-C , 19-H ) :   0.9507 B(  7-O , 20-H ) :   0.8542

Dispersion correction           -0.016682239
FINAL SINGLE POINT ENERGY      -311.514276279641

DIPOLE MOMENT
-------------

Method             : SCF
Type of density    : Electron Density
Multiplicity       :   1
Irrep              :   0
Energy             :  -311.5935897834942807 Eh
Relativity type    :
Basis              : AO
                                X                 Y                 Z
Electronic contribution:      3.747127099      -0.449571205       3.325605690
Nuclear contribution   :     -3.657770639       0.300529261      -3.817930424
                        -----------------------------------------
Total Dipole Moment    :      0.089356460      -0.149041945      -0.492324734
                        -----------------------------------------
Magnitude (a.u.)       :      0.522093595
Magnitude (Debye)      :      1.327056455

Rotational constants in cm-1:             0.124766             0.056171             0.044993
Rotational constants in MHz :          3740.401307          1683.963382          1348.858073

                             ****ORCA TERMINATED NORMALLY****
TOTAL RUN TIME: 0 days 0 hours 0 minutes 10 seconds 537 msec
