                         Program Version 6.0.0  -   RELEASE  -
|  1> ! r2scan-3c def2/J RI DEFGRID2 scfconv6 printgap
|  2> %output
|  3>     printlevel normal
|  4> end
|  5> * xyz 0 1
|  6> C -2.3246524678 0.8083823212 -0.8383409712
|  7> C -2.0384182876 -0.5760646636 -0.2665596826
|  8> C -1.2074589116 -0.5990536753 1.0215277085
|  9> C 0.3017576323 -0.3177179887 0.9464316865
| 10> C 1.0689693933 -1.2143686264 -0.042428953
| 11> C 2.1908102408 -0.3315218458 -0.583444918
| 12> C 1.5146205814 1.0297275325 -0.7085053072
| 13> C 0.693298554 1.1318168816 0.5776149385
| 14> H -3.0720516368 0.7334290952 -1.6259537665
| 15> H -2.7116373373 1.4696105494 -0.0656244216
| 16> H -1.433332601 1.2550479505 -1.2675532484
| 17> H -2.9962546234 -1.0482242943 -0.0316163346
| 18> H -1.564578096 -1.1892347786 -1.0341785217
| 19> H -1.6464373321 0.1106956148 1.7275373613
| 20> H -1.3191047994 -1.5965369973 1.4567811429
| 21> H 0.6816424388 -0.5204212483 1.9539517819
| 22> H 1.4432231266 -2.1182587116 0.4367229688
| 23> H 0.4233887024 -1.515035749 -0.8666005472
| 24> H 3.0076636817 -0.2747604563 0.1381211941
| 25> H 2.5895858155 -0.6952176532 -1.5296270459
| 26> H 2.2260929426 1.847900616 -0.8128181347
| 27> H 0.8603539984 1.0311440188 -1.5820592804
| 28> H 1.3149046051 1.5531227621 1.3693928229
| 29> H -0.1740403042 1.7766198 0.466827673
| 30> *
| 31>
| 32>                          ****END OF INPUT****

CARTESIAN COORDINATES (ANGSTROEM)
---------------------------------
  C     -2.324652    0.808382   -0.838341
  C     -2.038418   -0.576065   -0.266560
  C     -1.207459   -0.599054    1.021528
  C      0.301758   -0.317718    0.946432
  C      1.068969   -1.214369   -0.042429
  C      2.190810   -0.331522   -0.583445
  C      1.514621    1.029728   -0.708505
  C      0.693299    1.131817    0.577615
  H     -3.072052    0.733429   -1.625954
  H     -2.711637    1.469611   -0.065624
  H     -1.433333    1.255048   -1.267553
  H     -2.996255   -1.048224   -0.031616
  H     -1.564578   -1.189235   -1.034179
  H     -1.646437    0.110696    1.727537
  H     -1.319105   -1.596537    1.456781
  H      0.681642   -0.520421    1.953952
  H      1.443223   -2.118259    0.436723
  H      0.423389   -1.515036   -0.866601
  H      3.007664   -0.274760    0.138121
  H      2.589586   -0.695218   -1.529627
  H      2.226093    1.847901   -0.812818
  H      0.860354    1.031144   -1.582059
  H      1.314905    1.553123    1.369393
  H     -0.174040    1.776620    0.466828

 Total Charge           Charge          ....    0
 Multiplicity           Mult            ....    1
 Number of Electrons    NEL             ....   64
 Basis Dimension        Dim             ....  232

ORBITAL ENERGIES
----------------

  NO   OCC          E(Eh)            E(eV)
   0   2.0000     -10.024942      -272.7925
   1   2.0000     -10.021680      -272.7038
   2   2.0000     -10.019143      -272.6347
   3   2.0000     -10.018416      -272.6150
   4   2.0000     -10.018251      -272.6105
   5   2.0000     -10.015886      -272.5461
   6   2.0000     -10.014688      -272.5135
   7   2.0000     -10.013184      -272.4726
   8   2.0000      -0.804276       -21.8855
   9   2.0000      -0.746851       -20.3229
  10   2.0000      -0.687686       -18.7129
  11   2.0000      -0.671007       -18.2590
  12   2.0000      -0.623841       -16.9756
  13   2.0000      -0.556236       -15.1359
  14   2.0000      -0.533302       -14.5119
  15   2.0000      -0.498628       -13.5684
  16   2.0000      -0.454021       -12.3545
  17   2.0000      -0.436626       -11.8812
  18   2.0000      -0.413200       -11.2437
  19   2.0000      -0.402530       -10.9534
  20   2.0000      -0.380597       -10.3566
  21   2.0000      -0.371154       -10.0996
  22   2.0000      -0.363795        -9.8994
  23   2.0000      -0.321229        -8.7411
  24   2.0000      -0.316448        -8.6110
  25   2.0000      -0.311557        -8.4779
  26   2.0000      -0.301022        -8.1912
  27   2.0000      -0.298654        -8.1268
  28   2.0000      -0.288948        -7.8627
  29   2.0000      -0.277018        -7.5380
  30   2.0000      -0.272337        -7.4107
  31   2.0000      -0.262764        -7.1502
  32   0.0000       0.075610         2.0575
  33   0.0000       0.090031         2.4499
  34   0.0000       0.100193         2.7264
  35   0.0000       0.116584         3.1724
  36   0.0000       0.121429         3.3042

MULLIKEN ATOMIC CHARGES
-----------------------
   0 C :   -0.494219
   1 C :   -0.217404
   2 C :   -0.362252
   3 C :    0.060688
   4 C :   -0.382985
   5 C :   -0.268797
   6 C :   -0.266995
   7 C :   -0.434387
   8 H :    0.143479
   9 H :    0.148032
  10 H :    0.149550
  11 H :    0.139442
  12 H :    0.129214
  13 H :    0.153984
  14 H :    0.137384
  15 H :    0.154232
  16 H :    0.152965
  17 H :    0.144756
  18 H :    0.147218
  19 H :    0.149704
  20 H :    0.151293
  21 H :    0.145019
  22 H :    0.153451
  23 H :    0.166626
Sum of atomic charges:   -0.0000000

LOEWDIN ATOMIC CHARGES
----------------------
   0 C :   -0.428963
   1 C :   -0.317458
   2 C :   -0.300556
   3 C :   -0.222928
   4 C :   -0.297098
   5 C :   -0.300739
   6 C :   -0.304053
   7 C :   -0.303518
   8 H :    0.149580
   9 H :    0.149474
  10 H :    0.149760
  11 H :    0.153153
  12 H :    0.149447
  13 H :    0.156904
  14 H :    0.158169
  15 H :    0.160877
  16 H :    0.157464
  17 H :    0.155833
  18 H :    0.155174
  19 H :    0.154710
  20 H :    0.155084
  21 H :    0.151904
  22 H :    0.156950
  23 H :    0.160830

  Mayer bond orders larger than 0.100000
B(  0-C ,  1-C ) :   0.8862 B(  0-C ,  8-H ) :   0.9676 B(  0-C ,  9-H ) :   0.9858
B(  0-C , 10-H ) :   0.9772 B(  1-C ,  2-C ) :   0.9112 B(  1-C , 11-H ) :   0.9660
B(  1-C , 12-H ) :   0.9742 B(  2-C ,  3-C ) :   0.8745 B(  2-C , 13-H ) :   1.0000
B(  2-C , 14-H ) :   0.9643 B(  3-C ,  4-C ) :   0.9315 B(  3-C ,  7-C ) :   0.9200
B(  3-C , 15-H ) :   0.9568 B(  4-C ,  5-C ) :   0.8911 B(  4-C , 16-H ) :   0.9561
B(  4-C , 17-H ) :   0.9936 B(  5-C ,  6-C ) :   0.9030 B(  5-C , 18-H ) :   0.9858
B(  5-C , 19-H ) :   0.9571 B(  6-C ,  7-C ) :   0.9144 B(  6-C , 20-H ) :   0.9492
B(  6-C , 21-H ) :   0.9959 B(  7-C , 22-H ) :   0.9666 B(  7-C , 23-H ) :   0.9749

Dispersion correction           -0.007407676
FINAL SINGLE POINT ENERGY      -314.376773431352

DIPOLE MOMENT
-------------

Method             : SCF
Type of density    : Electron Density
Multiplicity       :   1
Irrep              :   0
Energy             :  -314.3799254477705176 Eh
Relativity type    :
Basis              : AO
                                X                 Y                 Z
Electronic contribution:      2.220477902      -0.807756253       1.227716713
Nuclear contribution   :     -2.223991870       0.769181599      -1.188367704
                        -----------------------------------------
Total Dipole Moment    :     -0.003513967      -0.038574653       0.039349009
                        -----------------------------------------
Magnitude (a.u.)       :      0.055215001
Magnitude (Debye)      :      0.140345380

Rotational constants in cm-1:             0.104492             0.047049             0.041954
Rotational constants in MHz :          3132.600506          1410.491351          1257.762590

                             ****ORCA TERMINATED NORMALLY****
TOTAL RUN TIME: 0 days 0 hours 0 minutes 25 seconds 722 msec
