                         Program Version 6.0.0  -   RELEASE  -
|  1> ! r2scan-3c def2/J RI DEFGRID2 scfconv6 printgap
|  2> %output
|  3>     printlevel normal
|  4> end
|  5> %cpcm
|  6>     smd true
|  7>     smdsolvent "water"
|  8> end
|  9> * xyz 0 1
| 10> C -2.3246524678 0.8083823212 -0.8383409712
| 11> C -2.0384182876 -0.5760646636 -0.2665596826
| 12> C -1.2074589116 -0.5990536753 1.0215277085
| 13> C 0.3017576323 -0.3177179887 0.9464316865
| 14> C 1.0689693933 -1.2143686264 -0.042428953
| 15> C 2.1908102408 -0.3315218458 -0.583444918
| 16> C 1.5146205814 1.0297275325 -0.7085053072
| 17> C 0.693298554 1.1318168816 0.5776149385
| 18> H -3.0720516368 0.7334290952 -1.6259537665
| 19> H -2.7116373373 1.4696105494 -0.0656244216
| 20> H -1.433332601 1.2550479505 -1.2675532484
| 21> H -2.9962546234 -1.0482242943 -0.0316163346
| 22> H -1.564578096 -1.1892347786 -1.0341785217
| 23> H -1.6464373321 0.1106956148 1.7275373613
| 24> H -1.3191047994 -1.5965369973 1.4567811429
| 25> H 0.6816424388 -0.5204212483 1.9539517819
| 26> H 1.4432231266 -2.1182587116 0.4367229688
| 27> H 0.4233887024 -1.515035749 -0.8666005472
| 28> H 3.0076636817 -0.2747604563 0.1381211941
| 29> H 2.5895858155 -0.6952176532 -1.5296270459
| 30> H 2.2260929426 1.847900616 -0.8128181347
| 31> H 0.8603539984 1.0311440188 -1.5820592804
| 32> H 1.3149046051 1.5531227621 1.3693928229
| 33> H -0.1740403042 1.7766198 0.466827673
| 34> *
| 35>
| 36>                          ****END OF INPUT****

CARTESIAN COORDINATES (ANGSTROEM)
---------------------------------
  C     -2.324652    0.808382   -0.838341
  C     -2.038418   -0.576065   -0.266560
  C     -1.207459   -0.599054    1.021528
  C      0.301758   -0.317718    0.946432
  C      1.068969   -1.214369   -0.042429
  C      2.190810   -0.331522   -0.583445
  C      1.514621    1.029728   -0.708505
  C      0.693299    1.131817    0.577615
  H     -3.072052    0.733429   -1.625954
  H     -2.711637    1.469611   -0.065624
  H     -1.433333    1.255048   -1.267553
  H     -2.996255   -1.048224   -0.031616
  H     -1.564578   -1.189235   -1.034179
  H     -1.646437    0.110696    1.727537
  H     -1.319105   -1.596537    1.456781
  H      0.681642   -0.520421    1.953952
  H      1.443223   -2.118259    0.436723
  H      0.423389   -1.515036   -0.866601
  H      3.007664   -0.274760    0.138121
  H      2.589586   -0.695218   -1.529627
  H      2.226093    1.847901   -0.812818
  H      0.860354    1.031144   -1.582059
  H      1.314905    1.553123    1.369393
  H     -0.174040    1.776620    0.466828

 Total Charge           Charge          ....    0
 Multiplicity           Mult            ....    1
 Number of Electrons    NEL             ....   64
 Basis Dimension        Dim             ....  232

ORBITAL ENERGIES
----------------

  NO   OCC          E(Eh)            E(eV)
   0   2.0000     -10.017769      -272.5973
   1   2.0000     -10.013945      -272.4933
   2   2.0000     -10.011877      -272.4370
   3   2.0000     -10.011630      -272.4303
   4   2.0000     -10.011199      -272.4186
   5   2.0000     -10.008636      -272.3488
   6   2.0000     -10.007698      -272.3233
   7   2.0000     -10.005297      -272.2580
   8   2.0000      -0.797308       -21.6959
   9   2.0000      -0.739625       -20.1262
  10   2.0000      -0.680690       -18.5225
  11   2.0000      -0.664377       -18.0786
  12   2.0000      -0.616956       -16.7882
  13   2.0000      -0.549194       -14.9443
  14   2.0000      -0.526615       -14.3299
  15   2.0000      -0.491749       -13.3812
  16   2.0000      -0.446889       -12.1605
  17   2.0000      -0.429750       -11.6941
  18   2.0000      -0.405844       -11.0436
  19   2.0000      -0.395378       -10.7588
  20   2.0000      -0.373140       -10.1537
  21   2.0000      -0.363932        -9.9031
  22   2.0000      -0.356374        -9.6974
  23   2.0000      -0.314228        -8.5506
  24   2.0000      -0.308987        -8.4080
  25   2.0000      -0.303989        -8.2720
  26   2.0000      -0.294469        -8.0129
  27   2.0000      -0.292195        -7.9510
  28   2.0000      -0.281399        -7.6573
  29   2.0000      -0.269858        -7.3432
  30   2.0000      -0.265325        -7.2198
  31   2.0000      -0.255249        -6.9457
  32   0.0000       0.084035         2.2867
  33   0.0000       0.097473         2.6524
  34   0.0000       0.106589         2.9004
  35   0.0000       0.122688         3.3385
  36   0.0000       0.129154         3.5145

MULLIKEN ATOMIC CHARGES
-----------------------
   0 C :   -0.526199
   1 C :   -0.232660
   2 C :   -0.377080
   3 C :    0.060052
   4 C :   -0.403517
   5 C :   -0.289723
   6 C :   -0.288511
   7 C :   -0.442448
   8 H :    0.151788
   9 H :    0.157151
  10 H :    0.160439
  11 H :    0.146587
  12 H :    0.140481
  13 H :    0.160613
  14 H :    0.143938
  15 H :    0.161100
  16 H :    0.160513
  17 H :    0.156876
  18 H :    0.156019
  19 H :    0.156852
  20 H :    0.157717
  21 H :    0.157609
  22 H :    0.160790
  23 H :    0.171615
Sum of atomic charges:   -0.0000000

LOEWDIN ATOMIC CHARGES
----------------------
   0 C :   -0.436510
   1 C :   -0.320139
   2 C :   -0.303961
   3 C :   -0.222750
   4 C :   -0.301357
   5 C :   -0.305466
   6 C :   -0.308338
   7 C :   -0.306879
   8 H :    0.150955
   9 H :    0.151824
  10 H :    0.152689
  11 H :    0.154470
  12 H :    0.152413
  13 H :    0.158583
  14 H :    0.159100
  15 H :    0.162649
  16 H :    0.158778
  17 H :    0.158922
  18 H :    0.157093
  19 H :    0.156121
  20 H :    0.156143
  21 H :    0.155307
  22 H :    0.158406
  23 H :    0.161950

  Mayer bond orders larger than 0.100000
B(  0-C ,  1-C ) :   0.8806 B(  0-C ,  8-H ) :   0.9660 B(  0-C ,  9-H ) :   0.9824
B(  0-C , 10-H ) :   0.9752 B(  1-C ,  2-C ) :   0.9062 B(  1-C , 11-H ) :   0.9667
B(  1-C , 12-H ) :   0.9749 B(  2-C ,  3-C ) :   0.8697 B(  2-C , 13-H ) :   0.9978
B(  2-C , 14-H ) :   0.9655 B(  3-C ,  4-C ) :   0.9290 B(  3-C ,  7-C ) :   0.9195
B(  3-C , 15-H ) :   0.9574 B(  4-C ,  5-C ) :   0.8885 B(  4-C , 16-H ) :   0.9554
B(  4-C , 17-H ) :   0.9919 B(  5-C ,  6-C ) :   0.9010 B(  5-C , 18-H ) :   0.9845
B(  5-C , 19-H ) :   0.9558 B(  6-C ,  7-C ) :   0.9077 B(  6-C , 20-H ) :   0.9484
B(  6-C , 21-H ) :   0.9946 B(  7-C , 22-H ) :   0.9664 B(  7-C , 23-H ) :   0.9753

Dispersion correction           -0.007407676
FINAL SINGLE POINT ENERGY      -314.374298168169

DIPOLE MOMENT
-------------

Method             : SCF
Type of density    : Electron Density
Multiplicity       :   1
Irrep              :   0
Energy             :  -314.3774501845880422 Eh
Relativity type    :
Basis              : AO
                                X                 Y                 Z
Electronic contribution:      2.214046981      -0.814746988       1.228383963
Nuclear contribution   :     -2.223991870       0.769181599      -1.188367704
                        -----------------------------------------
Total Dipole Moment    :     -0.009944888      -0.045565389       0.040016259
                        -----------------------------------------
Magnitude (a.u.)       :      0.061452474
Magnitude (Debye)      :      0.156199775

Rotational constants in cm-1:             0.104492             0.047049             0.041954
Rotational constants in MHz :          3132.600506          1410.491351          1257.762590

                             ****ORCA TERMINATED NORMALLY****
TOTAL RUN TIME: 0 days 0 hours 0 minutes 31 seconds 143 msec
