                         Program Version 6.0.0  -   RELEASE  -
|  1> ! pbe def2-sv(p) def2/J RI DEFGRID1 loosescf d4 GCP(DFT/SV(P)) printgap
|  2> %output
|  3>     printlevel normal
|  4> end
|  5> * xyz 0 1
|  6> C 1.7683702206 -2.4384797266 0.8084350462
|  7> O 0.9685828667 -1.7960196147 -0.1912242838
|  8> C 0.6798636646 -0.4808355259 -0.0423635029
|  9> C 1.6473620173 0.5278855046 0.0249658178
| 10> C 1.2847511194 1.8622795767 0.1066515029
| 11> C -0.047663718 2.2299009609 0.0875510319
| 12> C -1.0189419133 1.2494076838 -0.0251234689
| 13> C -0.671790887 -0.0988067668 -0.0716202515
| 14> C -1.7189769535 -1.1583662768 -0.1868978189
| 15> O -2.6295033873 -1.1186972906 -0.985731041
| 16> O -1.5613253774 -2.1350638051 0.6814288042
| 17> Cl -2.6839028656 1.7070414846 -0.0652587941
| 18> Cl 3.3342873339 0.1345213369 -0.0640447095
| 19> H 2.5180276988 -3.0371409125 0.2938479047
| 20> H 1.1102372833 -3.0833208209 1.3935067153
| 21> H 2.2516408439 -1.7213109511 1.467782567
| 22> H 2.0536099108 2.6151924651 0.1652882753
| 23> H -0.3342424715 3.265863783 0.1444721326
| 24> H -2.2425065661 -2.8313395332 0.5885067793
| 25> *
| 26>
| 27>                          ****END OF INPUT****

CARTESIAN COORDINATES (ANGSTROEM)
---------------------------------
  C      1.768370   -2.438480    0.808435
  O      0.968583   -1.796020   -0.191224
  C      0.679864   -0.480836   -0.042364
  C      1.647362    0.527886    0.024966
  C      1.284751    1.862280    0.106652
  C     -0.047664    2.229901    0.087551
  C     -1.018942    1.249408   -0.025123
  C     -0.671791   -0.098807   -0.071620
  C     -1.718977   -1.158366   -0.186898
  O     -2.629503   -1.118697   -0.985731
  O     -1.561325   -2.135064    0.681429
  Cl    -2.683903    1.707041   -0.065259
  Cl     3.334287    0.134521   -0.064045
  H      2.518028   -3.037141    0.293848
  H      1.110237   -3.083321    1.393507
  H      2.251641   -1.721311    1.467783
  H      2.053610    2.615192    0.165288
  H     -0.334242    3.265864    0.144472
  H     -2.242507   -2.831340    0.588507

 Total Charge           Charge          ....    0
 Multiplicity           Mult            ....    1
 Number of Electrons    NEL             ....  112
 Basis Dimension        Dim             ....  202

ORBITAL ENERGIES
----------------

  NO   OCC          E(Eh)            E(eV)
   0   2.0000    -100.653856     -2738.9307
   1   2.0000    -100.643039     -2738.6363
   2   2.0000     -18.806766      -511.7581
   3   2.0000     -18.795802      -511.4598
   4   2.0000     -18.742491      -510.0091
   5   2.0000     -10.023676      -272.7581
   6   2.0000      -9.981595      -271.6130
   7   2.0000      -9.966608      -271.2052
   8   2.0000      -9.963037      -271.1080
   9   2.0000      -9.944216      -270.5959
  10   2.0000      -9.928176      -270.1594
  11   2.0000      -9.921997      -269.9913
  12   2.0000      -9.915144      -269.8048
  13   2.0000      -9.189464      -250.0580
  14   2.0000      -9.179007      -249.7735
  15   2.0000      -7.020891      -191.0482
  16   2.0000      -7.010523      -190.7660
  17   2.0000      -7.009435      -190.7364
  18   2.0000      -7.008793      -190.7190
  19   2.0000      -6.999099      -190.4552
  20   2.0000      -6.998038      -190.4263
  21   2.0000      -1.018085       -27.7035
  22   2.0000      -0.978867       -26.6363
  23   2.0000      -0.917922       -24.9779
  24   2.0000      -0.832245       -22.6465
  25   2.0000      -0.808245       -21.9935
  26   2.0000      -0.757633       -20.6162
  27   2.0000      -0.713857       -19.4250
  28   2.0000      -0.667997       -18.1771
  29   2.0000      -0.636040       -17.3075
  30   2.0000      -0.617344       -16.7988
  31   2.0000      -0.563524       -15.3343
  32   2.0000      -0.540025       -14.6948
  33   2.0000      -0.494088       -13.4448
  34   2.0000      -0.475740       -12.9456
  35   2.0000      -0.465795       -12.6749
  36   2.0000      -0.434884       -11.8338
  37   2.0000      -0.432093       -11.7578
  38   2.0000      -0.413916       -11.2632
  39   2.0000      -0.411649       -11.2015
  40   2.0000      -0.402039       -10.9400
  41   2.0000      -0.400337       -10.8937
  42   2.0000      -0.372692       -10.1415
  43   2.0000      -0.366866        -9.9829
  44   2.0000      -0.357439        -9.7264
  45   2.0000      -0.336615        -9.1598
  46   2.0000      -0.332685        -9.0528
  47   2.0000      -0.324299        -8.8246
  48   2.0000      -0.289002        -7.8641
  49   2.0000      -0.283178        -7.7057
  50   2.0000      -0.276670        -7.5286
  51   2.0000      -0.266740        -7.2584
  52   2.0000      -0.259197        -7.0531
  53   2.0000      -0.237258        -6.4561
  54   2.0000      -0.221923        -6.0388
  55   2.0000      -0.212502        -5.7825
  56   0.0000      -0.075920        -2.0659
  57   0.0000      -0.053053        -1.4437
  58   0.0000      -0.010940        -0.2977
  59   0.0000      -0.006158        -0.1676
  60   0.0000       0.017997         0.4897

MULLIKEN ATOMIC CHARGES
-----------------------
   0 C :   -0.095042
   1 O :   -0.267973
   2 C :    0.131189
   3 C :    0.043880
   4 C :   -0.093571
   5 C :   -0.099573
   6 C :    0.084021
   7 C :   -0.032863
   8 C :    0.094260
   9 O :   -0.165043
  10 O :   -0.274400
  11 Cl:   -0.047182
  12 Cl:   -0.059539
  13 H :    0.122446
  14 H :    0.109041
  15 H :    0.117938
  16 H :    0.057926
  17 H :    0.054620
  18 H :    0.319864
Sum of atomic charges:   -0.0000000

LOEWDIN ATOMIC CHARGES
----------------------
   0 C :   -0.200353
   1 O :   -0.096292
   2 C :    0.025983
   3 C :   -0.163342
   4 C :   -0.123161
   5 C :   -0.145006
   6 C :   -0.114309
   7 C :   -0.098193
   8 C :    0.024589
   9 O :   -0.148569
  10 O :   -0.185678
  11 Cl:    0.160665
  12 Cl:    0.150235
  13 H :    0.118578
  14 H :    0.110892
  15 H :    0.109585
  16 H :    0.136707
  17 H :    0.136019
  18 H :    0.301649

  Mayer bond orders larger than 0.100000
B(  0-C ,  1-O ) :   0.9365 B(  0-C , 13-H ) :   0.9619 B(  0-C , 14-H ) :   0.9478
B(  0-C , 15-H ) :   0.9394 B(  1-O ,  2-C ) :   1.2208 B(  2-C ,  3-C ) :   1.3303
B(  2-C ,  7-C ) :   1.3644 B(  3-C ,  4-C ) :   1.3831 B(  3-C , 12-Cl) :   0.9962
B(  4-C ,  5-C ) :   1.3194 B(  4-C , 16-H ) :   0.9632 B(  5-C ,  6-C ) :   1.3639
B(  5-C , 17-H ) :   0.9695 B(  6-C ,  7-C ) :   1.4285 B(  6-C , 11-Cl) :   1.0438
B(  7-C ,  8-C ) :   0.8731 B(  8-C ,  9-O ) :   2.1235 B(  8-C , 10-O ) :   1.2938
B( 10-O , 18-H ) :   0.8179

Dispersion correction           -0.027167721
FINAL SINGLE POINT ENERGY     -1452.784518793588

DIPOLE MOMENT
-------------

Method             : SCF
Type of density    : Electron Density
Multiplicity       :   1
Irrep              :   0
Energy             : -1452.8390477217722037 Eh
Relativity type    :
Basis              : AO
                                X                 Y                 Z
Electronic contribution:     -3.408874424       6.678213389      -3.059874148
Nuclear contribution   :      4.104961881      -7.042256775       3.969023864
                        -----------------------------------------
Total Dipole Moment    :      0.696087457      -0.364043386       0.909149716
                        -----------------------------------------
Magnitude (a.u.)       :      1.201506779
Magnitude (Debye)      :      3.053987529

Rotational constants in cm-1:             0.031874             0.016260             0.011245
Rotational constants in MHz :           955.573398           487.450766           337.131264

                             ****ORCA TERMINATED NORMALLY****
TOTAL RUN TIME: 0 days 0 hours 0 minutes 16 seconds 243 msec
