                         Program Version 6.0.0  -   RELEASE  -
|  1> ! r2scan-3c def2/J RI DEFGRID2 scfconv6 printgap
|  2> %output
|  3>     printlevel normal
|  4> end
|  5> * xyz 0 1
|  6> C 0.9044844311 -2.6157845764 0.8764501853
|  7> O 1.2584194308 -1.6924729772 -0.1487375725
|  8> C 0.7786642398 -0.423612783 -0.0520529343
|  9> C 1.693577591 0.633387649 -0.0175936254
| 10> C 1.2742870226 1.9505134774 0.0571966879
| 11> C -0.0761031281 2.2413687401 0.1154300495
| 12> C -0.9973812384 1.2080909246 0.0702103574
| 13> C -0.5905836907 -0.1207950777 -0.0304818944
| 14> C -1.613907297 -1.2034253665 -0.175067879
| 15> O -2.5328734492 -1.3852066255 0.5936586154
| 16> O -1.4135056642 -1.9256321395 -1.2579191717
| 17> Cl -2.6869565614 1.5799220325 0.0939855725
| 18> Cl 3.3783104991 0.2601791476 -0.0774520223
| 19> H 1.1571147284 -3.5976980077 0.4850134709
| 20> H -0.1569258628 -2.572874447 1.1251636429
| 21> H 1.4899157278 -2.4109594866 1.7769936838
| 22> H 2.0057511243 2.7409467257 0.08287208
| 23> H -0.4178975023 3.2597500813 0.185957809
| 24> H -2.0900502769 -2.6204787608 -1.3909526236
| 25> *
| 26>
| 27>                          ****END OF INPUT****

CARTESIAN COORDINATES (ANGSTROEM)
---------------------------------
  C      0.904484   -2.615785    0.876450
  O      1.258419   -1.692473   -0.148738
  C      0.778664   -0.423613   -0.052053
  C      1.693578    0.633388   -0.017594
  C      1.274287    1.950513    0.057197
  C     -0.076103    2.241369    0.115430
  C     -0.997381    1.208091    0.070210
  C     -0.590584   -0.120795   -0.030482
  C     -1.613907   -1.203425   -0.175068
  O     -2.532873   -1.385207    0.593659
  O     -1.413506   -1.925632   -1.257919
  Cl    -2.686957    1.579922    0.093986
  Cl     3.378310    0.260179   -0.077452
  H      1.157115   -3.597698    0.485013
  H     -0.156926   -2.572874    1.125164
  H      1.489916   -2.410959    1.776994
  H      2.005751    2.740947    0.082872
  H     -0.417898    3.259750    0.185958
  H     -2.090050   -2.620479   -1.390953

 Total Charge           Charge          ....    0
 Multiplicity           Mult            ....    1
 Number of Electrons    NEL             ....  112
 Basis Dimension        Dim             ....  308

ORBITAL ENERGIES
----------------

  NO   OCC          E(Eh)            E(eV)
   0   2.0000    -101.227982     -2754.5534
   1   2.0000    -101.227515     -2754.5407
   2   2.0000     -19.020193      -517.5658
   3   2.0000     -18.996971      -516.9339
   4   2.0000     -18.951434      -515.6947
   5   2.0000     -10.185019      -277.1485
   6   2.0000     -10.130710      -275.6706
   7   2.0000     -10.122324      -275.4424
   8   2.0000     -10.113186      -275.1938
   9   2.0000     -10.097123      -274.7567
  10   2.0000     -10.081836      -274.3407
  11   2.0000     -10.069637      -274.0088
  12   2.0000     -10.064084      -273.8576
  13   2.0000      -9.383753      -255.3449
  14   2.0000      -9.383427      -255.3360
  15   2.0000      -7.130186      -194.0222
  16   2.0000      -7.129895      -194.0143
  17   2.0000      -7.120056      -193.7466
  18   2.0000      -7.119743      -193.7380
  19   2.0000      -7.119305      -193.7261
  20   2.0000      -7.118899      -193.7151
  21   2.0000      -1.096842       -29.8466
  22   2.0000      -1.048585       -28.5334
  23   2.0000      -0.997447       -27.1419
  24   2.0000      -0.886767       -24.1301
  25   2.0000      -0.854195       -23.2438
  26   2.0000      -0.800573       -21.7847
  27   2.0000      -0.763959       -20.7884
  28   2.0000      -0.718258       -19.5448
  29   2.0000      -0.679864       -18.5000
  30   2.0000      -0.654620       -17.8131
  31   2.0000      -0.597872       -16.2689
  32   2.0000      -0.578891       -15.7524
  33   2.0000      -0.522706       -14.2235
  34   2.0000      -0.500289       -13.6136
  35   2.0000      -0.492582       -13.4038
  36   2.0000      -0.463677       -12.6173
  37   2.0000      -0.459600       -12.5064
  38   2.0000      -0.449168       -12.2225
  39   2.0000      -0.434456       -11.8221
  40   2.0000      -0.431563       -11.7434
  41   2.0000      -0.417809       -11.3692
  42   2.0000      -0.394857       -10.7446
  43   2.0000      -0.387602       -10.5472
  44   2.0000      -0.380025       -10.3410
  45   2.0000      -0.365436        -9.9440
  46   2.0000      -0.354814        -9.6550
  47   2.0000      -0.336635        -9.1603
  48   2.0000      -0.316478        -8.6118
  49   2.0000      -0.298227        -8.1152
  50   2.0000      -0.294817        -8.0224
  51   2.0000      -0.289500        -7.8777
  52   2.0000      -0.279870        -7.6157
  53   2.0000      -0.263503        -7.1703
  54   2.0000      -0.243572        -6.6279
  55   2.0000      -0.225940        -6.1481
  56   0.0000      -0.081892        -2.2284
  57   0.0000      -0.054790        -1.4909
  58   0.0000      -0.023708        -0.6451
  59   0.0000      -0.007936        -0.2160
  60   0.0000       0.014904         0.4056

MULLIKEN ATOMIC CHARGES
-----------------------
   0 C :   -0.257120
   1 O :   -0.217275
   2 C :    0.256082
   3 C :    0.000284
   4 C :   -0.185896
   5 C :   -0.248113
   6 C :    0.094668
   7 C :    0.051392
   8 C :    0.248486
   9 O :   -0.363894
  10 O :   -0.301226
  11 Cl:   -0.100710
  12 Cl:   -0.111604
  13 H :    0.157954
  14 H :    0.152890
  15 H :    0.153566
  16 H :    0.166409
  17 H :    0.165803
  18 H :    0.338304
Sum of atomic charges:   -0.0000000

LOEWDIN ATOMIC CHARGES
----------------------
   0 C :   -0.031181
   1 O :   -0.690647
   2 C :    0.196636
   3 C :   -0.139338
   4 C :   -0.146096
   5 C :   -0.170151
   6 C :   -0.129034
   7 C :   -0.024876
   8 C :    0.340540
   9 O :   -0.407543
  10 O :   -0.365163
  11 Cl:    0.190112
  12 Cl:    0.177430
  13 H :    0.181514
  14 H :    0.176999
  15 H :    0.168966
  16 H :    0.183788
  17 H :    0.182859
  18 H :    0.305185

  Mayer bond orders larger than 0.100000
B(  0-C ,  1-O ) :   0.8465 B(  0-C , 13-H ) :   0.9708 B(  0-C , 14-H ) :   0.9438
B(  0-C , 15-H ) :   0.9626 B(  1-O ,  2-C ) :   1.1091 B(  2-C ,  3-C ) :   1.3042
B(  2-C ,  7-C ) :   1.2906 B(  3-C ,  4-C ) :   1.3091 B(  3-C , 12-Cl) :   1.0556
B(  4-C ,  5-C ) :   1.3252 B(  4-C , 16-H ) :   0.9421 B(  5-C ,  6-C ) :   1.3467
B(  5-C , 17-H ) :   0.9364 B(  6-C ,  7-C ) :   1.2762 B(  6-C , 11-Cl) :   1.0278
B(  7-C ,  8-C ) :   0.9323 B(  8-C ,  9-O ) :   1.9304 B(  8-C , 10-O ) :   1.0640
B( 10-O , 18-H ) :   0.8555

Dispersion correction           -0.008767099
FINAL SINGLE POINT ENERGY     -1454.385020594881

DIPOLE MOMENT
-------------

Method             : SCF
Type of density    : Electron Density
Multiplicity       :   1
Irrep              :   0
Energy             : -1454.3889036245152511 Eh
Relativity type    :
Basis              : AO
                                X                 Y                 Z
Electronic contribution:     -0.631224427       7.091401413      -2.214364741
Nuclear contribution   :      0.897297678      -7.423563035       2.090792088
                        -----------------------------------------
Total Dipole Moment    :      0.266073252      -0.332161622      -0.123572652
                        -----------------------------------------
Magnitude (a.u.)       :      0.443166469
Magnitude (Debye)      :      1.126439644

Rotational constants in cm-1:             0.030443             0.016824             0.011551
Rotational constants in MHz :           912.661735           504.359508           346.294232

                             ****ORCA TERMINATED NORMALLY****
TOTAL RUN TIME: 0 days 0 hours 0 minutes 54 seconds 777 msec
