                         Program Version 6.0.0  -   RELEASE  -
|  1> ! r2scan-3c def2/J RI DEFGRID2 scfconv6 printgap
|  2> %output
|  3>     printlevel normal
|  4> end
|  5> %cpcm
|  6>     smd true
|  7>     smdsolvent "water"
|  8> end
|  9> * xyz 0 1
| 10> C 0.9044844311 -2.6157845764 0.8764501853
| 11> O 1.2584194308 -1.6924729772 -0.1487375725
| 12> C 0.7786642398 -0.423612783 -0.0520529343
| 13> C 1.693577591 0.633387649 -0.0175936254
| 14> C 1.2742870226 1.9505134774 0.0571966879
| 15> C -0.0761031281 2.2413687401 0.1154300495
| 16> C -0.9973812384 1.2080909246 0.0702103574
| 17> C -0.5905836907 -0.1207950777 -0.0304818944
| 18> C -1.613907297 -1.2034253665 -0.175067879
| 19> O -2.5328734492 -1.3852066255 0.5936586154
| 20> O -1.4135056642 -1.9256321395 -1.2579191717
| 21> Cl -2.6869565614 1.5799220325 0.0939855725
| 22> Cl 3.3783104991 0.2601791476 -0.0774520223
| 23> H 1.1571147284 -3.5976980077 0.4850134709
| 24> H -0.1569258628 -2.572874447 1.1251636429
| 25> H 1.4899157278 -2.4109594866 1.7769936838
| 26> H 2.0057511243 2.7409467257 0.08287208
| 27> H -0.4178975023 3.2597500813 0.185957809
| 28> H -2.0900502769 -2.6204787608 -1.3909526236
| 29> *
| 30>
| 31>                          ****END OF INPUT****

CARTESIAN COORDINATES (ANGSTROEM)
---------------------------------
  C      0.904484   -2.615785    0.876450
  O      1.258419   -1.692473   -0.148738
  C      0.778664   -0.423613   -0.052053
  C      1.693578    0.633388   -0.017594
  C      1.274287    1.950513    0.057197
  C     -0.076103    2.241369    0.115430
  C     -0.997381    1.208091    0.070210
  C     -0.590584   -0.120795   -0.030482
  C     -1.613907   -1.203425   -0.175068
  O     -2.532873   -1.385207    0.593659
  O     -1.413506   -1.925632   -1.257919
  Cl    -2.686957    1.579922    0.093986
  Cl     3.378310    0.260179   -0.077452
  H      1.157115   -3.597698    0.485013
  H     -0.156926   -2.572874    1.125164
  H      1.489916   -2.410959    1.776994
  H      2.005751    2.740947    0.082872
  H     -0.417898    3.259750    0.185958
  H     -2.090050   -2.620479   -1.390953

 Total Charge           Charge          ....    0
 Multiplicity           Mult            ....    1
 Number of Electrons    NEL             ....  112
 Basis Dimension        Dim             ....  308

ORBITAL ENERGIES
----------------

  NO   OCC          E(Eh)            E(eV)
   0   2.0000    -101.231714     -2754.6550
   1   2.0000    -101.230121     -2754.6116
   2   2.0000     -19.013279      -517.3776
   3   2.0000     -18.994800      -516.8748
   4   2.0000     -18.957316      -515.8548
   5   2.0000     -10.188560      -277.2448
   6   2.0000     -10.128649      -275.6145
   7   2.0000     -10.120715      -275.3987
   8   2.0000     -10.110630      -275.1242
   9   2.0000     -10.080655      -274.3086
  10   2.0000     -10.080347      -274.3002
  11   2.0000     -10.062550      -273.8159
  12   2.0000     -10.057352      -273.6745
  13   2.0000      -9.387768      -255.4542
  14   2.0000      -9.385990      -255.4058
  15   2.0000      -7.134093      -194.1285
  16   2.0000      -7.132303      -194.0798
  17   2.0000      -7.124122      -193.8572
  18   2.0000      -7.123318      -193.8353
  19   2.0000      -7.122339      -193.8087
  20   2.0000      -7.121599      -193.7886
  21   2.0000      -1.092992       -29.7418
  22   2.0000      -1.045900       -28.4604
  23   2.0000      -1.000381       -27.2218
  24   2.0000      -0.885633       -24.0993
  25   2.0000      -0.855484       -23.2789
  26   2.0000      -0.801437       -21.8082
  27   2.0000      -0.759210       -20.6592
  28   2.0000      -0.714421       -19.4404
  29   2.0000      -0.673137       -18.3170
  30   2.0000      -0.646596       -17.5948
  31   2.0000      -0.590708       -16.0740
  32   2.0000      -0.574827       -15.6418
  33   2.0000      -0.518661       -14.1135
  34   2.0000      -0.497226       -13.5302
  35   2.0000      -0.487288       -13.2598
  36   2.0000      -0.469537       -12.7767
  37   2.0000      -0.453618       -12.3436
  38   2.0000      -0.443839       -12.0775
  39   2.0000      -0.433334       -11.7916
  40   2.0000      -0.431097       -11.7308
  41   2.0000      -0.409064       -11.1312
  42   2.0000      -0.390271       -10.6198
  43   2.0000      -0.383696       -10.4409
  44   2.0000      -0.374827       -10.1996
  45   2.0000      -0.362687        -9.8692
  46   2.0000      -0.355361        -9.6699
  47   2.0000      -0.331349        -9.0165
  48   2.0000      -0.317455        -8.6384
  49   2.0000      -0.300729        -8.1833
  50   2.0000      -0.297838        -8.1046
  51   2.0000      -0.292312        -7.9542
  52   2.0000      -0.277457        -7.5500
  53   2.0000      -0.268403        -7.3036
  54   2.0000      -0.244001        -6.6396
  55   2.0000      -0.225311        -6.1310
  56   0.0000      -0.080390        -2.1875
  57   0.0000      -0.052442        -1.4270
  58   0.0000      -0.023244        -0.6325
  59   0.0000      -0.007035        -0.1914
  60   0.0000       0.013451         0.3660

MULLIKEN ATOMIC CHARGES
-----------------------
   0 C :   -0.274106
   1 O :   -0.260917
   2 C :    0.281290
   3 C :   -0.002832
   4 C :   -0.197892
   5 C :   -0.264479
   6 C :    0.086424
   7 C :    0.052182
   8 C :    0.268870
   9 O :   -0.431027
  10 O :   -0.322059
  11 Cl:   -0.121159
  12 Cl:   -0.130197
  13 H :    0.181024
  14 H :    0.166396
  15 H :    0.172914
  16 H :    0.203576
  17 H :    0.201751
  18 H :    0.390239
Sum of atomic charges:   -0.0000000

LOEWDIN ATOMIC CHARGES
----------------------
   0 C :   -0.026961
   1 O :   -0.715184
   2 C :    0.197517
   3 C :   -0.141882
   4 C :   -0.135879
   5 C :   -0.162895
   6 C :   -0.134340
   7 C :   -0.028538
   8 C :    0.349467
   9 O :   -0.458694
  10 O :   -0.354064
  11 Cl:    0.174149
  12 Cl:    0.164983
  13 H :    0.190377
  14 H :    0.182599
  15 H :    0.177029
  16 H :    0.197739
  17 H :    0.196050
  18 H :    0.328525

  Mayer bond orders larger than 0.100000
B(  0-C ,  1-O ) :   0.8396 B(  0-C , 13-H ) :   0.9610 B(  0-C , 14-H ) :   0.9345
B(  0-C , 15-H ) :   0.9564 B(  1-O ,  2-C ) :   1.1133 B(  2-C ,  3-C ) :   1.2816
B(  2-C ,  7-C ) :   1.2945 B(  3-C ,  4-C ) :   1.2844 B(  3-C , 12-Cl) :   1.0304
B(  4-C ,  5-C ) :   1.3480 B(  4-C , 16-H ) :   0.9405 B(  5-C ,  6-C ) :   1.3200
B(  5-C , 17-H ) :   0.9374 B(  6-C ,  7-C ) :   1.2475 B(  6-C , 11-Cl) :   1.0206
B(  7-C ,  8-C ) :   0.9381 B(  8-C ,  9-O ) :   1.8779 B(  8-C , 10-O ) :   1.1053
B( 10-O , 18-H ) :   0.8288

Dispersion correction           -0.008767099
FINAL SINGLE POINT ENERGY     -1454.398022608221

DIPOLE MOMENT
-------------

Method             : SCF
Type of density    : Electron Density
Multiplicity       :   1
Irrep              :   0
Energy             : -1454.4019056378558616 Eh
Relativity type    :
Basis              : AO
                                X                 Y                 Z
Electronic contribution:     -0.475060364       7.131072567      -2.257880172
Nuclear contribution   :      0.897297678      -7.423563035       2.090792088
                        -----------------------------------------
Total Dipole Moment    :      0.422237314      -0.292490468      -0.167088084
                        -----------------------------------------
Magnitude (a.u.)       :      0.540142066
Magnitude (Debye)      :      1.372932022

Rotational constants in cm-1:             0.030443             0.016824             0.011551
Rotational constants in MHz :           912.661735           504.359508           346.294232

                             ****ORCA TERMINATED NORMALLY****
TOTAL RUN TIME: 0 days 0 hours 0 minutes 57 seconds 639 msec
