                         Program Version 6.0.0  -   RELEASE  -
|  1> ! pbe def2-sv(p) def2/J RI DEFGRID1 loosescf d4 GCP(DFT/SV(P)) printgap
|  2> %output
|  3>     printlevel normal
|  4> end
|  5> * xyz 0 1
|  6> C 1.9772445911 -0.8237427837 -0.0299422625
|  7> C 1.3294389418 0.5318776207 0.2298490805
|  8> C -0.0497983176 0.6496094121 -0.4195899382
|  9> C -1.0965216674 -0.1788909244 0.2662846138
| 10> C -2.3841419824 -0.1363738447 -0.0229047613
| 11> H 1.3542086112 -1.6312364907 0.3467341074
| 12> H 2.9466475231 -0.8824662944 0.4592661839
| 13> H 2.1210159078 -0.9760284254 -1.0975758326
| 14> H 1.2365100454 0.6952709356 1.3059106265
| 15> H 1.9772066456 1.3159399925 -0.1683252379
| 16> H 0.0214311736 0.3424908075 -1.4671317731
| 17> H -0.3674873319 1.6955137171 -0.4152659255
| 18> H -0.7452796137 -0.8380813597 1.0486011964
| 19> H -3.107683696 -0.7388205035 0.4989776609
| 20> H -2.7700001475 0.5112273371 -0.7935639471
| 21> *
| 22>
| 23>                          ****END OF INPUT****

CARTESIAN COORDINATES (ANGSTROEM)
---------------------------------
  C      1.977245   -0.823743   -0.029942
  C      1.329439    0.531878    0.229849
  C     -0.049798    0.649609   -0.419590
  C     -1.096522   -0.178891    0.266285
  C     -2.384142   -0.136374   -0.022905
  H      1.354209   -1.631236    0.346734
  H      2.946648   -0.882466    0.459266
  H      2.121016   -0.976028   -1.097576
  H      1.236510    0.695271    1.305911
  H      1.977207    1.315940   -0.168325
  H      0.021431    0.342491   -1.467132
  H     -0.367487    1.695514   -0.415266
  H     -0.745280   -0.838081    1.048601
  H     -3.107684   -0.738821    0.498978
  H     -2.770000    0.511227   -0.793564

 Total Charge           Charge          ....    0
 Multiplicity           Mult            ....    1
 Number of Electrons    NEL             ....   40
 Basis Dimension        Dim             ....   90

ORBITAL ENERGIES
----------------

  NO   OCC          E(Eh)            E(eV)
   0   2.0000      -9.887521      -269.0531
   1   2.0000      -9.885488      -268.9978
   2   2.0000      -9.885235      -268.9909
   3   2.0000      -9.874211      -268.6909
   4   2.0000      -9.871673      -268.6219
   5   2.0000      -0.727150       -19.7868
   6   2.0000      -0.673768       -18.3342
   7   2.0000      -0.604300       -16.4438
   8   2.0000      -0.527722       -14.3600
   9   2.0000      -0.492796       -13.4097
  10   2.0000      -0.414102       -11.2683
  11   2.0000      -0.408231       -11.1085
  12   2.0000      -0.388900       -10.5825
  13   2.0000      -0.356677        -9.7057
  14   2.0000      -0.350625        -9.5410
  15   2.0000      -0.316137        -8.6025
  16   2.0000      -0.302126        -8.2213
  17   2.0000      -0.291211        -7.9243
  18   2.0000      -0.281581        -7.6622
  19   2.0000      -0.221373        -6.0239
  20   0.0000      -0.018183        -0.4948
  21   0.0000       0.045143         1.2284
  22   0.0000       0.061015         1.6603
  23   0.0000       0.078240         2.1290
  24   0.0000       0.084232         2.2921

MULLIKEN ATOMIC CHARGES
-----------------------
   0 C :   -0.290739
   1 C :   -0.190205
   2 C :   -0.118991
   3 C :   -0.153664
   4 C :   -0.192721
   5 H :    0.105719
   6 H :    0.105637
   7 H :    0.099429
   8 H :    0.088325
   9 H :    0.085851
  10 H :    0.100548
  11 H :    0.100663
  12 H :    0.078104
  13 H :    0.095658
  14 H :    0.086387
Sum of atomic charges:    0.0000000

LOEWDIN ATOMIC CHARGES
----------------------
   0 C :   -0.342167
   1 C :   -0.234076
   2 C :   -0.227959
   3 C :   -0.139092
   4 C :   -0.255476
   5 H :    0.116811
   6 H :    0.119699
   7 H :    0.117710
   8 H :    0.115486
   9 H :    0.116711
  10 H :    0.127337
  11 H :    0.127825
  12 H :    0.118993
  13 H :    0.120585
  14 H :    0.117614

  Mayer bond orders larger than 0.100000
B(  0-C ,  1-C ) :   1.1513 B(  0-C ,  5-H ) :   0.9541 B(  0-C ,  6-H ) :   0.9532
B(  0-C ,  7-H ) :   0.9530 B(  1-C ,  2-C ) :   1.1150 B(  1-C ,  8-H ) :   0.9295
B(  1-C ,  9-H ) :   0.9269 B(  2-C ,  3-C ) :   1.0542 B(  2-C , 10-H ) :   0.9127
B(  2-C , 11-H ) :   0.9150 B(  3-C ,  4-C ) :   2.0713 B(  3-C , 12-H ) :   0.9370
B(  4-C , 13-H ) :   0.9239 B(  4-C , 14-H ) :   0.9220

Dispersion correction           -0.009809806
FINAL SINGLE POINT ENERGY      -196.022716377165

DIPOLE MOMENT
-------------

Method             : SCF
Type of density    : Electron Density
Multiplicity       :   1
Irrep              :   0
Energy             :  -196.0714363866312056 Eh
Relativity type    :
Basis              : AO
                                X                 Y                 Z
Electronic contribution:     -2.354071563       0.533314997       0.237909993
Nuclear contribution   :      2.501699030      -0.474893275      -0.264914233
                        -----------------------------------------
Total Dipole Moment    :      0.147627467       0.058421721      -0.027004240
                        -----------------------------------------
Magnitude (a.u.)       :      0.161047184
Magnitude (Debye)      :      0.409349411

Rotational constants in cm-1:             0.429031             0.084121             0.076948
Rotational constants in MHz :         12862.022088          2521.870920          2306.834080

                             ****ORCA TERMINATED NORMALLY****
TOTAL RUN TIME: 0 days 0 hours 0 minutes 6 seconds 566 msec
