                         Program Version 6.0.0  -   RELEASE  -
|  1> ! r2scan-3c def2/J RI DEFGRID2 scfconv6 printgap
|  2> %output
|  3>     printlevel normal
|  4> end
|  5> * xyz 0 1
|  6> C 2.2745707078 0.9418249266 0.8163902749
|  7> C 1.4214465287 -0.313214773 0.6633958862
|  8> C 0.33253055 -0.1720121527 -0.422767025
|  9> H 0.4785042608 0.784420036 -0.9372522258
| 10> C 0.4913020434 -1.2866308932 -1.4587485073
| 11> C -1.0816751268 -0.1562924668 0.1913719111
| 12> C -1.2688237479 1.0595153199 1.1000390079
| 13> C -2.1756875347 -0.1396949925 -0.8774235333
| 14> H 3.0250953097 0.7991651523 1.5909675782
| 15> H 2.7860519705 1.1678458816 -0.1167710563
| 16> H 1.6616955363 1.79828648 1.0863343264
| 17> H 0.9631051525 -0.5568770203 1.6233904091
| 18> H 2.0789627659 -1.1469252714 0.4097097661
| 19> H -0.1568709505 -1.1279740127 -2.3155029787
| 20> H 1.5173380839 -1.3129911265 -1.8192647129
| 21> H 0.2563828491 -2.2528503875 -1.0166171053
| 22> H -1.2031485986 -1.0652457962 0.7927630978
| 23> H -1.1678892246 1.9764637808 0.5228600886
| 24> H -0.5387800445 1.075897763 1.9037076324
| 25> H -2.2605551856 1.0451772315 1.5469346105
| 26> H -2.2086762801 -1.0742810238 -1.4292038462
| 27> H -2.0085672502 0.6758992284 -1.5779628656
| 28> H -3.1471362844 0.0065200256 -0.4101697213
| 29> *
| 30>
| 31>                          ****END OF INPUT****

CARTESIAN COORDINATES (ANGSTROEM)
---------------------------------
  C      2.274571    0.941825    0.816390
  C      1.421447   -0.313215    0.663396
  C      0.332531   -0.172012   -0.422767
  H      0.478504    0.784420   -0.937252
  C      0.491302   -1.286631   -1.458749
  C     -1.081675   -0.156292    0.191372
  C     -1.268824    1.059515    1.100039
  C     -2.175688   -0.139695   -0.877424
  H      3.025095    0.799165    1.590968
  H      2.786052    1.167846   -0.116771
  H      1.661696    1.798286    1.086334
  H      0.963105   -0.556877    1.623390
  H      2.078963   -1.146925    0.409710
  H     -0.156871   -1.127974   -2.315503
  H      1.517338   -1.312991   -1.819265
  H      0.256383   -2.252850   -1.016617
  H     -1.203149   -1.065246    0.792763
  H     -1.167889    1.976464    0.522860
  H     -0.538780    1.075898    1.903708
  H     -2.260555    1.045177    1.546935
  H     -2.208676   -1.074281   -1.429204
  H     -2.008567    0.675899   -1.577963
  H     -3.147136    0.006520   -0.410170

 Total Charge           Charge          ....    0
 Multiplicity           Mult            ....    1
 Number of Electrons    NEL             ....   58
 Basis Dimension        Dim             ....  213

ORBITAL ENERGIES
----------------

  NO   OCC          E(Eh)            E(eV)
   0   2.0000     -10.029537      -272.9176
   1   2.0000     -10.026955      -272.8473
   2   2.0000     -10.019364      -272.6408
   3   2.0000     -10.013955      -272.4936
   4   2.0000     -10.012127      -272.4438
   5   2.0000     -10.011803      -272.4350
   6   2.0000     -10.011715      -272.4326
   7   2.0000      -0.788418       -21.4539
   8   2.0000      -0.727825       -19.8051
   9   2.0000      -0.686274       -18.6745
  10   2.0000      -0.645267       -17.5586
  11   2.0000      -0.599201       -16.3051
  12   2.0000      -0.556571       -15.1451
  13   2.0000      -0.516997       -14.0682
  14   2.0000      -0.432715       -11.7748
  15   2.0000      -0.421501       -11.4696
  16   2.0000      -0.406026       -11.0485
  17   2.0000      -0.389906       -10.6099
  18   2.0000      -0.377132       -10.2623
  19   2.0000      -0.367807       -10.0085
  20   2.0000      -0.352393        -9.5891
  21   2.0000      -0.345485        -9.4011
  22   2.0000      -0.331463        -9.0196
  23   2.0000      -0.321464        -8.7475
  24   2.0000      -0.306652        -8.3444
  25   2.0000      -0.302954        -8.2438
  26   2.0000      -0.283381        -7.7112
  27   2.0000      -0.273945        -7.4544
  28   2.0000      -0.268841        -7.3155
  29   0.0000       0.084139         2.2896
  30   0.0000       0.103742         2.8230
  31   0.0000       0.108653         2.9566
  32   0.0000       0.115917         3.1543
  33   0.0000       0.122439         3.3317

MULLIKEN ATOMIC CHARGES
-----------------------
   0 C :   -0.485720
   1 C :   -0.313788
   2 C :   -0.001795
   3 H :    0.166215
   4 C :   -0.536916
   5 C :   -0.058019
   6 C :   -0.521925
   7 C :   -0.515988
   8 H :    0.144590
   9 H :    0.145549
  10 H :    0.150305
  11 H :    0.152460
  12 H :    0.150376
  13 H :    0.154769
  14 H :    0.147358
  15 H :    0.155820
  16 H :    0.158046
  17 H :    0.156871
  18 H :    0.152103
  19 H :    0.145944
  20 H :    0.155845
  21 H :    0.155612
  22 H :    0.142286
Sum of atomic charges:   -0.0000000

LOEWDIN ATOMIC CHARGES
----------------------
   0 C :   -0.422515
   1 C :   -0.310320
   2 C :   -0.234438
   3 H :    0.159528
   4 C :   -0.414787
   5 C :   -0.239802
   6 C :   -0.416937
   7 C :   -0.417849
   8 H :    0.148777
   9 H :    0.148820
  10 H :    0.149622
  11 H :    0.155696
  12 H :    0.155765
  13 H :    0.152494
  14 H :    0.152325
  15 H :    0.155080
  16 H :    0.156973
  17 H :    0.154254
  18 H :    0.153734
  19 H :    0.152064
  20 H :    0.153439
  21 H :    0.155052
  22 H :    0.153025

  Mayer bond orders larger than 0.100000
B(  0-C ,  1-C ) :   0.8945 B(  0-C ,  8-H ) :   0.9756 B(  0-C ,  9-H ) :   0.9849
B(  0-C , 10-H ) :   0.9768 B(  1-C ,  2-C ) :   0.8049 B(  1-C , 11-H ) :   0.9826
B(  1-C , 12-H ) :   0.9775 B(  2-C ,  3-H ) :   0.9949 B(  2-C ,  4-C ) :   0.8531
B(  2-C ,  5-C ) :   0.8707 B(  4-C , 13-H ) :   0.9749 B(  4-C , 14-H ) :   0.9782
B(  4-C , 15-H ) :   0.9871 B(  5-C ,  6-C ) :   0.8903 B(  5-C ,  7-C ) :   0.8781
B(  5-C , 16-H ) :   0.9689 B(  6-C , 17-H ) :   0.9911 B(  6-C , 18-H ) :   0.9684
B(  6-C , 19-H ) :   0.9741 B(  7-C , 20-H ) :   0.9734 B(  7-C , 21-H ) :   0.9881
B(  7-C , 22-H ) :   0.9745

Dispersion correction           -0.006516352
FINAL SINGLE POINT ENERGY      -276.283502968361

DIPOLE MOMENT
-------------

Method             : SCF
Type of density    : Electron Density
Multiplicity       :   1
Irrep              :   0
Energy             :  -276.2881530037034281 Eh
Relativity type    :
Basis              : AO
                                X                 Y                 Z
Electronic contribution:     -0.067398297      -0.764183475       0.151041679
Nuclear contribution   :      0.070842550       0.743521966      -0.137043811
                        -----------------------------------------
Total Dipole Moment    :      0.003444253      -0.020661510       0.013997868
                        -----------------------------------------
Magnitude (a.u.)       :      0.025193276
Magnitude (Debye)      :      0.064036219

Rotational constants in cm-1:             0.108352             0.063219             0.044436
Rotational constants in MHz :          3248.300406          1895.270667          1332.168266

                             ****ORCA TERMINATED NORMALLY****
TOTAL RUN TIME: 0 days 0 hours 0 minutes 20 seconds 20 msec
