                         Program Version 6.0.0  -   RELEASE  -
|  1> ! r2scan-3c def2/J RI DEFGRID2 scfconv6 printgap
|  2> %output
|  3>     printlevel normal
|  4> end
|  5> %cpcm
|  6>     smd true
|  7>     smdsolvent "water"
|  8> end
|  9> * xyz 0 1
| 10> C 2.2745707078 0.9418249266 0.8163902749
| 11> C 1.4214465287 -0.313214773 0.6633958862
| 12> C 0.33253055 -0.1720121527 -0.422767025
| 13> H 0.4785042608 0.784420036 -0.9372522258
| 14> C 0.4913020434 -1.2866308932 -1.4587485073
| 15> C -1.0816751268 -0.1562924668 0.1913719111
| 16> C -1.2688237479 1.0595153199 1.1000390079
| 17> C -2.1756875347 -0.1396949925 -0.8774235333
| 18> H 3.0250953097 0.7991651523 1.5909675782
| 19> H 2.7860519705 1.1678458816 -0.1167710563
| 20> H 1.6616955363 1.79828648 1.0863343264
| 21> H 0.9631051525 -0.5568770203 1.6233904091
| 22> H 2.0789627659 -1.1469252714 0.4097097661
| 23> H -0.1568709505 -1.1279740127 -2.3155029787
| 24> H 1.5173380839 -1.3129911265 -1.8192647129
| 25> H 0.2563828491 -2.2528503875 -1.0166171053
| 26> H -1.2031485986 -1.0652457962 0.7927630978
| 27> H -1.1678892246 1.9764637808 0.5228600886
| 28> H -0.5387800445 1.075897763 1.9037076324
| 29> H -2.2605551856 1.0451772315 1.5469346105
| 30> H -2.2086762801 -1.0742810238 -1.4292038462
| 31> H -2.0085672502 0.6758992284 -1.5779628656
| 32> H -3.1471362844 0.0065200256 -0.4101697213
| 33> *
| 34>
| 35>                          ****END OF INPUT****

CARTESIAN COORDINATES (ANGSTROEM)
---------------------------------
  C      2.274571    0.941825    0.816390
  C      1.421447   -0.313215    0.663396
  C      0.332531   -0.172012   -0.422767
  H      0.478504    0.784420   -0.937252
  C      0.491302   -1.286631   -1.458749
  C     -1.081675   -0.156292    0.191372
  C     -1.268824    1.059515    1.100039
  C     -2.175688   -0.139695   -0.877424
  H      3.025095    0.799165    1.590968
  H      2.786052    1.167846   -0.116771
  H      1.661696    1.798286    1.086334
  H      0.963105   -0.556877    1.623390
  H      2.078963   -1.146925    0.409710
  H     -0.156871   -1.127974   -2.315503
  H      1.517338   -1.312991   -1.819265
  H      0.256383   -2.252850   -1.016617
  H     -1.203149   -1.065246    0.792763
  H     -1.167889    1.976464    0.522860
  H     -0.538780    1.075898    1.903708
  H     -2.260555    1.045177    1.546935
  H     -2.208676   -1.074281   -1.429204
  H     -2.008567    0.675899   -1.577963
  H     -3.147136    0.006520   -0.410170

 Total Charge           Charge          ....    0
 Multiplicity           Mult            ....    1
 Number of Electrons    NEL             ....   58
 Basis Dimension        Dim             ....  213

ORBITAL ENERGIES
----------------

  NO   OCC          E(Eh)            E(eV)
   0   2.0000     -10.021704      -272.7044
   1   2.0000     -10.019071      -272.6328
   2   2.0000     -10.011531      -272.4276
   3   2.0000     -10.006705      -272.2963
   4   2.0000     -10.004069      -272.2246
   5   2.0000     -10.003983      -272.2222
   6   2.0000     -10.003910      -272.2202
   7   2.0000      -0.780612       -21.2415
   8   2.0000      -0.720370       -19.6023
   9   2.0000      -0.679034       -18.4775
  10   2.0000      -0.638000       -17.3609
  11   2.0000      -0.592087       -16.1115
  12   2.0000      -0.549321       -14.9478
  13   2.0000      -0.509169       -13.8552
  14   2.0000      -0.424797       -11.5593
  15   2.0000      -0.413954       -11.2643
  16   2.0000      -0.398669       -10.8483
  17   2.0000      -0.382416       -10.4061
  18   2.0000      -0.369709       -10.0603
  19   2.0000      -0.360353        -9.8057
  20   2.0000      -0.344764        -9.3815
  21   2.0000      -0.337993        -9.1973
  22   2.0000      -0.324179        -8.8214
  23   2.0000      -0.313775        -8.5383
  24   2.0000      -0.299093        -8.1387
  25   2.0000      -0.295197        -8.0327
  26   2.0000      -0.275267        -7.4904
  27   2.0000      -0.266332        -7.2473
  28   2.0000      -0.261181        -7.1071
  29   0.0000       0.092421         2.5149
  30   0.0000       0.110786         3.0146
  31   0.0000       0.116937         3.1820
  32   0.0000       0.123417         3.3584
  33   0.0000       0.128881         3.5070

MULLIKEN ATOMIC CHARGES
-----------------------
   0 C :   -0.524085
   1 C :   -0.317619
   2 C :   -0.001966
   3 H :    0.172164
   4 C :   -0.569752
   5 C :   -0.041558
   6 C :   -0.563636
   7 C :   -0.554904
   8 H :    0.153510
   9 H :    0.155813
  10 H :    0.158299
  11 H :    0.161027
  12 H :    0.155939
  13 H :    0.162411
  14 H :    0.157530
  15 H :    0.163821
  16 H :    0.163970
  17 H :    0.166297
  18 H :    0.162407
  19 H :    0.157051
  20 H :    0.164007
  21 H :    0.165827
  22 H :    0.153447
Sum of atomic charges:   -0.0000000

LOEWDIN ATOMIC CHARGES
----------------------
   0 C :   -0.430382
   1 C :   -0.312339
   2 C :   -0.233462
   3 H :    0.161171
   4 C :   -0.422310
   5 C :   -0.238034
   6 C :   -0.425050
   7 C :   -0.426016
   8 H :    0.150573
   9 H :    0.151063
  10 H :    0.151290
  11 H :    0.158039
  12 H :    0.156916
  13 H :    0.154026
  14 H :    0.154477
  15 H :    0.156969
  16 H :    0.158734
  17 H :    0.156231
  18 H :    0.156376
  19 H :    0.154109
  20 H :    0.155257
  21 H :    0.157352
  22 H :    0.155010

  Mayer bond orders larger than 0.100000
B(  0-C ,  1-C ) :   0.8868 B(  0-C ,  8-H ) :   0.9738 B(  0-C ,  9-H ) :   0.9822
B(  0-C , 10-H ) :   0.9755 B(  1-C ,  2-C ) :   0.8018 B(  1-C , 11-H ) :   0.9822
B(  1-C , 12-H ) :   0.9775 B(  2-C ,  3-H ) :   0.9952 B(  2-C ,  4-C ) :   0.8516
B(  2-C ,  5-C ) :   0.8706 B(  4-C , 13-H ) :   0.9730 B(  4-C , 14-H ) :   0.9757
B(  4-C , 15-H ) :   0.9843 B(  5-C ,  6-C ) :   0.8828 B(  5-C ,  7-C ) :   0.8714
B(  5-C , 16-H ) :   0.9694 B(  6-C , 17-H ) :   0.9889 B(  6-C , 18-H ) :   0.9662
B(  6-C , 19-H ) :   0.9725 B(  7-C , 20-H ) :   0.9705 B(  7-C , 21-H ) :   0.9857
B(  7-C , 22-H ) :   0.9734

Dispersion correction           -0.006516352
FINAL SINGLE POINT ENERGY      -276.279579333697

DIPOLE MOMENT
-------------

Method             : SCF
Type of density    : Electron Density
Multiplicity       :   1
Irrep              :   0
Energy             :  -276.2842293690394513 Eh
Relativity type    :
Basis              : AO
                                X                 Y                 Z
Electronic contribution:     -0.063061920      -0.768700105       0.158984907
Nuclear contribution   :      0.070842550       0.743521966      -0.137043811
                        -----------------------------------------
Total Dipole Moment    :      0.007780630      -0.025178139       0.021941096
                        -----------------------------------------
Magnitude (a.u.)       :      0.034291232
Magnitude (Debye)      :      0.087161385

Rotational constants in cm-1:             0.108352             0.063219             0.044436
Rotational constants in MHz :          3248.300406          1895.270667          1332.168266

                             ****ORCA TERMINATED NORMALLY****
TOTAL RUN TIME: 0 days 0 hours 0 minutes 24 seconds 53 msec
