                         Program Version 6.0.0  -   RELEASE  -
|  1> ! pbe def2-sv(p) def2/J RI DEFGRID1 loosescf d4 GCP(DFT/SV(P)) printgap
|  2> %output
|  3>     printlevel normal
|  4> end
|  5> * xyz 0 1
|  6> C -3.7481664334 -0.1118919293 -0.4110044641
|  7> C -2.2439971519 -0.1717877558 -0.6452622679
|  8> C -1.4578348485 0.1613947699 0.628953294
|  9> C 0.0194341659 0.0962864515 0.3703842993
| 10> C 0.7147354702 -1.0961026913 0.5289876871
| 11> C 2.0683344884 -1.168240196 0.2513619407
| 12> C 2.7469375646 -0.0459240676 -0.1925610813
| 13> C 2.0636683699 1.1471610969 -0.3563904258
| 14> C 0.7101056776 1.2154984304 -0.0777272602
| 15> H -4.0429822753 -0.8231061442 0.3573147239
| 16> H -4.0442557951 0.8835934736 -0.0878848459
| 17> H -4.2853933118 -0.3508444281 -1.3254656517
| 18> H -1.9651839972 0.5342511766 -1.4306633902
| 19> H -1.9638064328 -1.1711462448 -0.9856333203
| 20> H -1.730267119 -0.5495795316 1.4114378443
| 21> H -1.7327927954 1.1630977219 0.9651080422
| 22> H 0.1903056365 -1.9748403553 0.8765507273
| 23> H 2.5956301072 -2.1018104947 0.3823212714
| 24> H 3.8035191501 -0.1004905596 -0.4085384413
| 25> H 2.587252035 2.0266975547 -0.701396026
| 26> H 0.1819692184 2.1496430179 -0.2060081816
| 27> *
| 28>
| 29>                          ****END OF INPUT****

CARTESIAN COORDINATES (ANGSTROEM)
---------------------------------
  C     -3.748166   -0.111892   -0.411004
  C     -2.243997   -0.171788   -0.645262
  C     -1.457835    0.161395    0.628953
  C      0.019434    0.096286    0.370384
  C      0.714735   -1.096103    0.528988
  C      2.068334   -1.168240    0.251362
  C      2.746938   -0.045924   -0.192561
  C      2.063668    1.147161   -0.356390
  C      0.710106    1.215498   -0.077727
  H     -4.042982   -0.823106    0.357315
  H     -4.044256    0.883593   -0.087885
  H     -4.285393   -0.350844   -1.325466
  H     -1.965184    0.534251   -1.430663
  H     -1.963806   -1.171146   -0.985633
  H     -1.730267   -0.549580    1.411438
  H     -1.732793    1.163098    0.965108
  H      0.190306   -1.974840    0.876551
  H      2.595630   -2.101810    0.382321
  H      3.803519   -0.100491   -0.408538
  H      2.587252    2.026698   -0.701396
  H      0.181969    2.149643   -0.206008

 Total Charge           Charge          ....    0
 Multiplicity           Mult            ....    1
 Number of Electrons    NEL             ....   66
 Basis Dimension        Dim             ....  150

ORBITAL ENERGIES
----------------

  NO   OCC          E(Eh)            E(eV)
   0   2.0000      -9.898633      -269.3555
   1   2.0000      -9.888106      -269.0691
   2   2.0000      -9.887235      -269.0453
   3   2.0000      -9.887091      -269.0414
   4   2.0000      -9.887073      -269.0409
   5   2.0000      -9.886509      -269.0256
   6   2.0000      -9.886484      -269.0249
   7   2.0000      -9.884878      -268.9812
   8   2.0000      -9.874928      -268.7104
   9   2.0000      -0.775739       -21.1089
  10   2.0000      -0.719343       -19.5743
  11   2.0000      -0.669258       -18.2114
  12   2.0000      -0.665643       -18.1131
  13   2.0000      -0.604877       -16.4596
  14   2.0000      -0.539912       -14.6918
  15   2.0000      -0.533930       -14.5290
  16   2.0000      -0.511950       -13.9309
  17   2.0000      -0.459824       -12.5125
  18   2.0000      -0.426132       -11.5956
  19   2.0000      -0.402317       -10.9476
  20   2.0000      -0.392792       -10.6884
  21   2.0000      -0.380359       -10.3501
  22   2.0000      -0.370447       -10.0804
  23   2.0000      -0.369025       -10.0417
  24   2.0000      -0.334466        -9.1013
  25   2.0000      -0.332793        -9.0558
  26   2.0000      -0.318177        -8.6580
  27   2.0000      -0.299695        -8.1551
  28   2.0000      -0.298111        -8.1120
  29   2.0000      -0.286956        -7.8085
  30   2.0000      -0.284279        -7.7356
  31   2.0000      -0.225275        -6.1300
  32   2.0000      -0.215971        -5.8769
  33   0.0000      -0.030736        -0.8364
  34   0.0000      -0.029093        -0.7917
  35   0.0000       0.037730         1.0267
  36   0.0000       0.051134         1.3914
  37   0.0000       0.064557         1.7567

MULLIKEN ATOMIC CHARGES
-----------------------
   0 C :   -0.249599
   1 C :   -0.202689
   2 C :   -0.122144
   3 C :    0.091067
   4 C :   -0.115405
   5 C :   -0.047901
   6 C :   -0.050342
   7 C :   -0.048058
   8 C :   -0.115394
   9 H :    0.096836
  10 H :    0.096727
  11 H :    0.105217
  12 H :    0.088845
  13 H :    0.088567
  14 H :    0.080956
  15 H :    0.080943
  16 H :    0.036412
  17 H :    0.049326
  18 H :    0.050893
  19 H :    0.049358
  20 H :    0.036388
Sum of atomic charges:    0.0000000

LOEWDIN ATOMIC CHARGES
----------------------
   0 C :   -0.340926
   1 C :   -0.227063
   2 C :   -0.209985
   3 C :   -0.035484
   4 C :   -0.124467
   5 C :   -0.121807
   6 C :   -0.130010
   7 C :   -0.121836
   8 C :   -0.124410
   9 H :    0.117037
  10 H :    0.117005
  11 H :    0.120324
  12 H :    0.117060
  13 H :    0.117010
  14 H :    0.120338
  15 H :    0.120347
  16 H :    0.119932
  17 H :    0.122417
  18 H :    0.122177
  19 H :    0.122421
  20 H :    0.119921

  Mayer bond orders larger than 0.100000
B(  0-C ,  1-C ) :   1.1495 B(  0-C ,  9-H ) :   0.9535 B(  0-C , 10-H ) :   0.9535
B(  0-C , 11-H ) :   0.9522 B(  1-C ,  2-C ) :   1.1307 B(  1-C , 12-H ) :   0.9271
B(  1-C , 13-H ) :   0.9270 B(  2-C ,  3-C ) :   1.0605 B(  2-C , 14-H ) :   0.9042
B(  2-C , 15-H ) :   0.9041 B(  3-C ,  4-C ) :   1.3944 B(  3-C ,  8-C ) :   1.3941
B(  4-C ,  5-C ) :   1.3726 B(  4-C , 16-H ) :   0.9608 B(  5-C ,  6-C ) :   1.3808
B(  5-C , 17-H ) :   0.9634 B(  6-C ,  7-C ) :   1.3808 B(  6-C , 18-H ) :   0.9652
B(  7-C ,  8-C ) :   1.3727 B(  7-C , 19-H ) :   0.9634 B(  8-C , 20-H ) :   0.9609

Dispersion correction           -0.020206225
FINAL SINGLE POINT ENERGY      -349.368908911748

DIPOLE MOMENT
-------------

Method             : SCF
Type of density    : Electron Density
Multiplicity       :   1
Irrep              :   0
Energy             :  -349.4294965622004838 Eh
Relativity type    :
Basis              : AO
                                X                 Y                 Z
Electronic contribution:      9.606067382       0.286692243       1.049234201
Nuclear contribution   :     -9.762571555      -0.295086198      -1.081572683
                        -----------------------------------------
Total Dipole Moment    :     -0.156504173      -0.008393955      -0.032338482
                        -----------------------------------------
Magnitude (a.u.)       :      0.160030597
Magnitude (Debye)      :      0.406765451

Rotational constants in cm-1:             0.145954             0.029145             0.026077
Rotational constants in MHz :          4375.588767           873.757179           781.779178

                             ****ORCA TERMINATED NORMALLY****
TOTAL RUN TIME: 0 days 0 hours 0 minutes 10 seconds 313 msec
