                         Program Version 6.0.0  -   RELEASE  -
|  1> ! r2scan-3c def2/J RI DEFGRID2 scfconv6 printgap
|  2> %output
|  3>     printlevel normal
|  4> end
|  5> * xyz 0 1
|  6> C -2.4365974742 1.0503612986 -0.2479601334
|  7> C -1.8022078405 -0.0767349667 0.5653346913
|  8> C -0.4428303631 -0.4636887322 0.0396908321
|  9> O -0.1036760136 -1.602811586 -0.2108271355
| 10> O 0.3482508727 0.5885073195 -0.1152111226
| 11> C 1.689560272 0.3770448024 -0.5835428066
| 12> C 2.6362422673 0.1097739613 0.5766503467
| 13> H -2.5876467154 0.7375650049 -1.2780898751
| 14> H -3.3996172685 1.3121130299 0.1800961294
| 15> H -1.7957294067 1.9271390105 -0.2401331699
| 16> H -2.4290471973 -0.9683735497 0.5579927948
| 17> H -1.6683699841 0.2506720918 1.5981623792
| 18> H 1.6879404157 -0.4654213056 -1.2819267857
| 19> H 1.9495187337 1.2999033693 -1.1029825765
| 20> H 2.5838337079 0.9220995741 1.2965488423
| 21> H 2.3660544539 -0.8206634805 1.0712769432
| 22> H 3.6510956304 0.0278246745 0.2016244663
| 23> *
| 24>
| 25>                          ****END OF INPUT****

CARTESIAN COORDINATES (ANGSTROEM)
---------------------------------
  C     -2.436597    1.050361   -0.247960
  C     -1.802208   -0.076735    0.565335
  C     -0.442830   -0.463689    0.039691
  O     -0.103676   -1.602812   -0.210827
  O      0.348251    0.588507   -0.115211
  C      1.689560    0.377045   -0.583543
  C      2.636242    0.109774    0.576650
  H     -2.587647    0.737565   -1.278090
  H     -3.399617    1.312113    0.180096
  H     -1.795729    1.927139   -0.240133
  H     -2.429047   -0.968374    0.557993
  H     -1.668370    0.250672    1.598162
  H      1.687940   -0.465421   -1.281927
  H      1.949519    1.299903   -1.102983
  H      2.583834    0.922100    1.296549
  H      2.366054   -0.820663    1.071277
  H      3.651096    0.027825    0.201624

 Total Charge           Charge          ....    0
 Multiplicity           Mult            ....    1
 Number of Electrons    NEL             ....   56
 Basis Dimension        Dim             ....  193

ORBITAL ENERGIES
----------------

  NO   OCC          E(Eh)            E(eV)
   0   2.0000     -18.996560      -516.9227
   1   2.0000     -18.926630      -515.0198
   2   2.0000     -10.151399      -276.2336
   3   2.0000     -10.091538      -274.6047
   4   2.0000     -10.043804      -273.3058
   5   2.0000     -10.029075      -272.9050
   6   2.0000     -10.028559      -272.8910
   7   2.0000      -1.071824       -29.1658
   8   2.0000      -0.974109       -26.5069
   9   2.0000      -0.766212       -20.8497
  10   2.0000      -0.728922       -19.8350
  11   2.0000      -0.640775       -17.4364
  12   2.0000      -0.601744       -16.3743
  13   2.0000      -0.524287       -14.2666
  14   2.0000      -0.473366       -12.8809
  15   2.0000      -0.447852       -12.1867
  16   2.0000      -0.440364       -11.9829
  17   2.0000      -0.412611       -11.2277
  18   2.0000      -0.405214       -11.0264
  19   2.0000      -0.385202       -10.4819
  20   2.0000      -0.361396        -9.8341
  21   2.0000      -0.355972        -9.6865
  22   2.0000      -0.342153        -9.3105
  23   2.0000      -0.330944        -9.0054
  24   2.0000      -0.321106        -8.7377
  25   2.0000      -0.306026        -8.3274
  26   2.0000      -0.270999        -7.3742
  27   2.0000      -0.232119        -6.3163
  28   0.0000      -0.013896        -0.3781
  29   0.0000       0.075814         2.0630
  30   0.0000       0.089773         2.4428
  31   0.0000       0.120375         3.2756
  32   0.0000       0.123821         3.3693

MULLIKEN ATOMIC CHARGES
-----------------------
   0 C :   -0.464482
   1 C :   -0.304137
   2 C :    0.397270
   3 O :   -0.429857
   4 O :   -0.173602
   5 C :   -0.137334
   6 C :   -0.463400
   7 H :    0.149800
   8 H :    0.149116
   9 H :    0.163018
  10 H :    0.168697
  11 H :    0.159432
  12 H :    0.169742
  13 H :    0.147110
  14 H :    0.151043
  15 H :    0.170778
  16 H :    0.146808
Sum of atomic charges:   -0.0000000

LOEWDIN ATOMIC CHARGES
----------------------
   0 C :   -0.396889
   1 C :   -0.235476
   2 C :    0.358866
   3 O :   -0.433975
   4 O :   -0.601639
   5 C :    0.028327
   6 C :   -0.390006
   7 H :    0.155944
   8 H :    0.151627
   9 H :    0.163515
  10 H :    0.175314
  11 H :    0.177171
  12 H :    0.189241
  13 H :    0.177104
  14 H :    0.156904
  15 H :    0.164794
  16 H :    0.159178

  Mayer bond orders larger than 0.100000
B(  0-C ,  1-C ) :   0.8913 B(  0-C ,  7-H ) :   0.9749 B(  0-C ,  8-H ) :   0.9718
B(  0-C ,  9-H ) :   0.9734 B(  1-C ,  2-C ) :   0.9913 B(  1-C , 10-H ) :   0.9871
B(  1-C , 11-H ) :   0.9435 B(  2-C ,  3-O ) :   1.8492 B(  2-C ,  4-O ) :   1.0445
B(  4-O ,  5-C ) :   0.8152 B(  5-C ,  6-C ) :   0.9386 B(  5-C , 12-H ) :   0.9665
B(  5-C , 13-H ) :   0.9619 B(  6-C , 14-H ) :   0.9741 B(  6-C , 15-H ) :   0.9713
B(  6-C , 16-H ) :   0.9655

Dispersion correction           -0.004009330
FINAL SINGLE POINT ENERGY      -346.935798073386

DIPOLE MOMENT
-------------

Method             : SCF
Type of density    : Electron Density
Multiplicity       :   1
Irrep              :   0
Energy             :  -346.9422331115144971 Eh
Relativity type    :
Basis              : AO
                                X                 Y                 Z
Electronic contribution:     -0.218376154      -3.120733708      -0.817802555
Nuclear contribution   :      0.339520332       3.946709031       0.935743597
                        -----------------------------------------
Total Dipole Moment    :      0.121144178       0.825975323       0.117941042
                        -----------------------------------------
Magnitude (a.u.)       :      0.843102150
Magnitude (Debye)      :      2.142995360

Rotational constants in cm-1:             0.172313             0.052628             0.045491
Rotational constants in MHz :          5165.810921          1577.738014          1363.773603

                             ****ORCA TERMINATED NORMALLY****
TOTAL RUN TIME: 0 days 0 hours 0 minutes 21 seconds 335 msec
