                         Program Version 6.0.0  -   RELEASE  -
|  1> ! r2scan-3c def2/J RI DEFGRID2 scfconv6 printgap
|  2> %output
|  3>     printlevel normal
|  4> end
|  5> %cpcm
|  6>     smd true
|  7>     smdsolvent "water"
|  8> end
|  9> * xyz 0 1
| 10> C -2.4365974742 1.0503612986 -0.2479601334
| 11> C -1.8022078405 -0.0767349667 0.5653346913
| 12> C -0.4428303631 -0.4636887322 0.0396908321
| 13> O -0.1036760136 -1.602811586 -0.2108271355
| 14> O 0.3482508727 0.5885073195 -0.1152111226
| 15> C 1.689560272 0.3770448024 -0.5835428066
| 16> C 2.6362422673 0.1097739613 0.5766503467
| 17> H -2.5876467154 0.7375650049 -1.2780898751
| 18> H -3.3996172685 1.3121130299 0.1800961294
| 19> H -1.7957294067 1.9271390105 -0.2401331699
| 20> H -2.4290471973 -0.9683735497 0.5579927948
| 21> H -1.6683699841 0.2506720918 1.5981623792
| 22> H 1.6879404157 -0.4654213056 -1.2819267857
| 23> H 1.9495187337 1.2999033693 -1.1029825765
| 24> H 2.5838337079 0.9220995741 1.2965488423
| 25> H 2.3660544539 -0.8206634805 1.0712769432
| 26> H 3.6510956304 0.0278246745 0.2016244663
| 27> *
| 28>
| 29>                          ****END OF INPUT****

CARTESIAN COORDINATES (ANGSTROEM)
---------------------------------
  C     -2.436597    1.050361   -0.247960
  C     -1.802208   -0.076735    0.565335
  C     -0.442830   -0.463689    0.039691
  O     -0.103676   -1.602812   -0.210827
  O      0.348251    0.588507   -0.115211
  C      1.689560    0.377045   -0.583543
  C      2.636242    0.109774    0.576650
  H     -2.587647    0.737565   -1.278090
  H     -3.399617    1.312113    0.180096
  H     -1.795729    1.927139   -0.240133
  H     -2.429047   -0.968374    0.557993
  H     -1.668370    0.250672    1.598162
  H      1.687940   -0.465421   -1.281927
  H      1.949519    1.299903   -1.102983
  H      2.583834    0.922100    1.296549
  H      2.366054   -0.820663    1.071277
  H      3.651096    0.027825    0.201624

 Total Charge           Charge          ....    0
 Multiplicity           Mult            ....    1
 Number of Electrons    NEL             ....   56
 Basis Dimension        Dim             ....  193

ORBITAL ENERGIES
----------------

  NO   OCC          E(Eh)            E(eV)
   0   2.0000     -19.001789      -517.0650
   1   2.0000     -18.942652      -515.4558
   2   2.0000     -10.162044      -276.5233
   3   2.0000     -10.083395      -274.3831
   4   2.0000     -10.037716      -273.1401
   5   2.0000     -10.019184      -272.6359
   6   2.0000     -10.018231      -272.6099
   7   2.0000      -1.078830       -29.3565
   8   2.0000      -0.987986       -26.8845
   9   2.0000      -0.761667       -20.7260
  10   2.0000      -0.721004       -19.6195
  11   2.0000      -0.635481       -17.2923
  12   2.0000      -0.595639       -16.2082
  13   2.0000      -0.521604       -14.1936
  14   2.0000      -0.471517       -12.8306
  15   2.0000      -0.456645       -12.4259
  16   2.0000      -0.442755       -12.0480
  17   2.0000      -0.410589       -11.1727
  18   2.0000      -0.400929       -10.9098
  19   2.0000      -0.379605       -10.3296
  20   2.0000      -0.355195        -9.6653
  21   2.0000      -0.350411        -9.5352
  22   2.0000      -0.338924        -9.2226
  23   2.0000      -0.325964        -8.8699
  24   2.0000      -0.315737        -8.5916
  25   2.0000      -0.303568        -8.2605
  26   2.0000      -0.277758        -7.5582
  27   2.0000      -0.247976        -6.7478
  28   0.0000      -0.021982        -0.5982
  29   0.0000       0.079355         2.1594
  30   0.0000       0.096759         2.6330
  31   0.0000       0.130502         3.5511
  32   0.0000       0.133656         3.6370

MULLIKEN ATOMIC CHARGES
-----------------------
   0 C :   -0.495588
   1 C :   -0.315796
   2 C :    0.439466
   3 O :   -0.516768
   4 O :   -0.191061
   5 C :   -0.141964
   6 C :   -0.489120
   7 H :    0.164257
   8 H :    0.167417
   9 H :    0.166417
  10 H :    0.174710
  11 H :    0.190391
  12 H :    0.172016
  13 H :    0.173311
  14 H :    0.165268
  15 H :    0.167058
  16 H :    0.169988
Sum of atomic charges:   -0.0000000

LOEWDIN ATOMIC CHARGES
----------------------
   0 C :   -0.398713
   1 C :   -0.232884
   2 C :    0.368993
   3 O :   -0.495816
   4 O :   -0.602289
   5 C :    0.033073
   6 C :   -0.392910
   7 H :    0.159862
   8 H :    0.158621
   9 H :    0.163765
  10 H :    0.178588
  11 H :    0.189496
  12 H :    0.189971
  13 H :    0.188553
  14 H :    0.161925
  15 H :    0.162072
  16 H :    0.167693

  Mayer bond orders larger than 0.100000
B(  0-C ,  1-C ) :   0.8797 B(  0-C ,  7-H ) :   0.9723 B(  0-C ,  8-H ) :   0.9669
B(  0-C ,  9-H ) :   0.9719 B(  1-C ,  2-C ) :   0.9910 B(  1-C , 10-H ) :   0.9830
B(  1-C , 11-H ) :   0.9320 B(  2-C ,  3-O ) :   1.7783 B(  2-C ,  4-O ) :   1.0744
B(  4-O ,  5-C ) :   0.7974 B(  5-C ,  6-C ) :   0.9375 B(  5-C , 12-H ) :   0.9629
B(  5-C , 13-H ) :   0.9526 B(  6-C , 14-H ) :   0.9702 B(  6-C , 15-H ) :   0.9691
B(  6-C , 16-H ) :   0.9606

Dispersion correction           -0.004009330
FINAL SINGLE POINT ENERGY      -346.940894847804

DIPOLE MOMENT
-------------

Method             : SCF
Type of density    : Electron Density
Multiplicity       :   1
Irrep              :   0
Energy             :  -346.9473298859324473 Eh
Relativity type    :
Basis              : AO
                                X                 Y                 Z
Electronic contribution:     -0.210571288      -2.770186376      -0.769846118
Nuclear contribution   :      0.339520332       3.946709031       0.935743597
                        -----------------------------------------
Total Dipole Moment    :      0.128949043       1.176522655       0.165897479
                        -----------------------------------------
Magnitude (a.u.)       :      1.195138229
Magnitude (Debye)      :      3.037799961

Rotational constants in cm-1:             0.172313             0.052628             0.045491
Rotational constants in MHz :          5165.810921          1577.738014          1363.773603

                             ****ORCA TERMINATED NORMALLY****
TOTAL RUN TIME: 0 days 0 hours 0 minutes 25 seconds 292 msec
