                         Program Version 6.0.0  -   RELEASE  -
|  1> ! r2scan-3c def2/J RI DEFGRID2 scfconv6 printgap
|  2> %output
|  3>     printlevel normal
|  4> end
|  5> * xyz 0 1
|  6> C 1.8937938316 0.7358046737 -1.0683859195
|  7> C 1.4347645488 -0.2207400627 0.0352116811
|  8> H 2.1997608672 -1.0126920731 0.1227886137
|  9> C 0.0936971427 -0.9107591946 -0.2901464336
| 10> C -1.1631765241 -0.2287354457 0.2660912595
| 11> C -1.4018855539 1.1557236452 -0.330116432
| 12> C -2.3734323866 -1.1236136927 0.0006180337
| 13> O 1.3229301076 0.4343649044 1.2879057953
| 14> H 1.9931304601 0.1920297719 -2.0032933522
| 15> H 1.1821158711 1.5434555583 -1.2040280598
| 16> H 2.862526341 1.1631767333 -0.8162926434
| 17> H 0.006673545 -1.0034389521 -1.3736477874
| 18> H 0.1244170361 -1.9186937516 0.1286901948
| 19> H -1.034670211 -0.1202025175 1.3474397571
| 20> H -2.3657118144 1.5395041408 -0.0023808461
| 21> H -1.4016740121 1.1108185447 -1.4172886042
| 22> H -0.635855522 1.8501918795 0.0015596091
| 23> H -3.2712288038 -0.6823118176 0.4265017728
| 24> H -2.5248618678 -1.245687985 -1.0699200415
| 25> H -2.2330950879 -2.1072200676 0.442769315
| 26> H 2.1670890954 0.8545575803 1.4983281405
| 27> *
| 28>
| 29>                          ****END OF INPUT****

CARTESIAN COORDINATES (ANGSTROEM)
---------------------------------
  C      1.893794    0.735805   -1.068386
  C      1.434765   -0.220740    0.035212
  H      2.199761   -1.012692    0.122789
  C      0.093697   -0.910759   -0.290146
  C     -1.163177   -0.228735    0.266091
  C     -1.401886    1.155724   -0.330116
  C     -2.373432   -1.123614    0.000618
  O      1.322930    0.434365    1.287906
  H      1.993130    0.192030   -2.003293
  H      1.182116    1.543456   -1.204028
  H      2.862526    1.163177   -0.816293
  H      0.006674   -1.003439   -1.373648
  H      0.124417   -1.918694    0.128690
  H     -1.034670   -0.120203    1.347440
  H     -2.365712    1.539504   -0.002381
  H     -1.401674    1.110819   -1.417289
  H     -0.635856    1.850192    0.001560
  H     -3.271229   -0.682312    0.426502
  H     -2.524862   -1.245688   -1.069920
  H     -2.233095   -2.107220    0.442769
  H      2.167089    0.854558    1.498328

 Total Charge           Charge          ....    0
 Multiplicity           Mult            ....    1
 Number of Electrons    NEL             ....   58
 Basis Dimension        Dim             ....  208

ORBITAL ENERGIES
----------------

  NO   OCC          E(Eh)            E(eV)
   0   2.0000     -18.946704      -515.5660
   1   2.0000     -10.081394      -274.3287
   2   2.0000     -10.024460      -272.7794
   3   2.0000     -10.020248      -272.6648
   4   2.0000     -10.018464      -272.6163
   5   2.0000     -10.008796      -272.3532
   6   2.0000     -10.005927      -272.2751
   7   2.0000      -0.984733       -26.7959
   8   2.0000      -0.771392       -20.9906
   9   2.0000      -0.718664       -19.5558
  10   2.0000      -0.651388       -17.7252
  11   2.0000      -0.641119       -17.4457
  12   2.0000      -0.561932       -15.2909
  13   2.0000      -0.520278       -14.1575
  14   2.0000      -0.471935       -12.8420
  15   2.0000      -0.431086       -11.7304
  16   2.0000      -0.419969       -11.4279
  17   2.0000      -0.400715       -10.9040
  18   2.0000      -0.382375       -10.4050
  19   2.0000      -0.362644        -9.8680
  20   2.0000      -0.357251        -9.7213
  21   2.0000      -0.345465        -9.4006
  22   2.0000      -0.339077        -9.2268
  23   2.0000      -0.319143        -8.6843
  24   2.0000      -0.309576        -8.4240
  25   2.0000      -0.288447        -7.8490
  26   2.0000      -0.284235        -7.7344
  27   2.0000      -0.269850        -7.3430
  28   2.0000      -0.232150        -6.3171
  29   0.0000       0.054008         1.4696
  30   0.0000       0.104820         2.8523
  31   0.0000       0.109237         2.9725
  32   0.0000       0.122829         3.3424
  33   0.0000       0.131409         3.5758

MULLIKEN ATOMIC CHARGES
-----------------------
   0 C :   -0.502301
   1 C :    0.045330
   2 H :    0.125715
   3 C :   -0.333672
   4 C :    0.041242
   5 C :   -0.584155
   6 C :   -0.474750
   7 O :   -0.418970
   8 H :    0.150841
   9 H :    0.164190
  10 H :    0.134154
  11 H :    0.145564
  12 H :    0.150799
  13 H :    0.169073
  14 H :    0.141260
  15 H :    0.153801
  16 H :    0.170976
  17 H :    0.146929
  18 H :    0.144198
  19 H :    0.142815
  20 H :    0.286961
Sum of atomic charges:    0.0000000

LOEWDIN ATOMIC CHARGES
----------------------
   0 C :   -0.404321
   1 C :    0.050594
   2 H :    0.161133
   3 C :   -0.268100
   4 C :   -0.234390
   5 C :   -0.418160
   6 C :   -0.417888
   7 O :   -0.625630
   8 H :    0.158060
   9 H :    0.161917
  10 H :    0.149508
  11 H :    0.163996
  12 H :    0.163519
  13 H :    0.172058
  14 H :    0.152419
  15 H :    0.150927
  16 H :    0.158852
  17 H :    0.152260
  18 H :    0.152251
  19 H :    0.152018
  20 H :    0.268979

  Mayer bond orders larger than 0.100000
B(  0-C ,  1-C ) :   0.9356 B(  0-C ,  8-H ) :   0.9741 B(  0-C ,  9-H ) :   0.9717
B(  0-C , 10-H ) :   0.9726 B(  1-C ,  2-H ) :   0.9568 B(  1-C ,  3-C ) :   0.9357
B(  1-C ,  7-O ) :   0.8849 B(  3-C ,  4-C ) :   0.8900 B(  3-C , 11-H ) :   0.9934
B(  3-C , 12-H ) :   0.9680 B(  4-C ,  5-C ) :   0.8508 B(  4-C ,  6-C ) :   0.8833
B(  4-C , 13-H ) :   0.9644 B(  5-C , 14-H ) :   0.9693 B(  5-C , 15-H ) :   0.9866
B(  5-C , 16-H ) :   0.9778 B(  6-C , 17-H ) :   0.9784 B(  6-C , 18-H ) :   0.9868
B(  6-C , 19-H ) :   0.9802 B(  7-O , 20-H ) :   0.9006

Dispersion correction           -0.005680000
FINAL SINGLE POINT ENERGY      -312.198823860682

DIPOLE MOMENT
-------------

Method             : SCF
Type of density    : Electron Density
Multiplicity       :   1
Irrep              :   0
Energy             :  -312.2043448726632278 Eh
Relativity type    :
Basis              : AO
                                X                 Y                 Z
Electronic contribution:      3.235845760      -0.142815058       3.418968954
Nuclear contribution   :     -2.730484401       0.159823897      -3.657337333
                        -----------------------------------------
Total Dipole Moment    :      0.505361359       0.017008839      -0.238368379
                        -----------------------------------------
Magnitude (a.u.)       :      0.559016000
Magnitude (Debye)      :      1.420905750

Rotational constants in cm-1:             0.135733             0.051913             0.049988
Rotational constants in MHz :          4069.187485          1556.324901          1498.595296

                             ****ORCA TERMINATED NORMALLY****
TOTAL RUN TIME: 0 days 0 hours 0 minutes 30 seconds 559 msec
