                         Program Version 6.0.0  -   RELEASE  -
|  1> ! r2scan-3c def2/J RI DEFGRID2 scfconv6 printgap
|  2> %output
|  3>     printlevel normal
|  4> end
|  5> %cpcm
|  6>     smd true
|  7>     smdsolvent "water"
|  8> end
|  9> * xyz 0 1
| 10> C 1.8937938316 0.7358046737 -1.0683859195
| 11> C 1.4347645488 -0.2207400627 0.0352116811
| 12> H 2.1997608672 -1.0126920731 0.1227886137
| 13> C 0.0936971427 -0.9107591946 -0.2901464336
| 14> C -1.1631765241 -0.2287354457 0.2660912595
| 15> C -1.4018855539 1.1557236452 -0.330116432
| 16> C -2.3734323866 -1.1236136927 0.0006180337
| 17> O 1.3229301076 0.4343649044 1.2879057953
| 18> H 1.9931304601 0.1920297719 -2.0032933522
| 19> H 1.1821158711 1.5434555583 -1.2040280598
| 20> H 2.862526341 1.1631767333 -0.8162926434
| 21> H 0.006673545 -1.0034389521 -1.3736477874
| 22> H 0.1244170361 -1.9186937516 0.1286901948
| 23> H -1.034670211 -0.1202025175 1.3474397571
| 24> H -2.3657118144 1.5395041408 -0.0023808461
| 25> H -1.4016740121 1.1108185447 -1.4172886042
| 26> H -0.635855522 1.8501918795 0.0015596091
| 27> H -3.2712288038 -0.6823118176 0.4265017728
| 28> H -2.5248618678 -1.245687985 -1.0699200415
| 29> H -2.2330950879 -2.1072200676 0.442769315
| 30> H 2.1670890954 0.8545575803 1.4983281405
| 31> *
| 32>
| 33>                          ****END OF INPUT****

CARTESIAN COORDINATES (ANGSTROEM)
---------------------------------
  C      1.893794    0.735805   -1.068386
  C      1.434765   -0.220740    0.035212
  H      2.199761   -1.012692    0.122789
  C      0.093697   -0.910759   -0.290146
  C     -1.163177   -0.228735    0.266091
  C     -1.401886    1.155724   -0.330116
  C     -2.373432   -1.123614    0.000618
  O      1.322930    0.434365    1.287906
  H      1.993130    0.192030   -2.003293
  H      1.182116    1.543456   -1.204028
  H      2.862526    1.163177   -0.816293
  H      0.006674   -1.003439   -1.373648
  H      0.124417   -1.918694    0.128690
  H     -1.034670   -0.120203    1.347440
  H     -2.365712    1.539504   -0.002381
  H     -1.401674    1.110819   -1.417289
  H     -0.635856    1.850192    0.001560
  H     -3.271229   -0.682312    0.426502
  H     -2.524862   -1.245688   -1.069920
  H     -2.233095   -2.107220    0.442769
  H      2.167089    0.854558    1.498328

 Total Charge           Charge          ....    0
 Multiplicity           Mult            ....    1
 Number of Electrons    NEL             ....   58
 Basis Dimension        Dim             ....  208

ORBITAL ENERGIES
----------------

  NO   OCC          E(Eh)            E(eV)
   0   2.0000     -18.947420      -515.5855
   1   2.0000     -10.075066      -274.1565
   2   2.0000     -10.023623      -272.7567
   3   2.0000     -10.013936      -272.4931
   4   2.0000     -10.007356      -272.3140
   5   2.0000     -10.005372      -272.2600
   6   2.0000     -10.004002      -272.2227
   7   2.0000      -0.984483       -26.7891
   8   2.0000      -0.768269       -20.9057
   9   2.0000      -0.712141       -19.3783
  10   2.0000      -0.645889       -17.5755
  11   2.0000      -0.637954       -17.3596
  12   2.0000      -0.557085       -15.1590
  13   2.0000      -0.517852       -14.0915
  14   2.0000      -0.466741       -12.7007
  15   2.0000      -0.427567       -11.6347
  16   2.0000      -0.414922       -11.2906
  17   2.0000      -0.397099       -10.8056
  18   2.0000      -0.378048       -10.2872
  19   2.0000      -0.357425        -9.7260
  20   2.0000      -0.350423        -9.5355
  21   2.0000      -0.341123        -9.2824
  22   2.0000      -0.335268        -9.1231
  23   2.0000      -0.315281        -8.5792
  24   2.0000      -0.308095        -8.3837
  25   2.0000      -0.286058        -7.7840
  26   2.0000      -0.282786        -7.6950
  27   2.0000      -0.266246        -7.2449
  28   2.0000      -0.232902        -6.3376
  29   0.0000       0.067873         1.8469
  30   0.0000       0.113233         3.0812
  31   0.0000       0.117389         3.1943
  32   0.0000       0.129319         3.5190
  33   0.0000       0.137800         3.7497

MULLIKEN ATOMIC CHARGES
-----------------------
   0 C :   -0.545440
   1 C :    0.062856
   2 H :    0.138515
   3 C :   -0.354845
   4 C :    0.044278
   5 C :   -0.603238
   6 C :   -0.521738
   7 O :   -0.501975
   8 H :    0.166747
   9 H :    0.166511
  10 H :    0.158607
  11 H :    0.164174
  12 H :    0.164403
  13 H :    0.157013
  14 H :    0.153927
  15 H :    0.168973
  16 H :    0.167720
  17 H :    0.158536
  18 H :    0.158692
  19 H :    0.155417
  20 H :    0.340869
Sum of atomic charges:    0.0000000

LOEWDIN ATOMIC CHARGES
----------------------
   0 C :   -0.408550
   1 C :    0.053289
   2 H :    0.167863
   3 C :   -0.272440
   4 C :   -0.236040
   5 C :   -0.425278
   6 C :   -0.425559
   7 O :   -0.658563
   8 H :    0.163488
   9 H :    0.161556
  10 H :    0.157518
  11 H :    0.170583
  12 H :    0.165695
  13 H :    0.165473
  14 H :    0.154592
  15 H :    0.156654
  16 H :    0.156993
  17 H :    0.154628
  18 H :    0.156265
  19 H :    0.155098
  20 H :    0.286734

  Mayer bond orders larger than 0.100000
B(  0-C ,  1-C ) :   0.9375 B(  0-C ,  8-H ) :   0.9696 B(  0-C ,  9-H ) :   0.9688
B(  0-C , 10-H ) :   0.9694 B(  1-C ,  2-H ) :   0.9550 B(  1-C ,  3-C ) :   0.9270
B(  1-C ,  7-O ) :   0.8749 B(  3-C ,  4-C ) :   0.8756 B(  3-C , 11-H ) :   0.9869
B(  3-C , 12-H ) :   0.9700 B(  4-C ,  5-C ) :   0.8609 B(  4-C ,  6-C ) :   0.8780
B(  4-C , 13-H ) :   0.9708 B(  5-C , 14-H ) :   0.9692 B(  5-C , 15-H ) :   0.9822
B(  5-C , 16-H ) :   0.9727 B(  6-C , 17-H ) :   0.9755 B(  6-C , 18-H ) :   0.9856
B(  6-C , 19-H ) :   0.9771 B(  7-O , 20-H ) :   0.8757

Dispersion correction           -0.005680000
FINAL SINGLE POINT ENERGY      -312.203522780400

DIPOLE MOMENT
-------------

Method             : SCF
Type of density    : Electron Density
Multiplicity       :   1
Irrep              :   0
Energy             :  -312.2090437923816921 Eh
Relativity type    :
Basis              : AO
                                X                 Y                 Z
Electronic contribution:      3.434672652      -0.177908082       3.217043427
Nuclear contribution   :     -2.730484401       0.159823897      -3.657337333
                        -----------------------------------------
Total Dipole Moment    :      0.704188250      -0.018084185      -0.440293906
                        -----------------------------------------
Magnitude (a.u.)       :      0.830702626
Magnitude (Debye)      :      2.111478274

Rotational constants in cm-1:             0.135733             0.051913             0.049988
Rotational constants in MHz :          4069.187485          1556.324901          1498.595296

                             ****ORCA TERMINATED NORMALLY****
TOTAL RUN TIME: 0 days 0 hours 0 minutes 36 seconds 132 msec
