                         Program Version 6.0.0  -   RELEASE  -
|  1> ! pbe def2-sv(p) def2/J RI DEFGRID1 loosescf d4 GCP(DFT/SV(P)) printgap
|  2> %output
|  3>     printlevel normal
|  4> end
|  5> * xyz 0 1
|  6> C -2.1435171527 -0.5013723194 0.9408007434
|  7> C -2.0888429078 0.5795481401 -0.1324815742
|  8> C -0.8429668415 0.4606954847 -1.0058790035
|  9> O 0.3340793939 0.7576597883 -0.2405580007
| 10> C 1.2197900415 -0.2017207926 -0.004426698
| 11> O 1.1170104355 -1.3370191766 -0.4233640973
| 12> C 2.3598460736 0.2995340296 0.8316555106
| 13> H -1.2920547482 -0.4170396023 1.6132480162
| 14> H -3.0533934836 -0.4067268755 1.52658678
| 15> H -2.1208755563 -1.4904783701 0.4880669214
| 16> H -2.0939577333 1.5649812973 0.3351012105
| 17> H -2.9593072099 0.4997173846 -0.7835062632
| 18> H -0.7459812905 -0.5487231029 -1.4176280131
| 19> H -0.8665726765 1.1929624499 -1.8159600722
| 20> H 2.1989616029 1.3396673414 1.0926944203
| 21> H 3.2839091818 0.1874609592 0.2702909299
| 22> H 2.4386115563 -0.3123517333 1.7265273604
| 23> *
| 24>
| 25>                          ****END OF INPUT****

CARTESIAN COORDINATES (ANGSTROEM)
---------------------------------
  C     -2.143517   -0.501372    0.940801
  C     -2.088843    0.579548   -0.132482
  C     -0.842967    0.460695   -1.005879
  O      0.334079    0.757660   -0.240558
  C      1.219790   -0.201721   -0.004427
  O      1.117010   -1.337019   -0.423364
  C      2.359846    0.299534    0.831656
  H     -1.292055   -0.417040    1.613248
  H     -3.053393   -0.406727    1.526587
  H     -2.120876   -1.490478    0.488067
  H     -2.093958    1.564981    0.335101
  H     -2.959307    0.499717   -0.783506
  H     -0.745981   -0.548723   -1.417628
  H     -0.866573    1.192962   -1.815960
  H      2.198962    1.339667    1.092694
  H      3.283909    0.187461    0.270291
  H      2.438612   -0.312352    1.726527

 Total Charge           Charge          ....    0
 Multiplicity           Mult            ....    1
 Number of Electrons    NEL             ....   56
 Basis Dimension        Dim             ....  118

ORBITAL ENERGIES
----------------

  NO   OCC          E(Eh)            E(eV)
   0   2.0000     -18.797724      -511.5121
   1   2.0000     -18.728227      -509.6210
   2   2.0000     -10.007697      -272.3233
   3   2.0000      -9.941402      -270.5193
   4   2.0000      -9.895792      -269.2782
   5   2.0000      -9.893027      -269.2030
   6   2.0000      -9.879212      -268.8270
   7   2.0000      -1.003501       -27.3067
   8   2.0000      -0.907042       -24.6819
   9   2.0000      -0.723411       -19.6850
  10   2.0000      -0.677463       -18.4347
  11   2.0000      -0.623707       -16.9719
  12   2.0000      -0.549483       -14.9522
  13   2.0000      -0.498846       -13.5743
  14   2.0000      -0.445301       -12.1173
  15   2.0000      -0.434835       -11.8325
  16   2.0000      -0.412106       -11.2140
  17   2.0000      -0.396693       -10.7946
  18   2.0000      -0.396362       -10.7856
  19   2.0000      -0.362859        -9.8739
  20   2.0000      -0.358220        -9.7477
  21   2.0000      -0.343305        -9.3418
  22   2.0000      -0.315776        -8.5927
  23   2.0000      -0.312868        -8.5136
  24   2.0000      -0.310296        -8.4436
  25   2.0000      -0.287360        -7.8195
  26   2.0000      -0.251031        -6.8309
  27   2.0000      -0.217259        -5.9119
  28   0.0000      -0.018428        -0.5015
  29   0.0000       0.038753         1.0545
  30   0.0000       0.055443         1.5087
  31   0.0000       0.079898         2.1741
  32   0.0000       0.085978         2.3396

MULLIKEN ATOMIC CHARGES
-----------------------
   0 C :   -0.292821
   1 C :   -0.197047
   2 C :   -0.000660
   3 O :   -0.242937
   4 C :    0.083644
   5 O :   -0.213078
   6 C :   -0.254795
   7 H :    0.112829
   8 H :    0.107437
   9 H :    0.110426
  10 H :    0.097253
  11 H :    0.096231
  12 H :    0.110095
  13 H :    0.100078
  14 H :    0.115823
  15 H :    0.134376
  16 H :    0.133146
Sum of atomic charges:   -0.0000000

LOEWDIN ATOMIC CHARGES
----------------------
   0 C :   -0.343123
   1 C :   -0.245573
   2 C :   -0.109987
   3 O :   -0.066936
   4 C :    0.027859
   5 O :   -0.177150
   6 C :   -0.360109
   7 H :    0.120003
   8 H :    0.121244
   9 H :    0.123284
  10 H :    0.121091
  11 H :    0.124950
  12 H :    0.120026
  13 H :    0.116379
  14 H :    0.132968
  15 H :    0.148151
  16 H :    0.146924

  Mayer bond orders larger than 0.100000
B(  0-C ,  1-C ) :   1.1524 B(  0-C ,  7-H ) :   0.9496 B(  0-C ,  8-H ) :   0.9524
B(  0-C ,  9-H ) :   0.9548 B(  1-C ,  2-C ) :   1.1273 B(  1-C , 10-H ) :   0.9233
B(  1-C , 11-H ) :   0.9206 B(  2-C ,  3-O ) :   0.9211 B(  2-C , 12-H ) :   0.9000
B(  2-C , 13-H ) :   0.9314 B(  3-O ,  4-C ) :   1.2041 B(  4-C ,  5-O ) :   2.0525
B(  4-C ,  6-C ) :   1.0775 B(  6-C , 14-H ) :   0.9386 B(  6-C , 15-H ) :   0.9295
B(  6-C , 16-H ) :   0.9318

Dispersion correction           -0.012230196
FINAL SINGLE POINT ENERGY      -346.243889707797

DIPOLE MOMENT
-------------

Method             : SCF
Type of density    : Electron Density
Multiplicity       :   1
Irrep              :   0
Energy             :  -346.3087886865383211 Eh
Relativity type    :
Basis              : AO
                                X                 Y                 Z
Electronic contribution:      4.599632783      -0.836063481      -2.676451429
Nuclear contribution   :     -4.866956560       1.501362056       2.837889284
                        -----------------------------------------
Total Dipole Moment    :     -0.267323777       0.665298575       0.161437854
                        -----------------------------------------
Magnitude (a.u.)       :      0.734946513
Magnitude (Debye)      :      1.868085576

Rotational constants in cm-1:             0.157879             0.051993             0.050273
Rotational constants in MHz :          4733.101073          1558.713596          1507.157165

                             ****ORCA TERMINATED NORMALLY****
TOTAL RUN TIME: 0 days 0 hours 0 minutes 9 seconds 102 msec
