                         Program Version 6.0.0  -   RELEASE  -
|  1> ! r2scan-3c def2/J RI DEFGRID2 scfconv6 printgap
|  2> %output
|  3>     printlevel normal
|  4> end
|  5> * xyz 0 1
|  6> C -1.3085432651 -0.3646661216 -0.4406290858
|  7> C 0.0401118424 0.030807935 0.1731780548
|  8> C 1.2195459292 -0.5019437044 -0.6455196032
|  9> O 2.2666941856 -0.8375932904 0.2364022572
| 10> O 0.1519986874 1.4354357639 0.2432593597
| 11> O -2.3199229024 0.1698169694 0.3870116234
| 12> H -1.3793312837 -1.4571153154 -0.4886688593
| 13> H -1.3747924196 0.0537717835 -1.4529555537
| 14> H 0.1060034355 -0.3976756207 1.1847081038
| 15> H 1.5259368057 0.2869226229 -1.3413218574
| 16> H 0.9041268839 -1.3869441175 -1.2135538154
| 17> H 3.0620594679 -1.0469514972 -0.2727773815
| 18> H -0.6422144291 1.773014333 0.6846760954
| 19> H -3.1870745521 -0.0508459689 0.021939445
| 20> *
| 21>
| 22>                          ****END OF INPUT****

CARTESIAN COORDINATES (ANGSTROEM)
---------------------------------
  C     -1.308543   -0.364666   -0.440629
  C      0.040112    0.030808    0.173178
  C      1.219546   -0.501944   -0.645520
  O      2.266694   -0.837593    0.236402
  O      0.151999    1.435436    0.243259
  O     -2.319923    0.169817    0.387012
  H     -1.379331   -1.457115   -0.488669
  H     -1.374792    0.053772   -1.452956
  H      0.106003   -0.397676    1.184708
  H      1.525937    0.286923   -1.341322
  H      0.904127   -1.386944   -1.213554
  H      3.062059   -1.046951   -0.272777
  H     -0.642214    1.773014    0.684676
  H     -3.187075   -0.050846    0.021939

 Total Charge           Charge          ....    0
 Multiplicity           Mult            ....    1
 Number of Electrons    NEL             ....   50
 Basis Dimension        Dim             ....  169

ORBITAL ENERGIES
----------------

  NO   OCC          E(Eh)            E(eV)
   0   2.0000     -18.963711      -516.0288
   1   2.0000     -18.950217      -515.6616
   2   2.0000     -18.941198      -515.4162
   3   2.0000     -10.083238      -274.3789
   4   2.0000     -10.081097      -274.3206
   5   2.0000     -10.078819      -274.2586
   6   2.0000      -1.005871       -27.3711
   7   2.0000      -0.989536       -26.9266
   8   2.0000      -0.973177       -26.4815
   9   2.0000      -0.729219       -19.8431
  10   2.0000      -0.643813       -17.5190
  11   2.0000      -0.555997       -15.1295
  12   2.0000      -0.505083       -13.7440
  13   2.0000      -0.488365       -13.2891
  14   2.0000      -0.474124       -12.9016
  15   2.0000      -0.430162       -11.7053
  16   2.0000      -0.393794       -10.7157
  17   2.0000      -0.385254       -10.4833
  18   2.0000      -0.375313       -10.2128
  19   2.0000      -0.328329        -8.9343
  20   2.0000      -0.317537        -8.6406
  21   2.0000      -0.285849        -7.7784
  22   2.0000      -0.252941        -6.8829
  23   2.0000      -0.242452        -6.5974
  24   2.0000      -0.228810        -6.2262
  25   0.0000       0.046208         1.2574
  26   0.0000       0.058545         1.5931
  27   0.0000       0.088686         2.4133
  28   0.0000       0.103830         2.8254
  29   0.0000       0.130656         3.5553

MULLIKEN ATOMIC CHARGES
-----------------------
   0 C :   -0.175422
   1 C :    0.100983
   2 C :   -0.198610
   3 O :   -0.416560
   4 O :   -0.433233
   5 O :   -0.440981
   6 H :    0.123310
   7 H :    0.128452
   8 H :    0.147608
   9 H :    0.147039
  10 H :    0.116645
  11 H :    0.294318
  12 H :    0.307668
  13 H :    0.298782
Sum of atomic charges:   -0.0000000

LOEWDIN ATOMIC CHARGES
----------------------
   0 C :    0.018708
   1 C :    0.092536
   2 C :    0.039864
   3 O :   -0.611580
   4 O :   -0.585682
   5 O :   -0.621862
   6 H :    0.162180
   7 H :    0.164940
   8 H :    0.185956
   9 H :    0.177002
  10 H :    0.158569
  11 H :    0.268298
  12 H :    0.280058
  13 H :    0.271015

  Mayer bond orders larger than 0.100000
B(  0-C ,  1-C ) :   0.9365 B(  0-C ,  5-O ) :   0.9531 B(  0-C ,  6-H ) :   0.9559
B(  0-C ,  7-H ) :   0.9607 B(  1-C ,  2-C ) :   0.9417 B(  1-C ,  4-O ) :   0.9085
B(  1-C ,  8-H ) :   0.9497 B(  2-C ,  3-O ) :   0.9466 B(  2-C ,  9-H ) :   0.9635
B(  2-C , 10-H ) :   0.9646 B(  3-O , 11-H ) :   0.8978 B(  4-O , 12-H ) :   0.8765
B(  5-O , 13-H ) :   0.8977

Dispersion correction           -0.002924454
FINAL SINGLE POINT ENERGY      -344.719982674776

DIPOLE MOMENT
-------------

Method             : SCF
Type of density    : Electron Density
Multiplicity       :   1
Irrep              :   0
Energy             :  -344.7275852092816990 Eh
Relativity type    :
Basis              : AO
                                X                 Y                 Z
Electronic contribution:      0.367839118       1.468278334       1.837342066
Nuclear contribution   :     -0.922902313      -2.076807844      -2.687148401
                        -----------------------------------------
Total Dipole Moment    :     -0.555063195      -0.608529510      -0.849806335
                        -----------------------------------------
Magnitude (a.u.)       :      1.183458543
Magnitude (Debye)      :      3.008112557

Rotational constants in cm-1:             0.244202             0.065194             0.056996
Rotational constants in MHz :          7321.000168          1954.470543          1708.686379

                             ****ORCA TERMINATED NORMALLY****
TOTAL RUN TIME: 0 days 0 hours 0 minutes 20 seconds 25 msec
