                         Program Version 6.0.0  -   RELEASE  -
|  1> ! r2scan-3c def2/J RI DEFGRID2 scfconv6 printgap
|  2> %output
|  3>     printlevel normal
|  4> end
|  5> %cpcm
|  6>     smd true
|  7>     smdsolvent "water"
|  8> end
|  9> * xyz 0 1
| 10> C -1.3085432651 -0.3646661216 -0.4406290858
| 11> C 0.0401118424 0.030807935 0.1731780548
| 12> C 1.2195459292 -0.5019437044 -0.6455196032
| 13> O 2.2666941856 -0.8375932904 0.2364022572
| 14> O 0.1519986874 1.4354357639 0.2432593597
| 15> O -2.3199229024 0.1698169694 0.3870116234
| 16> H -1.3793312837 -1.4571153154 -0.4886688593
| 17> H -1.3747924196 0.0537717835 -1.4529555537
| 18> H 0.1060034355 -0.3976756207 1.1847081038
| 19> H 1.5259368057 0.2869226229 -1.3413218574
| 20> H 0.9041268839 -1.3869441175 -1.2135538154
| 21> H 3.0620594679 -1.0469514972 -0.2727773815
| 22> H -0.6422144291 1.773014333 0.6846760954
| 23> H -3.1870745521 -0.0508459689 0.021939445
| 24> *
| 25>
| 26>                          ****END OF INPUT****

CARTESIAN COORDINATES (ANGSTROEM)
---------------------------------
  C     -1.308543   -0.364666   -0.440629
  C      0.040112    0.030808    0.173178
  C      1.219546   -0.501944   -0.645520
  O      2.266694   -0.837593    0.236402
  O      0.151999    1.435436    0.243259
  O     -2.319923    0.169817    0.387012
  H     -1.379331   -1.457115   -0.488669
  H     -1.374792    0.053772   -1.452956
  H      0.106003   -0.397676    1.184708
  H      1.525937    0.286923   -1.341322
  H      0.904127   -1.386944   -1.213554
  H      3.062059   -1.046951   -0.272777
  H     -0.642214    1.773014    0.684676
  H     -3.187075   -0.050846    0.021939

 Total Charge           Charge          ....    0
 Multiplicity           Mult            ....    1
 Number of Electrons    NEL             ....   50
 Basis Dimension        Dim             ....  169

ORBITAL ENERGIES
----------------

  NO   OCC          E(Eh)            E(eV)
   0   2.0000     -18.956494      -515.8324
   1   2.0000     -18.954180      -515.7695
   2   2.0000     -18.953661      -515.7553
   3   2.0000     -10.081528      -274.3323
   4   2.0000     -10.074515      -274.1415
   5   2.0000     -10.073351      -274.1098
   6   2.0000      -1.005970       -27.3738
   7   2.0000      -0.990202       -26.9448
   8   2.0000      -0.978840       -26.6356
   9   2.0000      -0.726782       -19.7768
  10   2.0000      -0.638200       -17.3663
  11   2.0000      -0.555748       -15.1227
  12   2.0000      -0.503829       -13.7099
  13   2.0000      -0.481252       -13.0955
  14   2.0000      -0.472987       -12.8706
  15   2.0000      -0.425690       -11.5836
  16   2.0000      -0.393306       -10.7024
  17   2.0000      -0.390151       -10.6166
  18   2.0000      -0.374322       -10.1858
  19   2.0000      -0.332838        -9.0570
  20   2.0000      -0.322240        -8.7686
  21   2.0000      -0.290230        -7.8976
  22   2.0000      -0.250743        -6.8231
  23   2.0000      -0.247795        -6.7428
  24   2.0000      -0.237678        -6.4676
  25   0.0000       0.065074         1.7708
  26   0.0000       0.073472         1.9993
  27   0.0000       0.095417         2.5964
  28   0.0000       0.117554         3.1988
  29   0.0000       0.135856         3.6968

MULLIKEN ATOMIC CHARGES
-----------------------
   0 C :   -0.187070
   1 C :    0.108692
   2 C :   -0.202422
   3 O :   -0.499911
   4 O :   -0.507663
   5 O :   -0.506734
   6 H :    0.148907
   7 H :    0.148576
   8 H :    0.146033
   9 H :    0.158033
  10 H :    0.147267
  11 H :    0.349833
  12 H :    0.346107
  13 H :    0.350353
Sum of atomic charges:   -0.0000000

LOEWDIN ATOMIC CHARGES
----------------------
   0 C :    0.027019
   1 C :    0.085787
   2 C :    0.043435
   3 O :   -0.646183
   4 O :   -0.624179
   5 O :   -0.643764
   6 H :    0.174470
   7 H :    0.173179
   8 H :    0.186193
   9 H :    0.181722
  10 H :    0.173223
  11 H :    0.288064
  12 H :    0.291469
  13 H :    0.289564

  Mayer bond orders larger than 0.100000
B(  0-C ,  1-C ) :   0.9488 B(  0-C ,  5-O ) :   0.9386 B(  0-C ,  6-H ) :   0.9537
B(  0-C ,  7-H ) :   0.9608 B(  1-C ,  2-C ) :   0.9290 B(  1-C ,  4-O ) :   0.8836
B(  1-C ,  8-H ) :   0.9364 B(  2-C ,  3-O ) :   0.9298 B(  2-C ,  9-H ) :   0.9639
B(  2-C , 10-H ) :   0.9627 B(  3-O , 11-H ) :   0.8703 B(  4-O , 12-H ) :   0.8585
B(  5-O , 13-H ) :   0.8711

Dispersion correction           -0.002924454
FINAL SINGLE POINT ENERGY      -344.741818314270

DIPOLE MOMENT
-------------

Method             : SCF
Type of density    : Electron Density
Multiplicity       :   1
Irrep              :   0
Energy             :  -344.7494208487759124 Eh
Relativity type    :
Basis              : AO
                                X                 Y                 Z
Electronic contribution:      0.157504690       1.174714322       1.446224126
Nuclear contribution   :     -0.922902313      -2.076807844      -2.687148401
                        -----------------------------------------
Total Dipole Moment    :     -0.765397623      -0.902093522      -1.240924275
                        -----------------------------------------
Magnitude (a.u.)       :      1.714496807
Magnitude (Debye)      :      4.357904554

Rotational constants in cm-1:             0.244202             0.065194             0.056996
Rotational constants in MHz :          7321.000168          1954.470543          1708.686379

                             ****ORCA TERMINATED NORMALLY****
TOTAL RUN TIME: 0 days 0 hours 0 minutes 23 seconds 123 msec
