                         Program Version 6.0.0  -   RELEASE  -
|  1> ! pbe def2-sv(p) def2/J RI DEFGRID1 loosescf d4 GCP(DFT/SV(P)) printgap
|  2> %output
|  3>     printlevel normal
|  4> end
|  5> * xyz 0 1
|  6> C 2.0364116961 1.4004574884 -0.5632119984
|  7> C 1.6190311363 0.2458115739 0.3413204138
|  8> C 0.4115435419 -0.5549168936 -0.1687637379
|  9> H 0.6635905601 -0.9193826206 -1.1729371871
| 10> C 0.2098791274 -1.773442429 0.7329384386
| 11> C -0.8632692773 0.3008051414 -0.3202920882
| 12> C -1.9618549092 -0.4630810695 -1.0619307821
| 13> C -1.4099733217 0.8280070417 1.0049712501
| 14> H 1.2974263203 2.1972675861 -0.5566638918
| 15> H 2.9812234237 1.8171838437 -0.2217417384
| 16> H 2.1642576496 1.0555382438 -1.5870656415
| 17> H 1.4119239883 0.6256047662 1.3432827104
| 18> H 2.4609439049 -0.4457876254 0.4276778824
| 19> H 1.1019445127 -2.3960535529 0.7171798076
| 20> H 0.0314006697 -1.4683387017 1.7606935094
| 21> H -0.6270229425 -2.3780278518 0.3962941642
| 22> H -0.5968186769 1.1617700972 -0.9422254859
| 23> H -2.3596888089 -1.2692885683 -0.4509994729
| 24> H -1.5798311035 -0.8861951771 -1.9883429274
| 25> H -2.7824717182 0.208070227 -1.3057003137
| 26> H -2.261171097 1.4790681214 0.8172118326
| 27> H -0.6591401601 1.4021715009 1.5407755249
| 28> H -1.744309721 0.0113493206 1.6392758852
| 29> *
| 30>
| 31>                          ****END OF INPUT****

CARTESIAN COORDINATES (ANGSTROEM)
---------------------------------
  C      2.036412    1.400457   -0.563212
  C      1.619031    0.245812    0.341320
  C      0.411544   -0.554917   -0.168764
  H      0.663591   -0.919383   -1.172937
  C      0.209879   -1.773442    0.732938
  C     -0.863269    0.300805   -0.320292
  C     -1.961855   -0.463081   -1.061931
  C     -1.409973    0.828007    1.004971
  H      1.297426    2.197268   -0.556664
  H      2.981223    1.817184   -0.221742
  H      2.164258    1.055538   -1.587066
  H      1.411924    0.625605    1.343283
  H      2.460944   -0.445788    0.427678
  H      1.101945   -2.396054    0.717180
  H      0.031401   -1.468339    1.760694
  H     -0.627023   -2.378028    0.396294
  H     -0.596819    1.161770   -0.942225
  H     -2.359689   -1.269289   -0.450999
  H     -1.579831   -0.886195   -1.988343
  H     -2.782472    0.208070   -1.305700
  H     -2.261171    1.479068    0.817212
  H     -0.659140    1.402172    1.540776
  H     -1.744310    0.011349    1.639276

 Total Charge           Charge          ....    0
 Multiplicity           Mult            ....    1
 Number of Electrons    NEL             ....   58
 Basis Dimension        Dim             ....  130

ORBITAL ENERGIES
----------------

  NO   OCC          E(Eh)            E(eV)
   0   2.0000      -9.888042      -269.0673
   1   2.0000      -9.886889      -269.0359
   2   2.0000      -9.877403      -268.7778
   3   2.0000      -9.869488      -268.5624
   4   2.0000      -9.868350      -268.5315
   5   2.0000      -9.867683      -268.5133
   6   2.0000      -9.866829      -268.4901
   7   2.0000      -0.740920       -20.1615
   8   2.0000      -0.681845       -18.5539
   9   2.0000      -0.642337       -17.4789
  10   2.0000      -0.606452       -16.5024
  11   2.0000      -0.563312       -15.3285
  12   2.0000      -0.531971       -14.4757
  13   2.0000      -0.469208       -12.7678
  14   2.0000      -0.425723       -11.5845
  15   2.0000      -0.406514       -11.0618
  16   2.0000      -0.387359       -10.5406
  17   2.0000      -0.371496       -10.1089
  18   2.0000      -0.366404        -9.9704
  19   2.0000      -0.350677        -9.5424
  20   2.0000      -0.337674        -9.1886
  21   2.0000      -0.329702        -8.9717
  22   2.0000      -0.319379        -8.6908
  23   2.0000      -0.303657        -8.2629
  24   2.0000      -0.298252        -8.1158
  25   2.0000      -0.295420        -8.0388
  26   2.0000      -0.269425        -7.3314
  27   2.0000      -0.263176        -7.1614
  28   2.0000      -0.259692        -7.0666
  29   0.0000       0.031105         0.8464
  30   0.0000       0.056289         1.5317
  31   0.0000       0.062104         1.6899
  32   0.0000       0.067460         1.8357
  33   0.0000       0.094324         2.5667

MULLIKEN ATOMIC CHARGES
-----------------------
   0 C :   -0.268559
   1 C :   -0.160277
   2 C :   -0.141773
   3 H :    0.059982
   4 C :   -0.245756
   5 C :   -0.158743
   6 C :   -0.240893
   7 C :   -0.261643
   8 H :    0.109321
   9 H :    0.099538
  10 H :    0.095297
  11 H :    0.083055
  12 H :    0.077761
  13 H :    0.094377
  14 H :    0.098412
  15 H :    0.100169
  16 H :    0.072424
  17 H :    0.099130
  18 H :    0.093977
  19 H :    0.094783
  20 H :    0.096274
  21 H :    0.103111
  22 H :    0.100033
Sum of atomic charges:    0.0000000

LOEWDIN ATOMIC CHARGES
----------------------
   0 C :   -0.342298
   1 C :   -0.226831
   2 C :   -0.144134
   3 H :    0.110915
   4 C :   -0.330995
   5 C :   -0.152223
   6 C :   -0.328720
   7 C :   -0.331173
   8 H :    0.116340
   9 H :    0.119542
  10 H :    0.116773
  11 H :    0.112712
  12 H :    0.114507
  13 H :    0.118095
  14 H :    0.117039
  15 H :    0.116392
  16 H :    0.114148
  17 H :    0.114742
  18 H :    0.115662
  19 H :    0.117195
  20 H :    0.118887
  21 H :    0.116250
  22 H :    0.117175

  Mayer bond orders larger than 0.100000
B(  0-C ,  1-C ) :   1.1599 B(  0-C ,  8-H ) :   0.9445 B(  0-C ,  9-H ) :   0.9496
B(  0-C , 10-H ) :   0.9523 B(  1-C ,  2-C ) :   1.0904 B(  1-C , 11-H ) :   0.9142
B(  1-C , 12-H ) :   0.9228 B(  2-C ,  3-H ) :   0.8935 B(  2-C ,  4-C ) :   1.1074
B(  2-C ,  5-C ) :   1.0430 B(  4-C , 13-H ) :   0.9458 B(  4-C , 14-H ) :   0.9437
B(  4-C , 15-H ) :   0.9463 B(  5-C ,  6-C ) :   1.1156 B(  5-C ,  7-C ) :   1.1050
B(  5-C , 16-H ) :   0.8939 B(  6-C , 17-H ) :   0.9437 B(  6-C , 18-H ) :   0.9484
B(  6-C , 19-H ) :   0.9493 B(  7-C , 20-H ) :   0.9492 B(  7-C , 21-H ) :   0.9455
B(  7-C , 22-H ) :   0.9441

Dispersion correction           -0.019300065
FINAL SINGLE POINT ENERGY      -275.660949508482

DIPOLE MOMENT
-------------

Method             : SCF
Type of density    : Electron Density
Multiplicity       :   1
Irrep              :   0
Energy             :  -275.7382522420776922 Eh
Relativity type    :
Basis              : AO
                                X                 Y                 Z
Electronic contribution:      0.493698406      -0.154244905      -0.408347951
Nuclear contribution   :     -0.466963474       0.182894205       0.390945622
                        -----------------------------------------
Total Dipole Moment    :      0.026734932       0.028649300      -0.017402329
                        -----------------------------------------
Magnitude (a.u.)       :      0.042876334
Magnitude (Debye)      :      0.108982981

Rotational constants in cm-1:             0.104074             0.059927             0.051568
Rotational constants in MHz :          3120.057795          1796.570304          1545.973337

                             ****ORCA TERMINATED NORMALLY****
TOTAL RUN TIME: 0 days 0 hours 0 minutes 10 seconds 40 msec
