                         Program Version 6.0.0  -   RELEASE  -
|  1> ! pbe def2-sv(p) def2/J RI DEFGRID1 loosescf d4 GCP(DFT/SV(P)) printgap
|  2> %output
|  3>     printlevel normal
|  4> end
|  5> * xyz 0 1
|  6> C 2.3642082665 0.5836274419 -0.7420112515
|  7> C 1.0690688815 -0.1148530277 -0.3210307675
|  8> H 0.672568482 -0.6705086944 -1.1846574917
|  9> C 0.0370567399 0.9175944314 0.1487976232
| 10> C -1.4287622688 0.4586911578 0.1814965992
| 11> C -1.9505273717 0.0931171962 -1.2077430791
| 12> C -1.6519723219 -0.6923165504 1.1581838689
| 13> O 1.3104225132 -1.0220901362 0.744026953
| 14> H 2.1734515397 1.2588026644 -1.5708003469
| 15> H 2.7649067538 1.1523380091 0.0939144959
| 16> H 3.107366298 -0.1462899047 -1.0564765132
| 17> H 0.3292529548 1.2277822987 1.1543280226
| 18> H 0.1061583719 1.7863578258 -0.5079980283
| 19> H -2.0078427895 1.3199546791 0.5376082784
| 20> H -1.7404412187 0.888305781 -1.919213816
| 21> H -3.0263067037 -0.0612778797 -1.1715442073
| 22> H -1.4930891694 -0.8252107859 -1.5669341527
| 23> H -2.7084984771 -0.9464103862 1.2075183535
| 24> H -1.0954730054 -1.5716688653 0.8470165961
| 25> H -1.312546458 -0.4174355414 2.153748351
| 26> H 2.0302088153 -1.6168280316 0.495450601
| 27> *
| 28>
| 29>                          ****END OF INPUT****

CARTESIAN COORDINATES (ANGSTROEM)
---------------------------------
  C      2.364208    0.583627   -0.742011
  C      1.069069   -0.114853   -0.321031
  H      0.672568   -0.670509   -1.184657
  C      0.037057    0.917594    0.148798
  C     -1.428762    0.458691    0.181497
  C     -1.950527    0.093117   -1.207743
  C     -1.651972   -0.692317    1.158184
  O      1.310423   -1.022090    0.744027
  H      2.173452    1.258803   -1.570800
  H      2.764907    1.152338    0.093914
  H      3.107366   -0.146290   -1.056477
  H      0.329253    1.227782    1.154328
  H      0.106158    1.786358   -0.507998
  H     -2.007843    1.319955    0.537608
  H     -1.740441    0.888306   -1.919214
  H     -3.026307   -0.061278   -1.171544
  H     -1.493089   -0.825211   -1.566934
  H     -2.708498   -0.946410    1.207518
  H     -1.095473   -1.571669    0.847017
  H     -1.312546   -0.417436    2.153748
  H      2.030209   -1.616828    0.495451

 Total Charge           Charge          ....    0
 Multiplicity           Mult            ....    1
 Number of Electrons    NEL             ....   58
 Basis Dimension        Dim             ....  126

ORBITAL ENERGIES
----------------

  NO   OCC          E(Eh)            E(eV)
   0   2.0000     -18.739192      -509.9193
   1   2.0000      -9.935949      -270.3709
   2   2.0000      -9.887515      -269.0530
   3   2.0000      -9.876691      -268.7584
   4   2.0000      -9.875920      -268.7374
   5   2.0000      -9.867496      -268.5082
   6   2.0000      -9.856669      -268.2136
   7   2.0000      -0.916966       -24.9519
   8   2.0000      -0.725102       -19.7310
   9   2.0000      -0.675548       -18.3826
  10   2.0000      -0.608119       -16.5477
  11   2.0000      -0.599623       -16.3166
  12   2.0000      -0.539555       -14.6820
  13   2.0000      -0.479786       -13.0556
  14   2.0000      -0.459466       -12.5027
  15   2.0000      -0.414516       -11.2796
  16   2.0000      -0.392980       -10.6935
  17   2.0000      -0.379850       -10.3362
  18   2.0000      -0.370194       -10.0735
  19   2.0000      -0.359108        -9.7718
  20   2.0000      -0.331802        -9.0288
  21   2.0000      -0.330895        -9.0041
  22   2.0000      -0.321004        -8.7350
  23   2.0000      -0.310488        -8.4488
  24   2.0000      -0.291646        -7.9361
  25   2.0000      -0.277759        -7.5582
  26   2.0000      -0.274746        -7.4762
  27   2.0000      -0.252955        -6.8833
  28   2.0000      -0.211587        -5.7576
  29   0.0000       0.022316         0.6072
  30   0.0000       0.047148         1.2830
  31   0.0000       0.065978         1.7953
  32   0.0000       0.075886         2.0650
  33   0.0000       0.085048         2.3143

MULLIKEN ATOMIC CHARGES
-----------------------
   0 C :   -0.259086
   1 C :   -0.000560
   2 H :    0.062960
   3 C :   -0.112737
   4 C :   -0.167258
   5 C :   -0.257457
   6 C :   -0.231539
   7 O :   -0.421359
   8 H :    0.097318
   9 H :    0.103884
  10 H :    0.089134
  11 H :    0.083573
  12 H :    0.077539
  13 H :    0.066877
  14 H :    0.091365
  15 H :    0.097245
  16 H :    0.101996
  17 H :    0.087079
  18 H :    0.104076
  19 H :    0.094267
  20 H :    0.292682
Sum of atomic charges:   -0.0000000

LOEWDIN ATOMIC CHARGES
----------------------
   0 C :   -0.351128
   1 C :   -0.057957
   2 H :    0.095342
   3 C :   -0.219711
   4 C :   -0.155597
   5 C :   -0.333169
   6 C :   -0.332527
   7 O :   -0.327560
   8 H :    0.122215
   9 H :    0.122145
  10 H :    0.111657
  11 H :    0.121972
  12 H :    0.116922
  13 H :    0.113650
  14 H :    0.113649
  15 H :    0.118529
  16 H :    0.114455
  17 H :    0.111072
  18 H :    0.117833
  19 H :    0.117560
  20 H :    0.280649

  Mayer bond orders larger than 0.100000
B(  0-C ,  1-C ) :   1.1126 B(  0-C ,  8-H ) :   0.9371 B(  0-C ,  9-H ) :   0.9434
B(  0-C , 10-H ) :   0.9457 B(  1-C ,  2-H ) :   0.9037 B(  1-C ,  3-C ) :   1.0629
B(  1-C ,  7-O ) :   1.0396 B(  3-C ,  4-C ) :   1.0986 B(  3-C , 11-H ) :   0.8999
B(  3-C , 12-H ) :   0.9191 B(  4-C ,  5-C ) :   1.1128 B(  4-C ,  6-C ) :   1.1188
B(  4-C , 13-H ) :   0.9014 B(  5-C , 14-H ) :   0.9515 B(  5-C , 15-H ) :   0.9488
B(  5-C , 16-H ) :   0.9425 B(  6-C , 17-H ) :   0.9488 B(  6-C , 18-H ) :   0.9372
B(  6-C , 19-H ) :   0.9500 B(  7-O , 20-H ) :   0.8516

Dispersion correction           -0.016602397
FINAL SINGLE POINT ENERGY      -311.516747923039

DIPOLE MOMENT
-------------

Method             : SCF
Type of density    : Electron Density
Multiplicity       :   1
Irrep              :   0
Energy             :  -311.5966191676458834 Eh
Relativity type    :
Basis              : AO
                                X                 Y                 Z
Electronic contribution:      2.425331632      -1.313362364       1.883252123
Nuclear contribution   :     -2.044779126       1.277537421      -2.323146363
                        -----------------------------------------
Total Dipole Moment    :      0.380552506      -0.035824942      -0.439894239
                        -----------------------------------------
Magnitude (a.u.)       :      0.582761167
Magnitude (Debye)      :      1.481261169

Rotational constants in cm-1:             0.130840             0.055779             0.046476
Rotational constants in MHz :          3922.495414          1672.216565          1393.319018

                             ****ORCA TERMINATED NORMALLY****
TOTAL RUN TIME: 0 days 0 hours 0 minutes 9 seconds 458 msec
