                         Program Version 6.0.0  -   RELEASE  -
|  1> ! pbe def2-sv(p) def2/J RI DEFGRID1 loosescf d4 GCP(DFT/SV(P)) printgap
|  2> %output
|  3>     printlevel normal
|  4> end
|  5> * xyz 0 1
|  6> C 2.2109665574 -0.8544920907 0.4671025661
|  7> C 1.4459153348 0.4034947653 0.0672141529
|  8> C 0.346282502 0.1342804964 -0.9708979263
|  9> C -1.0804789325 0.0084490401 -0.4077959721
| 10> H -1.7436228617 -0.2633827115 -1.2386108562
| 11> C -1.2129812161 -1.0450412613 0.690806963
| 12> O -1.583050307 1.2639082681 0.0215207503
| 13> H 2.6970574139 -1.2908167226 -0.4025447209
| 14> H 1.5491250395 -1.5999038296 0.8978363732
| 15> H 2.9776375199 -0.6112533159 1.1993921521
| 16> H 1.0187062552 0.864587134 0.9600236295
| 17> H 2.1577620457 1.1188568029 -0.3491748349
| 18> H 0.320431817 0.9520209239 -1.6944865871
| 19> H 0.5786795764 -0.780591449 -1.5168593179
| 20> H -0.601824801 -0.787090331 1.5516933481
| 21> H -2.2504534571 -1.1042807166 1.0116079191
| 22> H -0.9071337395 -2.0155076855 0.3119698462
| 23> H -1.0413321777 1.5812780219 0.7576070407
| 24> *
| 25>
| 26>                          ****END OF INPUT****

CARTESIAN COORDINATES (ANGSTROEM)
---------------------------------
  C      2.210967   -0.854492    0.467103
  C      1.445915    0.403495    0.067214
  C      0.346283    0.134280   -0.970898
  C     -1.080479    0.008449   -0.407796
  H     -1.743623   -0.263383   -1.238611
  C     -1.212981   -1.045041    0.690807
  O     -1.583050    1.263908    0.021521
  H      2.697057   -1.290817   -0.402545
  H      1.549125   -1.599904    0.897836
  H      2.977638   -0.611253    1.199392
  H      1.018706    0.864587    0.960024
  H      2.157762    1.118857   -0.349175
  H      0.320432    0.952021   -1.694487
  H      0.578680   -0.780591   -1.516859
  H     -0.601825   -0.787090    1.551693
  H     -2.250453   -1.104281    1.011608
  H     -0.907134   -2.015508    0.311970
  H     -1.041332    1.581278    0.757607

 Total Charge           Charge          ....    0
 Multiplicity           Mult            ....    1
 Number of Electrons    NEL             ....   50
 Basis Dimension        Dim             ....  108

ORBITAL ENERGIES
----------------

  NO   OCC          E(Eh)            E(eV)
   0   2.0000     -18.735410      -509.8164
   1   2.0000      -9.934006      -270.3180
   2   2.0000      -9.890363      -269.1304
   3   2.0000      -9.880080      -268.8507
   4   2.0000      -9.876933      -268.7650
   5   2.0000      -9.874407      -268.6963
   6   2.0000      -0.913439       -24.8559
   7   2.0000      -0.718158       -19.5421
   8   2.0000      -0.666617       -18.1396
   9   2.0000      -0.614201       -16.7132
  10   2.0000      -0.554030       -15.0759
  11   2.0000      -0.510766       -13.8987
  12   2.0000      -0.439373       -11.9560
  13   2.0000      -0.417283       -11.3549
  14   2.0000      -0.401643       -10.9293
  15   2.0000      -0.386015       -10.5040
  16   2.0000      -0.362236        -9.8570
  17   2.0000      -0.353939        -9.6312
  18   2.0000      -0.330430        -8.9915
  19   2.0000      -0.326990        -8.8978
  20   2.0000      -0.307007        -8.3541
  21   2.0000      -0.294915        -8.0251
  22   2.0000      -0.282388        -7.6842
  23   2.0000      -0.260006        -7.0751
  24   2.0000      -0.209379        -5.6975
  25   0.0000       0.022535         0.6132
  26   0.0000       0.046803         1.2736
  27   0.0000       0.064191         1.7467
  28   0.0000       0.069182         1.8825
  29   0.0000       0.087194         2.3727

MULLIKEN ATOMIC CHARGES
-----------------------
   0 C :   -0.293869
   1 C :   -0.202844
   2 C :   -0.124681
   3 C :    0.003626
   4 H :    0.070258
   5 C :   -0.261131
   6 O :   -0.432382
   7 H :    0.104774
   8 H :    0.106033
   9 H :    0.102209
  10 H :    0.072354
  11 H :    0.090524
  12 H :    0.087559
  13 H :    0.078994
  14 H :    0.096574
  15 H :    0.110237
  16 H :    0.100236
  17 H :    0.291530
Sum of atomic charges:    0.0000000

LOEWDIN ATOMIC CHARGES
----------------------
   0 C :   -0.342289
   1 C :   -0.237917
   2 C :   -0.241589
   3 C :   -0.056916
   4 H :    0.112538
   5 C :   -0.354284
   6 O :   -0.331621
   7 H :    0.118630
   8 H :    0.116621
   9 H :    0.118838
  10 H :    0.101671
  11 H :    0.120417
  12 H :    0.121029
  13 H :    0.117872
  14 H :    0.115161
  15 H :    0.124052
  16 H :    0.122383
  17 H :    0.275405

  Mayer bond orders larger than 0.100000
B(  0-C ,  1-C ) :   1.1578 B(  0-C ,  7-H ) :   0.9528 B(  0-C ,  8-H ) :   0.9491
B(  0-C ,  9-H ) :   0.9512 B(  1-C ,  2-C ) :   1.0761 B(  1-C , 10-H ) :   0.9235
B(  1-C , 11-H ) :   0.9280 B(  2-C ,  3-C ) :   1.0806 B(  2-C , 12-H ) :   0.9164
B(  2-C , 13-H ) :   0.9156 B(  3-C ,  4-H ) :   0.9041 B(  3-C ,  5-C ) :   1.1146
B(  3-C ,  6-O ) :   1.0391 B(  5-C , 14-H ) :   0.9334 B(  5-C , 15-H ) :   0.9427
B(  5-C , 16-H ) :   0.9360 B(  6-O , 17-H ) :   0.8507

Dispersion correction           -0.013104546
FINAL SINGLE POINT ENERGY      -272.301295949793

DIPOLE MOMENT
-------------

Method             : SCF
Type of density    : Electron Density
Multiplicity       :   1
Irrep              :   0
Energy             :  -272.3710545818765354 Eh
Relativity type    :
Basis              : AO
                                X                 Y                 Z
Electronic contribution:     -3.933099927       3.428333247      -1.161142425
Nuclear contribution   :      4.437505483      -3.673933763       1.396732775
                        -----------------------------------------
Total Dipole Moment    :      0.504405556      -0.245600516       0.235590349
                        -----------------------------------------
Magnitude (a.u.)       :      0.608479573
Magnitude (Debye)      :      1.546632163

Rotational constants in cm-1:             0.179677             0.073761             0.063071
Rotational constants in MHz :          5386.587558          2211.294044          1890.828990

                             ****ORCA TERMINATED NORMALLY****
TOTAL RUN TIME: 0 days 0 hours 0 minutes 7 seconds 545 msec
