                         Program Version 6.0.0  -   RELEASE  -
|  1> ! pbe def2-sv(p) def2/J RI DEFGRID1 loosescf d4 GCP(DFT/SV(P)) printgap
|  2> %output
|  3>     printlevel normal
|  4> end
|  5> * xyz 0 1
|  6> C -3.2153444794 0.4964468073 0.0996907591
|  7> C -1.8766146956 -0.2079491505 0.27589119
|  8> C -0.7355973149 0.5978300188 -0.3550280406
|  9> C 0.5648975792 -0.1537996009 -0.2562579865
| 10> O 0.7424343476 -1.2882852537 -0.649271798
| 11> O 1.5045998224 0.5753070783 0.3336044795
| 12> C 2.8085004898 0.0125194853 0.5124195415
| 13> H -3.1919165148 1.4786933961 0.564512009
| 14> H -3.446575498 0.6186259727 -0.95534552
| 15> H -4.0082708192 -0.085293671 0.5614622414
| 16> H -1.9059323936 -1.1947572531 -0.1902000364
| 17> H -1.6718802048 -0.3476375746 1.339164504
| 18> H -0.6211215572 1.5651676668 0.1324287552
| 19> H -0.9518194377 0.7510428957 -1.4142359808
| 20> H 3.4657113253 0.3951225121 -0.2679102735
| 21> H 2.7545298516 -1.0750670692 0.451615187
| 22> H 3.1537196318 0.3332903213 1.4918321256
| 23> *
| 24>
| 25>                          ****END OF INPUT****

CARTESIAN COORDINATES (ANGSTROEM)
---------------------------------
  C     -3.215344    0.496447    0.099691
  C     -1.876615   -0.207949    0.275891
  C     -0.735597    0.597830   -0.355028
  C      0.564898   -0.153800   -0.256258
  O      0.742434   -1.288285   -0.649272
  O      1.504600    0.575307    0.333604
  C      2.808500    0.012519    0.512420
  H     -3.191917    1.478693    0.564512
  H     -3.446575    0.618626   -0.955346
  H     -4.008271   -0.085294    0.561462
  H     -1.905932   -1.194757   -0.190200
  H     -1.671880   -0.347638    1.339165
  H     -0.621122    1.565168    0.132429
  H     -0.951819    0.751043   -1.414236
  H      3.465711    0.395123   -0.267910
  H      2.754530   -1.075067    0.451615
  H      3.153720    0.333290    1.491832

 Total Charge           Charge          ....    0
 Multiplicity           Mult            ....    1
 Number of Electrons    NEL             ....   56
 Basis Dimension        Dim             ....  118

ORBITAL ENERGIES
----------------

  NO   OCC          E(Eh)            E(eV)
   0   2.0000     -18.799326      -511.5557
   1   2.0000     -18.730514      -509.6832
   2   2.0000     -10.004386      -272.2332
   3   2.0000      -9.939880      -270.4779
   4   2.0000      -9.896376      -269.2941
   5   2.0000      -9.891575      -269.1634
   6   2.0000      -9.878669      -268.8123
   7   2.0000      -1.004017       -27.3207
   8   2.0000      -0.907886       -24.7048
   9   2.0000      -0.724669       -19.7193
  10   2.0000      -0.673803       -18.3351
  11   2.0000      -0.620521       -16.8852
  12   2.0000      -0.536266       -14.5925
  13   2.0000      -0.503477       -13.7003
  14   2.0000      -0.448122       -12.1940
  15   2.0000      -0.437568       -11.9068
  16   2.0000      -0.423800       -11.5322
  17   2.0000      -0.404481       -11.0065
  18   2.0000      -0.380841       -10.3632
  19   2.0000      -0.374556       -10.1922
  20   2.0000      -0.353627        -9.6227
  21   2.0000      -0.333332        -9.0704
  22   2.0000      -0.319287        -8.6882
  23   2.0000      -0.301725        -8.2104
  24   2.0000      -0.294879        -8.0241
  25   2.0000      -0.291227        -7.9247
  26   2.0000      -0.255190        -6.9441
  27   2.0000      -0.218239        -5.9386
  28   0.0000      -0.018312        -0.4983
  29   0.0000       0.041527         1.1300
  30   0.0000       0.059233         1.6118
  31   0.0000       0.078220         2.1285
  32   0.0000       0.083429         2.2702

MULLIKEN ATOMIC CHARGES
-----------------------
   0 C :   -0.250362
   1 C :   -0.227013
   2 C :   -0.144962
   3 C :    0.111349
   4 O :   -0.208544
   5 O :   -0.237280
   6 C :   -0.127158
   7 H :    0.097907
   8 H :    0.099024
   9 H :    0.106775
  10 H :    0.110203
  11 H :    0.093938
  12 H :    0.093312
  13 H :    0.108758
  14 H :    0.120964
  15 H :    0.131336
  16 H :    0.121754
Sum of atomic charges:    0.0000000

LOEWDIN ATOMIC CHARGES
----------------------
   0 C :   -0.339610
   1 C :   -0.226720
   2 C :   -0.245823
   3 C :    0.036591
   4 O :   -0.172956
   5 O :   -0.073742
   6 C :   -0.208562
   7 H :    0.117263
   8 H :    0.118299
   9 H :    0.121737
  10 H :    0.124387
  11 H :    0.118349
  12 H :    0.126936
  13 H :    0.139856
  14 H :    0.119935
  15 H :    0.123508
  16 H :    0.120554

  Mayer bond orders larger than 0.100000
B(  0-C ,  1-C ) :   1.1594 B(  0-C ,  7-H ) :   0.9526 B(  0-C ,  8-H ) :   0.9541
B(  0-C ,  9-H ) :   0.9527 B(  1-C ,  2-C ) :   1.1253 B(  1-C , 10-H ) :   0.9209
B(  1-C , 11-H ) :   0.9317 B(  2-C ,  3-C ) :   1.0165 B(  2-C , 12-H ) :   0.9095
B(  2-C , 13-H ) :   0.8938 B(  3-C ,  4-O ) :   2.0603 B(  3-C ,  5-O ) :   1.2236
B(  5-O ,  6-C ) :   0.9366 B(  6-C , 14-H ) :   0.9600 B(  6-C , 15-H ) :   0.9324
B(  6-C , 16-H ) :   0.9610

Dispersion correction           -0.011714490
FINAL SINGLE POINT ENERGY      -346.239282582857

DIPOLE MOMENT
-------------

Method             : SCF
Type of density    : Electron Density
Multiplicity       :   1
Irrep              :   0
Energy             :  -346.3041217997849230 Eh
Relativity type    :
Basis              : AO
                                X                 Y                 Z
Electronic contribution:      6.158060039      -1.706527571      -1.279771277
Nuclear contribution   :     -5.993054315       2.277794700       1.602703322
                        -----------------------------------------
Total Dipole Moment    :      0.165005723       0.571267129       0.322932045
                        -----------------------------------------
Magnitude (a.u.)       :      0.676652146
Magnitude (Debye)      :      1.719913072

Rotational constants in cm-1:             0.244571             0.041012             0.037611
Rotational constants in MHz :          7332.067751          1229.495247          1127.542890

                             ****ORCA TERMINATED NORMALLY****
TOTAL RUN TIME: 0 days 0 hours 0 minutes 9 seconds 756 msec
