                         Program Version 6.0.0  -   RELEASE  -
|  1> ! r2scan-3c def2/J RI DEFGRID2 scfconv6 printgap
|  2> %output
|  3>     printlevel normal
|  4> end
|  5> * xyz 0 1
|  6> C 2.224690905 0.7157901526 -0.124651875
|  7> C 1.6479614923 -0.6947040769 -0.1883924528
|  8> C 0.2557735493 -0.8225450857 0.4336617221
|  9> C -0.8315774329 0.0085156268 -0.2705402909
| 10> H -0.5412562806 0.1749900479 -1.3213172882
| 11> C -2.1814637736 -0.7040135511 -0.2450685728
| 12> O -1.0292809526 1.2681379014 0.356795474
| 13> H 1.6525537111 1.4001148249 -0.7468556151
| 14> H 3.2493756481 0.7166557327 -0.4886758028
| 15> H 2.2286588526 1.0815984946 0.8997832877
| 16> H 1.6022419528 -1.0187348488 -1.2306937358
| 17> H 2.3195045157 -1.3755948391 0.3389357598
| 18> H -0.035820895 -1.8731622415 0.4023470871
| 19> H 0.2869062742 -0.520733987 1.4832183858
| 20> H -2.9395434756 -0.059720799 -0.6824870037
| 21> H -2.1294839208 -1.6303608739 -0.8084838113
| 22> H -2.4628574789 -0.9174468707 0.7827090318
| 23> H -0.183358017 1.7310015689 0.414806769
| 24> *
| 25>
| 26>                          ****END OF INPUT****

CARTESIAN COORDINATES (ANGSTROEM)
---------------------------------
  C      2.224691    0.715790   -0.124652
  C      1.647961   -0.694704   -0.188392
  C      0.255774   -0.822545    0.433662
  C     -0.831577    0.008516   -0.270540
  H     -0.541256    0.174990   -1.321317
  C     -2.181464   -0.704014   -0.245069
  O     -1.029281    1.268138    0.356795
  H      1.652554    1.400115   -0.746856
  H      3.249376    0.716656   -0.488676
  H      2.228659    1.081598    0.899783
  H      1.602242   -1.018735   -1.230694
  H      2.319505   -1.375595    0.338936
  H     -0.035821   -1.873162    0.402347
  H      0.286906   -0.520734    1.483218
  H     -2.939543   -0.059721   -0.682487
  H     -2.129484   -1.630361   -0.808484
  H     -2.462857   -0.917447    0.782709
  H     -0.183358    1.731002    0.414807

 Total Charge           Charge          ....    0
 Multiplicity           Mult            ....    1
 Number of Electrons    NEL             ....   50
 Basis Dimension        Dim             ....  179

ORBITAL ENERGIES
----------------

  NO   OCC          E(Eh)            E(eV)
   0   2.0000     -18.940695      -515.4025
   1   2.0000     -10.078570      -274.2518
   2   2.0000     -10.031294      -272.9654
   3   2.0000     -10.026634      -272.8386
   4   2.0000     -10.023614      -272.7564
   5   2.0000     -10.013843      -272.4905
   6   2.0000      -0.978976       -26.6393
   7   2.0000      -0.765648       -20.8343
   8   2.0000      -0.716290       -19.4912
   9   2.0000      -0.651156       -17.7189
  10   2.0000      -0.574805       -15.6412
  11   2.0000      -0.542154       -14.7528
  12   2.0000      -0.482293       -13.1239
  13   2.0000      -0.426898       -11.6165
  14   2.0000      -0.419475       -11.4145
  15   2.0000      -0.404523       -11.0076
  16   2.0000      -0.371848       -10.1185
  17   2.0000      -0.356076        -9.6893
  18   2.0000      -0.350805        -9.5459
  19   2.0000      -0.339856        -9.2480
  20   2.0000      -0.327400        -8.9090
  21   2.0000      -0.307476        -8.3668
  22   2.0000      -0.300761        -8.1841
  23   2.0000      -0.274365        -7.4658
  24   2.0000      -0.230115        -6.2617
  25   0.0000       0.060869         1.6563
  26   0.0000       0.100150         2.7252
  27   0.0000       0.107067         2.9134
  28   0.0000       0.117184         3.1887
  29   0.0000       0.126090         3.4311

MULLIKEN ATOMIC CHARGES
-----------------------
   0 C :   -0.514557
   1 C :   -0.248268
   2 C :   -0.292836
   3 C :    0.050013
   4 H :    0.136996
   5 C :   -0.501742
   6 O :   -0.434513
   7 H :    0.149008
   8 H :    0.153164
   9 H :    0.156714
  10 H :    0.143469
  11 H :    0.144380
  12 H :    0.146331
  13 H :    0.163205
  14 H :    0.156277
  15 H :    0.142015
  16 H :    0.152894
  17 H :    0.297448
Sum of atomic charges:   -0.0000000

LOEWDIN ATOMIC CHARGES
----------------------
   0 C :   -0.431744
   1 C :   -0.314331
   2 C :   -0.293228
   3 C :    0.049039
   4 H :    0.160263
   5 C :   -0.384232
   6 O :   -0.620613
   7 H :    0.147199
   8 H :    0.154113
   9 H :    0.150523
  10 H :    0.152512
  11 H :    0.152717
  12 H :    0.163205
  13 H :    0.168939
  14 H :    0.162618
  15 H :    0.154659
  16 H :    0.161542
  17 H :    0.266818

  Mayer bond orders larger than 0.100000
B(  0-C ,  1-C ) :   0.8648 B(  0-C ,  7-H ) :   0.9736 B(  0-C ,  8-H ) :   0.9643
B(  0-C ,  9-H ) :   0.9828 B(  1-C ,  2-C ) :   0.8998 B(  1-C , 10-H ) :   0.9859
B(  1-C , 11-H ) :   0.9784 B(  2-C ,  3-C ) :   0.8385 B(  2-C , 12-H ) :   0.9663
B(  2-C , 13-H ) :   0.9882 B(  3-C ,  4-H ) :   0.9734 B(  3-C ,  5-C ) :   0.9227
B(  3-C ,  6-O ) :   0.8590 B(  5-C , 14-H ) :   0.9733 B(  5-C , 15-H ) :   0.9757
B(  5-C , 16-H ) :   0.9801 B(  6-O , 17-H ) :   0.8888

Dispersion correction           -0.004304069
FINAL SINGLE POINT ENERGY      -272.900123388478

DIPOLE MOMENT
-------------

Method             : SCF
Type of density    : Electron Density
Multiplicity       :   1
Irrep              :   0
Energy             :  -272.9054555621910936 Eh
Relativity type    :
Basis              : AO
                                X                 Y                 Z
Electronic contribution:     -2.238571446       1.838106041       0.716901463
Nuclear contribution   :      2.843235359      -2.130882574      -0.892258273
                        -----------------------------------------
Total Dipole Moment    :      0.604663913      -0.292776533      -0.175356810
                        -----------------------------------------
Magnitude (a.u.)       :      0.694324533
Magnitude (Debye)      :      1.764832709

Rotational constants in cm-1:             0.200257             0.071082             0.057960
Rotational constants in MHz :          6003.566980          2130.976296          1737.583211

                             ****ORCA TERMINATED NORMALLY****
TOTAL RUN TIME: 0 days 0 hours 0 minutes 23 seconds 18 msec
