                         Program Version 6.0.0  -   RELEASE  -
|  1> ! r2scan-3c def2/J RI DEFGRID2 scfconv6 printgap
|  2> %output
|  3>     printlevel normal
|  4> end
|  5> %cpcm
|  6>     smd true
|  7>     smdsolvent "water"
|  8> end
|  9> * xyz 0 1
| 10> C 2.224690905 0.7157901526 -0.124651875
| 11> C 1.6479614923 -0.6947040769 -0.1883924528
| 12> C 0.2557735493 -0.8225450857 0.4336617221
| 13> C -0.8315774329 0.0085156268 -0.2705402909
| 14> H -0.5412562806 0.1749900479 -1.3213172882
| 15> C -2.1814637736 -0.7040135511 -0.2450685728
| 16> O -1.0292809526 1.2681379014 0.356795474
| 17> H 1.6525537111 1.4001148249 -0.7468556151
| 18> H 3.2493756481 0.7166557327 -0.4886758028
| 19> H 2.2286588526 1.0815984946 0.8997832877
| 20> H 1.6022419528 -1.0187348488 -1.2306937358
| 21> H 2.3195045157 -1.3755948391 0.3389357598
| 22> H -0.035820895 -1.8731622415 0.4023470871
| 23> H 0.2869062742 -0.520733987 1.4832183858
| 24> H -2.9395434756 -0.059720799 -0.6824870037
| 25> H -2.1294839208 -1.6303608739 -0.8084838113
| 26> H -2.4628574789 -0.9174468707 0.7827090318
| 27> H -0.183358017 1.7310015689 0.414806769
| 28> *
| 29>
| 30>                          ****END OF INPUT****

CARTESIAN COORDINATES (ANGSTROEM)
---------------------------------
  C      2.224691    0.715790   -0.124652
  C      1.647961   -0.694704   -0.188392
  C      0.255774   -0.822545    0.433662
  C     -0.831577    0.008516   -0.270540
  H     -0.541256    0.174990   -1.321317
  C     -2.181464   -0.704014   -0.245069
  O     -1.029281    1.268138    0.356795
  H      1.652554    1.400115   -0.746856
  H      3.249376    0.716656   -0.488676
  H      2.228659    1.081598    0.899783
  H      1.602242   -1.018735   -1.230694
  H      2.319505   -1.375595    0.338936
  H     -0.035821   -1.873162    0.402347
  H      0.286906   -0.520734    1.483218
  H     -2.939543   -0.059721   -0.682487
  H     -2.129484   -1.630361   -0.808484
  H     -2.462857   -0.917447    0.782709
  H     -0.183358    1.731002    0.414807

 Total Charge           Charge          ....    0
 Multiplicity           Mult            ....    1
 Number of Electrons    NEL             ....   50
 Basis Dimension        Dim             ....  179

ORBITAL ENERGIES
----------------

  NO   OCC          E(Eh)            E(eV)
   0   2.0000     -18.947334      -515.5832
   1   2.0000     -10.074777      -274.1486
   2   2.0000     -10.017930      -272.6017
   3   2.0000     -10.014428      -272.5064
   4   2.0000     -10.009976      -272.3853
   5   2.0000     -10.009779      -272.3799
   6   2.0000      -0.984321       -26.7847
   7   2.0000      -0.755348       -20.5541
   8   2.0000      -0.709346       -19.3023
   9   2.0000      -0.641180       -17.4474
  10   2.0000      -0.567145       -15.4328
  11   2.0000      -0.535093       -14.5606
  12   2.0000      -0.479589       -13.0503
  13   2.0000      -0.417013       -11.3475
  14   2.0000      -0.410855       -11.1799
  15   2.0000      -0.396369       -10.7857
  16   2.0000      -0.363887        -9.9019
  17   2.0000      -0.351718        -9.5707
  18   2.0000      -0.346844        -9.4381
  19   2.0000      -0.329576        -8.9682
  20   2.0000      -0.322323        -8.7708
  21   2.0000      -0.298328        -8.1179
  22   2.0000      -0.290403        -7.9023
  23   2.0000      -0.270720        -7.3667
  24   2.0000      -0.235681        -6.4132
  25   0.0000       0.074943         2.0393
  26   0.0000       0.111763         3.0412
  27   0.0000       0.115350         3.1388
  28   0.0000       0.129115         3.5134
  29   0.0000       0.135233         3.6799

MULLIKEN ATOMIC CHARGES
-----------------------
   0 C :   -0.537901
   1 C :   -0.267582
   2 C :   -0.293568
   3 C :    0.060536
   4 H :    0.150566
   5 C :   -0.540671
   6 O :   -0.523786
   7 H :    0.164394
   8 H :    0.160261
   9 H :    0.165162
  10 H :    0.151704
  11 H :    0.151718
  12 H :    0.158636
  13 H :    0.162545
  14 H :    0.160085
  15 H :    0.165544
  16 H :    0.161842
  17 H :    0.350515
Sum of atomic charges:   -0.0000000

LOEWDIN ATOMIC CHARGES
----------------------
   0 C :   -0.436427
   1 C :   -0.314995
   2 C :   -0.292348
   3 C :    0.049118
   4 H :    0.168188
   5 C :   -0.393560
   6 O :   -0.658418
   7 H :    0.152900
   8 H :    0.154721
   9 H :    0.154412
  10 H :    0.154953
  11 H :    0.154555
  12 H :    0.167347
  13 H :    0.169487
  14 H :    0.161121
  15 H :    0.163937
  16 H :    0.162117
  17 H :    0.282894

  Mayer bond orders larger than 0.100000
B(  0-C ,  1-C ) :   0.8671 B(  0-C ,  7-H ) :   0.9708 B(  0-C ,  8-H ) :   0.9635
B(  0-C ,  9-H ) :   0.9779 B(  1-C ,  2-C ) :   0.9005 B(  1-C , 10-H ) :   0.9865
B(  1-C , 11-H ) :   0.9777 B(  2-C ,  3-C ) :   0.8555 B(  2-C , 12-H ) :   0.9662
B(  2-C , 13-H ) :   0.9814 B(  3-C ,  4-H ) :   0.9665 B(  3-C ,  5-C ) :   0.9140
B(  3-C ,  6-O ) :   0.8423 B(  5-C , 14-H ) :   0.9730 B(  5-C , 15-H ) :   0.9690
B(  5-C , 16-H ) :   0.9767 B(  6-O , 17-H ) :   0.8639

Dispersion correction           -0.004304069
FINAL SINGLE POINT ENERGY      -272.906337647387

DIPOLE MOMENT
-------------

Method             : SCF
Type of density    : Electron Density
Multiplicity       :   1
Irrep              :   0
Energy             :  -272.9116698211000767 Eh
Relativity type    :
Basis              : AO
                                X                 Y                 Z
Electronic contribution:     -2.017174521       1.736249055       0.616284257
Nuclear contribution   :      2.843235359      -2.130882574      -0.892258273
                        -----------------------------------------
Total Dipole Moment    :      0.826060838      -0.394633519      -0.275974016
                        -----------------------------------------
Magnitude (a.u.)       :      0.956176647
Magnitude (Debye)      :      2.430407889

Rotational constants in cm-1:             0.200257             0.071082             0.057960
Rotational constants in MHz :          6003.566980          2130.976296          1737.583211

                             ****ORCA TERMINATED NORMALLY****
TOTAL RUN TIME: 0 days 0 hours 0 minutes 26 seconds 322 msec
