                         Program Version 6.0.0  -   RELEASE  -
|  1> ! r2scan-3c def2/J RI DEFGRID2 scfconv6 printgap
|  2> %output
|  3>     printlevel normal
|  4> end
|  5> * xyz 0 1
|  6> C -1.6576926676 0.9802248924 -0.9919714053
|  7> C -1.2792813362 0.1506181916 0.2331291524
|  8> C -2.4243366758 -0.7977185197 0.5895332874
|  9> C -5.5467e-06 -0.6620836117 0.000258299
| 10> C 1.279226268 0.1505349192 -0.2331961838
| 11> C 1.6578521707 0.9808664058 0.9913141807
| 12> C 2.4242129606 -0.7981287214 -0.5890761631
| 13> H -2.6065698035 1.4854639308 -0.8256420901
| 14> H -0.9062010022 1.7362092691 -1.2029573199
| 15> H -1.7589895212 0.3393738 -1.8654941172
| 16> H -1.1245821959 0.8267884325 1.079765996
| 17> H -2.611146 -1.489764847 -0.2290506863
| 18> H -2.1830620853 -1.3754780352 1.4789802283
| 19> H -3.3374957836 -0.2390507852 0.781436956
| 20> H -0.1613001065 -1.3100304018 -0.86550336
| 21> H 0.1614581173 -1.3092466947 0.866589278
| 22> H 1.1245869912 0.826250753 -1.0802033638
| 23> H 2.6064140645 1.4863905851 0.8243925941
| 24> H 0.9062344114 1.7366891744 1.2022016353
| 25> H 1.7596819806 0.3406445529 1.8651721216
| 26> H 2.1844224736 -1.3732987536 -1.4803646716
| 27> H 3.3384681068 -0.2400745229 -0.777472749
| 28> H 2.6083762128 -1.4922704889 0.2282548065
| 29> *
| 30>
| 31>                          ****END OF INPUT****

CARTESIAN COORDINATES (ANGSTROEM)
---------------------------------
  C     -1.657693    0.980225   -0.991971
  C     -1.279281    0.150618    0.233129
  C     -2.424337   -0.797719    0.589533
  C     -0.000006   -0.662084    0.000258
  C      1.279226    0.150535   -0.233196
  C      1.657852    0.980866    0.991314
  C      2.424213   -0.798129   -0.589076
  H     -2.606570    1.485464   -0.825642
  H     -0.906201    1.736209   -1.202957
  H     -1.758990    0.339374   -1.865494
  H     -1.124582    0.826788    1.079766
  H     -2.611146   -1.489765   -0.229051
  H     -2.183062   -1.375478    1.478980
  H     -3.337496   -0.239051    0.781437
  H     -0.161300   -1.310030   -0.865503
  H      0.161458   -1.309247    0.866589
  H      1.124587    0.826251   -1.080203
  H      2.606414    1.486391    0.824393
  H      0.906234    1.736689    1.202202
  H      1.759682    0.340645    1.865172
  H      2.184422   -1.373299   -1.480365
  H      3.338468   -0.240075   -0.777473
  H      2.608376   -1.492270    0.228255

 Total Charge           Charge          ....    0
 Multiplicity           Mult            ....    1
 Number of Electrons    NEL             ....   58
 Basis Dimension        Dim             ....  213

ORBITAL ENERGIES
----------------

  NO   OCC          E(Eh)            E(eV)
   0   2.0000     -10.029355      -272.9126
   1   2.0000     -10.029351      -272.9125
   2   2.0000     -10.017377      -272.5867
   3   2.0000     -10.012584      -272.4563
   4   2.0000     -10.012558      -272.4555
   5   2.0000     -10.012059      -272.4420
   6   2.0000     -10.012027      -272.4411
   7   2.0000      -0.786293       -21.3961
   8   2.0000      -0.743260       -20.2251
   9   2.0000      -0.648749       -17.6534
  10   2.0000      -0.646227       -17.5847
  11   2.0000      -0.639276       -17.3956
  12   2.0000      -0.541590       -14.7374
  13   2.0000      -0.512087       -13.9346
  14   2.0000      -0.445324       -12.1179
  15   2.0000      -0.416878       -11.3438
  16   2.0000      -0.407648       -11.0927
  17   2.0000      -0.394521       -10.7355
  18   2.0000      -0.372678       -10.1411
  19   2.0000      -0.364777        -9.9261
  20   2.0000      -0.350573        -9.5396
  21   2.0000      -0.350494        -9.5374
  22   2.0000      -0.330517        -8.9938
  23   2.0000      -0.317946        -8.6517
  24   2.0000      -0.308921        -8.4062
  25   2.0000      -0.301054        -8.1921
  26   2.0000      -0.285026        -7.7560
  27   2.0000      -0.278003        -7.5648
  28   2.0000      -0.271412        -7.3855
  29   0.0000       0.082374         2.2415
  30   0.0000       0.100738         2.7412
  31   0.0000       0.119965         3.2644
  32   0.0000       0.123310         3.3554
  33   0.0000       0.132313         3.6004

MULLIKEN ATOMIC CHARGES
-----------------------
   0 C :   -0.506133
   1 C :   -0.020209
   2 C :   -0.485891
   3 C :   -0.324494
   4 C :   -0.020126
   5 C :   -0.506134
   6 C :   -0.485933
   7 H :    0.144973
   8 H :    0.150126
   9 H :    0.151091
  10 H :    0.146188
  11 H :    0.146584
  12 H :    0.144652
  13 H :    0.146210
  14 H :    0.144671
  15 H :    0.144643
  16 H :    0.146186
  17 H :    0.144980
  18 H :    0.150110
  19 H :    0.151045
  20 H :    0.144746
  21 H :    0.146120
  22 H :    0.146598
Sum of atomic charges:    0.0000000

LOEWDIN ATOMIC CHARGES
----------------------
   0 C :   -0.417838
   1 C :   -0.246924
   2 C :   -0.416753
   3 C :   -0.300349
   4 C :   -0.246904
   5 C :   -0.417840
   6 C :   -0.416742
   7 H :    0.153049
   8 H :    0.151780
   9 H :    0.154165
  10 H :    0.155010
  11 H :    0.153563
  12 H :    0.152425
  13 H :    0.151498
  14 H :    0.160226
  15 H :    0.160205
  16 H :    0.155012
  17 H :    0.153031
  18 H :    0.151767
  19 H :    0.154161
  20 H :    0.152409
  21 H :    0.151487
  22 H :    0.153564

  Mayer bond orders larger than 0.100000
B(  0-C ,  1-C ) :   0.8899 B(  0-C ,  7-H ) :   0.9729 B(  0-C ,  8-H ) :   0.9752
B(  0-C ,  9-H ) :   0.9848 B(  1-C ,  2-C ) :   0.9093 B(  1-C ,  3-C ) :   0.9009
B(  1-C , 10-H ) :   0.9633 B(  2-C , 11-H ) :   0.9877 B(  2-C , 12-H ) :   0.9786
B(  2-C , 13-H ) :   0.9771 B(  3-C ,  4-C ) :   0.9009 B(  3-C , 14-H ) :   0.9857
B(  3-C , 15-H ) :   0.9856 B(  4-C ,  5-C ) :   0.8900 B(  4-C ,  6-C ) :   0.9093
B(  4-C , 16-H ) :   0.9633 B(  5-C , 17-H ) :   0.9729 B(  5-C , 18-H ) :   0.9752
B(  5-C , 19-H ) :   0.9848 B(  6-C , 20-H ) :   0.9786 B(  6-C , 21-H ) :   0.9771
B(  6-C , 22-H ) :   0.9878

Dispersion correction           -0.006315735
FINAL SINGLE POINT ENERGY      -276.289417424701

DIPOLE MOMENT
-------------

Method             : SCF
Type of density    : Electron Density
Multiplicity       :   1
Irrep              :   0
Energy             :  -276.2941160778404992 Eh
Relativity type    :
Basis              : AO
                                X                 Y                 Z
Electronic contribution:     -0.000306812       0.083753477      -0.000129607
Nuclear contribution   :      0.000277564      -0.048225280       0.000098749
                        -----------------------------------------
Total Dipole Moment    :     -0.000029248       0.035528197      -0.000030858
                        -----------------------------------------
Magnitude (a.u.)       :      0.035528223
Magnitude (Debye)      :      0.090305565

Rotational constants in cm-1:             0.137754             0.045476             0.043818
Rotational constants in MHz :          4129.751118          1363.345809          1313.616290

                             ****ORCA TERMINATED NORMALLY****
TOTAL RUN TIME: 0 days 0 hours 0 minutes 23 seconds 689 msec
