                         Program Version 6.0.0  -   RELEASE  -
|  1> ! r2scan-3c def2/J RI DEFGRID2 scfconv6 printgap
|  2> %output
|  3>     printlevel normal
|  4> end
|  5> %cpcm
|  6>     smd true
|  7>     smdsolvent "water"
|  8> end
|  9> * xyz 0 1
| 10> C -1.6576926676 0.9802248924 -0.9919714053
| 11> C -1.2792813362 0.1506181916 0.2331291524
| 12> C -2.4243366758 -0.7977185197 0.5895332874
| 13> C -5.5467e-06 -0.6620836117 0.000258299
| 14> C 1.279226268 0.1505349192 -0.2331961838
| 15> C 1.6578521707 0.9808664058 0.9913141807
| 16> C 2.4242129606 -0.7981287214 -0.5890761631
| 17> H -2.6065698035 1.4854639308 -0.8256420901
| 18> H -0.9062010022 1.7362092691 -1.2029573199
| 19> H -1.7589895212 0.3393738 -1.8654941172
| 20> H -1.1245821959 0.8267884325 1.079765996
| 21> H -2.611146 -1.489764847 -0.2290506863
| 22> H -2.1830620853 -1.3754780352 1.4789802283
| 23> H -3.3374957836 -0.2390507852 0.781436956
| 24> H -0.1613001065 -1.3100304018 -0.86550336
| 25> H 0.1614581173 -1.3092466947 0.866589278
| 26> H 1.1245869912 0.826250753 -1.0802033638
| 27> H 2.6064140645 1.4863905851 0.8243925941
| 28> H 0.9062344114 1.7366891744 1.2022016353
| 29> H 1.7596819806 0.3406445529 1.8651721216
| 30> H 2.1844224736 -1.3732987536 -1.4803646716
| 31> H 3.3384681068 -0.2400745229 -0.777472749
| 32> H 2.6083762128 -1.4922704889 0.2282548065
| 33> *
| 34>
| 35>                          ****END OF INPUT****

CARTESIAN COORDINATES (ANGSTROEM)
---------------------------------
  C     -1.657693    0.980225   -0.991971
  C     -1.279281    0.150618    0.233129
  C     -2.424337   -0.797719    0.589533
  C     -0.000006   -0.662084    0.000258
  C      1.279226    0.150535   -0.233196
  C      1.657852    0.980866    0.991314
  C      2.424213   -0.798129   -0.589076
  H     -2.606570    1.485464   -0.825642
  H     -0.906201    1.736209   -1.202957
  H     -1.758990    0.339374   -1.865494
  H     -1.124582    0.826788    1.079766
  H     -2.611146   -1.489765   -0.229051
  H     -2.183062   -1.375478    1.478980
  H     -3.337496   -0.239051    0.781437
  H     -0.161300   -1.310030   -0.865503
  H      0.161458   -1.309247    0.866589
  H      1.124587    0.826251   -1.080203
  H      2.606414    1.486391    0.824393
  H      0.906234    1.736689    1.202202
  H      1.759682    0.340645    1.865172
  H      2.184422   -1.373299   -1.480365
  H      3.338468   -0.240075   -0.777473
  H      2.608376   -1.492270    0.228255

 Total Charge           Charge          ....    0
 Multiplicity           Mult            ....    1
 Number of Electrons    NEL             ....   58
 Basis Dimension        Dim             ....  213

ORBITAL ENERGIES
----------------

  NO   OCC          E(Eh)            E(eV)
   0   2.0000     -10.021651      -272.7030
   1   2.0000     -10.021648      -272.7029
   2   2.0000     -10.009056      -272.3603
   3   2.0000     -10.004777      -272.2438
   4   2.0000     -10.004747      -272.2430
   5   2.0000     -10.004574      -272.2383
   6   2.0000     -10.004549      -272.2376
   7   2.0000      -0.778539       -21.1851
   8   2.0000      -0.735829       -20.0229
   9   2.0000      -0.641649       -17.4602
  10   2.0000      -0.639246       -17.3948
  11   2.0000      -0.632026       -17.1983
  12   2.0000      -0.534365       -14.5408
  13   2.0000      -0.504459       -13.7270
  14   2.0000      -0.437439       -11.9033
  15   2.0000      -0.409399       -11.1403
  16   2.0000      -0.400227       -10.8907
  17   2.0000      -0.387041       -10.5319
  18   2.0000      -0.365079        -9.9343
  19   2.0000      -0.357602        -9.7308
  20   2.0000      -0.343388        -9.3441
  21   2.0000      -0.343331        -9.3425
  22   2.0000      -0.322906        -8.7867
  23   2.0000      -0.310309        -8.4439
  24   2.0000      -0.301277        -8.1982
  25   2.0000      -0.293599        -7.9892
  26   2.0000      -0.276965        -7.5366
  27   2.0000      -0.270188        -7.3522
  28   2.0000      -0.263894        -7.1809
  29   0.0000       0.090935         2.4745
  30   0.0000       0.108406         2.9499
  31   0.0000       0.128134         3.4867
  32   0.0000       0.130833         3.5601
  33   0.0000       0.137448         3.7402

MULLIKEN ATOMIC CHARGES
-----------------------
   0 C :   -0.551836
   1 C :   -0.000449
   2 C :   -0.532152
   3 C :   -0.348105
   4 C :   -0.000368
   5 C :   -0.551834
   6 C :   -0.532182
   7 H :    0.155742
   8 H :    0.161632
   9 H :    0.161954
  10 H :    0.154068
  11 H :    0.157663
  12 H :    0.155771
  13 H :    0.157342
  14 H :    0.154313
  15 H :    0.154323
  16 H :    0.154063
  17 H :    0.155764
  18 H :    0.161612
  19 H :    0.161896
  20 H :    0.155853
  21 H :    0.157256
  22 H :    0.157677
Sum of atomic charges:    0.0000000

LOEWDIN ATOMIC CHARGES
----------------------
   0 C :   -0.426510
   1 C :   -0.244989
   2 C :   -0.426252
   3 C :   -0.303743
   4 C :   -0.244969
   5 C :   -0.426511
   6 C :   -0.426236
   7 H :    0.155010
   8 H :    0.154681
   9 H :    0.156415
  10 H :    0.157352
  11 H :    0.155622
  12 H :    0.154573
  13 H :    0.153823
  14 H :    0.162170
  15 H :    0.162158
  16 H :    0.157353
  17 H :    0.154997
  18 H :    0.154666
  19 H :    0.156405
  20 H :    0.154554
  21 H :    0.153811
  22 H :    0.155623

  Mayer bond orders larger than 0.100000
B(  0-C ,  1-C ) :   0.8821 B(  0-C ,  7-H ) :   0.9715 B(  0-C ,  8-H ) :   0.9721
B(  0-C ,  9-H ) :   0.9831 B(  1-C ,  2-C ) :   0.8957 B(  1-C ,  3-C ) :   0.9008
B(  1-C , 10-H ) :   0.9640 B(  2-C , 11-H ) :   0.9866 B(  2-C , 12-H ) :   0.9766
B(  2-C , 13-H ) :   0.9749 B(  3-C ,  4-C ) :   0.9007 B(  3-C , 14-H ) :   0.9840
B(  3-C , 15-H ) :   0.9839 B(  4-C ,  5-C ) :   0.8822 B(  4-C ,  6-C ) :   0.8957
B(  4-C , 16-H ) :   0.9640 B(  5-C , 17-H ) :   0.9715 B(  5-C , 18-H ) :   0.9721
B(  5-C , 19-H ) :   0.9831 B(  6-C , 20-H ) :   0.9765 B(  6-C , 21-H ) :   0.9749
B(  6-C , 22-H ) :   0.9866

Dispersion correction           -0.006315735
FINAL SINGLE POINT ENERGY      -276.285555438669

DIPOLE MOMENT
-------------

Method             : SCF
Type of density    : Electron Density
Multiplicity       :   1
Irrep              :   0
Energy             :  -276.2902540918086629 Eh
Relativity type    :
Basis              : AO
                                X                 Y                 Z
Electronic contribution:     -0.000294186       0.103557142      -0.000124136
Nuclear contribution   :      0.000277564      -0.048225280       0.000098749
                        -----------------------------------------
Total Dipole Moment    :     -0.000016621       0.055331862      -0.000025387
                        -----------------------------------------
Magnitude (a.u.)       :      0.055331870
Magnitude (Debye)      :      0.140642437

Rotational constants in cm-1:             0.137754             0.045476             0.043818
Rotational constants in MHz :          4129.751118          1363.345809          1313.616290

                             ****ORCA TERMINATED NORMALLY****
TOTAL RUN TIME: 0 days 0 hours 0 minutes 28 seconds 200 msec
