                         Program Version 6.0.0  -   RELEASE  -
|  1> ! pbe def2-sv(p) def2/J RI DEFGRID1 loosescf d4 GCP(DFT/SV(P)) printgap
|  2> %output
|  3>     printlevel normal
|  4> end
|  5> * xyz 0 1
|  6> C -2.2793490404 -0.2071000891 -0.1090212755
|  7> O -0.9402418231 -0.2893128437 0.3267302514
|  8> C -0.1064756641 0.6921182089 -0.2552193005
|  9> C 1.3161505761 0.5259492261 0.2786549429
| 10> O 1.9524147866 -0.6513775913 -0.1524351686
| 11> H -2.8144036333 -1.0020284066 0.4036131509
| 12> H -2.3493516437 -0.3515684194 -1.192945158
| 13> H -2.7153512389 0.7637961497 0.1515152522
| 14> H -0.1186530262 0.5891777612 -1.3513110692
| 15> H -0.4720359555 1.6969142332 0.0034122675
| 16> H 1.2800840253 0.4560611703 1.3671256049
| 17> H 1.9029719822 1.4087128245 -0.0081725382
| 18> H 1.9665129406 -0.6759499152 -1.1200377762
| 19> *
| 20>
| 21>                          ****END OF INPUT****

CARTESIAN COORDINATES (ANGSTROEM)
---------------------------------
  C     -2.279349   -0.207100   -0.109021
  O     -0.940242   -0.289313    0.326730
  C     -0.106476    0.692118   -0.255219
  C      1.316151    0.525949    0.278655
  O      1.952415   -0.651378   -0.152435
  H     -2.814404   -1.002028    0.403613
  H     -2.349352   -0.351568   -1.192945
  H     -2.715351    0.763796    0.151515
  H     -0.118653    0.589178   -1.351311
  H     -0.472036    1.696914    0.003412
  H      1.280084    0.456061    1.367126
  H      1.902972    1.408713   -0.008173
  H      1.966513   -0.675950   -1.120038

 Total Charge           Charge          ....    0
 Multiplicity           Mult            ....    1
 Number of Electrons    NEL             ....   42
 Basis Dimension        Dim             ....   86

ORBITAL ENERGIES
----------------

  NO   OCC          E(Eh)            E(eV)
   0   2.0000     -18.752290      -510.2757
   1   2.0000     -18.739822      -509.9365
   2   2.0000      -9.933677      -270.3091
   3   2.0000      -9.929917      -270.2068
   4   2.0000      -9.925814      -270.0951
   5   2.0000      -0.936560       -25.4851
   6   2.0000      -0.913765       -24.8648
   7   2.0000      -0.677039       -18.4232
   8   2.0000      -0.600874       -16.3506
   9   2.0000      -0.549419       -14.9505
  10   2.0000      -0.459129       -12.4935
  11   2.0000      -0.437601       -11.9077
  12   2.0000      -0.427708       -11.6385
  13   2.0000      -0.402173       -10.9437
  14   2.0000      -0.379773       -10.3342
  15   2.0000      -0.349885        -9.5209
  16   2.0000      -0.335594        -9.1320
  17   2.0000      -0.283601        -7.7172
  18   2.0000      -0.262216        -7.1353
  19   2.0000      -0.213288        -5.8039
  20   2.0000      -0.205677        -5.5968
  21   0.0000       0.025381         0.6906
  22   0.0000       0.050452         1.3729
  23   0.0000       0.072603         1.9756
  24   0.0000       0.088955         2.4206
  25   0.0000       0.096331         2.6213

MULLIKEN ATOMIC CHARGES
-----------------------
   0 C :   -0.100164
   1 O :   -0.335090
   2 C :   -0.031511
   3 C :    0.038009
   4 O :   -0.434773
   5 H :    0.118212
   6 H :    0.083541
   7 H :    0.083310
   8 H :    0.054370
   9 H :    0.066429
  10 H :    0.097272
  11 H :    0.069511
  12 H :    0.290885
Sum of atomic charges:   -0.0000000

LOEWDIN ATOMIC CHARGES
----------------------
   0 C :   -0.206614
   1 O :   -0.180347
   2 C :   -0.134773
   3 C :   -0.132898
   4 O :   -0.336849
   5 H :    0.117008
   6 H :    0.095340
   7 H :    0.095145
   8 H :    0.089106
   9 H :    0.097341
  10 H :    0.121381
  11 H :    0.096407
  12 H :    0.279752

  Mayer bond orders larger than 0.100000
B(  0-C ,  1-O ) :   1.0230 B(  0-C ,  5-H ) :   0.9641 B(  0-C ,  6-H ) :   0.9424
B(  0-C ,  7-H ) :   0.9420 B(  1-O ,  2-C ) :   1.0284 B(  2-C ,  3-C ) :   1.0887
B(  2-C ,  8-H ) :   0.9048 B(  2-C ,  9-H ) :   0.9032 B(  3-C ,  4-O ) :   1.0743
B(  3-C , 10-H ) :   0.9211 B(  3-C , 11-H ) :   0.9179 B(  4-O , 12-H ) :   0.8548

Dispersion correction           -0.007195217
FINAL SINGLE POINT ENERGY      -268.932808330190

DIPOLE MOMENT
-------------

Method             : SCF
Type of density    : Electron Density
Multiplicity       :   1
Irrep              :   0
Energy             :  -268.9929361634704605 Eh
Relativity type    :
Basis              : AO
                                X                 Y                 Z
Electronic contribution:      2.700423705      -2.058963280       0.942867529
Nuclear contribution   :     -3.099900881       2.692753991      -1.636209637
                        -----------------------------------------
Total Dipole Moment    :     -0.399477176       0.633790711      -0.693342107
                        -----------------------------------------
Magnitude (a.u.)       :      1.020782032
Magnitude (Debye)      :      2.594621727

Rotational constants in cm-1:             0.469455             0.084537             0.078664
Rotational constants in MHz :         14073.920420          2534.369602          2358.285938

                             ****ORCA TERMINATED NORMALLY****
TOTAL RUN TIME: 0 days 0 hours 0 minutes 6 seconds 285 msec
