                         Program Version 6.0.0  -   RELEASE  -
|  1> ! pbe def2-sv(p) def2/J RI DEFGRID1 loosescf d4 GCP(DFT/SV(P)) printgap
|  2> %output
|  3>     printlevel normal
|  4> end
|  5> * xyz 0 1
|  6> C -2.6556647528 0.4117056312 0.5792920077
|  7> C -1.7066817328 0.4565401231 -0.6222807762
|  8> C -0.4179324801 -0.232639048 -0.2559776527
|  9> O -0.1994930995 -1.4172304161 -0.4046501833
| 10> O 0.4425795225 0.6112554263 0.298157181
| 11> C 1.7111103431 0.1044651822 0.7451172972
| 12> C 2.728822258 0.0997044674 -0.3851877942
| 13> H -2.2184743044 0.9366415853 1.4248075267
| 14> H -3.597816413 0.8849123646 0.3200912553
| 15> H -2.8480985095 -0.618950824 0.8680607771
| 16> H -1.4914876526 1.4902091899 -0.8880111838
| 17> H -2.151731353 -0.0675161049 -1.4672404823
| 18> H 2.0106246962 0.7811076822 1.5460193038
| 19> H 1.5648215443 -0.9073045126 1.1354312711
| 20> H 2.4137150775 -0.5880068327 -1.1668289439
| 21> H 2.8239357939 1.0964042741 -0.8073826404
| 22> H 3.6916172503 -0.2209481165 -0.0009657698
| 23> *
| 24>
| 25>                          ****END OF INPUT****

CARTESIAN COORDINATES (ANGSTROEM)
---------------------------------
  C     -2.655665    0.411706    0.579292
  C     -1.706682    0.456540   -0.622281
  C     -0.417932   -0.232639   -0.255978
  O     -0.199493   -1.417230   -0.404650
  O      0.442580    0.611255    0.298157
  C      1.711110    0.104465    0.745117
  C      2.728822    0.099704   -0.385188
  H     -2.218474    0.936642    1.424808
  H     -3.597816    0.884912    0.320091
  H     -2.848099   -0.618951    0.868061
  H     -1.491488    1.490209   -0.888011
  H     -2.151731   -0.067516   -1.467240
  H      2.010625    0.781108    1.546019
  H      1.564822   -0.907305    1.135431
  H      2.413715   -0.588007   -1.166829
  H      2.823936    1.096404   -0.807383
  H      3.691617   -0.220948   -0.000966

 Total Charge           Charge          ....    0
 Multiplicity           Mult            ....    1
 Number of Electrons    NEL             ....   56
 Basis Dimension        Dim             ....  118

ORBITAL ENERGIES
----------------

  NO   OCC          E(Eh)            E(eV)
   0   2.0000     -18.796959      -511.4913
   1   2.0000     -18.729781      -509.6632
   2   2.0000     -10.003718      -272.2150
   3   2.0000      -9.946060      -270.6461
   4   2.0000      -9.898127      -269.3417
   5   2.0000      -9.887796      -269.0606
   6   2.0000      -9.886126      -269.0152
   7   2.0000      -1.003521       -27.3072
   8   2.0000      -0.907144       -24.6846
   9   2.0000      -0.721239       -19.6259
  10   2.0000      -0.686203       -18.6725
  11   2.0000      -0.606507       -16.5039
  12   2.0000      -0.563015       -15.3204
  13   2.0000      -0.496260       -13.5039
  14   2.0000      -0.452178       -12.3044
  15   2.0000      -0.426338       -11.6012
  16   2.0000      -0.416772       -11.3409
  17   2.0000      -0.398700       -10.8492
  18   2.0000      -0.384178       -10.4540
  19   2.0000      -0.368392       -10.0245
  20   2.0000      -0.349294        -9.5048
  21   2.0000      -0.341009        -9.2793
  22   2.0000      -0.323536        -8.8039
  23   2.0000      -0.315728        -8.5914
  24   2.0000      -0.312545        -8.5048
  25   2.0000      -0.289251        -7.8709
  26   2.0000      -0.254348        -6.9212
  27   2.0000      -0.214865        -5.8468
  28   0.0000      -0.019062        -0.5187
  29   0.0000       0.045983         1.2513
  30   0.0000       0.057364         1.5609
  31   0.0000       0.082146         2.2353
  32   0.0000       0.087959         2.3935

MULLIKEN ATOMIC CHARGES
-----------------------
   0 C :   -0.303435
   1 C :   -0.129578
   2 C :    0.098881
   3 O :   -0.215172
   4 O :   -0.242361
   5 C :   -0.011814
   6 C :   -0.304097
   7 H :    0.111796
   8 H :    0.116199
   9 H :    0.118033
  10 H :    0.099291
  11 H :    0.105183
  12 H :    0.100031
  13 H :    0.106283
  14 H :    0.127034
  15 H :    0.112290
  16 H :    0.111435
Sum of atomic charges:   -0.0000000

LOEWDIN ATOMIC CHARGES
----------------------
   0 C :   -0.329957
   1 C :   -0.249403
   2 C :    0.037080
   3 O :   -0.174863
   4 O :   -0.069332
   5 C :   -0.113084
   6 C :   -0.356093
   7 H :    0.122273
   8 H :    0.123771
   9 H :    0.125738
  10 H :    0.130056
  11 H :    0.134644
  12 H :    0.116212
  13 H :    0.118647
  14 H :    0.130583
  15 H :    0.123919
  16 H :    0.129808

  Mayer bond orders larger than 0.100000
B(  0-C ,  1-C ) :   1.1411 B(  0-C ,  7-H ) :   0.9542 B(  0-C ,  8-H ) :   0.9525
B(  0-C ,  9-H ) :   0.9529 B(  1-C ,  2-C ) :   1.0255 B(  1-C , 10-H ) :   0.9082
B(  1-C , 11-H ) :   0.9104 B(  2-C ,  3-O ) :   2.0401 B(  2-C ,  4-O ) :   1.2044
B(  4-O ,  5-C ) :   0.9225 B(  5-C ,  6-C ) :   1.1731 B(  5-C , 12-H ) :   0.9372
B(  5-C , 13-H ) :   0.9135 B(  6-C , 14-H ) :   0.9465 B(  6-C , 15-H ) :   0.9491
B(  6-C , 16-H ) :   0.9445

Dispersion correction           -0.012024360
FINAL SINGLE POINT ENERGY      -346.244242736205

DIPOLE MOMENT
-------------

Method             : SCF
Type of density    : Electron Density
Multiplicity       :   1
Irrep              :   0
Energy             :  -346.3087917643349556 Eh
Relativity type    :
Basis              : AO
                                X                 Y                 Z
Electronic contribution:     -0.022348941      -1.941413641      -0.681140423
Nuclear contribution   :      0.188522544       2.602299089       0.902796582
                        -----------------------------------------
Total Dipole Moment    :      0.166173603       0.660885449       0.221656159
                        -----------------------------------------
Magnitude (a.u.)       :      0.716599396
Magnitude (Debye)      :      1.821450913

Rotational constants in cm-1:             0.200765             0.048881             0.044949
Rotational constants in MHz :          6018.791920          1465.412394          1347.548501

                             ****ORCA TERMINATED NORMALLY****
TOTAL RUN TIME: 0 days 0 hours 0 minutes 8 seconds 987 msec
