                         Program Version 6.0.0  -   RELEASE  -
|  1> ! pbe def2-sv(p) def2/J RI DEFGRID1 loosescf d4 GCP(DFT/SV(P)) printgap
|  2> %output
|  3>     printlevel normal
|  4> end
|  5> * xyz 0 1
|  6> C -1.9575105178 1.4098241198 1.1897192775
|  7> O -1.6775151126 0.0313217889 0.856887568
|  8> C -0.8453050159 -0.1997902576 -0.1574435181
|  9> C 0.5431668809 0.4712498677 -0.0995664651
| 10> Cl 1.2669974483 0.1168709893 1.4772350179
| 11> Cl 1.5583816876 -0.1577606036 -1.4142442139
| 12> F -0.7095802808 -1.5429426625 -0.2577354161
| 13> F -1.4203303148 0.1731203598 -1.3637085613
| 14> H -1.1039004189 1.8564023124 1.6978479236
| 15> H -2.8072751863 1.348405951 1.8627273136
| 16> H -2.224190557 1.9686246 0.2932901902
| 17> H 0.4566561656 1.5526653481 -0.2232738813
| 18> *
| 19>
| 20>                          ****END OF INPUT****

CARTESIAN COORDINATES (ANGSTROEM)
---------------------------------
  C     -1.957511    1.409824    1.189719
  O     -1.677515    0.031322    0.856888
  C     -0.845305   -0.199790   -0.157444
  C      0.543167    0.471250   -0.099566
  Cl     1.266997    0.116871    1.477235
  Cl     1.558382   -0.157761   -1.414244
  F     -0.709580   -1.542943   -0.257735
  F     -1.420330    0.173120   -1.363709
  H     -1.103900    1.856402    1.697848
  H     -2.807275    1.348406    1.862727
  H     -2.224191    1.968625    0.293290
  H      0.456656    1.552665   -0.223274

 Total Charge           Charge          ....    0
 Multiplicity           Mult            ....    1
 Number of Electrons    NEL             ....   82
 Basis Dimension        Dim             ....  128

ORBITAL ENERGIES
----------------

  NO   OCC          E(Eh)            E(eV)
   0   2.0000    -100.655632     -2738.9790
   1   2.0000    -100.649899     -2738.8230
   2   2.0000     -24.275545      -660.5712
   3   2.0000     -24.270634      -660.4375
   4   2.0000     -18.809692      -511.8377
   5   2.0000     -10.109850      -275.1030
   6   2.0000     -10.020591      -272.6741
   7   2.0000      -9.964073      -271.1362
   8   2.0000      -9.191663      -250.1179
   9   2.0000      -9.185958      -249.9626
  10   2.0000      -7.023575      -191.1212
  11   2.0000      -7.018152      -190.9736
  12   2.0000      -7.011289      -190.7869
  13   2.0000      -7.010818      -190.7741
  14   2.0000      -7.005455      -190.6281
  15   2.0000      -7.004990      -190.6155
  16   2.0000      -1.151624       -31.3373
  17   2.0000      -1.076004       -29.2796
  18   2.0000      -0.991383       -26.9769
  19   2.0000      -0.841836       -22.9075
  20   2.0000      -0.759724       -20.6731
  21   2.0000      -0.692618       -18.8471
  22   2.0000      -0.644747       -17.5445
  23   2.0000      -0.560284       -15.2461
  24   2.0000      -0.517616       -14.0851
  25   2.0000      -0.512870       -13.9559
  26   2.0000      -0.495742       -13.4898
  27   2.0000      -0.443956       -12.0807
  28   2.0000      -0.425512       -11.5788
  29   2.0000      -0.420183       -11.4338
  30   2.0000      -0.410446       -11.1688
  31   2.0000      -0.376617       -10.2483
  32   2.0000      -0.357452        -9.7268
  33   2.0000      -0.346179        -9.4200
  34   2.0000      -0.335216        -9.1217
  35   2.0000      -0.324417        -8.8278
  36   2.0000      -0.295146        -8.0313
  37   2.0000      -0.288477        -7.8499
  38   2.0000      -0.279707        -7.6112
  39   2.0000      -0.267558        -7.2806
  40   2.0000      -0.261829        -7.1247
  41   0.0000      -0.032136        -0.8745
  42   0.0000      -0.013670        -0.3720
  43   0.0000       0.024388         0.6636
  44   0.0000       0.053877         1.4661
  45   0.0000       0.062995         1.7142

MULLIKEN ATOMIC CHARGES
-----------------------
   0 C :   -0.130637
   1 O :   -0.240084
   2 C :    0.410494
   3 C :   -0.199860
   4 Cl:   -0.046817
   5 Cl:   -0.039666
   6 F :   -0.138005
   7 F :   -0.180347
   8 H :    0.121565
   9 H :    0.142766
  10 H :    0.126838
  11 H :    0.173753
Sum of atomic charges:   -0.0000000

LOEWDIN ATOMIC CHARGES
----------------------
   0 C :   -0.199112
   1 O :   -0.097393
   2 C :    0.060151
   3 C :   -0.323271
   4 Cl:    0.102618
   5 Cl:    0.104563
   6 F :   -0.048811
   7 F :   -0.096580
   8 H :    0.110444
   9 H :    0.133378
  10 H :    0.117672
  11 H :    0.136340

  Mayer bond orders larger than 0.100000
B(  0-C ,  1-O ) :   0.9387 B(  0-C ,  8-H ) :   0.9374 B(  0-C ,  9-H ) :   0.9623
B(  0-C , 10-H ) :   0.9393 B(  1-O ,  2-C ) :   1.2242 B(  2-C ,  3-C ) :   0.8575
B(  2-C ,  6-F ) :   1.1653 B(  2-C ,  7-F ) :   1.0958 B(  3-C ,  4-Cl) :   1.0616
B(  3-C ,  5-Cl) :   1.0860 B(  3-C , 11-H ) :   0.8889

Dispersion correction           -0.012600733
FINAL SINGLE POINT ENERGY     -1310.583025294973

DIPOLE MOMENT
-------------

Method             : SCF
Type of density    : Electron Density
Multiplicity       :   1
Irrep              :   0
Energy             : -1310.6371660100919598 Eh
Relativity type    :
Basis              : AO
                                X                 Y                 Z
Electronic contribution:      6.896063463      -6.418043509      -4.362157219
Nuclear contribution   :     -7.171248226       7.634805360       4.836587623
                        -----------------------------------------
Total Dipole Moment    :     -0.275184764       1.216761851       0.474430403
                        -----------------------------------------
Magnitude (a.u.)       :      1.334661105
Magnitude (Debye)      :      3.392438926

Rotational constants in cm-1:             0.057864             0.042634             0.031046
Rotational constants in MHz :          1734.728861          1278.134332           930.743025

                             ****ORCA TERMINATED NORMALLY****
TOTAL RUN TIME: 0 days 0 hours 0 minutes 7 seconds 238 msec
