                         Program Version 6.0.0  -   RELEASE  -
|  1> ! pbe def2-sv(p) def2/J RI DEFGRID1 loosescf d4 GCP(DFT/SV(P)) printgap
|  2> %output
|  3>     printlevel normal
|  4> end
|  5> * xyz 0 1
|  6> C 1.8495002581 0.6770143505 -0.8342675529
|  7> C 1.4046095521 0.0296481642 0.4753568146
|  8> C 1.4797644679 -1.4930841361 0.387024323
|  9> C -0.0012805319 0.4972835451 0.8809604439
| 10> C -1.1177714232 0.1478161908 -0.0741770418
| 11> O -1.0066368716 -0.4546470102 -1.1154345661
| 12> O -2.3297667243 0.5645192405 0.3076619707
| 13> H 1.8274731164 1.7616816942 -0.7559493785
| 14> H 1.1935148005 0.3728788193 -1.6458390789
| 15> H 2.8631127611 0.3707798266 -1.0790812266
| 16> H 2.0864973845 0.3596324236 1.2680668906
| 17> H 2.492353547 -1.8056356547 0.1459976175
| 18> H 1.1949412311 -1.9493471358 1.3324509427
| 19> H 0.8136582241 -1.857913184 -0.3905968078
| 20> H 0.0041775841 1.5850827532 0.9901964335
| 21> H -0.2544508005 0.0610794902 1.8509257985
| 22> H -2.336542485 1.0417623614 1.1570594421
| 23> *
| 24>
| 25>                          ****END OF INPUT****

CARTESIAN COORDINATES (ANGSTROEM)
---------------------------------
  C      1.849500    0.677014   -0.834268
  C      1.404610    0.029648    0.475357
  C      1.479764   -1.493084    0.387024
  C     -0.001281    0.497284    0.880960
  C     -1.117771    0.147816   -0.074177
  O     -1.006637   -0.454647   -1.115435
  O     -2.329767    0.564519    0.307662
  H      1.827473    1.761682   -0.755949
  H      1.193515    0.372879   -1.645839
  H      2.863113    0.370780   -1.079081
  H      2.086497    0.359632    1.268067
  H      2.492354   -1.805636    0.145998
  H      1.194941   -1.949347    1.332451
  H      0.813658   -1.857913   -0.390597
  H      0.004178    1.585083    0.990196
  H     -0.254451    0.061079    1.850926
  H     -2.336542    1.041762    1.157059

 Total Charge           Charge          ....    0
 Multiplicity           Mult            ....    1
 Number of Electrons    NEL             ....   56
 Basis Dimension        Dim             ....  118

ORBITAL ENERGIES
----------------

  NO   OCC          E(Eh)            E(eV)
   0   2.0000     -18.804380      -511.6932
   1   2.0000     -18.732828      -509.7462
   2   2.0000     -10.015199      -272.5274
   3   2.0000      -9.908445      -269.6225
   4   2.0000      -9.904374      -269.5117
   5   2.0000      -9.867961      -268.5209
   6   2.0000      -9.867944      -268.5204
   7   2.0000      -1.005666       -27.3656
   8   2.0000      -0.916583       -24.9415
   9   2.0000      -0.737810       -20.0768
  10   2.0000      -0.651045       -17.7158
  11   2.0000      -0.608720       -16.5641
  12   2.0000      -0.572561       -15.5802
  13   2.0000      -0.519798       -14.1444
  14   2.0000      -0.448265       -12.1979
  15   2.0000      -0.433305       -11.7908
  16   2.0000      -0.416214       -11.3258
  17   2.0000      -0.389894       -10.6096
  18   2.0000      -0.374362       -10.1869
  19   2.0000      -0.373327       -10.1587
  20   2.0000      -0.333111        -9.0644
  21   2.0000      -0.328384        -8.9358
  22   2.0000      -0.326847        -8.8940
  23   2.0000      -0.295631        -8.0445
  24   2.0000      -0.292171        -7.9504
  25   2.0000      -0.289473        -7.8770
  26   2.0000      -0.271657        -7.3922
  27   2.0000      -0.217793        -5.9264
  28   0.0000      -0.026310        -0.7159
  29   0.0000       0.003294         0.0896
  30   0.0000       0.033897         0.9224
  31   0.0000       0.080160         2.1813
  32   0.0000       0.084035         2.2867

MULLIKEN ATOMIC CHARGES
-----------------------
   0 C :   -0.265563
   1 C :   -0.147468
   2 C :   -0.265569
   3 C :   -0.241361
   4 C :    0.130121
   5 O :   -0.167888
   6 O :   -0.289008
   7 H :    0.090141
   8 H :    0.129900
   9 H :    0.098926
  10 H :    0.069226
  11 H :    0.098906
  12 H :    0.090263
  13 H :    0.129879
  14 H :    0.111610
  15 H :    0.111341
  16 H :    0.316544
Sum of atomic charges:   -0.0000000

LOEWDIN ATOMIC CHARGES
----------------------
   0 C :   -0.337964
   1 C :   -0.149041
   2 C :   -0.337980
   3 C :   -0.268420
   4 C :    0.034230
   5 O :   -0.139158
   6 O :   -0.208376
   7 H :    0.113057
   8 H :    0.128662
   9 H :    0.118938
  10 H :    0.116295
  11 H :    0.118930
  12 H :    0.113095
  13 H :    0.128646
  14 H :    0.135612
  15 H :    0.135400
  16 H :    0.298073

  Mayer bond orders larger than 0.100000
B(  0-C ,  1-C ) :   1.1063 B(  0-C ,  7-H ) :   0.9507 B(  0-C ,  8-H ) :   0.9395
B(  0-C ,  9-H ) :   0.9500 B(  1-C ,  2-C ) :   1.1059 B(  1-C ,  3-C ) :   1.0703
B(  1-C , 10-H ) :   0.8991 B(  2-C , 11-H ) :   0.9500 B(  2-C , 12-H ) :   0.9508
B(  2-C , 13-H ) :   0.9395 B(  3-C ,  4-C ) :   0.9914 B(  3-C , 14-H ) :   0.8958
B(  3-C , 15-H ) :   0.8959 B(  4-C ,  5-O ) :   2.1016 B(  4-C ,  6-O ) :   1.2115
B(  6-O , 16-H ) :   0.8292

Dispersion correction           -0.013424305
FINAL SINGLE POINT ENERGY      -346.238128628145

DIPOLE MOMENT
-------------

Method             : SCF
Type of density    : Electron Density
Multiplicity       :   1
Irrep              :   0
Energy             :  -346.3031256337474133 Eh
Relativity type    :
Basis              : AO
                                X                 Y                 Z
Electronic contribution:     -8.972626822       0.761483781      -1.348769553
Nuclear contribution   :      9.224068470      -0.054659741       2.683594579
                        -----------------------------------------
Total Dipole Moment    :      0.251441648       0.706824039       1.334825026
                        -----------------------------------------
Magnitude (a.u.)       :      1.531202461
Magnitude (Debye)      :      3.892007353

Rotational constants in cm-1:             0.148339             0.055878             0.055417
Rotational constants in MHz :          4447.089823          1675.179042          1661.354813

                             ****ORCA TERMINATED NORMALLY****
TOTAL RUN TIME: 0 days 0 hours 0 minutes 8 seconds 424 msec
