                         Program Version 6.0.0  -   RELEASE  -
|  1> ! pbe def2-sv(p) def2/J RI DEFGRID1 loosescf d4 GCP(DFT/SV(P)) printgap
|  2> %output
|  3>     printlevel normal
|  4> end
|  5> * xyz 0 1
|  6> C -1.9351011594 0.2681579077 -0.5962273568
|  7> C -1.0515947725 0.2472830552 0.6474027048
|  8> N -0.0053098204 -0.7625141421 0.5517471374
|  9> C 1.0364726342 -0.5199483948 -0.4325539632
| 10> C 1.9296585883 0.6981293278 -0.1711335986
| 11> H -1.404003811 0.6794657912 -1.4503697903
| 12> H -2.2541232348 -0.7421206483 -0.8354902582
| 13> H -2.8116043369 0.8829213543 -0.4107103193
| 14> H -1.6652305944 -0.0253851189 1.510125733
| 15> H -0.6551558537 1.260546606 0.8290075406
| 16> H 0.4274842253 -0.8737053474 1.4632333852
| 17> H 1.658276672 -1.4195721535 -0.4524159569
| 18> H 0.5609155527 -0.4238363431 -1.4103429564
| 19> H 2.3868489991 0.6288613494 0.8144771745
| 20> H 2.7183540009 0.7425197259 -0.9168980565
| 21> H 1.3570769346 1.6211956389 -0.2240929981
| 22> *
| 23>
| 24>                          ****END OF INPUT****

CARTESIAN COORDINATES (ANGSTROEM)
---------------------------------
  C     -1.935101    0.268158   -0.596227
  C     -1.051595    0.247283    0.647403
  N     -0.005310   -0.762514    0.551747
  C      1.036473   -0.519948   -0.432554
  C      1.929659    0.698129   -0.171134
  H     -1.404004    0.679466   -1.450370
  H     -2.254123   -0.742121   -0.835490
  H     -2.811604    0.882921   -0.410710
  H     -1.665231   -0.025385    1.510126
  H     -0.655156    1.260547    0.829008
  H      0.427484   -0.873705    1.463233
  H      1.658277   -1.419572   -0.452416
  H      0.560916   -0.423836   -1.410343
  H      2.386849    0.628861    0.814477
  H      2.718354    0.742520   -0.916898
  H      1.357077    1.621196   -0.224093

 Total Charge           Charge          ....    0
 Multiplicity           Mult            ....    1
 Number of Electrons    NEL             ....   42
 Basis Dimension        Dim             ....   92

ORBITAL ENERGIES
----------------

  NO   OCC          E(Eh)            E(eV)
   0   2.0000     -13.960716      -379.8904
   1   2.0000      -9.904023      -269.5022
   2   2.0000      -9.903187      -269.4794
   3   2.0000      -9.872087      -268.6332
   4   2.0000      -9.869099      -268.5518
   5   2.0000      -0.810897       -22.0656
   6   2.0000      -0.676157       -18.3992
   7   2.0000      -0.638361       -17.3707
   8   2.0000      -0.561707       -15.2848
   9   2.0000      -0.506839       -13.7918
  10   2.0000      -0.444765       -12.1027
  11   2.0000      -0.415110       -11.2957
  12   2.0000      -0.383488       -10.4352
  13   2.0000      -0.368105       -10.0166
  14   2.0000      -0.354900        -9.6573
  15   2.0000      -0.331005        -9.0071
  16   2.0000      -0.320469        -8.7204
  17   2.0000      -0.310608        -8.4521
  18   2.0000      -0.293669        -7.9911
  19   2.0000      -0.287187        -7.8148
  20   2.0000      -0.166744        -4.5373
  21   0.0000       0.030826         0.8388
  22   0.0000       0.058228         1.5845
  23   0.0000       0.073769         2.0074
  24   0.0000       0.080437         2.1888
  25   0.0000       0.106543         2.8992

MULLIKEN ATOMIC CHARGES
-----------------------
   0 C :   -0.290302
   1 C :   -0.094257
   2 N :   -0.343661
   3 C :   -0.104931
   4 C :   -0.299207
   5 H :    0.107303
   6 H :    0.106006
   7 H :    0.099566
   8 H :    0.078912
   9 H :    0.067463
  10 H :    0.194591
  11 H :    0.085929
  12 H :    0.091539
  13 H :    0.091972
  14 H :    0.098341
  15 H :    0.110736
Sum of atomic charges:   -0.0000000

LOEWDIN ATOMIC CHARGES
----------------------
   0 C :   -0.351933
   1 C :   -0.175172
   2 N :   -0.265227
   3 C :   -0.180040
   4 C :   -0.365259
   5 H :    0.115871
   6 H :    0.122277
   7 H :    0.121597
   8 H :    0.111097
   9 H :    0.086915
  10 H :    0.204053
  11 H :    0.110793
  12 H :    0.112161
  13 H :    0.113627
  14 H :    0.121386
  15 H :    0.117855

  Mayer bond orders larger than 0.100000
B(  0-C ,  1-C ) :   1.1573 B(  0-C ,  5-H ) :   0.9496 B(  0-C ,  6-H ) :   0.9474
B(  0-C ,  7-H ) :   0.9485 B(  1-C ,  2-N ) :   1.0896 B(  1-C ,  8-H ) :   0.9348
B(  1-C ,  9-H ) :   0.9086 B(  2-N ,  3-C ) :   1.1077 B(  2-N , 10-H ) :   0.8823
B(  3-C ,  4-C ) :   1.1194 B(  3-C , 11-H ) :   0.9394 B(  3-C , 12-H ) :   0.9285
B(  4-C , 13-H ) :   0.9527 B(  4-C , 14-H ) :   0.9426 B(  4-C , 15-H ) :   0.9480

Dispersion correction           -0.010516429
FINAL SINGLE POINT ENERGY      -213.242315920077

DIPOLE MOMENT
-------------

Method             : SCF
Type of density    : Electron Density
Multiplicity       :   1
Irrep              :   0
Energy             :  -213.3020915611622854 Eh
Relativity type    :
Basis              : AO
                                X                 Y                 Z
Electronic contribution:     -0.112133358      -1.927543542       1.183033715
Nuclear contribution   :      0.299095895       2.182574518      -1.013447277
                        -----------------------------------------
Total Dipole Moment    :      0.186962537       0.255030976       0.169586438
                        -----------------------------------------
Magnitude (a.u.)       :      0.358824956
Magnitude (Debye)      :      0.912060555

Rotational constants in cm-1:             0.296656             0.095723             0.090660
Rotational constants in MHz :          8893.537259          2869.702321          2717.930405

                             ****ORCA TERMINATED NORMALLY****
TOTAL RUN TIME: 0 days 0 hours 0 minutes 6 seconds 449 msec
