                         Program Version 6.0.0  -   RELEASE  -
|  1> ! r2scan-3c def2/J RI DEFGRID2 scfconv6 printgap
|  2> %output
|  3>     printlevel normal
|  4> end
|  5> * xyz 0 1
|  6> C -2.2189626647 0.7144949134 -0.8410234254
|  7> C -1.7819295634 0.5314534816 0.6073037185
|  8> C -0.894958304 -0.7079444405 0.7810170024
|  9> C 0.406664224 -0.5595566287 0.0362462207
| 10> O 0.7699356022 -1.2750115273 -0.8748885428
| 11> O 1.1176936857 0.4599098744 0.5008956288
| 12> C 2.3832788555 0.7572204291 -0.0949451489
| 13> H -2.7898694941 -0.1472376421 -1.178863382
| 14> H -2.8389373599 1.6013259488 -0.9414895279
| 15> H -1.3544809871 0.8217294345 -1.4936500665
| 16> H -2.6623678451 0.4181617409 1.240531663
| 17> H -1.2300868112 1.4105647565 0.9425690804
| 18> H -1.4006227902 -1.5971970927 0.4050315394
| 19> H -0.6614712915 -0.8404076479 1.8379618408
| 20> H 2.3782242305 1.8126798468 -0.3585430795
| 21> H 2.531366058 0.1378646714 -0.9803224729
| 22> H 3.159825201 0.5545885904 0.640979423
| 23> *
| 24>
| 25>                          ****END OF INPUT****

CARTESIAN COORDINATES (ANGSTROEM)
---------------------------------
  C     -2.218963    0.714495   -0.841023
  C     -1.781930    0.531453    0.607304
  C     -0.894958   -0.707944    0.781017
  C      0.406664   -0.559557    0.036246
  O      0.769936   -1.275012   -0.874889
  O      1.117694    0.459910    0.500896
  C      2.383279    0.757220   -0.094945
  H     -2.789869   -0.147238   -1.178863
  H     -2.838937    1.601326   -0.941490
  H     -1.354481    0.821729   -1.493650
  H     -2.662368    0.418162    1.240532
  H     -1.230087    1.410565    0.942569
  H     -1.400623   -1.597197    0.405032
  H     -0.661471   -0.840408    1.837962
  H      2.378224    1.812680   -0.358543
  H      2.531366    0.137865   -0.980322
  H      3.159825    0.554589    0.640979

 Total Charge           Charge          ....    0
 Multiplicity           Mult            ....    1
 Number of Electrons    NEL             ....   56
 Basis Dimension        Dim             ....  193

ORBITAL ENERGIES
----------------

  NO   OCC          E(Eh)            E(eV)
   0   2.0000     -18.999672      -517.0074
   1   2.0000     -18.928479      -515.0701
   2   2.0000     -10.153210      -276.2829
   3   2.0000     -10.085835      -274.4495
   4   2.0000     -10.042015      -273.2571
   5   2.0000     -10.037473      -273.1335
   6   2.0000     -10.020234      -272.6644
   7   2.0000      -1.073314       -29.2064
   8   2.0000      -0.976076       -26.5604
   9   2.0000      -0.774562       -21.0769
  10   2.0000      -0.709950       -19.3187
  11   2.0000      -0.661294       -17.9947
  12   2.0000      -0.575207       -15.6522
  13   2.0000      -0.533318       -14.5123
  14   2.0000      -0.471042       -12.8177
  15   2.0000      -0.456986       -12.4352
  16   2.0000      -0.440333       -11.9821
  17   2.0000      -0.419061       -11.4032
  18   2.0000      -0.416587       -11.3359
  19   2.0000      -0.382504       -10.4085
  20   2.0000      -0.363544        -9.8925
  21   2.0000      -0.362029        -9.8513
  22   2.0000      -0.328594        -8.9415
  23   2.0000      -0.314352        -8.5540
  24   2.0000      -0.313342        -8.5265
  25   2.0000      -0.310292        -8.4435
  26   2.0000      -0.272241        -7.4081
  27   2.0000      -0.234689        -6.3862
  28   0.0000      -0.015492        -0.4216
  29   0.0000       0.063596         1.7305
  30   0.0000       0.094275         2.5654
  31   0.0000       0.113879         3.0988
  32   0.0000       0.122565         3.3352

MULLIKEN ATOMIC CHARGES
-----------------------
   0 C :   -0.478983
   1 C :   -0.229674
   2 C :   -0.307364
   3 C :    0.374233
   4 O :   -0.430022
   5 O :   -0.191161
   6 C :   -0.299181
   7 H :    0.149007
   8 H :    0.147449
   9 H :    0.154422
  10 H :    0.145681
  11 H :    0.152750
  12 H :    0.167944
  13 H :    0.158408
  14 H :    0.147648
  15 H :    0.190080
  16 H :    0.148763
Sum of atomic charges:    0.0000000

LOEWDIN ATOMIC CHARGES
----------------------
   0 C :   -0.414655
   1 C :   -0.293053
   2 C :   -0.229784
   3 C :    0.351278
   4 O :   -0.436540
   5 O :   -0.606583
   6 C :   -0.045856
   7 H :    0.153329
   8 H :    0.151800
   9 H :    0.156102
  10 H :    0.153318
  11 H :    0.163816
  12 H :    0.177482
  13 H :    0.179591
  14 H :    0.173256
  15 H :    0.193541
  16 H :    0.172958

  Mayer bond orders larger than 0.100000
B(  0-C ,  1-C ) :   0.9138 B(  0-C ,  7-H ) :   0.9782 B(  0-C ,  8-H ) :   0.9704
B(  0-C ,  9-H ) :   0.9704 B(  1-C ,  2-C ) :   0.8812 B(  1-C , 10-H ) :   0.9643
B(  1-C , 11-H ) :   0.9734 B(  2-C ,  3-C ) :   0.9727 B(  2-C , 12-H ) :   1.0003
B(  2-C , 13-H ) :   0.9444 B(  3-C ,  4-O ) :   1.8563 B(  3-C ,  5-O ) :   1.0378
B(  5-O ,  6-C ) :   0.8402 B(  6-C , 14-H ) :   0.9656 B(  6-C , 15-H ) :   0.9678
B(  6-C , 16-H ) :   0.9637

Dispersion correction           -0.004163024
FINAL SINGLE POINT ENERGY      -346.929902224367

DIPOLE MOMENT
-------------

Method             : SCF
Type of density    : Electron Density
Multiplicity       :   1
Irrep              :   0
Energy             :  -346.9365391139466510 Eh
Relativity type    :
Basis              : AO
                                X                 Y                 Z
Electronic contribution:      4.506151836      -3.229273323       0.424126824
Nuclear contribution   :     -4.539406701       3.902016857       0.101598524
                        -----------------------------------------
Total Dipole Moment    :     -0.033254865       0.672743534       0.525725348
                        -----------------------------------------
Magnitude (a.u.)       :      0.854445370
Magnitude (Debye)      :      2.171827532

Rotational constants in cm-1:             0.145217             0.055326             0.051393
Rotational constants in MHz :          4353.492369          1658.631210          1540.733692

                             ****ORCA TERMINATED NORMALLY****
TOTAL RUN TIME: 0 days 0 hours 0 minutes 23 seconds 197 msec
