                         Program Version 6.0.0  -   RELEASE  -
|  1> ! r2scan-3c def2/J RI DEFGRID2 scfconv6 printgap
|  2> %output
|  3>     printlevel normal
|  4> end
|  5> %cpcm
|  6>     smd true
|  7>     smdsolvent "water"
|  8> end
|  9> * xyz 0 1
| 10> C -2.2189626647 0.7144949134 -0.8410234254
| 11> C -1.7819295634 0.5314534816 0.6073037185
| 12> C -0.894958304 -0.7079444405 0.7810170024
| 13> C 0.406664224 -0.5595566287 0.0362462207
| 14> O 0.7699356022 -1.2750115273 -0.8748885428
| 15> O 1.1176936857 0.4599098744 0.5008956288
| 16> C 2.3832788555 0.7572204291 -0.0949451489
| 17> H -2.7898694941 -0.1472376421 -1.178863382
| 18> H -2.8389373599 1.6013259488 -0.9414895279
| 19> H -1.3544809871 0.8217294345 -1.4936500665
| 20> H -2.6623678451 0.4181617409 1.240531663
| 21> H -1.2300868112 1.4105647565 0.9425690804
| 22> H -1.4006227902 -1.5971970927 0.4050315394
| 23> H -0.6614712915 -0.8404076479 1.8379618408
| 24> H 2.3782242305 1.8126798468 -0.3585430795
| 25> H 2.531366058 0.1378646714 -0.9803224729
| 26> H 3.159825201 0.5545885904 0.640979423
| 27> *
| 28>
| 29>                          ****END OF INPUT****

CARTESIAN COORDINATES (ANGSTROEM)
---------------------------------
  C     -2.218963    0.714495   -0.841023
  C     -1.781930    0.531453    0.607304
  C     -0.894958   -0.707944    0.781017
  C      0.406664   -0.559557    0.036246
  O      0.769936   -1.275012   -0.874889
  O      1.117694    0.459910    0.500896
  C      2.383279    0.757220   -0.094945
  H     -2.789869   -0.147238   -1.178863
  H     -2.838937    1.601326   -0.941490
  H     -1.354481    0.821729   -1.493650
  H     -2.662368    0.418162    1.240532
  H     -1.230087    1.410565    0.942569
  H     -1.400623   -1.597197    0.405032
  H     -0.661471   -0.840408    1.837962
  H      2.378224    1.812680   -0.358543
  H      2.531366    0.137865   -0.980322
  H      3.159825    0.554589    0.640979

 Total Charge           Charge          ....    0
 Multiplicity           Mult            ....    1
 Number of Electrons    NEL             ....   56
 Basis Dimension        Dim             ....  193

ORBITAL ENERGIES
----------------

  NO   OCC          E(Eh)            E(eV)
   0   2.0000     -19.004026      -517.1258
   1   2.0000     -18.943335      -515.4743
   2   2.0000     -10.162809      -276.5441
   3   2.0000     -10.075119      -274.1579
   4   2.0000     -10.035747      -273.0866
   5   2.0000     -10.028705      -272.8949
   6   2.0000     -10.011725      -272.4329
   7   2.0000      -1.079187       -29.3662
   8   2.0000      -0.988934       -26.9103
   9   2.0000      -0.768751       -20.9188
  10   2.0000      -0.704346       -19.1662
  11   2.0000      -0.654281       -17.8039
  12   2.0000      -0.568629       -15.4732
  13   2.0000      -0.530419       -14.4334
  14   2.0000      -0.469024       -12.7628
  15   2.0000      -0.457766       -12.4564
  16   2.0000      -0.451195       -12.2777
  17   2.0000      -0.412769       -11.2320
  18   2.0000      -0.408304       -11.1105
  19   2.0000      -0.381293       -10.3755
  20   2.0000      -0.362435        -9.8624
  21   2.0000      -0.356278        -9.6948
  22   2.0000      -0.324025        -8.8172
  23   2.0000      -0.313811        -8.5392
  24   2.0000      -0.307272        -8.3613
  25   2.0000      -0.302494        -8.2313
  26   2.0000      -0.277839        -7.5604
  27   2.0000      -0.249336        -6.7848
  28   0.0000      -0.022798        -0.6204
  29   0.0000       0.069892         1.9019
  30   0.0000       0.102486         2.7888
  31   0.0000       0.123251         3.3538
  32   0.0000       0.130428         3.5491

MULLIKEN ATOMIC CHARGES
-----------------------
   0 C :   -0.526511
   1 C :   -0.222827
   2 C :   -0.328546
   3 C :    0.407262
   4 O :   -0.515545
   5 O :   -0.205477
   6 C :   -0.313855
   7 H :    0.162962
   8 H :    0.161770
   9 H :    0.160810
  10 H :    0.163238
  11 H :    0.156274
  12 H :    0.177288
  13 H :    0.187655
  14 H :    0.174915
  15 H :    0.184594
  16 H :    0.175992
Sum of atomic charges:    0.0000000

LOEWDIN ATOMIC CHARGES
----------------------
   0 C :   -0.423048
   1 C :   -0.289746
   2 C :   -0.228286
   3 C :    0.360067
   4 O :   -0.498443
   5 O :   -0.606903
   6 C :   -0.040217
   7 H :    0.156123
   8 H :    0.156429
   9 H :    0.155891
  10 H :    0.160291
  11 H :    0.164770
  12 H :    0.181247
  13 H :    0.190962
  14 H :    0.184974
  15 H :    0.192000
  16 H :    0.183888

  Mayer bond orders larger than 0.100000
B(  0-C ,  1-C ) :   0.8981 B(  0-C ,  7-H ) :   0.9772 B(  0-C ,  8-H ) :   0.9664
B(  0-C ,  9-H ) :   0.9694 B(  1-C ,  2-C ) :   0.8731 B(  1-C , 10-H ) :   0.9613
B(  1-C , 11-H ) :   0.9727 B(  2-C ,  3-C ) :   0.9722 B(  2-C , 12-H ) :   0.9954
B(  2-C , 13-H ) :   0.9352 B(  3-C ,  4-O ) :   1.7855 B(  3-C ,  5-O ) :   1.0674
B(  5-O ,  6-C ) :   0.8275 B(  6-C , 14-H ) :   0.9563 B(  6-C , 15-H ) :   0.9646
B(  6-C , 16-H ) :   0.9546

Dispersion correction           -0.004163024
FINAL SINGLE POINT ENERGY      -346.934425736663

DIPOLE MOMENT
-------------

Method             : SCF
Type of density    : Electron Density
Multiplicity       :   1
Irrep              :   0
Energy             :  -346.9410626262434221 Eh
Relativity type    :
Basis              : AO
                                X                 Y                 Z
Electronic contribution:      4.472787138      -2.972271607       0.686089233
Nuclear contribution   :     -4.539406701       3.902016857       0.101598524
                        -----------------------------------------
Total Dipole Moment    :     -0.066619564       0.929745250       0.787687757
                        -----------------------------------------
Magnitude (a.u.)       :      1.220375516
Magnitude (Debye)      :      3.101948045

Rotational constants in cm-1:             0.145217             0.055326             0.051393
Rotational constants in MHz :          4353.492369          1658.631210          1540.733692

                             ****ORCA TERMINATED NORMALLY****
TOTAL RUN TIME: 0 days 0 hours 0 minutes 32 seconds 750 msec
