                         Program Version 6.0.0  -   RELEASE  -
|  1> ! r2scan-3c def2/J RI DEFGRID2 scfconv6 printgap
|  2> %output
|  3>     printlevel normal
|  4> end
|  5> * xyz 0 1
|  6> C -2.6368836093 0.022183556 -0.8359040028
|  7> C -2.0024897439 -0.3701961004 0.4927694082
|  8> C -0.7698552455 0.4777529481 0.8295182839
|  9> C 0.4333369633 0.1279482531 -0.0069018623
| 10> O 0.4466265559 -0.0759669054 -1.201954325
| 11> O 1.5331182981 0.0713543791 0.7423260048
| 12> C 2.7674436802 -0.2255063917 0.0843509579
| 13> H -3.4885003331 -0.6178730532 -1.0509092856
| 14> H -2.9787246165 1.0540802345 -0.8048708225
| 15> H -1.9146642456 -0.0786607517 -1.6417069854
| 16> H -1.7168847121 -1.4234191074 0.4630147914
| 17> H -2.7317980593 -0.2423135964 1.2939082746
| 18> H -0.4878515916 0.3581899101 1.8753150778
| 19> H -0.9984689046 1.5306139881 0.64925803
| 20> H 2.7073400657 -1.2020285613 -0.3975405437
| 21> H 3.5232070541 -0.2198341393 0.8631658557
| 22> H 2.9776426666 0.5309528517 -0.6726111098
| 23> *
| 24>
| 25>                          ****END OF INPUT****

CARTESIAN COORDINATES (ANGSTROEM)
---------------------------------
  C     -2.636884    0.022184   -0.835904
  C     -2.002490   -0.370196    0.492769
  C     -0.769855    0.477753    0.829518
  C      0.433337    0.127948   -0.006902
  O      0.446627   -0.075967   -1.201954
  O      1.533118    0.071354    0.742326
  C      2.767444   -0.225506    0.084351
  H     -3.488500   -0.617873   -1.050909
  H     -2.978725    1.054080   -0.804871
  H     -1.914664   -0.078661   -1.641707
  H     -1.716885   -1.423419    0.463015
  H     -2.731798   -0.242314    1.293908
  H     -0.487852    0.358190    1.875315
  H     -0.998469    1.530614    0.649258
  H      2.707340   -1.202029   -0.397541
  H      3.523207   -0.219834    0.863166
  H      2.977643    0.530953   -0.672611

 Total Charge           Charge          ....    0
 Multiplicity           Mult            ....    1
 Number of Electrons    NEL             ....   56
 Basis Dimension        Dim             ....  193

ORBITAL ENERGIES
----------------

  NO   OCC          E(Eh)            E(eV)
   0   2.0000     -18.999628      -517.0062
   1   2.0000     -18.931180      -515.1436
   2   2.0000     -10.154087      -276.3068
   3   2.0000     -10.086834      -274.4767
   4   2.0000     -10.043085      -273.2862
   5   2.0000     -10.034676      -273.0574
   6   2.0000     -10.009115      -272.3619
   7   2.0000      -1.073892       -29.2221
   8   2.0000      -0.977897       -26.6099
   9   2.0000      -0.769583       -20.9414
  10   2.0000      -0.711661       -19.3653
  11   2.0000      -0.656295       -17.8587
  12   2.0000      -0.571584       -15.5536
  13   2.0000      -0.529774       -14.4159
  14   2.0000      -0.473243       -12.8776
  15   2.0000      -0.454329       -12.3629
  16   2.0000      -0.446275       -12.1437
  17   2.0000      -0.415515       -11.3067
  18   2.0000      -0.406668       -11.0660
  19   2.0000      -0.388300       -10.5662
  20   2.0000      -0.368175       -10.0185
  21   2.0000      -0.347513        -9.4563
  22   2.0000      -0.325914        -8.8686
  23   2.0000      -0.314091        -8.5468
  24   2.0000      -0.308626        -8.3981
  25   2.0000      -0.307310        -8.3623
  26   2.0000      -0.275960        -7.5093
  27   2.0000      -0.235063        -6.3964
  28   0.0000      -0.017211        -0.4683
  29   0.0000       0.066945         1.8217
  30   0.0000       0.091653         2.4940
  31   0.0000       0.111406         3.0315
  32   0.0000       0.127767         3.4767

MULLIKEN ATOMIC CHARGES
-----------------------
   0 C :   -0.511378
   1 C :   -0.207507
   2 C :   -0.268412
   3 C :    0.340616
   4 O :   -0.426234
   5 O :   -0.185777
   6 C :   -0.298150
   7 H :    0.141321
   8 H :    0.136696
   9 H :    0.191434
  10 H :    0.135759
  11 H :    0.147215
  12 H :    0.167340
  13 H :    0.163860
  14 H :    0.161643
  15 H :    0.150797
  16 H :    0.160777
Sum of atomic charges:    0.0000000

LOEWDIN ATOMIC CHARGES
----------------------
   0 C :   -0.421914
   1 C :   -0.293215
   2 C :   -0.232393
   3 C :    0.358260
   4 O :   -0.432668
   5 O :   -0.607508
   6 C :   -0.045307
   7 H :    0.149116
   8 H :    0.147802
   9 H :    0.173623
  10 H :    0.158507
  11 H :    0.153353
  12 H :    0.180528
  13 H :    0.182345
  14 H :    0.176845
  15 H :    0.176144
  16 H :    0.176482

  Mayer bond orders larger than 0.100000
B(  0-C ,  1-C ) :   0.9079 B(  0-C ,  7-H ) :   0.9705 B(  0-C ,  8-H ) :   0.9810
B(  0-C ,  9-H ) :   0.9711 B(  1-C ,  2-C ) :   0.8785 B(  1-C , 10-H ) :   0.9737
B(  1-C , 11-H ) :   0.9715 B(  2-C ,  3-C ) :   0.9722 B(  2-C , 12-H ) :   0.9653
B(  2-C , 13-H ) :   0.9406 B(  3-C ,  4-O ) :   1.8239 B(  3-C ,  5-O ) :   1.0788
B(  5-O ,  6-C ) :   0.8523 B(  6-C , 14-H ) :   0.9627 B(  6-C , 15-H ) :   0.9693
B(  6-C , 16-H ) :   0.9615

Dispersion correction           -0.004035753
FINAL SINGLE POINT ENERGY      -346.930274087803

DIPOLE MOMENT
-------------

Method             : SCF
Type of density    : Electron Density
Multiplicity       :   1
Irrep              :   0
Energy             :  -346.9370670689648364 Eh
Relativity type    :
Basis              : AO
                                X                 Y                 Z
Electronic contribution:      5.019378376       0.344821940       0.134919682
Nuclear contribution   :     -4.763465285      -0.291174374       0.534529797
                        -----------------------------------------
Total Dipole Moment    :      0.255913091       0.053647565       0.669449479
                        -----------------------------------------
Magnitude (a.u.)       :      0.718701729
Magnitude (Debye)      :      1.826794618

Rotational constants in cm-1:             0.225667             0.047639             0.041806
Rotational constants in MHz :          6765.327130          1428.168492          1253.318098

                             ****ORCA TERMINATED NORMALLY****
TOTAL RUN TIME: 0 days 0 hours 0 minutes 22 seconds 434 msec
