                         Program Version 6.0.0  -   RELEASE  -
|  1> ! r2scan-3c def2/J RI DEFGRID2 scfconv6 printgap
|  2> %output
|  3>     printlevel normal
|  4> end
|  5> %cpcm
|  6>     smd true
|  7>     smdsolvent "water"
|  8> end
|  9> * xyz 0 1
| 10> C -2.6368836093 0.022183556 -0.8359040028
| 11> C -2.0024897439 -0.3701961004 0.4927694082
| 12> C -0.7698552455 0.4777529481 0.8295182839
| 13> C 0.4333369633 0.1279482531 -0.0069018623
| 14> O 0.4466265559 -0.0759669054 -1.201954325
| 15> O 1.5331182981 0.0713543791 0.7423260048
| 16> C 2.7674436802 -0.2255063917 0.0843509579
| 17> H -3.4885003331 -0.6178730532 -1.0509092856
| 18> H -2.9787246165 1.0540802345 -0.8048708225
| 19> H -1.9146642456 -0.0786607517 -1.6417069854
| 20> H -1.7168847121 -1.4234191074 0.4630147914
| 21> H -2.7317980593 -0.2423135964 1.2939082746
| 22> H -0.4878515916 0.3581899101 1.8753150778
| 23> H -0.9984689046 1.5306139881 0.64925803
| 24> H 2.7073400657 -1.2020285613 -0.3975405437
| 25> H 3.5232070541 -0.2198341393 0.8631658557
| 26> H 2.9776426666 0.5309528517 -0.6726111098
| 27> *
| 28>
| 29>                          ****END OF INPUT****

CARTESIAN COORDINATES (ANGSTROEM)
---------------------------------
  C     -2.636884    0.022184   -0.835904
  C     -2.002490   -0.370196    0.492769
  C     -0.769855    0.477753    0.829518
  C      0.433337    0.127948   -0.006902
  O      0.446627   -0.075967   -1.201954
  O      1.533118    0.071354    0.742326
  C      2.767444   -0.225506    0.084351
  H     -3.488500   -0.617873   -1.050909
  H     -2.978725    1.054080   -0.804871
  H     -1.914664   -0.078661   -1.641707
  H     -1.716885   -1.423419    0.463015
  H     -2.731798   -0.242314    1.293908
  H     -0.487852    0.358190    1.875315
  H     -0.998469    1.530614    0.649258
  H      2.707340   -1.202029   -0.397541
  H      3.523207   -0.219834    0.863166
  H      2.977643    0.530953   -0.672611

 Total Charge           Charge          ....    0
 Multiplicity           Mult            ....    1
 Number of Electrons    NEL             ....   56
 Basis Dimension        Dim             ....  193

ORBITAL ENERGIES
----------------

  NO   OCC          E(Eh)            E(eV)
   0   2.0000     -19.003507      -517.1117
   1   2.0000     -18.943739      -515.4853
   2   2.0000     -10.162103      -276.5249
   3   2.0000     -10.075849      -274.1778
   4   2.0000     -10.036085      -273.0958
   5   2.0000     -10.027520      -272.8627
   6   2.0000     -10.007466      -272.3170
   7   2.0000      -1.079106       -29.3640
   8   2.0000      -0.988568       -26.9003
   9   2.0000      -0.764830       -20.8121
  10   2.0000      -0.707469       -19.2512
  11   2.0000      -0.651070       -17.7165
  12   2.0000      -0.566869       -15.4253
  13   2.0000      -0.527506       -14.3542
  14   2.0000      -0.471952       -12.8425
  15   2.0000      -0.458937       -12.4883
  16   2.0000      -0.448800       -12.2125
  17   2.0000      -0.411844       -11.2068
  18   2.0000      -0.404785       -11.0148
  19   2.0000      -0.383622       -10.4389
  20   2.0000      -0.364791        -9.9265
  21   2.0000      -0.347707        -9.4616
  22   2.0000      -0.326808        -8.8929
  23   2.0000      -0.311359        -8.4725
  24   2.0000      -0.305006        -8.2996
  25   2.0000      -0.302265        -8.2250
  26   2.0000      -0.281385        -7.6569
  27   2.0000      -0.246760        -6.7147
  28   0.0000      -0.022855        -0.6219
  29   0.0000       0.072544         1.9740
  30   0.0000       0.099060         2.6956
  31   0.0000       0.122179         3.3246
  32   0.0000       0.131516         3.5787

MULLIKEN ATOMIC CHARGES
-----------------------
   0 C :   -0.545617
   1 C :   -0.226387
   2 C :   -0.277099
   3 C :    0.375846
   4 O :   -0.502768
   5 O :   -0.203017
   6 C :   -0.331778
   7 H :    0.156260
   8 H :    0.157133
   9 H :    0.170910
  10 H :    0.151500
  11 H :    0.165353
  12 H :    0.182006
  13 H :    0.194204
  14 H :    0.177960
  15 H :    0.178162
  16 H :    0.177333
Sum of atomic charges:   -0.0000000

LOEWDIN ATOMIC CHARGES
----------------------
   0 C :   -0.429673
   1 C :   -0.292659
   2 C :   -0.228665
   3 C :    0.368711
   4 O :   -0.488766
   5 O :   -0.611399
   6 C :   -0.043490
   7 H :    0.153121
   8 H :    0.153665
   9 H :    0.163499
  10 H :    0.161703
  11 H :    0.160829
  12 H :    0.187635
  13 H :    0.193389
  14 H :    0.182220
  15 H :    0.187988
  16 H :    0.181891

  Mayer bond orders larger than 0.100000
B(  0-C ,  1-C ) :   0.8957 B(  0-C ,  7-H ) :   0.9680 B(  0-C ,  8-H ) :   0.9781
B(  0-C ,  9-H ) :   0.9767 B(  1-C ,  2-C ) :   0.8598 B(  1-C , 10-H ) :   0.9768
B(  1-C , 11-H ) :   0.9664 B(  2-C ,  3-C ) :   0.9753 B(  2-C , 12-H ) :   0.9574
B(  2-C , 13-H ) :   0.9321 B(  3-C ,  4-O ) :   1.7709 B(  3-C ,  5-O ) :   1.0971
B(  5-O ,  6-C ) :   0.8333 B(  6-C , 14-H ) :   0.9573 B(  6-C , 15-H ) :   0.9595
B(  6-C , 16-H ) :   0.9562

Dispersion correction           -0.004035753
FINAL SINGLE POINT ENERGY      -346.934295509046

DIPOLE MOMENT
-------------

Method             : SCF
Type of density    : Electron Density
Multiplicity       :   1
Irrep              :   0
Energy             :  -346.9410884902072780 Eh
Relativity type    :
Basis              : AO
                                X                 Y                 Z
Electronic contribution:      5.048497100       0.400799484       0.486052255
Nuclear contribution   :     -4.763465285      -0.291174374       0.534529797
                        -----------------------------------------
Total Dipole Moment    :      0.285031815       0.109625109       1.020582052
                        -----------------------------------------
Magnitude (a.u.)       :      1.065292694
Magnitude (Debye)      :      2.707758840

Rotational constants in cm-1:             0.225667             0.047639             0.041806
Rotational constants in MHz :          6765.327130          1428.168492          1253.318098

                             ****ORCA TERMINATED NORMALLY****
TOTAL RUN TIME: 0 days 0 hours 0 minutes 32 seconds 623 msec
