                         Program Version 6.0.0  -   RELEASE  -
|  1> ! r2scan-3c def2/J RI DEFGRID2 scfconv6 printgap
|  2> %output
|  3>     printlevel normal
|  4> end
|  5> * xyz 0 1
|  6> C -2.227544225 -0.8444001192 0.2310368337
|  7> C -1.5359760931 0.5017526566 0.332025347
|  8> S 0.0513529823 0.5636473923 -0.5732746721
|  9> C 1.0938003499 -0.4887548396 0.5099053195
| 10> C 2.5537737225 -0.334180522 0.1312609359
| 11> H -3.2031050499 -0.7898614569 0.7083784262
| 12> H -2.3621129834 -1.1195862323 -0.8123282383
| 13> H -1.6452138885 -1.6192295894 0.7239229678
| 14> H -1.3294652217 0.7753891075 1.3668075735
| 15> H -2.1360094679 1.2837806839 -0.1314780536
| 16> H 0.9151010352 -0.1632273495 1.5348713343
| 17> H 0.7663569699 -1.5206966749 0.3857533757
| 18> H 3.1693132489 -0.9574671084 0.7752107177
| 19> H 2.7088364786 -0.6330098954 -0.9026749003
| 20> H 2.8642773955 0.7022757745 0.2389287676
| 21> *
| 22>
| 23>                          ****END OF INPUT****

CARTESIAN COORDINATES (ANGSTROEM)
---------------------------------
  C     -2.227544   -0.844400    0.231037
  C     -1.535976    0.501753    0.332025
  S      0.051353    0.563647   -0.573275
  C      1.093800   -0.488755    0.509905
  C      2.553774   -0.334181    0.131261
  H     -3.203105   -0.789861    0.708378
  H     -2.362113   -1.119586   -0.812328
  H     -1.645214   -1.619230    0.723923
  H     -1.329465    0.775389    1.366808
  H     -2.136009    1.283781   -0.131478
  H      0.915101   -0.163227    1.534871
  H      0.766357   -1.520697    0.385753
  H      3.169313   -0.957467    0.775211
  H      2.708836   -0.633010   -0.902675
  H      2.864277    0.702276    0.238929

 Total Charge           Charge          ....    0
 Multiplicity           Mult            ....    1
 Number of Electrons    NEL             ....   50
 Basis Dimension        Dim             ....  153

ORBITAL ENERGIES
----------------

  NO   OCC          E(Eh)            E(eV)
   0   2.0000     -88.539520     -2409.2828
   1   2.0000     -10.059770      -273.7403
   2   2.0000     -10.058953      -273.7180
   3   2.0000     -10.027388      -272.8591
   4   2.0000     -10.024965      -272.7932
   5   2.0000      -7.833542      -213.1615
   6   2.0000      -5.781049      -157.3103
   7   2.0000      -5.777281      -157.2078
   8   2.0000      -5.770173      -157.0144
   9   2.0000      -0.777872       -21.1670
  10   2.0000      -0.734021       -19.9737
  11   2.0000      -0.653626       -17.7861
  12   2.0000      -0.590018       -16.0552
  13   2.0000      -0.536353       -14.5949
  14   2.0000      -0.434399       -11.8206
  15   2.0000      -0.425477       -11.5778
  16   2.0000      -0.418798       -11.3961
  17   2.0000      -0.383080       -10.4241
  18   2.0000      -0.356310        -9.6957
  19   2.0000      -0.352531        -9.5929
  20   2.0000      -0.337442        -9.1823
  21   2.0000      -0.325111        -8.8467
  22   2.0000      -0.302780        -8.2391
  23   2.0000      -0.272344        -7.4109
  24   2.0000      -0.188296        -5.1238
  25   0.0000       0.019383         0.5274
  26   0.0000       0.059118         1.6087
  27   0.0000       0.086686         2.3588
  28   0.0000       0.108750         2.9592
  29   0.0000       0.125358         3.4112

MULLIKEN ATOMIC CHARGES
-----------------------
   0 C :   -0.442590
   1 C :   -0.218603
   2 S :   -0.139353
   3 C :   -0.237527
   4 C :   -0.462852
   5 H :    0.141374
   6 H :    0.158814
   7 H :    0.144924
   8 H :    0.147857
   9 H :    0.153843
  10 H :    0.144446
  11 H :    0.152830
  12 H :    0.145720
  13 H :    0.153063
  14 H :    0.158055
Sum of atomic charges:   -0.0000000

LOEWDIN ATOMIC CHARGES
----------------------
   0 C :   -0.430347
   1 C :   -0.364679
   2 S :    0.013424
   3 C :   -0.352192
   4 C :   -0.425887
   5 H :    0.150968
   6 H :    0.157733
   7 H :    0.149938
   8 H :    0.157605
   9 H :    0.167077
  10 H :    0.155912
  11 H :    0.153883
  12 H :    0.153692
  13 H :    0.155872
  14 H :    0.156999

  Mayer bond orders larger than 0.100000
B(  0-C ,  1-C ) :   0.8805 B(  0-C ,  5-H ) :   0.9614 B(  0-C ,  6-H ) :   0.9747
B(  0-C ,  7-H ) :   0.9802 B(  1-C ,  2-S ) :   0.9526 B(  1-C ,  8-H ) :   0.9614
B(  1-C ,  9-H ) :   0.9479 B(  2-S ,  3-C ) :   0.9868 B(  3-C ,  4-C ) :   0.9321
B(  3-C , 10-H ) :   0.9523 B(  3-C , 11-H ) :   0.9459 B(  4-C , 12-H ) :   0.9630
B(  4-C , 13-H ) :   0.9733 B(  4-C , 14-H ) :   0.9756

Dispersion correction           -0.003549308
FINAL SINGLE POINT ENERGY      -556.554570585326

DIPOLE MOMENT
-------------

Method             : SCF
Type of density    : Electron Density
Multiplicity       :   1
Irrep              :   0
Energy             :  -556.5616825943782260 Eh
Relativity type    :
Basis              : AO
                                X                 Y                 Z
Electronic contribution:      0.101255009       3.456360571      -3.089158728
Nuclear contribution   :     -0.237897023      -3.807745092       3.663313851
                        -----------------------------------------
Total Dipole Moment    :     -0.136642014      -0.351384521       0.574155123
                        -----------------------------------------
Magnitude (a.u.)       :      0.686874244
Magnitude (Debye)      :      1.745895579

Rotational constants in cm-1:             0.279394             0.068312             0.060258
Rotational constants in MHz :          8376.006905          2047.931756          1806.498348

                             ****ORCA TERMINATED NORMALLY****
TOTAL RUN TIME: 0 days 0 hours 0 minutes 14 seconds 531 msec
