                         Program Version 6.0.0  -   RELEASE  -
|  1> ! r2scan-3c def2/J RI DEFGRID2 scfconv6 printgap
|  2> %output
|  3>     printlevel normal
|  4> end
|  5> %cpcm
|  6>     smd true
|  7>     smdsolvent "water"
|  8> end
|  9> * xyz 0 1
| 10> C -2.227544225 -0.8444001192 0.2310368337
| 11> C -1.5359760931 0.5017526566 0.332025347
| 12> S 0.0513529823 0.5636473923 -0.5732746721
| 13> C 1.0938003499 -0.4887548396 0.5099053195
| 14> C 2.5537737225 -0.334180522 0.1312609359
| 15> H -3.2031050499 -0.7898614569 0.7083784262
| 16> H -2.3621129834 -1.1195862323 -0.8123282383
| 17> H -1.6452138885 -1.6192295894 0.7239229678
| 18> H -1.3294652217 0.7753891075 1.3668075735
| 19> H -2.1360094679 1.2837806839 -0.1314780536
| 20> H 0.9151010352 -0.1632273495 1.5348713343
| 21> H 0.7663569699 -1.5206966749 0.3857533757
| 22> H 3.1693132489 -0.9574671084 0.7752107177
| 23> H 2.7088364786 -0.6330098954 -0.9026749003
| 24> H 2.8642773955 0.7022757745 0.2389287676
| 25> *
| 26>
| 27>                          ****END OF INPUT****

CARTESIAN COORDINATES (ANGSTROEM)
---------------------------------
  C     -2.227544   -0.844400    0.231037
  C     -1.535976    0.501753    0.332025
  S      0.051353    0.563647   -0.573275
  C      1.093800   -0.488755    0.509905
  C      2.553774   -0.334181    0.131261
  H     -3.203105   -0.789861    0.708378
  H     -2.362113   -1.119586   -0.812328
  H     -1.645214   -1.619230    0.723923
  H     -1.329465    0.775389    1.366808
  H     -2.136009    1.283781   -0.131478
  H      0.915101   -0.163227    1.534871
  H      0.766357   -1.520697    0.385753
  H      3.169313   -0.957467    0.775211
  H      2.708836   -0.633010   -0.902675
  H      2.864277    0.702276    0.238929

 Total Charge           Charge          ....    0
 Multiplicity           Mult            ....    1
 Number of Electrons    NEL             ....   50
 Basis Dimension        Dim             ....  153

ORBITAL ENERGIES
----------------

  NO   OCC          E(Eh)            E(eV)
   0   2.0000     -88.538914     -2409.2663
   1   2.0000     -10.050448      -273.4866
   2   2.0000     -10.049489      -273.4605
   3   2.0000     -10.017701      -272.5955
   4   2.0000     -10.014115      -272.4979
   5   2.0000      -7.833006      -213.1469
   6   2.0000      -5.780262      -157.2889
   7   2.0000      -5.776639      -157.1903
   8   2.0000      -5.770056      -157.0112
   9   2.0000      -0.771023       -20.9806
  10   2.0000      -0.724576       -19.7167
  11   2.0000      -0.646543       -17.5933
  12   2.0000      -0.580532       -15.7971
  13   2.0000      -0.528668       -14.3858
  14   2.0000      -0.424586       -11.5536
  15   2.0000      -0.415426       -11.3043
  16   2.0000      -0.409725       -11.1492
  17   2.0000      -0.373997       -10.1770
  18   2.0000      -0.346870        -9.4388
  19   2.0000      -0.343095        -9.3361
  20   2.0000      -0.327361        -8.9079
  21   2.0000      -0.315262        -8.5787
  22   2.0000      -0.294088        -8.0025
  23   2.0000      -0.269774        -7.3409
  24   2.0000      -0.189235        -5.1493
  25   0.0000       0.021584         0.5873
  26   0.0000       0.063359         1.7241
  27   0.0000       0.097424         2.6510
  28   0.0000       0.116780         3.1777
  29   0.0000       0.134118         3.6495

MULLIKEN ATOMIC CHARGES
-----------------------
   0 C :   -0.484751
   1 C :   -0.213498
   2 S :   -0.211046
   3 C :   -0.244742
   4 C :   -0.492487
   5 H :    0.157601
   6 H :    0.160933
   7 H :    0.163731
   8 H :    0.168082
   9 H :    0.169298
  10 H :    0.167874
  11 H :    0.171840
  12 H :    0.164576
  13 H :    0.160324
  14 H :    0.162266
Sum of atomic charges:   -0.0000000

LOEWDIN ATOMIC CHARGES
----------------------
   0 C :   -0.435638
   1 C :   -0.361102
   2 S :   -0.027852
   3 C :   -0.347990
   4 C :   -0.432950
   5 H :    0.156933
   6 H :    0.156529
   7 H :    0.155274
   8 H :    0.165473
   9 H :    0.171976
  10 H :    0.164491
  11 H :    0.160949
  12 H :    0.160588
  13 H :    0.156677
  14 H :    0.156642

  Mayer bond orders larger than 0.100000
B(  0-C ,  1-C ) :   0.8770 B(  0-C ,  5-H ) :   0.9581 B(  0-C ,  6-H ) :   0.9753
B(  0-C ,  7-H ) :   0.9762 B(  1-C ,  2-S ) :   0.9442 B(  1-C ,  8-H ) :   0.9560
B(  1-C ,  9-H ) :   0.9428 B(  2-S ,  3-C ) :   0.9816 B(  3-C ,  4-C ) :   0.9172
B(  3-C , 10-H ) :   0.9498 B(  3-C , 11-H ) :   0.9441 B(  4-C , 12-H ) :   0.9582
B(  4-C , 13-H ) :   0.9711 B(  4-C , 14-H ) :   0.9743

Dispersion correction           -0.003549308
FINAL SINGLE POINT ENERGY      -556.556245217692

DIPOLE MOMENT
-------------

Method             : SCF
Type of density    : Electron Density
Multiplicity       :   1
Irrep              :   0
Energy             :  -556.5633572267435056 Eh
Relativity type    :
Basis              : AO
                                X                 Y                 Z
Electronic contribution:      0.028860583       3.315316546      -2.827486132
Nuclear contribution   :     -0.237897023      -3.807745092       3.663313851
                        -----------------------------------------
Total Dipole Moment    :     -0.209036440      -0.492428545       0.835827719
                        -----------------------------------------
Magnitude (a.u.)       :      0.992365901
Magnitude (Debye)      :      2.522393662

Rotational constants in cm-1:             0.279394             0.068312             0.060258
Rotational constants in MHz :          8376.006905          2047.931756          1806.498348

                             ****ORCA TERMINATED NORMALLY****
TOTAL RUN TIME: 0 days 0 hours 0 minutes 16 seconds 722 msec
