                         Program Version 6.0.0  -   RELEASE  -
|  1> ! pbe def2-sv(p) def2/J RI DEFGRID1 loosescf d4 GCP(DFT/SV(P)) printgap
|  2> %output
|  3>     printlevel normal
|  4> end
|  5> * xyz 0 1
|  6> C -2.3852065451 0.1347720106 -0.1403440376
|  7> C -0.9577158566 0.3753769243 0.3342294268
|  8> N -0.0705850048 -0.6325816452 -0.2214674353
|  9> C 1.2987616276 -0.5838873704 0.2550972368
| 10> C 2.113274462 0.6400727315 -0.1794185983
| 11> H -2.4515491187 0.2530865047 -1.2193667051
| 12> H -2.6950005528 -0.8738258973 0.1163977341
| 13> H -3.0597028471 0.8447834829 0.3299283885
| 14> H -0.9107025319 0.2825566864 1.4238131176
| 15> H -0.6587481556 1.4052252635 0.0720351037
| 16> H -0.0803724015 -0.5670972194 -1.2352494167
| 17> H 1.2673266144 -0.633370779 1.3473956029
| 18> H 1.7922555056 -1.4893348689 -0.10978424
| 19> H 3.1356666151 0.5474843243 0.1757876773
| 20> H 2.1286216773 0.7182575729 -1.2650108469
| 21> H 1.6895130157 1.5543110168 0.2294884245
| 22> *
| 23>
| 24>                          ****END OF INPUT****

CARTESIAN COORDINATES (ANGSTROEM)
---------------------------------
  C     -2.385207    0.134772   -0.140344
  C     -0.957716    0.375377    0.334229
  N     -0.070585   -0.632582   -0.221467
  C      1.298762   -0.583887    0.255097
  C      2.113274    0.640073   -0.179419
  H     -2.451549    0.253087   -1.219367
  H     -2.695001   -0.873826    0.116398
  H     -3.059703    0.844783    0.329928
  H     -0.910703    0.282557    1.423813
  H     -0.658748    1.405225    0.072035
  H     -0.080372   -0.567097   -1.235249
  H      1.267327   -0.633371    1.347396
  H      1.792256   -1.489335   -0.109784
  H      3.135667    0.547484    0.175788
  H      2.128622    0.718258   -1.265011
  H      1.689513    1.554311    0.229488

 Total Charge           Charge          ....    0
 Multiplicity           Mult            ....    1
 Number of Electrons    NEL             ....   42
 Basis Dimension        Dim             ....   92

ORBITAL ENERGIES
----------------

  NO   OCC          E(Eh)            E(eV)
   0   2.0000     -13.961238      -379.9046
   1   2.0000      -9.904091      -269.5040
   2   2.0000      -9.903821      -269.4967
   3   2.0000      -9.871756      -268.6241
   4   2.0000      -9.870321      -268.5851
   5   2.0000      -0.812782       -22.1169
   6   2.0000      -0.680356       -18.5134
   7   2.0000      -0.633765       -17.2456
   8   2.0000      -0.550695       -14.9852
   9   2.0000      -0.529316       -14.4034
  10   2.0000      -0.429639       -11.6911
  11   2.0000      -0.410743       -11.1769
  12   2.0000      -0.399483       -10.8705
  13   2.0000      -0.364624        -9.9219
  14   2.0000      -0.352864        -9.6019
  15   2.0000      -0.336088        -9.1454
  16   2.0000      -0.319059        -8.6820
  17   2.0000      -0.303658        -8.2630
  18   2.0000      -0.299399        -8.1471
  19   2.0000      -0.290679        -7.9098
  20   2.0000      -0.166976        -4.5436
  21   0.0000       0.035377         0.9627
  22   0.0000       0.062178         1.6919
  23   0.0000       0.063105         1.7172
  24   0.0000       0.081908         2.2288
  25   0.0000       0.102972         2.8020

MULLIKEN ATOMIC CHARGES
-----------------------
   0 C :   -0.265977
   1 C :   -0.098301
   2 N :   -0.355106
   3 C :   -0.087236
   4 C :   -0.302880
   5 H :    0.093991
   6 H :    0.105562
   7 H :    0.098540
   8 H :    0.080581
   9 H :    0.068831
  10 H :    0.191272
  11 H :    0.082418
  12 H :    0.086269
  13 H :    0.098109
  14 H :    0.092708
  15 H :    0.111219
Sum of atomic charges:   -0.0000000

LOEWDIN ATOMIC CHARGES
----------------------
   0 C :   -0.347486
   1 C :   -0.173209
   2 N :   -0.265592
   3 C :   -0.177212
   4 C :   -0.365893
   5 H :    0.114714
   6 H :    0.121468
   7 H :    0.120147
   8 H :    0.110136
   9 H :    0.086861
  10 H :    0.202577
  11 H :    0.111286
  12 H :    0.109460
  13 H :    0.121095
  14 H :    0.113694
  15 H :    0.117955

  Mayer bond orders larger than 0.100000
B(  0-C ,  1-C ) :   1.1555 B(  0-C ,  5-H ) :   0.9553 B(  0-C ,  6-H ) :   0.9502
B(  0-C ,  7-H ) :   0.9490 B(  1-C ,  2-N ) :   1.0566 B(  1-C ,  8-H ) :   0.9268
B(  1-C ,  9-H ) :   0.9085 B(  2-N ,  3-C ) :   1.1075 B(  2-N , 10-H ) :   0.8799
B(  3-C ,  4-C ) :   1.1220 B(  3-C , 11-H ) :   0.9308 B(  3-C , 12-H ) :   0.9407
B(  4-C , 13-H ) :   0.9428 B(  4-C , 14-H ) :   0.9530 B(  4-C , 15-H ) :   0.9498

Dispersion correction           -0.010056416
FINAL SINGLE POINT ENERGY      -213.243720123780

DIPOLE MOMENT
-------------

Method             : SCF
Type of density    : Electron Density
Multiplicity       :   1
Irrep              :   0
Energy             :  -213.3037505870144344 Eh
Relativity type    :
Basis              : AO
                                X                 Y                 Z
Electronic contribution:     -0.013204847      -1.630656789      -0.026903783
Nuclear contribution   :      0.147192865       1.912332525      -0.127465050
                        -----------------------------------------
Total Dipole Moment    :      0.133988018       0.281675736      -0.154368833
                        -----------------------------------------
Magnitude (a.u.)       :      0.348028369
Magnitude (Debye)      :      0.884617813

Rotational constants in cm-1:             0.437185             0.079588             0.074589
Rotational constants in MHz :         13106.478262          2386.002510          2236.134472

                             ****ORCA TERMINATED NORMALLY****
TOTAL RUN TIME: 0 days 0 hours 0 minutes 6 seconds 449 msec
