                         Program Version 6.0.0  -   RELEASE  -
|  1> ! pbe def2-sv(p) def2/J RI DEFGRID1 loosescf d4 GCP(DFT/SV(P)) printgap
|  2> %output
|  3>     printlevel normal
|  4> end
|  5> * xyz 0 1
|  6> C -3.1172699064 0.4483395021 -0.1543970966
|  7> C -1.9220562028 -0.255343477 0.4773257271
|  8> C -0.6076773496 0.2044088089 -0.1558607224
|  9> C 0.5744938129 -0.5028497322 0.4813194311
| 10> Cl 2.1197259577 0.0381883261 -0.2646169016
| 11> H -3.0393468623 1.5247993006 -0.0228672419
| 12> H -3.1651718595 0.2363121451 -1.2197344618
| 13> H -4.0425434452 0.1116007515 0.3054214072
| 14> H -2.0260267009 -1.3342783018 0.3505094633
| 15> H -1.9000337572 -0.0453333763 1.5480083465
| 16> H -0.6238111905 -0.0068784004 -1.2265381105
| 17> H -0.4977950585 1.2827800894 -0.0285518075
| 18> H 0.5265550474 -1.5801482625 0.3319983057
| 19> H 0.654310132 -0.2755827708 1.5430349447
| 20> *
| 21>
| 22>                          ****END OF INPUT****

CARTESIAN COORDINATES (ANGSTROEM)
---------------------------------
  C     -3.117270    0.448340   -0.154397
  C     -1.922056   -0.255343    0.477326
  C     -0.607677    0.204409   -0.155861
  C      0.574494   -0.502850    0.481319
  Cl     2.119726    0.038188   -0.264617
  H     -3.039347    1.524799   -0.022867
  H     -3.165172    0.236312   -1.219734
  H     -4.042543    0.111601    0.305421
  H     -2.026027   -1.334278    0.350509
  H     -1.900034   -0.045333    1.548008
  H     -0.623811   -0.006878   -1.226538
  H     -0.497795    1.282780   -0.028552
  H      0.526555   -1.580148    0.331998
  H      0.654310   -0.275583    1.543035

 Total Charge           Charge          ....    0
 Multiplicity           Mult            ....    1
 Number of Electrons    NEL             ....   50
 Basis Dimension        Dim             ....   92

ORBITAL ENERGIES
----------------

  NO   OCC          E(Eh)            E(eV)
   0   2.0000    -100.612609     -2737.8083
   1   2.0000      -9.938698      -270.4457
   2   2.0000      -9.894551      -269.2444
   3   2.0000      -9.894267      -269.2367
   4   2.0000      -9.880101      -268.8512
   5   2.0000      -9.148454      -248.9421
   6   2.0000      -6.980029      -189.9363
   7   2.0000      -6.968142      -189.6128
   8   2.0000      -6.968021      -189.6095
   9   2.0000      -0.773181       -21.0393
  10   2.0000      -0.715603       -19.4726
  11   2.0000      -0.640977       -17.4419
  12   2.0000      -0.557693       -15.1756
  13   2.0000      -0.527457       -14.3528
  14   2.0000      -0.443715       -12.0741
  15   2.0000      -0.399215       -10.8632
  16   2.0000      -0.393679       -10.7125
  17   2.0000      -0.384168       -10.4537
  18   2.0000      -0.346639        -9.4325
  19   2.0000      -0.330044        -8.9809
  20   2.0000      -0.313421        -8.5286
  21   2.0000      -0.300887        -8.1876
  22   2.0000      -0.296967        -8.0809
  23   2.0000      -0.241132        -6.5615
  24   2.0000      -0.240412        -6.5420
  25   0.0000       0.010161         0.2765
  26   0.0000       0.038211         1.0398
  27   0.0000       0.059914         1.6304
  28   0.0000       0.062270         1.6944
  29   0.0000       0.080978         2.2035

MULLIKEN ATOMIC CHARGES
-----------------------
   0 C :   -0.256402
   1 C :   -0.210002
   2 C :   -0.165593
   3 C :   -0.156738
   4 Cl:   -0.155573
   5 H :    0.101424
   6 H :    0.101465
   7 H :    0.105721
   8 H :    0.089689
   9 H :    0.089587
  10 H :    0.096533
  11 H :    0.096576
  12 H :    0.131622
  13 H :    0.131691
Sum of atomic charges:   -0.0000000

LOEWDIN ATOMIC CHARGES
----------------------
   0 C :   -0.337652
   1 C :   -0.234448
   2 C :   -0.249833
   3 C :   -0.271050
   4 Cl:    0.014970
   5 H :    0.119045
   6 H :    0.119051
   7 H :    0.120720
   8 H :    0.115878
   9 H :    0.115831
  10 H :    0.120336
  11 H :    0.120375
  12 H :    0.123382
  13 H :    0.123395

  Mayer bond orders larger than 0.100000
B(  0-C ,  1-C ) :   1.1581 B(  0-C ,  5-H ) :   0.9545 B(  0-C ,  6-H ) :   0.9545
B(  0-C ,  7-H ) :   0.9527 B(  1-C ,  2-C ) :   1.1130 B(  1-C ,  8-H ) :   0.9269
B(  1-C ,  9-H ) :   0.9270 B(  2-C ,  3-C ) :   1.1103 B(  2-C , 10-H ) :   0.9207
B(  2-C , 11-H ) :   0.9205 B(  3-C ,  4-Cl) :   1.0385 B(  3-C , 12-H ) :   0.9277
B(  3-C , 13-H ) :   0.9277

Dispersion correction           -0.009541398
FINAL SINGLE POINT ENERGY      -617.299809439919

DIPOLE MOMENT
-------------

Method             : SCF
Type of density    : Electron Density
Multiplicity       :   1
Irrep              :   0
Energy             :  -617.3473796104792655 Eh
Relativity type    :
Basis              : AO
                                X                 Y                 Z
Electronic contribution:     15.360753952      -0.046367273      -1.569352672
Nuclear contribution   :    -16.086249256      -0.132621246       1.838672116
                        -----------------------------------------
Total Dipole Moment    :     -0.725495303      -0.178988520       0.269319444
                        -----------------------------------------
Magnitude (a.u.)       :      0.794300503
Magnitude (Debye)      :      2.018951429

Rotational constants in cm-1:             0.560318             0.044128             0.042199
Rotational constants in MHz :         16797.924552          1322.937831          1265.093872

                             ****ORCA TERMINATED NORMALLY****
TOTAL RUN TIME: 0 days 0 hours 0 minutes 7 seconds 780 msec
