                         Program Version 6.0.0  -   RELEASE  -
|  1> ! pbe def2-sv(p) def2/J RI DEFGRID1 loosescf d4 GCP(DFT/SV(P)) printgap
|  2> %output
|  3>     printlevel normal
|  4> end
|  5> * xyz 0 1
|  6> C -3.183525155 0.5745718893 0.0263807571
|  7> C -1.7824802763 0.2963849615 -0.502108606
|  8> C -0.812681116 -0.0318540615 0.6408514781
|  9> C 0.5410305621 -0.3814652647 0.0839485915
| 10> O 0.7746440198 -1.3514894008 -0.6075026264
| 11> O 1.4538294051 0.5190979951 0.4252782173
| 12> C 2.8007690379 0.3604811295 -0.0328642372
| 13> H -3.5728130609 -0.2944743715 0.5504202308
| 14> H -3.1702075401 1.4160300281 0.7142107886
| 15> H -3.8537108096 0.8104916061 -0.7955887866
| 16> H -1.4142108279 1.1688862884 -1.0453451556
| 17> H -1.8035967073 -0.5464143313 -1.1957976009
| 18> H -1.1886335026 -0.8965634899 1.1895264888
| 19> H -0.7104979447 0.8173649933 1.3148953301
| 20> H 3.0471887276 1.2242766815 -0.6473796723
| 21> H 2.8878433592 -0.5588351583 -0.6129064507
| 22> H 3.4438941939 0.3232122579 0.8440746798
| 23> *
| 24>
| 25>                          ****END OF INPUT****

CARTESIAN COORDINATES (ANGSTROEM)
---------------------------------
  C     -3.183525    0.574572    0.026381
  C     -1.782480    0.296385   -0.502109
  C     -0.812681   -0.031854    0.640851
  C      0.541031   -0.381465    0.083949
  O      0.774644   -1.351489   -0.607503
  O      1.453829    0.519098    0.425278
  C      2.800769    0.360481   -0.032864
  H     -3.572813   -0.294474    0.550420
  H     -3.170208    1.416030    0.714211
  H     -3.853711    0.810492   -0.795589
  H     -1.414211    1.168886   -1.045345
  H     -1.803597   -0.546414   -1.195798
  H     -1.188634   -0.896563    1.189526
  H     -0.710498    0.817365    1.314895
  H      3.047189    1.224277   -0.647380
  H      2.887843   -0.558835   -0.612906
  H      3.443894    0.323212    0.844075

 Total Charge           Charge          ....    0
 Multiplicity           Mult            ....    1
 Number of Electrons    NEL             ....   56
 Basis Dimension        Dim             ....  118

ORBITAL ENERGIES
----------------

  NO   OCC          E(Eh)            E(eV)
   0   2.0000     -18.799126      -511.5502
   1   2.0000     -18.729876      -509.6658
   2   2.0000     -10.004259      -272.2297
   3   2.0000      -9.939197      -270.4593
   4   2.0000      -9.896101      -269.2866
   5   2.0000      -9.893557      -269.2174
   6   2.0000      -9.879543      -268.8360
   7   2.0000      -1.003692       -27.3118
   8   2.0000      -0.907492       -24.6941
   9   2.0000      -0.725700       -19.7473
  10   2.0000      -0.673714       -18.3327
  11   2.0000      -0.620767       -16.8919
  12   2.0000      -0.536749       -14.6057
  13   2.0000      -0.504353       -13.7241
  14   2.0000      -0.448346       -12.2001
  15   2.0000      -0.435253       -11.8438
  16   2.0000      -0.426403       -11.6030
  17   2.0000      -0.403075       -10.9682
  18   2.0000      -0.382511       -10.4086
  19   2.0000      -0.373563       -10.1652
  20   2.0000      -0.352576        -9.5941
  21   2.0000      -0.337099        -9.1729
  22   2.0000      -0.318828        -8.6757
  23   2.0000      -0.301617        -8.2074
  24   2.0000      -0.296467        -8.0673
  25   2.0000      -0.291096        -7.9211
  26   2.0000      -0.253836        -6.9072
  27   2.0000      -0.218065        -5.9338
  28   0.0000      -0.017844        -0.4856
  29   0.0000       0.041614         1.1324
  30   0.0000       0.058787         1.5997
  31   0.0000       0.078351         2.1320
  32   0.0000       0.083072         2.2605

MULLIKEN ATOMIC CHARGES
-----------------------
   0 C :   -0.248045
   1 C :   -0.231508
   2 C :   -0.136485
   3 C :    0.109572
   4 O :   -0.207993
   5 O :   -0.239261
   6 C :   -0.131802
   7 H :    0.100168
   8 H :    0.098463
   9 H :    0.107122
  10 H :    0.094486
  11 H :    0.109340
  12 H :    0.105887
  13 H :    0.092430
  14 H :    0.121690
  15 H :    0.133716
  16 H :    0.122219
Sum of atomic charges:    0.0000000

LOEWDIN ATOMIC CHARGES
----------------------
   0 C :   -0.339372
   1 C :   -0.225320
   2 C :   -0.244124
   3 C :    0.036763
   4 O :   -0.174446
   5 O :   -0.073803
   6 C :   -0.210077
   7 H :    0.118856
   8 H :    0.117656
   9 H :    0.121875
  10 H :    0.118260
  11 H :    0.123964
  12 H :    0.138034
  13 H :    0.126674
  14 H :    0.120124
  15 H :    0.124394
  16 H :    0.120539

  Mayer bond orders larger than 0.100000
B(  0-C ,  1-C ) :   1.1587 B(  0-C ,  7-H ) :   0.9540 B(  0-C ,  8-H ) :   0.9528
B(  0-C ,  9-H ) :   0.9523 B(  1-C ,  2-C ) :   1.1270 B(  1-C , 10-H ) :   0.9298
B(  1-C , 11-H ) :   0.9232 B(  2-C ,  3-C ) :   1.0143 B(  2-C , 12-H ) :   0.8966
B(  2-C , 13-H ) :   0.9077 B(  3-C ,  4-O ) :   2.0638 B(  3-C ,  5-O ) :   1.2196
B(  5-O ,  6-C ) :   0.9356 B(  6-C , 14-H ) :   0.9607 B(  6-C , 15-H ) :   0.9277
B(  6-C , 16-H ) :   0.9610

Dispersion correction           -0.011733544
FINAL SINGLE POINT ENERGY      -346.238841754567

DIPOLE MOMENT
-------------

Method             : SCF
Type of density    : Electron Density
Multiplicity       :   1
Irrep              :   0
Energy             :  -346.3036821204201487 Eh
Relativity type    :
Basis              : AO
                                X                 Y                 Z
Electronic contribution:      6.036551386      -2.615018432      -0.011257689
Nuclear contribution   :     -5.910009459       3.237446101       0.293862208
                        -----------------------------------------
Total Dipole Moment    :      0.126541927       0.622427669       0.282604518
                        -----------------------------------------
Magnitude (a.u.)       :      0.695193769
Magnitude (Debye)      :      1.767042131

Rotational constants in cm-1:             0.230426             0.041654             0.038269
Rotational constants in MHz :          6907.993644          1248.749692          1147.287770

                             ****ORCA TERMINATED NORMALLY****
TOTAL RUN TIME: 0 days 0 hours 0 minutes 9 seconds 660 msec
