                         Program Version 6.0.0  -   RELEASE  -
|  1> ! r2scan-3c def2/J RI DEFGRID2 scfconv6 printgap
|  2> %output
|  3>     printlevel normal
|  4> end
|  5> * xyz 0 1
|  6> C -1.9621735971 -0.2661189357 0.4764455299
|  7> O -1.0488358423 -0.2024238157 -0.6006469228
|  8> C -0.0368821384 0.7714467457 -0.4645744033
|  9> C 1.0733805253 0.4109410415 0.5279099198
| 10> O 1.8594025106 -0.6270077495 -0.0177455185
| 11> H -2.3942976982 0.7206922098 0.676083192
| 12> H -1.4930220042 -0.6461107961 1.3885886155
| 13> H -2.7431137192 -0.9537855209 0.1612734529
| 14> H 0.4044923061 0.8574076111 -1.459671276
| 15> H -0.4789136909 1.7333852736 -0.1697805488
| 16> H 0.6341736732 0.101264626 1.4840160102
| 17> H 1.683515232 1.3086573383 0.6920425398
| 18> H 2.5512009776 -0.8740093108 0.6113210005
| 19> *
| 20>
| 21>                          ****END OF INPUT****

CARTESIAN COORDINATES (ANGSTROEM)
---------------------------------
  C     -1.962174   -0.266119    0.476446
  O     -1.048836   -0.202424   -0.600647
  C     -0.036882    0.771447   -0.464574
  C      1.073381    0.410941    0.527910
  O      1.859403   -0.627008   -0.017746
  H     -2.394298    0.720692    0.676083
  H     -1.493022   -0.646111    1.388589
  H     -2.743114   -0.953786    0.161273
  H      0.404492    0.857408   -1.459671
  H     -0.478914    1.733385   -0.169781
  H      0.634174    0.101265    1.484016
  H      1.683515    1.308657    0.692043
  H      2.551201   -0.874009    0.611321

 Total Charge           Charge          ....    0
 Multiplicity           Mult            ....    1
 Number of Electrons    NEL             ....   42
 Basis Dimension        Dim             ....  145

ORBITAL ENERGIES
----------------

  NO   OCC          E(Eh)            E(eV)
   0   2.0000     -18.949158      -515.6328
   1   2.0000     -18.948720      -515.6209
   2   2.0000     -10.079252      -274.2704
   3   2.0000     -10.076008      -274.1821
   4   2.0000     -10.069320      -274.0001
   5   2.0000      -0.998062       -27.1586
   6   2.0000      -0.981570       -26.7099
   7   2.0000      -0.716659       -19.5013
   8   2.0000      -0.649295       -17.6682
   9   2.0000      -0.563441       -15.3320
  10   2.0000      -0.493483       -13.4284
  11   2.0000      -0.460501       -12.5309
  12   2.0000      -0.430159       -11.7052
  13   2.0000      -0.424554       -11.5527
  14   2.0000      -0.394052       -10.7227
  15   2.0000      -0.366670        -9.9776
  16   2.0000      -0.341249        -9.2859
  17   2.0000      -0.315434        -8.5834
  18   2.0000      -0.276743        -7.5306
  19   2.0000      -0.239569        -6.5190
  20   2.0000      -0.219318        -5.9679
  21   0.0000       0.056286         1.5316
  22   0.0000       0.080530         2.1913
  23   0.0000       0.096887         2.6364
  24   0.0000       0.116830         3.1791
  25   0.0000       0.134750         3.6667

MULLIKEN ATOMIC CHARGES
-----------------------
   0 C :   -0.289145
   1 O :   -0.227472
   2 C :   -0.164345
   3 C :   -0.113930
   4 O :   -0.414908
   5 H :    0.129958
   6 H :    0.129243
   7 H :    0.149799
   8 H :    0.150625
   9 H :    0.119950
  10 H :    0.116669
  11 H :    0.119914
  12 H :    0.293643
Sum of atomic charges:   -0.0000000

LOEWDIN ATOMIC CHARGES
----------------------
   0 C :   -0.076152
   1 O :   -0.768341
   2 C :    0.021816
   3 C :    0.011128
   4 O :   -0.612231
   5 H :    0.154613
   6 H :    0.151269
   7 H :    0.176406
   8 H :    0.191600
   9 H :    0.165178
  10 H :    0.158485
  11 H :    0.158715
  12 H :    0.267512

  Mayer bond orders larger than 0.100000
B(  0-C ,  1-O ) :   0.8906 B(  0-C ,  5-H ) :   0.9680 B(  0-C ,  6-H ) :   0.9613
B(  0-C ,  7-H ) :   0.9739 B(  1-O ,  2-C ) :   0.9217 B(  2-C ,  3-C ) :   0.9642
B(  2-C ,  8-H ) :   0.9616 B(  2-C ,  9-H ) :   0.9652 B(  3-C ,  4-O ) :   0.9354
B(  3-C , 10-H ) :   0.9654 B(  3-C , 11-H ) :   0.9563 B(  4-O , 12-H ) :   0.8997

Dispersion correction           -0.002468088
FINAL SINGLE POINT ENERGY      -269.487746650464

DIPOLE MOMENT
-------------

Method             : SCF
Type of density    : Electron Density
Multiplicity       :   1
Irrep              :   0
Energy             :  -269.4957612688999689 Eh
Relativity type    :
Basis              : AO
                                X                 Y                 Z
Electronic contribution:      1.848683941      -1.607096080      -2.242616254
Nuclear contribution   :     -1.710403801       2.096215723       3.165465478
                        -----------------------------------------
Total Dipole Moment    :      0.138280140       0.489119643       0.922849223
                        -----------------------------------------
Magnitude (a.u.)       :      1.053570174
Magnitude (Debye)      :      2.677962560

Rotational constants in cm-1:             0.358309             0.093900             0.090833
Rotational constants in MHz :         10741.842364          2815.042947          2723.110082

                             ****ORCA TERMINATED NORMALLY****
TOTAL RUN TIME: 0 days 0 hours 0 minutes 15 seconds 331 msec
