                         Program Version 6.0.0  -   RELEASE  -
|  1> ! r2scan-3c def2/J RI DEFGRID2 scfconv6 printgap
|  2> %output
|  3>     printlevel normal
|  4> end
|  5> %cpcm
|  6>     smd true
|  7>     smdsolvent "water"
|  8> end
|  9> * xyz 0 1
| 10> C -1.9621735971 -0.2661189357 0.4764455299
| 11> O -1.0488358423 -0.2024238157 -0.6006469228
| 12> C -0.0368821384 0.7714467457 -0.4645744033
| 13> C 1.0733805253 0.4109410415 0.5279099198
| 14> O 1.8594025106 -0.6270077495 -0.0177455185
| 15> H -2.3942976982 0.7206922098 0.676083192
| 16> H -1.4930220042 -0.6461107961 1.3885886155
| 17> H -2.7431137192 -0.9537855209 0.1612734529
| 18> H 0.4044923061 0.8574076111 -1.459671276
| 19> H -0.4789136909 1.7333852736 -0.1697805488
| 20> H 0.6341736732 0.101264626 1.4840160102
| 21> H 1.683515232 1.3086573383 0.6920425398
| 22> H 2.5512009776 -0.8740093108 0.6113210005
| 23> *
| 24>
| 25>                          ****END OF INPUT****

CARTESIAN COORDINATES (ANGSTROEM)
---------------------------------
  C     -1.962174   -0.266119    0.476446
  O     -1.048836   -0.202424   -0.600647
  C     -0.036882    0.771447   -0.464574
  C      1.073381    0.410941    0.527910
  O      1.859403   -0.627008   -0.017746
  H     -2.394298    0.720692    0.676083
  H     -1.493022   -0.646111    1.388589
  H     -2.743114   -0.953786    0.161273
  H      0.404492    0.857408   -1.459671
  H     -0.478914    1.733385   -0.169781
  H      0.634174    0.101265    1.484016
  H      1.683515    1.308657    0.692043
  H      2.551201   -0.874009    0.611321

 Total Charge           Charge          ....    0
 Multiplicity           Mult            ....    1
 Number of Electrons    NEL             ....   42
 Basis Dimension        Dim             ....  145

ORBITAL ENERGIES
----------------

  NO   OCC          E(Eh)            E(eV)
   0   2.0000     -18.957644      -515.8637
   1   2.0000     -18.952163      -515.7146
   2   2.0000     -10.072236      -274.0795
   3   2.0000     -10.071304      -274.0541
   4   2.0000     -10.062766      -273.8218
   5   2.0000      -1.004081       -27.3224
   6   2.0000      -0.984521       -26.7902
   7   2.0000      -0.713688       -19.4204
   8   2.0000      -0.645165       -17.5558
   9   2.0000      -0.559232       -15.2175
  10   2.0000      -0.490192       -13.3388
  11   2.0000      -0.458696       -12.4818
  12   2.0000      -0.430166       -11.7054
  13   2.0000      -0.423903       -11.5350
  14   2.0000      -0.389751       -10.6057
  15   2.0000      -0.363868        -9.9014
  16   2.0000      -0.336993        -9.1700
  17   2.0000      -0.320008        -8.7078
  18   2.0000      -0.282834        -7.6963
  19   2.0000      -0.243745        -6.6326
  20   2.0000      -0.225506        -6.1363
  21   0.0000       0.068227         1.8565
  22   0.0000       0.086384         2.3506
  23   0.0000       0.110831         3.0159
  24   0.0000       0.127360         3.4657
  25   0.0000       0.143185         3.8963

MULLIKEN ATOMIC CHARGES
-----------------------
   0 C :   -0.306440
   1 O :   -0.307425
   2 C :   -0.167683
   3 C :   -0.129859
   4 O :   -0.505643
   5 H :    0.153653
   6 H :    0.152178
   7 H :    0.162822
   8 H :    0.158992
   9 H :    0.149526
  10 H :    0.145898
  11 H :    0.144969
  12 H :    0.349012
Sum of atomic charges:   -0.0000000

LOEWDIN ATOMIC CHARGES
----------------------
   0 C :   -0.075827
   1 O :   -0.816996
   2 C :    0.019373
   3 C :    0.016207
   4 O :   -0.651389
   5 H :    0.166105
   6 H :    0.161985
   7 H :    0.180331
   8 H :    0.191959
   9 H :    0.179247
  10 H :    0.170832
  11 H :    0.170898
  12 H :    0.287275

  Mayer bond orders larger than 0.100000
B(  0-C ,  1-O ) :   0.8830 B(  0-C ,  5-H ) :   0.9624 B(  0-C ,  6-H ) :   0.9542
B(  0-C ,  7-H ) :   0.9675 B(  1-O ,  2-C ) :   0.9109 B(  2-C ,  3-C ) :   0.9517
B(  2-C ,  8-H ) :   0.9601 B(  2-C ,  9-H ) :   0.9569 B(  3-C ,  4-O ) :   0.9169
B(  3-C , 10-H ) :   0.9623 B(  3-C , 11-H ) :   0.9565 B(  4-O , 12-H ) :   0.8722

Dispersion correction           -0.002468088
FINAL SINGLE POINT ENERGY      -269.500457070663

DIPOLE MOMENT
-------------

Method             : SCF
Type of density    : Electron Density
Multiplicity       :   1
Irrep              :   0
Energy             :  -269.5084716890988830 Eh
Relativity type    :
Basis              : AO
                                X                 Y                 Z
Electronic contribution:      1.890501745      -1.320209584      -1.796689420
Nuclear contribution   :     -1.710403801       2.096215723       3.165465478
                        -----------------------------------------
Total Dipole Moment    :      0.180097944       0.776006139       1.368776058
                        -----------------------------------------
Magnitude (a.u.)       :      1.583719892
Magnitude (Debye)      :      4.025496053

Rotational constants in cm-1:             0.358309             0.093900             0.090833
Rotational constants in MHz :         10741.842364          2815.042947          2723.110082

                             ****ORCA TERMINATED NORMALLY****
TOTAL RUN TIME: 0 days 0 hours 0 minutes 18 seconds 199 msec
