                         Program Version 6.0.0  -   RELEASE  -
|  1> ! r2scan-3c def2/J RI DEFGRID2 scfconv6 printgap
|  2> %output
|  3>     printlevel normal
|  4> end
|  5> * xyz 0 1
|  6> C 2.2379764835 1.1095077061 -0.546000035
|  7> C 1.198931768 0.4942477468 0.388713268
|  8> C 1.8156624535 -0.6543902079 1.1958565743
|  9> C 5.64e-08 0.0012109243 -0.4047440519
| 10> O -0.0005159623 0.0043748292 -1.6192834046
| 11> C -1.1984586525 -0.495207567 0.3873610739
| 12> C -2.2358174121 -1.1109311886 -0.5488423309
| 13> C -1.8177102519 0.6512045687 1.1957453748
| 14> H 2.6122790124 0.3577319956 -1.2371825181
| 15> H 3.0703754416 1.5105024115 0.0251914635
| 16> H 1.7931507432 1.9100879319 -1.1324065514
| 17> H 0.8487605281 1.2625893575 1.0836840026
| 18> H 2.050076215 -1.4909691358 0.5412023873
| 19> H 2.7374103785 -0.3133860761 1.6596785122
| 20> H 1.1451436248 -0.9961628402 1.9784563915
| 21> H -0.8474238481 -1.2639959728 1.0813605137
| 22> H -2.6100392889 -0.3592905656 -1.2401913839
| 23> H -1.789430154 -1.9108633562 -1.1349477423
| 24> H -3.0685252494 -1.5130767367 0.0211877199
| 25> H -2.0544438041 1.487789561 0.542051804
| 26> H -2.7384601816 0.3076974505 1.6597527106
| 27> H -1.1476477825 0.9938338284 1.978271864
| 28> *
| 29>
| 30>                          ****END OF INPUT****

CARTESIAN COORDINATES (ANGSTROEM)
---------------------------------
  C      2.237976    1.109508   -0.546000
  C      1.198932    0.494248    0.388713
  C      1.815662   -0.654390    1.195857
  C      0.000000    0.001211   -0.404744
  O     -0.000516    0.004375   -1.619283
  C     -1.198459   -0.495208    0.387361
  C     -2.235817   -1.110931   -0.548842
  C     -1.817710    0.651205    1.195745
  H      2.612279    0.357732   -1.237183
  H      3.070375    1.510502    0.025191
  H      1.793151    1.910088   -1.132407
  H      0.848761    1.262589    1.083684
  H      2.050076   -1.490969    0.541202
  H      2.737410   -0.313386    1.659679
  H      1.145144   -0.996163    1.978456
  H     -0.847424   -1.263996    1.081361
  H     -2.610039   -0.359291   -1.240191
  H     -1.789430   -1.910863   -1.134948
  H     -3.068525   -1.513077    0.021188
  H     -2.054444    1.487790    0.542052
  H     -2.738460    0.307697    1.659753
  H     -1.147648    0.993834    1.978272

 Total Charge           Charge          ....    0
 Multiplicity           Mult            ....    1
 Number of Electrons    NEL             ....   64
 Basis Dimension        Dim             ....  227

ORBITAL ENERGIES
----------------

  NO   OCC          E(Eh)            E(eV)
   0   2.0000     -18.935845      -515.2705
   1   2.0000     -10.111207      -275.1399
   2   2.0000     -10.045442      -273.3504
   3   2.0000     -10.045428      -273.3500
   4   2.0000     -10.033113      -273.0149
   5   2.0000     -10.033107      -273.0147
   6   2.0000     -10.015539      -272.5367
   7   2.0000     -10.015536      -272.5366
   8   2.0000      -1.003392       -27.3037
   9   2.0000      -0.784480       -21.3468
  10   2.0000      -0.759790       -20.6749
  11   2.0000      -0.658609       -17.9217
  12   2.0000      -0.656494       -17.8641
  13   2.0000      -0.620962       -16.8972
  14   2.0000      -0.560171       -15.2430
  15   2.0000      -0.480333       -13.0705
  16   2.0000      -0.466818       -12.7028
  17   2.0000      -0.431187       -11.7332
  18   2.0000      -0.423317       -11.5190
  19   2.0000      -0.408317       -11.1109
  20   2.0000      -0.387302       -10.5390
  21   2.0000      -0.376793       -10.2531
  22   2.0000      -0.362520        -9.8647
  23   2.0000      -0.358320        -9.7504
  24   2.0000      -0.350140        -9.5278
  25   2.0000      -0.337125        -9.1736
  26   2.0000      -0.328708        -8.9446
  27   2.0000      -0.313760        -8.5378
  28   2.0000      -0.313695        -8.5361
  29   2.0000      -0.306675        -8.3451
  30   2.0000      -0.302614        -8.2345
  31   2.0000      -0.208981        -5.6867
  32   0.0000      -0.044615        -1.2140
  33   0.0000       0.061531         1.6744
  34   0.0000       0.104646         2.8476
  35   0.0000       0.108414         2.9501
  36   0.0000       0.112210         3.0534

MULLIKEN ATOMIC CHARGES
-----------------------
   0 C :   -0.500137
   1 C :    0.022084
   2 C :   -0.506829
   3 C :    0.152164
   4 O :   -0.348994
   5 C :    0.021705
   6 C :   -0.500100
   7 C :   -0.506542
   8 H :    0.162271
   9 H :    0.142922
  10 H :    0.156968
  11 H :    0.151111
  12 H :    0.165630
  13 H :    0.154435
  14 H :    0.150048
  15 H :    0.151039
  16 H :    0.162451
  17 H :    0.156794
  18 H :    0.142902
  19 H :    0.165627
  20 H :    0.154445
  21 H :    0.150006
Sum of atomic charges:   -0.0000000

LOEWDIN ATOMIC CHARGES
----------------------
   0 C :   -0.394975
   1 C :   -0.217122
   2 C :   -0.394358
   3 C :    0.236546
   4 O :   -0.470286
   5 C :   -0.217150
   6 C :   -0.394977
   7 C :   -0.394236
   8 H :    0.165641
   9 H :    0.149900
  10 H :    0.164366
  11 H :    0.171510
  12 H :    0.160970
  13 H :    0.158155
  14 H :    0.152771
  15 H :    0.171449
  16 H :    0.165709
  17 H :    0.164271
  18 H :    0.149910
  19 H :    0.160985
  20 H :    0.158151
  21 H :    0.152770

  Mayer bond orders larger than 0.100000
B(  0-C ,  1-C ) :   0.9379 B(  0-C ,  8-H ) :   0.9807 B(  0-C ,  9-H ) :   0.9759
B(  0-C , 10-H ) :   0.9704 B(  1-C ,  2-C ) :   0.8507 B(  1-C ,  3-C ) :   0.9063
B(  1-C , 11-H ) :   0.9292 B(  2-C , 12-H ) :   0.9792 B(  2-C , 13-H ) :   0.9697
B(  2-C , 14-H ) :   0.9705 B(  3-C ,  4-O ) :   1.9571 B(  3-C ,  5-C ) :   0.9061
B(  5-C ,  6-C ) :   0.9379 B(  5-C ,  7-C ) :   0.8511 B(  5-C , 15-H ) :   0.9294
B(  6-C , 16-H ) :   0.9806 B(  6-C , 17-H ) :   0.9704 B(  6-C , 18-H ) :   0.9759
B(  7-C , 19-H ) :   0.9792 B(  7-C , 20-H ) :   0.9697 B(  7-C , 21-H ) :   0.9706

Dispersion correction           -0.006398556
FINAL SINGLE POINT ENERGY      -350.303677458713

DIPOLE MOMENT
-------------

Method             : SCF
Type of density    : Electron Density
Multiplicity       :   1
Irrep              :   0
Energy             :  -350.3077774031423814 Eh
Relativity type    :
Basis              : AO
                                X                 Y                 Z
Electronic contribution:     -0.000877057       0.014028832      -4.338054403
Nuclear contribution   :      0.001142193      -0.016364379       5.441828484
                        -----------------------------------------
Total Dipole Moment    :      0.000265136      -0.002335547       1.103774081
                        -----------------------------------------
Magnitude (a.u.)       :      1.103776584
Magnitude (Debye)      :      2.805577113

Rotational constants in cm-1:             0.101284             0.045717             0.039699
Rotational constants in MHz :          3036.414115          1370.565724          1190.155508

                             ****ORCA TERMINATED NORMALLY****
TOTAL RUN TIME: 0 days 0 hours 0 minutes 38 seconds 836 msec
