                         Program Version 6.0.0  -   RELEASE  -
|  1> ! r2scan-3c def2/J RI DEFGRID2 scfconv6 printgap
|  2> %output
|  3>     printlevel normal
|  4> end
|  5> %cpcm
|  6>     smd true
|  7>     smdsolvent "water"
|  8> end
|  9> * xyz 0 1
| 10> C 2.2379764835 1.1095077061 -0.546000035
| 11> C 1.198931768 0.4942477468 0.388713268
| 12> C 1.8156624535 -0.6543902079 1.1958565743
| 13> C 5.64e-08 0.0012109243 -0.4047440519
| 14> O -0.0005159623 0.0043748292 -1.6192834046
| 15> C -1.1984586525 -0.495207567 0.3873610739
| 16> C -2.2358174121 -1.1109311886 -0.5488423309
| 17> C -1.8177102519 0.6512045687 1.1957453748
| 18> H 2.6122790124 0.3577319956 -1.2371825181
| 19> H 3.0703754416 1.5105024115 0.0251914635
| 20> H 1.7931507432 1.9100879319 -1.1324065514
| 21> H 0.8487605281 1.2625893575 1.0836840026
| 22> H 2.050076215 -1.4909691358 0.5412023873
| 23> H 2.7374103785 -0.3133860761 1.6596785122
| 24> H 1.1451436248 -0.9961628402 1.9784563915
| 25> H -0.8474238481 -1.2639959728 1.0813605137
| 26> H -2.6100392889 -0.3592905656 -1.2401913839
| 27> H -1.789430154 -1.9108633562 -1.1349477423
| 28> H -3.0685252494 -1.5130767367 0.0211877199
| 29> H -2.0544438041 1.487789561 0.542051804
| 30> H -2.7384601816 0.3076974505 1.6597527106
| 31> H -1.1476477825 0.9938338284 1.978271864
| 32> *
| 33>
| 34>                          ****END OF INPUT****

CARTESIAN COORDINATES (ANGSTROEM)
---------------------------------
  C      2.237976    1.109508   -0.546000
  C      1.198932    0.494248    0.388713
  C      1.815662   -0.654390    1.195857
  C      0.000000    0.001211   -0.404744
  O     -0.000516    0.004375   -1.619283
  C     -1.198459   -0.495208    0.387361
  C     -2.235817   -1.110931   -0.548842
  C     -1.817710    0.651205    1.195745
  H      2.612279    0.357732   -1.237183
  H      3.070375    1.510502    0.025191
  H      1.793151    1.910088   -1.132407
  H      0.848761    1.262589    1.083684
  H      2.050076   -1.490969    0.541202
  H      2.737410   -0.313386    1.659679
  H      1.145144   -0.996163    1.978456
  H     -0.847424   -1.263996    1.081361
  H     -2.610039   -0.359291   -1.240191
  H     -1.789430   -1.910863   -1.134948
  H     -3.068525   -1.513077    0.021188
  H     -2.054444    1.487790    0.542052
  H     -2.738460    0.307697    1.659753
  H     -1.147648    0.993834    1.978272

 Total Charge           Charge          ....    0
 Multiplicity           Mult            ....    1
 Number of Electrons    NEL             ....   64
 Basis Dimension        Dim             ....  227

ORBITAL ENERGIES
----------------

  NO   OCC          E(Eh)            E(eV)
   0   2.0000     -18.945925      -515.5448
   1   2.0000     -10.116972      -275.2968
   2   2.0000     -10.037120      -273.1239
   3   2.0000     -10.037111      -273.1237
   4   2.0000     -10.018460      -272.6162
   5   2.0000     -10.018450      -272.6159
   6   2.0000     -10.010565      -272.4013
   7   2.0000     -10.010561      -272.4012
   8   2.0000      -1.014876       -27.6162
   9   2.0000      -0.776591       -21.1321
  10   2.0000      -0.751126       -20.4392
  11   2.0000      -0.648677       -17.6514
  12   2.0000      -0.648634       -17.6502
  13   2.0000      -0.614029       -16.7086
  14   2.0000      -0.552757       -15.0413
  15   2.0000      -0.477619       -12.9967
  16   2.0000      -0.461129       -12.5479
  17   2.0000      -0.423643       -11.5279
  18   2.0000      -0.418435       -11.3862
  19   2.0000      -0.412812       -11.2332
  20   2.0000      -0.375635       -10.2215
  21   2.0000      -0.369823       -10.0634
  22   2.0000      -0.352201        -9.5839
  23   2.0000      -0.349766        -9.5176
  24   2.0000      -0.340475        -9.2648
  25   2.0000      -0.339820        -9.2470
  26   2.0000      -0.324492        -8.8299
  27   2.0000      -0.307629        -8.3710
  28   2.0000      -0.305690        -8.3183
  29   2.0000      -0.301215        -8.1965
  30   2.0000      -0.293558        -7.9881
  31   2.0000      -0.217647        -5.9225
  32   0.0000      -0.047289        -1.2868
  33   0.0000       0.072517         1.9733
  34   0.0000       0.115111         3.1323
  35   0.0000       0.118743         3.2311
  36   0.0000       0.128344         3.4924

MULLIKEN ATOMIC CHARGES
-----------------------
   0 C :   -0.564708
   1 C :    0.052144
   2 C :   -0.542477
   3 C :    0.176035
   4 O :   -0.445163
   5 C :    0.051827
   6 C :   -0.564711
   7 C :   -0.542154
   8 H :    0.168149
   9 H :    0.164203
  10 H :    0.163372
  11 H :    0.179578
  12 H :    0.174459
  13 H :    0.169405
  14 H :    0.170528
  15 H :    0.179446
  16 H :    0.168144
  17 H :    0.163403
  18 H :    0.164190
  19 H :    0.174391
  20 H :    0.169445
  21 H :    0.170495
Sum of atomic charges:   -0.0000000

LOEWDIN ATOMIC CHARGES
----------------------
   0 C :   -0.405403
   1 C :   -0.210214
   2 C :   -0.395428
   3 C :    0.253883
   4 O :   -0.541262
   5 C :   -0.210243
   6 C :   -0.405408
   7 C :   -0.395304
   8 H :    0.162958
   9 H :    0.158175
  10 H :    0.162147
  11 H :    0.184566
  12 H :    0.163195
  13 H :    0.162926
  14 H :    0.160766
  15 H :    0.184486
  16 H :    0.162971
  17 H :    0.162117
  18 H :    0.158187
  19 H :    0.163181
  20 H :    0.162936
  21 H :    0.160768

  Mayer bond orders larger than 0.100000
B(  0-C ,  1-C ) :   0.8943 B(  0-C ,  8-H ) :   0.9855 B(  0-C ,  9-H ) :   0.9690
B(  0-C , 10-H ) :   0.9750 B(  1-C ,  2-C ) :   0.8423 B(  1-C ,  3-C ) :   0.9282
B(  1-C , 11-H ) :   0.9172 B(  2-C , 12-H ) :   0.9755 B(  2-C , 13-H ) :   0.9662
B(  2-C , 14-H ) :   0.9648 B(  3-C ,  4-O ) :   1.8863 B(  3-C ,  5-C ) :   0.9280
B(  5-C ,  6-C ) :   0.8943 B(  5-C ,  7-C ) :   0.8427 B(  5-C , 15-H ) :   0.9174
B(  6-C , 16-H ) :   0.9854 B(  6-C , 17-H ) :   0.9751 B(  6-C , 18-H ) :   0.9690
B(  7-C , 19-H ) :   0.9755 B(  7-C , 20-H ) :   0.9663 B(  7-C , 21-H ) :   0.9648

Dispersion correction           -0.006398556
FINAL SINGLE POINT ENERGY      -350.308516983488

DIPOLE MOMENT
-------------

Method             : SCF
Type of density    : Electron Density
Multiplicity       :   1
Irrep              :   0
Energy             :  -350.3126169279178725 Eh
Relativity type    :
Basis              : AO
                                X                 Y                 Z
Electronic contribution:     -0.000664890       0.012618686      -3.689244977
Nuclear contribution   :      0.001142193      -0.016364379       5.441828484
                        -----------------------------------------
Total Dipole Moment    :      0.000477303      -0.003745693       1.752583507
                        -----------------------------------------
Magnitude (a.u.)       :      1.752587574
Magnitude (Debye)      :      4.454723591

Rotational constants in cm-1:             0.101284             0.045717             0.039699
Rotational constants in MHz :          3036.414115          1370.565724          1190.155508

                             ****ORCA TERMINATED NORMALLY****
TOTAL RUN TIME: 0 days 0 hours 0 minutes 40 seconds 354 msec
