                         Program Version 6.0.0  -   RELEASE  -
|  1> ! pbe def2-sv(p) def2/J RI DEFGRID1 loosescf d4 GCP(DFT/SV(P)) printgap
|  2> %output
|  3>     printlevel normal
|  4> end
|  5> * xyz 0 1
|  6> C -4.3624545721 -1.8849498817 0.8196390282
|  7> C -2.9076275505 -1.4361251973 0.7631952167
|  8> C -2.646408414 -0.4895284205 -0.4129347096
|  9> H -3.4127516508 0.2928384933 -0.4113634977
| 10> C -2.6507655732 -1.1907235763 -1.766580634
| 11> N -1.3752087995 0.236148885 -0.2176794389
| 12> C -0.1846827657 -0.4845228569 -0.1441075568
| 13> O -0.1565995574 -1.698246535 -0.2366006822
| 14> C 0.9973509056 0.3279737489 0.0488525917
| 15> C 0.9587793801 1.6805043418 0.147901367
| 16> N -0.2655576441 2.2706933546 0.0610440965
| 17> C -1.4519205068 1.6058033626 -0.1178464505
| 18> O -2.4984477498 2.2277511956 -0.1810439916
| 19> C 2.1441003038 2.5491594447 0.3528112927
| 20> Br 2.6337756138 -0.6291361526 0.1631044961
| 21> H -4.6216365373 -2.4752079087 -0.0541377308
| 22> H -4.5237080574 -2.4961200379 1.7033264317
| 23> H -5.024508181 -1.0235961532 0.8685074155
| 24> H -2.6606894107 -0.908864721 1.6887440599
| 25> H -2.2523393458 -2.3042021911 0.6845816751
| 26> H -1.9203585617 -1.9951104178 -1.7826831942
| 27> H -3.6360457489 -1.6031741149 -1.9553842026
| 28> H -2.4163015285 -0.4807760332 -2.5566623421
| 29> H -0.3418938551 3.2804881966 0.136020462
| 30> H 1.896011343 3.5926687393 0.191958481
| 31> H 2.9457514125 2.2551500523 -0.3216043648
| 32> H 2.5200784371 2.4248960628 1.3677252926
| 33> *
| 34>
| 35>                          ****END OF INPUT****

CARTESIAN COORDINATES (ANGSTROEM)
---------------------------------
  C     -4.362455   -1.884950    0.819639
  C     -2.907628   -1.436125    0.763195
  C     -2.646408   -0.489528   -0.412935
  H     -3.412752    0.292838   -0.411363
  C     -2.650766   -1.190724   -1.766581
  N     -1.375209    0.236149   -0.217679
  C     -0.184683   -0.484523   -0.144108
  O     -0.156600   -1.698247   -0.236601
  C      0.997351    0.327974    0.048853
  C      0.958779    1.680504    0.147901
  N     -0.265558    2.270693    0.061044
  C     -1.451921    1.605803   -0.117846
  O     -2.498448    2.227751   -0.181044
  C      2.144100    2.549159    0.352811
  Br     2.633776   -0.629136    0.163104
  H     -4.621637   -2.475208   -0.054138
  H     -4.523708   -2.496120    1.703326
  H     -5.024508   -1.023596    0.868507
  H     -2.660689   -0.908865    1.688744
  H     -2.252339   -2.304202    0.684582
  H     -1.920359   -1.995110   -1.782683
  H     -3.636046   -1.603174   -1.955384
  H     -2.416302   -0.480776   -2.556662
  H     -0.341894    3.280488    0.136020
  H      1.896011    3.592669    0.191958
  H      2.945751    2.255150   -0.321604
  H      2.520078    2.424896    1.367725

 Total Charge           Charge          ....    0
 Multiplicity           Mult            ....    1
 Number of Electrons    NEL             ....  132
 Basis Dimension        Dim             ....  240

ORBITAL ENERGIES
----------------

  NO   OCC          E(Eh)            E(eV)
   0   2.0000    -480.941569    -13087.0854
   1   2.0000     -61.783321     -1681.2096
   2   2.0000     -55.713996     -1516.0549
   3   2.0000     -55.710931     -1515.9715
   4   2.0000     -55.710673     -1515.9645
   5   2.0000     -18.734315      -509.7866
   6   2.0000     -18.731160      -509.7008
   7   2.0000     -14.067571      -382.7981
   8   2.0000     -14.053417      -382.4129
   9   2.0000     -10.033187      -273.0169
  10   2.0000     -10.002324      -272.1771
  11   2.0000      -9.981717      -271.6163
  12   2.0000      -9.948607      -270.7154
  13   2.0000      -9.931536      -270.2508
  14   2.0000      -9.923288      -270.0264
  15   2.0000      -9.881797      -268.8974
  16   2.0000      -9.875226      -268.7186
  17   2.0000      -9.874337      -268.6944
  18   2.0000      -8.408536      -228.8079
  19   2.0000      -6.290832      -171.1822
  20   2.0000      -6.276258      -170.7857
  21   2.0000      -6.275480      -170.7645
  22   2.0000      -2.491911       -67.8083
  23   2.0000      -2.488416       -67.7132
  24   2.0000      -2.487841       -67.6976
  25   2.0000      -2.476879       -67.3993
  26   2.0000      -2.476865       -67.3989
  27   2.0000      -0.987060       -26.8593
  28   2.0000      -0.947307       -25.7775
  29   2.0000      -0.897805       -24.4305
  30   2.0000      -0.859259       -23.3816
  31   2.0000      -0.768134       -20.9020
  32   2.0000      -0.729092       -19.8396
  33   2.0000      -0.708319       -19.2743
  34   2.0000      -0.668777       -18.1984
  35   2.0000      -0.648686       -17.6516
  36   2.0000      -0.608191       -16.5497
  37   2.0000      -0.603181       -16.4134
  38   2.0000      -0.568721       -15.4757
  39   2.0000      -0.536856       -14.6086
  40   2.0000      -0.523439       -14.2435
  41   2.0000      -0.493798       -13.4369
  42   2.0000      -0.450935       -12.2706
  43   2.0000      -0.438692       -11.9374
  44   2.0000      -0.413903       -11.2629
  45   2.0000      -0.412646       -11.2287
  46   2.0000      -0.410126       -11.1601
  47   2.0000      -0.391468       -10.6524
  48   2.0000      -0.383230       -10.4282
  49   2.0000      -0.380618       -10.3571
  50   2.0000      -0.374968       -10.2034
  51   2.0000      -0.369819       -10.0633
  52   2.0000      -0.359128        -9.7724
  53   2.0000      -0.349491        -9.5101
  54   2.0000      -0.343597        -9.3498
  55   2.0000      -0.324592        -8.8326
  56   2.0000      -0.320120        -8.7109
  57   2.0000      -0.312604        -8.5064
  58   2.0000      -0.293706        -7.9921
  59   2.0000      -0.288402        -7.8478
  60   2.0000      -0.275147        -7.4871
  61   2.0000      -0.252688        -6.8760
  62   2.0000      -0.237319        -6.4578
  63   2.0000      -0.235615        -6.4114
  64   2.0000      -0.214183        -5.8282
  65   2.0000      -0.205264        -5.5855
  66   0.0000      -0.072466        -1.9719
  67   0.0000      -0.030911        -0.8411
  68   0.0000      -0.023857        -0.6492
  69   0.0000       0.013705         0.3729
  70   0.0000       0.043600         1.1864

MULLIKEN ATOMIC CHARGES
-----------------------
   0 C :   -0.271969
   1 C :   -0.158673
   2 C :   -0.080332
   3 H :    0.106832
   4 C :   -0.246483
   5 N :   -0.237950
   6 C :    0.186570
   7 O :   -0.173182
   8 C :   -0.185178
   9 C :   -0.005287
  10 N :   -0.196739
  11 C :    0.169002
  12 O :   -0.208384
  13 C :   -0.203124
  14 Br:    0.007234
  15 H :    0.106368
  16 H :    0.106451
  17 H :    0.099305
  18 H :    0.082131
  19 H :    0.117858
  20 H :    0.132194
  21 H :    0.107426
  22 H :    0.101030
  23 H :    0.248776
  24 H :    0.103926
  25 H :    0.145505
  26 H :    0.146691
Sum of atomic charges:   -0.0000000

LOEWDIN ATOMIC CHARGES
----------------------
   0 C :   -0.338942
   1 C :   -0.234696
   2 C :   -0.075990
   3 H :    0.132950
   4 C :   -0.339596
   5 N :   -0.001206
   6 C :    0.023177
   7 O :   -0.166267
   8 C :   -0.217942
   9 C :   -0.007809
  10 N :   -0.086220
  11 C :    0.037861
  12 O :   -0.198710
  13 C :   -0.330532
  14 Br:    0.136666
  15 H :    0.117940
  16 H :    0.123433
  17 H :    0.118241
  18 H :    0.116820
  19 H :    0.127962
  20 H :    0.131353
  21 H :    0.124767
  22 H :    0.121748
  23 H :    0.254573
  24 H :    0.129482
  25 H :    0.148468
  26 H :    0.152472

  Mayer bond orders larger than 0.100000
B(  0-C ,  1-C ) :   1.1626 B(  0-C , 15-H ) :   0.9500 B(  0-C , 16-H ) :   0.9495
B(  0-C , 17-H ) :   0.9495 B(  1-C ,  2-C ) :   1.0866 B(  1-C , 18-H ) :   0.9203
B(  1-C , 19-H ) :   0.9043 B(  2-C ,  3-H ) :   0.8766 B(  2-C ,  4-C ) :   1.1179
B(  2-C ,  5-N ) :   0.9139 B(  4-C , 20-H ) :   0.9292 B(  4-C , 21-H ) :   0.9421
B(  4-C , 22-H ) :   0.9448 B(  5-N ,  6-C ) :   1.0327 B(  5-N , 11-C ) :   1.0796
B(  6-C ,  7-O ) :   2.0874 B(  6-C ,  8-C ) :   1.0387 B(  8-C ,  9-C ) :   1.6107
B(  8-C , 14-Br) :   1.0885 B(  9-C , 10-N ) :   1.2046 B(  9-C , 13-C ) :   1.1629
B( 10-N , 11-C ) :   1.0893 B( 10-N , 23-H ) :   0.8298 B( 11-C , 12-O ) :   2.0450
B( 13-C , 24-H ) :   0.9223 B( 13-C , 25-H ) :   0.9122 B( 13-C , 26-H ) :   0.9154

Dispersion correction           -0.033502552
FINAL SINGLE POINT ENERGY     -3182.942530989149

DIPOLE MOMENT
-------------

Method             : SCF
Type of density    : Electron Density
Multiplicity       :   1
Irrep              :   0
Energy             : -3183.0343298875782239 Eh
Relativity type    :
Basis              : AO
                                X                 Y                 Z
Electronic contribution:     47.091769438      -3.196058866       2.145596700
Nuclear contribution   :    -46.501508483       4.511212699      -1.935167730
                        -----------------------------------------
Total Dipole Moment    :      0.590260955       1.315153833       0.210428970
                        -----------------------------------------
Magnitude (a.u.)       :      1.456817748
Magnitude (Debye)      :      3.702936438

Rotational constants in cm-1:             0.028266             0.011144             0.008658
Rotational constants in MHz :           847.396944           334.097447           259.563948

                             ****ORCA TERMINATED NORMALLY****
TOTAL RUN TIME: 0 days 0 hours 0 minutes 22 seconds 80 msec
