                         Program Version 6.0.0  -   RELEASE  -
|  1> ! r2scan-3c def2/J RI DEFGRID2 scfconv6 printgap
|  2> %output
|  3>     printlevel normal
|  4> end
|  5> * xyz 0 1
|  6> C 1.8324799472 -1.2676508081 -0.0471525166
|  7> O 1.0401838706 -0.3801435988 -0.8521957493
|  8> S -0.0544242967 0.4820926294 -0.1376624772
|  9> O -0.3880056659 1.5261846669 -1.0502263496
| 10> O 0.3826546871 0.836201868 1.1826131351
| 11> O -1.3163095372 -0.4417238787 -0.0556459103
| 12> C -1.4478003469 -1.3176593872 1.0754283104
| 13> H 2.8250320544 -1.2820539638 -0.4927715961
| 14> H 1.3905461054 -2.2628642939 -0.0673189146
| 15> H 1.8724953587 -0.8747881483 0.9674527098
| 16> H -1.0807093945 -2.3075762975 0.8081373871
| 17> H -2.5089291682 -1.3559318776 1.3128872801
| 18> H -0.8829855925 -0.8995633121 1.9069786081
| 19> *
| 20>
| 21>                          ****END OF INPUT****

CARTESIAN COORDINATES (ANGSTROEM)
---------------------------------
  C      1.832480   -1.267651   -0.047153
  O      1.040184   -0.380144   -0.852196
  S     -0.054424    0.482093   -0.137662
  O     -0.388006    1.526185   -1.050226
  O      0.382655    0.836202    1.182613
  O     -1.316310   -0.441724   -0.055646
  C     -1.447800   -1.317659    1.075428
  H      2.825032   -1.282054   -0.492772
  H      1.390546   -2.262864   -0.067319
  H      1.872495   -0.874788    0.967453
  H     -1.080709   -2.307576    0.808137
  H     -2.508929   -1.355932    1.312887
  H     -0.882986   -0.899563    1.906979

 Total Charge           Charge          ....    0
 Multiplicity           Mult            ....    1
 Number of Electrons    NEL             ....   66
 Basis Dimension        Dim             ....  191

ORBITAL ENERGIES
----------------

  NO   OCC          E(Eh)            E(eV)
   0   2.0000     -88.822344     -2416.9788
   1   2.0000     -19.025771      -517.7176
   2   2.0000     -19.025693      -517.7154
   3   2.0000     -18.961743      -515.9753
   4   2.0000     -18.952456      -515.7225
   5   2.0000     -10.113020      -275.1893
   6   2.0000     -10.112905      -275.1861
   7   2.0000      -8.086238      -220.0377
   8   2.0000      -6.033100      -164.1690
   9   2.0000      -6.032054      -164.1405
  10   2.0000      -6.029212      -164.0632
  11   2.0000      -1.163981       -31.6735
  12   2.0000      -1.053985       -28.6804
  13   2.0000      -1.023007       -27.8374
  14   2.0000      -0.995817       -27.0975
  15   2.0000      -0.741510       -20.1775
  16   2.0000      -0.707811       -19.2605
  17   2.0000      -0.594798       -16.1853
  18   2.0000      -0.549368       -14.9491
  19   2.0000      -0.497716       -13.5436
  20   2.0000      -0.489501       -13.3200
  21   2.0000      -0.463481       -12.6119
  22   2.0000      -0.458947       -12.4886
  23   2.0000      -0.447450       -12.1757
  24   2.0000      -0.414596       -11.2817
  25   2.0000      -0.371880       -10.1194
  26   2.0000      -0.370870       -10.0919
  27   2.0000      -0.340729        -9.2717
  28   2.0000      -0.332431        -9.0459
  29   2.0000      -0.330737        -8.9998
  30   2.0000      -0.298244        -8.1156
  31   2.0000      -0.282664        -7.6917
  32   2.0000      -0.281302        -7.6546
  33   0.0000       0.008107         0.2206
  34   0.0000       0.053993         1.4692
  35   0.0000       0.055526         1.5109
  36   0.0000       0.077630         2.1124
  37   0.0000       0.085298         2.3211

MULLIKEN ATOMIC CHARGES
-----------------------
   0 C :   -0.276212
   1 O :   -0.219670
   2 S :    1.089692
   3 O :   -0.506255
   4 O :   -0.608181
   5 O :   -0.221165
   6 C :   -0.275251
   7 H :    0.165917
   8 H :    0.150811
   9 H :    0.191669
  10 H :    0.150391
  11 H :    0.165637
  12 H :    0.192616
Sum of atomic charges:   -0.0000000

LOEWDIN ATOMIC CHARGES
----------------------
   0 C :   -0.041781
   1 O :   -0.552078
   2 S :    0.893032
   3 O :   -0.355304
   4 O :   -0.435449
   5 O :   -0.552067
   6 C :   -0.041359
   7 H :    0.183824
   8 H :    0.166545
   9 H :    0.192074
  10 H :    0.166408
  11 H :    0.183429
  12 H :    0.192726

  Mayer bond orders larger than 0.100000
B(  0-C ,  1-O ) :   0.7871 B(  0-C ,  7-H ) :   0.9642 B(  0-C ,  8-H ) :   0.9617
B(  0-C ,  9-H ) :   0.9612 B(  1-O ,  2-S ) :   0.9623 B(  2-S ,  3-O ) :   1.8831
B(  2-S ,  4-O ) :   1.5925 B(  2-S ,  5-O ) :   0.9571 B(  5-O ,  6-C ) :   0.7862
B(  6-C , 10-H ) :   0.9618 B(  6-C , 11-H ) :   0.9643 B(  6-C , 12-H ) :   0.9613

Dispersion correction           -0.003654125
FINAL SINGLE POINT ENERGY      -778.747808844572

DIPOLE MOMENT
-------------

Method             : SCF
Type of density    : Electron Density
Multiplicity       :   1
Irrep              :   0
Energy             :  -778.7682484953484163 Eh
Relativity type    :
Basis              : AO
                                X                 Y                 Z
Electronic contribution:     -1.233202453       6.489082613      -3.414766637
Nuclear contribution   :      1.512963538      -8.418417339       4.153604443
                        -----------------------------------------
Total Dipole Moment    :      0.279761084      -1.929334725       0.738837805
                        -----------------------------------------
Magnitude (a.u.)       :      2.084821347
Magnitude (Debye)      :      5.299194731

Rotational constants in cm-1:             0.092444             0.085421             0.061096
Rotational constants in MHz :          2771.408722          2560.848447          1831.604128

                             ****ORCA TERMINATED NORMALLY****
TOTAL RUN TIME: 0 days 0 hours 0 minutes 21 seconds 965 msec
