                         Program Version 6.0.0  -   RELEASE  -
|  1> ! pbe def2-sv(p) def2/J RI DEFGRID1 loosescf d4 GCP(DFT/SV(P)) printgap
|  2> %output
|  3>     printlevel normal
|  4> end
|  5> * xyz 0 1
|  6> C -1.1142250581 -0.0777393073 0.7130928117
|  7> C 0.2290670646 0.5894791021 0.3664493663
|  8> C 1.1379867581 -0.3454376431 -0.4502167774
|  9> O 1.6473587875 -1.4143430627 0.3078461397
| 10> O 0.0129512098 1.7406230524 -0.4268606316
| 11> O -1.8139672019 -0.4930646101 -0.4359027597
| 12> H -1.7270397736 0.6236362609 1.2969800291
| 13> H -0.9459805749 -0.9702185888 1.3174352709
| 14> H 0.7488092262 0.8430568607 1.300024762
| 15> H 2.000016182 0.2326134255 -0.7908385792
| 16> H 0.5888817724 -0.7021921134 -1.3279443675
| 17> H 0.9529607533 -2.0744032714 0.4377091059
| 18> H -0.3348982245 2.4557612601 0.1238954854
| 19> H -1.8564295955 0.2575030111 -1.0479738116
| 20> *
| 21>
| 22>                          ****END OF INPUT****

CARTESIAN COORDINATES (ANGSTROEM)
---------------------------------
  C     -1.114225   -0.077739    0.713093
  C      0.229067    0.589479    0.366449
  C      1.137987   -0.345438   -0.450217
  O      1.647359   -1.414343    0.307846
  O      0.012951    1.740623   -0.426861
  O     -1.813967   -0.493065   -0.435903
  H     -1.727040    0.623636    1.296980
  H     -0.945981   -0.970219    1.317435
  H      0.748809    0.843057    1.300025
  H      2.000016    0.232613   -0.790839
  H      0.588882   -0.702192   -1.327944
  H      0.952961   -2.074403    0.437709
  H     -0.334898    2.455761    0.123895
  H     -1.856430    0.257503   -1.047974

 Total Charge           Charge          ....    0
 Multiplicity           Mult            ....    1
 Number of Electrons    NEL             ....   50
 Basis Dimension        Dim             ....  100

ORBITAL ENERGIES
----------------

  NO   OCC          E(Eh)            E(eV)
   0   2.0000     -18.763403      -510.5782
   1   2.0000     -18.748408      -510.1701
   2   2.0000     -18.747840      -510.1547
   3   2.0000      -9.940331      -270.4901
   4   2.0000      -9.935449      -270.3573
   5   2.0000      -9.926003      -270.1003
   6   2.0000      -0.945451       -25.7270
   7   2.0000      -0.921105       -25.0645
   8   2.0000      -0.917892       -24.9771
   9   2.0000      -0.678857       -18.4726
  10   2.0000      -0.612915       -16.6783
  11   2.0000      -0.540910       -14.7189
  12   2.0000      -0.487895       -13.2763
  13   2.0000      -0.453526       -12.3411
  14   2.0000      -0.450806       -12.2671
  15   2.0000      -0.415114       -11.2958
  16   2.0000      -0.390809       -10.6345
  17   2.0000      -0.368329       -10.0227
  18   2.0000      -0.354702        -9.6519
  19   2.0000      -0.299202        -8.1417
  20   2.0000      -0.290085        -7.8936
  21   2.0000      -0.274334        -7.4650
  22   2.0000      -0.244124        -6.6430
  23   2.0000      -0.226264        -6.1569
  24   2.0000      -0.207934        -5.6582
  25   0.0000       0.009596         0.2611
  26   0.0000       0.025591         0.6964
  27   0.0000       0.054529         1.4838
  28   0.0000       0.079710         2.1690
  29   0.0000       0.093073         2.5326

MULLIKEN ATOMIC CHARGES
-----------------------
   0 C :    0.028076
   1 C :   -0.056175
   2 C :    0.045825
   3 O :   -0.436631
   4 O :   -0.426321
   5 O :   -0.437408
   6 H :    0.067244
   7 H :    0.074754
   8 H :    0.068449
   9 H :    0.094936
  10 H :    0.073899
  11 H :    0.303071
  12 H :    0.302899
  13 H :    0.297383
Sum of atomic charges:    0.0000000

LOEWDIN ATOMIC CHARGES
----------------------
   0 C :   -0.140320
   1 C :   -0.104612
   2 C :   -0.127849
   3 O :   -0.333319
   4 O :   -0.327564
   5 O :   -0.339472
   6 H :    0.092847
   7 H :    0.107536
   8 H :    0.103301
   9 H :    0.116320
  10 H :    0.099851
  11 H :    0.285487
  12 H :    0.288440
  13 H :    0.279353

  Mayer bond orders larger than 0.100000
B(  0-C ,  1-C ) :   1.0313 B(  0-C ,  5-O ) :   1.0665 B(  0-C ,  6-H ) :   0.9158
B(  0-C ,  7-H ) :   0.9138 B(  1-C ,  2-C ) :   1.0211 B(  1-C ,  4-O ) :   1.0346
B(  1-C ,  8-H ) :   0.8965 B(  2-C ,  3-O ) :   1.0792 B(  2-C ,  9-H ) :   0.9264
B(  2-C , 10-H ) :   0.9137 B(  3-O , 11-H ) :   0.8495 B(  4-O , 12-H ) :   0.8495
B(  5-O , 13-H ) :   0.8356

Dispersion correction           -0.009319792
FINAL SINGLE POINT ENERGY      -344.009102407486

DIPOLE MOMENT
-------------

Method             : SCF
Type of density    : Electron Density
Multiplicity       :   1
Irrep              :   0
Energy             :  -344.0826737340024124 Eh
Relativity type    :
Basis              : AO
                                X                 Y                 Z
Electronic contribution:      0.058502524      -0.000040601      -0.819793910
Nuclear contribution   :     -0.540493537       0.622118372       1.220097784
                        -----------------------------------------
Total Dipole Moment    :     -0.481991013       0.622077772       0.400303873
                        -----------------------------------------
Magnitude (a.u.)       :      0.882915218
Magnitude (Debye)      :      2.244192134

Rotational constants in cm-1:             0.147101             0.093407             0.068740
Rotational constants in MHz :          4409.963748          2800.279757          2060.768422

                             ****ORCA TERMINATED NORMALLY****
TOTAL RUN TIME: 0 days 0 hours 0 minutes 6 seconds 627 msec
