                         Program Version 6.0.0  -   RELEASE  -
|  1> ! r2scan-3c def2/J RI DEFGRID2 scfconv6 printgap
|  2> %output
|  3>     printlevel normal
|  4> end
|  5> * xyz 0 1
|  6> C -2.7882597352 0.0292648618 -0.0069115035
|  7> C -1.3761319179 0.584512903 -0.1569617941
|  8> C -0.329239264 -0.486911192 0.1333649923
|  9> C 1.1075813107 -0.0545935083 0.0141446406
| 10> C 1.5021216573 1.1643110687 -0.3165975497
| 11> C 2.0941402733 -1.1472769186 0.3087520676
| 12> H -3.5256811855 0.8006862443 -0.2148349149
| 13> H -2.9495601048 -0.3356023283 1.0051254772
| 14> H -2.949949229 -0.7950287937 -0.6981248351
| 15> H -1.2422081546 0.9586539627 -1.1738161608
| 16> H -1.2424507094 1.4207291804 0.5320938748
| 17> H -0.4854887455 -0.8688750413 1.1473192625
| 18> H -0.4873648349 -1.3297562596 -0.5470844533
| 19> H 2.5480988075 1.4134758611 -0.3857174244
| 20> H 0.8162176191 1.9636433183 -0.5320832611
| 21> H 1.9476687083 -1.9816102606 -0.3757445894
| 22> H 3.1150324757 -0.7892648258 0.2098852121
| 23> H 1.9506151819 -1.5213123467 1.3214787485
| 24> *
| 25>
| 26>                          ****END OF INPUT****

CARTESIAN COORDINATES (ANGSTROEM)
---------------------------------
  C     -2.788260    0.029265   -0.006912
  C     -1.376132    0.584513   -0.156962
  C     -0.329239   -0.486911    0.133365
  C      1.107581   -0.054594    0.014145
  C      1.502122    1.164311   -0.316598
  C      2.094140   -1.147277    0.308752
  H     -3.525681    0.800686   -0.214835
  H     -2.949560   -0.335602    1.005125
  H     -2.949949   -0.795029   -0.698125
  H     -1.242208    0.958654   -1.173816
  H     -1.242451    1.420729    0.532094
  H     -0.485489   -0.868875    1.147319
  H     -0.487365   -1.329756   -0.547084
  H      2.548099    1.413476   -0.385717
  H      0.816218    1.963643   -0.532083
  H      1.947669   -1.981610   -0.375745
  H      3.115032   -0.789265    0.209885
  H      1.950615   -1.521312    1.321479

 Total Charge           Charge          ....    0
 Multiplicity           Mult            ....    1
 Number of Electrons    NEL             ....   48
 Basis Dimension        Dim             ....  174

ORBITAL ENERGIES
----------------

  NO   OCC          E(Eh)            E(eV)
   0   2.0000     -10.037190      -273.1258
   1   2.0000     -10.029072      -272.9049
   2   2.0000     -10.024803      -272.7888
   3   2.0000     -10.021290      -272.6932
   4   2.0000     -10.016708      -272.5685
   5   2.0000     -10.007321      -272.3130
   6   2.0000      -0.785800       -21.3827
   7   2.0000      -0.732559       -19.9339
   8   2.0000      -0.651783       -17.7359
   9   2.0000      -0.644896       -17.5485
  10   2.0000      -0.561702       -15.2847
  11   2.0000      -0.487169       -13.2565
  12   2.0000      -0.438424       -11.9301
  13   2.0000      -0.430035       -11.7018
  14   2.0000      -0.404598       -11.0097
  15   2.0000      -0.389127       -10.5887
  16   2.0000      -0.367738       -10.0067
  17   2.0000      -0.350155        -9.5282
  18   2.0000      -0.344660        -9.3787
  19   2.0000      -0.329015        -8.9530
  20   2.0000      -0.305540        -8.3142
  21   2.0000      -0.300918        -8.1884
  22   2.0000      -0.286731        -7.8024
  23   2.0000      -0.223755        -6.0887
  24   0.0000      -0.001207        -0.0328
  25   0.0000       0.096326         2.6212
  26   0.0000       0.101669         2.7666
  27   0.0000       0.124362         3.3841
  28   0.0000       0.131432         3.5764

MULLIKEN ATOMIC CHARGES
-----------------------
   0 C :   -0.473195
   1 C :   -0.283775
   2 C :   -0.252359
   3 C :    0.094532
   4 C :   -0.355759
   5 C :   -0.483000
   6 H :    0.147867
   7 H :    0.141145
   8 H :    0.141257
   9 H :    0.150198
  10 H :    0.150170
  11 H :    0.147607
  12 H :    0.147480
  13 H :    0.135090
  14 H :    0.141676
  15 H :    0.151012
  16 H :    0.149042
  17 H :    0.151012
Sum of atomic charges:    0.0000000

LOEWDIN ATOMIC CHARGES
----------------------
   0 C :   -0.423604
   1 C :   -0.313237
   2 C :   -0.289342
   3 C :   -0.127752
   4 C :   -0.334239
   5 C :   -0.396979
   6 H :    0.150609
   7 H :    0.149822
   8 H :    0.149821
   9 H :    0.155201
  10 H :    0.155188
  11 H :    0.165484
  12 H :    0.165459
  13 H :    0.156558
  14 H :    0.158657
  15 H :    0.160042
  16 H :    0.158256
  17 H :    0.160055

  Mayer bond orders larger than 0.100000
B(  0-C ,  1-C ) :   0.9099 B(  0-C ,  6-H ) :   0.9762 B(  0-C ,  7-H ) :   0.9833
B(  0-C ,  8-H ) :   0.9834 B(  1-C ,  2-C ) :   0.8936 B(  1-C ,  9-H ) :   0.9716
B(  1-C , 10-H ) :   0.9713 B(  2-C ,  3-C ) :   0.9122 B(  2-C , 11-H ) :   0.9825
B(  2-C , 12-H ) :   0.9829 B(  3-C ,  4-C ) :   1.8811 B(  3-C ,  5-C ) :   0.8765
B(  4-C , 13-H ) :   0.9749 B(  4-C , 14-H ) :   0.9685 B(  5-C , 15-H ) :   0.9763
B(  5-C , 16-H ) :   0.9859 B(  5-C , 17-H ) :   0.9763

Dispersion correction           -0.004381251
FINAL SINGLE POINT ENERGY      -235.762648997493

DIPOLE MOMENT
-------------

Method             : SCF
Type of density    : Electron Density
Multiplicity       :   1
Irrep              :   0
Energy             :  -235.7659284900715875 Eh
Relativity type    :
Basis              : AO
                                X                 Y                 Z
Electronic contribution:      2.244419027       0.800986492      -0.216898125
Nuclear contribution   :     -2.350164246      -0.998450606       0.270657163
                        -----------------------------------------
Total Dipole Moment    :     -0.105745219      -0.197464114       0.053759037
                        -----------------------------------------
Magnitude (a.u.)       :      0.230356597
Magnitude (Debye)      :      0.585519938

Rotational constants in cm-1:             0.254374             0.060390             0.050638
Rotational constants in MHz :          7625.942506          1810.435166          1518.074926

                             ****ORCA TERMINATED NORMALLY****
TOTAL RUN TIME: 0 days 0 hours 0 minutes 18 seconds 855 msec
