                         Program Version 6.0.0  -   RELEASE  -
|  1> ! r2scan-3c def2/J RI DEFGRID2 scfconv6 printgap
|  2> %output
|  3>     printlevel normal
|  4> end
|  5> %cpcm
|  6>     smd true
|  7>     smdsolvent "water"
|  8> end
|  9> * xyz 0 1
| 10> C -2.7882597352 0.0292648618 -0.0069115035
| 11> C -1.3761319179 0.584512903 -0.1569617941
| 12> C -0.329239264 -0.486911192 0.1333649923
| 13> C 1.1075813107 -0.0545935083 0.0141446406
| 14> C 1.5021216573 1.1643110687 -0.3165975497
| 15> C 2.0941402733 -1.1472769186 0.3087520676
| 16> H -3.5256811855 0.8006862443 -0.2148349149
| 17> H -2.9495601048 -0.3356023283 1.0051254772
| 18> H -2.949949229 -0.7950287937 -0.6981248351
| 19> H -1.2422081546 0.9586539627 -1.1738161608
| 20> H -1.2424507094 1.4207291804 0.5320938748
| 21> H -0.4854887455 -0.8688750413 1.1473192625
| 22> H -0.4873648349 -1.3297562596 -0.5470844533
| 23> H 2.5480988075 1.4134758611 -0.3857174244
| 24> H 0.8162176191 1.9636433183 -0.5320832611
| 25> H 1.9476687083 -1.9816102606 -0.3757445894
| 26> H 3.1150324757 -0.7892648258 0.2098852121
| 27> H 1.9506151819 -1.5213123467 1.3214787485
| 28> *
| 29>
| 30>                          ****END OF INPUT****

CARTESIAN COORDINATES (ANGSTROEM)
---------------------------------
  C     -2.788260    0.029265   -0.006912
  C     -1.376132    0.584513   -0.156962
  C     -0.329239   -0.486911    0.133365
  C      1.107581   -0.054594    0.014145
  C      1.502122    1.164311   -0.316598
  C      2.094140   -1.147277    0.308752
  H     -3.525681    0.800686   -0.214835
  H     -2.949560   -0.335602    1.005125
  H     -2.949949   -0.795029   -0.698125
  H     -1.242208    0.958654   -1.173816
  H     -1.242451    1.420729    0.532094
  H     -0.485489   -0.868875    1.147319
  H     -0.487365   -1.329756   -0.547084
  H      2.548099    1.413476   -0.385717
  H      0.816218    1.963643   -0.532083
  H      1.947669   -1.981610   -0.375745
  H      3.115032   -0.789265    0.209885
  H      1.950615   -1.521312    1.321479

 Total Charge           Charge          ....    0
 Multiplicity           Mult            ....    1
 Number of Electrons    NEL             ....   48
 Basis Dimension        Dim             ....  174

ORBITAL ENERGIES
----------------

  NO   OCC          E(Eh)            E(eV)
   0   2.0000     -10.036920      -273.1185
   1   2.0000     -10.020951      -272.6839
   2   2.0000     -10.017048      -272.5777
   3   2.0000     -10.013774      -272.4886
   4   2.0000     -10.008130      -272.3351
   5   2.0000     -10.005038      -272.2509
   6   2.0000      -0.781580       -21.2679
   7   2.0000      -0.726380       -19.7658
   8   2.0000      -0.646744       -17.5988
   9   2.0000      -0.639618       -17.4049
  10   2.0000      -0.554364       -15.0850
  11   2.0000      -0.482896       -13.1403
  12   2.0000      -0.430677       -11.7193
  13   2.0000      -0.425661       -11.5828
  14   2.0000      -0.399550       -10.8723
  15   2.0000      -0.382293       -10.4027
  16   2.0000      -0.359974        -9.7954
  17   2.0000      -0.341856        -9.3024
  18   2.0000      -0.338576        -9.2131
  19   2.0000      -0.323728        -8.8091
  20   2.0000      -0.298329        -8.1180
  21   2.0000      -0.292444        -7.9578
  22   2.0000      -0.280649        -7.6368
  23   2.0000      -0.225351        -6.1321
  24   0.0000      -0.001819        -0.0495
  25   0.0000       0.102851         2.7987
  26   0.0000       0.110018         2.9937
  27   0.0000       0.130183         3.5425
  28   0.0000       0.138971         3.7816

MULLIKEN ATOMIC CHARGES
-----------------------
   0 C :   -0.515698
   1 C :   -0.270316
   2 C :   -0.272536
   3 C :    0.078863
   4 C :   -0.443058
   5 C :   -0.517003
   6 H :    0.157555
   7 H :    0.153705
   8 H :    0.153831
   9 H :    0.153707
  10 H :    0.153678
  11 H :    0.168701
  12 H :    0.168574
  13 H :    0.161414
  14 H :    0.163795
  15 H :    0.170334
  16 H :    0.164132
  17 H :    0.170321
Sum of atomic charges:    0.0000000

LOEWDIN ATOMIC CHARGES
----------------------
   0 C :   -0.431490
   1 C :   -0.314196
   2 C :   -0.292629
   3 C :   -0.127497
   4 C :   -0.366866
   5 C :   -0.404785
   6 H :    0.152637
   7 H :    0.152919
   8 H :    0.152917
   9 H :    0.156116
  10 H :    0.156106
  11 H :    0.172594
  12 H :    0.172568
  13 H :    0.162277
  14 H :    0.163583
  15 H :    0.167014
  16 H :    0.161721
  17 H :    0.167010

  Mayer bond orders larger than 0.100000
B(  0-C ,  1-C ) :   0.9030 B(  0-C ,  6-H ) :   0.9738 B(  0-C ,  7-H ) :   0.9808
B(  0-C ,  8-H ) :   0.9809 B(  1-C ,  2-C ) :   0.8895 B(  1-C ,  9-H ) :   0.9701
B(  1-C , 10-H ) :   0.9698 B(  2-C ,  3-C ) :   0.8988 B(  2-C , 11-H ) :   0.9789
B(  2-C , 12-H ) :   0.9792 B(  3-C ,  4-C ) :   1.8471 B(  3-C ,  5-C ) :   0.8753
B(  4-C , 13-H ) :   0.9744 B(  4-C , 14-H ) :   0.9729 B(  5-C , 15-H ) :   0.9700
B(  5-C , 16-H ) :   0.9821 B(  5-C , 17-H ) :   0.9700

Dispersion correction           -0.004381251
FINAL SINGLE POINT ENERGY      -235.760777184078

DIPOLE MOMENT
-------------

Method             : SCF
Type of density    : Electron Density
Multiplicity       :   1
Irrep              :   0
Energy             :  -235.7640566766563097 Eh
Relativity type    :
Basis              : AO
                                X                 Y                 Z
Electronic contribution:      2.199760651       0.658051703      -0.178163215
Nuclear contribution   :     -2.350164246      -0.998450606       0.270657163
                        -----------------------------------------
Total Dipole Moment    :     -0.150403595      -0.340398903       0.092493948
                        -----------------------------------------
Magnitude (a.u.)       :      0.383468102
Magnitude (Debye)      :      0.974698455

Rotational constants in cm-1:             0.254374             0.060390             0.050638
Rotational constants in MHz :          7625.942506          1810.435166          1518.074926

                             ****ORCA TERMINATED NORMALLY****
TOTAL RUN TIME: 0 days 0 hours 0 minutes 22 seconds 419 msec
