                         Program Version 6.0.0  -   RELEASE  -
|  1> ! pbe def2-sv(p) def2/J RI DEFGRID1 loosescf d4 GCP(DFT/SV(P)) printgap
|  2> %output
|  3>     printlevel normal
|  4> end
|  5> * xyz 0 1
|  6> C -2.8139459122 0.8941273784 0.4902456101
|  7> C -2.2392557568 -0.066122974 -0.5494071671
|  8> C -2.5220147958 -1.514051397 -0.151822058
|  9> C -0.7442808774 0.1829659621 -0.8065658307
| 10> C 0.1361758326 0.097339058 0.4399845815
| 11> C 1.6543218291 0.1075398565 0.1763052233
| 12> C 2.0947460271 -1.1763268543 -0.5318215988
| 13> C 2.0617190347 1.3208307008 -0.6629274925
| 14> C 2.3650930506 0.1846935465 1.5330380243
| 15> H -3.8960404718 0.7931117606 0.5364778746
| 16> H -2.5765923588 1.923902419 0.2331674873
| 17> H -2.4122068448 0.6800859956 1.477191221
| 18> H -2.7536440526 0.1217973141 -1.5004360424
| 19> H -2.0974153636 -2.2011516163 -0.8801532176
| 20> H -2.1006311323 -1.7407571275 0.8241607588
| 21> H -3.594864624 -1.6861543284 -0.102474407
| 22> H -0.4078559125 -0.547388481 -1.5444229157
| 23> H -0.6387694265 1.1750569111 -1.2499172975
| 24> H -0.0993688428 -0.8183480898 0.9848898634
| 25> H -0.0984205922 0.9408108979 1.0922575364
| 26> H 3.1765671596 -1.1897880143 -0.6446913206
| 27> H 1.7995936043 -2.0506375743 0.044064967
| 28> H 1.6537365035 -1.2514199572 -1.5222134875
| 29> H 1.6666115245 1.2474044067 -1.6724668251
| 30> H 1.6931109437 2.2390966384 -0.2111582293
| 31> H 3.145874481 1.3831822059 -0.7282919621
| 32> H 2.0791996121 -0.654348497 2.1635991756
| 33> H 2.105362635 1.105833419 2.050076716
| 34> H 3.4444332589 0.160345439 1.4007530154
| 35> *
| 36>
| 37>                          ****END OF INPUT****

CARTESIAN COORDINATES (ANGSTROEM)
---------------------------------
  C     -2.813946    0.894127    0.490246
  C     -2.239256   -0.066123   -0.549407
  C     -2.522015   -1.514051   -0.151822
  C     -0.744281    0.182966   -0.806566
  C      0.136176    0.097339    0.439985
  C      1.654322    0.107540    0.176305
  C      2.094746   -1.176327   -0.531822
  C      2.061719    1.320831   -0.662927
  C      2.365093    0.184694    1.533038
  H     -3.896040    0.793112    0.536478
  H     -2.576592    1.923902    0.233167
  H     -2.412207    0.680086    1.477191
  H     -2.753644    0.121797   -1.500436
  H     -2.097415   -2.201152   -0.880153
  H     -2.100631   -1.740757    0.824161
  H     -3.594865   -1.686154   -0.102474
  H     -0.407856   -0.547388   -1.544423
  H     -0.638769    1.175057   -1.249917
  H     -0.099369   -0.818348    0.984890
  H     -0.098421    0.940811    1.092258
  H      3.176567   -1.189788   -0.644691
  H      1.799594   -2.050638    0.044065
  H      1.653737   -1.251420   -1.522213
  H      1.666612    1.247404   -1.672467
  H      1.693111    2.239097   -0.211158
  H      3.145874    1.383182   -0.728292
  H      2.079200   -0.654348    2.163599
  H      2.105363    1.105833    2.050077
  H      3.444433    0.160345    1.400753

 Total Charge           Charge          ....    0
 Multiplicity           Mult            ....    1
 Number of Electrons    NEL             ....   74
 Basis Dimension        Dim             ....  166

ORBITAL ENERGIES
----------------

  NO   OCC          E(Eh)            E(eV)
   0   2.0000      -9.901104      -269.4227
   1   2.0000      -9.889753      -269.1139
   2   2.0000      -9.875367      -268.7224
   3   2.0000      -9.875297      -268.7205
   4   2.0000      -9.868115      -268.5251
   5   2.0000      -9.867980      -268.5214
   6   2.0000      -9.867596      -268.5109
   7   2.0000      -9.867402      -268.5057
   8   2.0000      -9.866860      -268.4909
   9   2.0000      -0.747488       -20.3402
  10   2.0000      -0.718749       -19.5582
  11   2.0000      -0.640881       -17.4392
  12   2.0000      -0.609299       -16.5799
  13   2.0000      -0.608584       -16.5604
  14   2.0000      -0.606406       -16.5011
  15   2.0000      -0.564177       -15.3520
  16   2.0000      -0.486074       -13.2268
  17   2.0000      -0.463330       -12.6079
  18   2.0000      -0.420477       -11.4418
  19   2.0000      -0.413793       -11.2599
  20   2.0000      -0.394249       -10.7281
  21   2.0000      -0.386066       -10.5054
  22   2.0000      -0.383031       -10.4228
  23   2.0000      -0.374328       -10.1860
  24   2.0000      -0.352965        -9.6047
  25   2.0000      -0.345403        -9.3989
  26   2.0000      -0.336040        -9.1441
  27   2.0000      -0.321956        -8.7609
  28   2.0000      -0.319003        -8.6805
  29   2.0000      -0.315988        -8.5985
  30   2.0000      -0.301679        -8.2091
  31   2.0000      -0.291543        -7.9333
  32   2.0000      -0.286985        -7.8093
  33   2.0000      -0.281756        -7.6670
  34   2.0000      -0.269169        -7.3245
  35   2.0000      -0.262034        -7.1303
  36   2.0000      -0.256648        -6.9837
  37   0.0000       0.026689         0.7263
  38   0.0000       0.046733         1.2717
  39   0.0000       0.061517         1.6740
  40   0.0000       0.063128         1.7178
  41   0.0000       0.082581         2.2471

MULLIKEN ATOMIC CHARGES
-----------------------
   0 C :   -0.256108
   1 C :   -0.147509
   2 C :   -0.257490
   3 C :   -0.134988
   4 C :   -0.137771
   5 C :   -0.242551
   6 C :   -0.221350
   7 C :   -0.218797
   8 C :   -0.200571
   9 H :    0.096782
  10 H :    0.095557
  11 H :    0.104277
  12 H :    0.066085
  13 H :    0.095757
  14 H :    0.103482
  15 H :    0.096663
  16 H :    0.079433
  17 H :    0.081417
  18 H :    0.076633
  19 H :    0.077775
  20 H :    0.091662
  21 H :    0.091438
  22 H :    0.102211
  23 H :    0.103504
  24 H :    0.091285
  25 H :    0.091546
  26 H :    0.089869
  27 H :    0.090456
  28 H :    0.091306
Sum of atomic charges:    0.0000000

LOEWDIN ATOMIC CHARGES
----------------------
   0 C :   -0.331615
   1 C :   -0.154851
   2 C :   -0.331684
   3 C :   -0.220082
   4 C :   -0.209466
   5 C :   -0.105275
   6 C :   -0.317279
   7 C :   -0.317489
   8 C :   -0.315312
   9 H :    0.117422
  10 H :    0.116137
  11 H :    0.116714
  12 H :    0.113599
  13 H :    0.116090
  14 H :    0.115199
  15 H :    0.117782
  16 H :    0.112470
  17 H :    0.114551
  18 H :    0.112427
  19 H :    0.113948
  20 H :    0.116368
  21 H :    0.115415
  22 H :    0.114425
  23 H :    0.116238
  24 H :    0.115549
  25 H :    0.116125
  26 H :    0.114490
  27 H :    0.114155
  28 H :    0.113947

  Mayer bond orders larger than 0.100000
B(  0-C ,  1-C ) :   1.1077 B(  0-C ,  9-H ) :   0.9503 B(  0-C , 10-H ) :   0.9513
B(  0-C , 11-H ) :   0.9436 B(  1-C ,  2-C ) :   1.1122 B(  1-C ,  3-C ) :   1.0852
B(  1-C , 12-H ) :   0.9014 B(  2-C , 13-H ) :   0.9511 B(  2-C , 14-H ) :   0.9425
B(  2-C , 15-H ) :   0.9502 B(  3-C ,  4-C ) :   1.1326 B(  3-C , 16-H ) :   0.9117
B(  3-C , 17-H ) :   0.9029 B(  4-C ,  5-C ) :   1.0425 B(  4-C , 18-H ) :   0.9123
B(  4-C , 19-H ) :   0.9034 B(  5-C ,  6-C ) :   1.0741 B(  5-C ,  7-C ) :   1.0736
B(  5-C ,  8-C ) :   1.0808 B(  6-C , 20-H ) :   0.9471 B(  6-C , 21-H ) :   0.9483
B(  6-C , 22-H ) :   0.9409 B(  7-C , 23-H ) :   0.9411 B(  7-C , 24-H ) :   0.9481
B(  7-C , 25-H ) :   0.9474 B(  8-C , 26-H ) :   0.9472 B(  8-C , 27-H ) :   0.9456
B(  8-C , 28-H ) :   0.9470

Dispersion correction           -0.026263638
FINAL SINGLE POINT ENERGY      -354.087700371097

DIPOLE MOMENT
-------------

Method             : SCF
Type of density    : Electron Density
Multiplicity       :   1
Irrep              :   0
Energy             :  -354.1845977432692507 Eh
Relativity type    :
Basis              : AO
                                X                 Y                 Z
Electronic contribution:     -0.116228565       0.354877432      -0.741659072
Nuclear contribution   :      0.083196282      -0.346525328       0.704008717
                        -----------------------------------------
Total Dipole Moment    :     -0.033032283       0.008352104      -0.037650354
                        -----------------------------------------
Magnitude (a.u.)       :      0.050778328
Magnitude (Debye)      :      0.129068251

Rotational constants in cm-1:             0.088060             0.026452             0.025185
Rotational constants in MHz :          2639.978189           793.011901           755.025276

                             ****ORCA TERMINATED NORMALLY****
TOTAL RUN TIME: 0 days 0 hours 0 minutes 14 seconds 194 msec
