                         Program Version 6.0.0  -   RELEASE  -
|  1> ! r2scan-3c def2/J RI DEFGRID2 scfconv6 printgap
|  2> %output
|  3>     printlevel normal
|  4> end
|  5> * xyz 0 1
|  6> C -4.2733641352 0.8043475641 0.0144382321
|  7> O -3.4687098337 -0.3640579741 -0.0011211671
|  8> C -2.1243999479 -0.2383840086 -0.0016335252
|  9> C -1.4010728073 -1.4379945498 -0.0208632779
| 10> C -0.0280824054 -1.4201138081 -0.0235273674
| 11> C 0.6645738563 -0.2055669435 -0.0063266856
| 12> C -0.0558771573 0.9869992531 0.0129800852
| 13> C -1.4358453134 0.9754652099 0.0151655532
| 14> C 2.1338359664 -0.2277405332 -0.0102354105
| 15> O 2.8051652042 -1.2463991406 -0.0321512089
| 16> O 2.6744280019 0.9931811426 0.0223598983
| 17> C 4.0985128438 1.0997269007 0.0250177174
| 18> H -4.0944061996 1.3922206948 0.9172659468
| 19> H -5.2987947848 0.4425956003 0.0094405736
| 20> H -4.0940087003 1.4161630005 -0.8722867562
| 21> H -1.9502624008 -2.3653633538 -0.0337269797
| 22> H 0.5405569696 -2.3372296761 -0.0388034264
| 23> H 0.4754553573 1.9250513734 0.0259768214
| 24> H -1.9678691418 1.9121956395 0.0300149327
| 25> H 4.3377189257 1.9820975172 0.6123475648
| 26> H 4.4510011773 1.2147125515 -1.000358032
| 27> H 4.5391351194 0.2033211535 0.4635871092
| 28> *
| 29>
| 30>                          ****END OF INPUT****

CARTESIAN COORDINATES (ANGSTROEM)
---------------------------------
  C     -4.273364    0.804348    0.014438
  O     -3.468710   -0.364058   -0.001121
  C     -2.124400   -0.238384   -0.001634
  C     -1.401073   -1.437995   -0.020863
  C     -0.028082   -1.420114   -0.023527
  C      0.664574   -0.205567   -0.006327
  C     -0.055877    0.986999    0.012980
  C     -1.435845    0.975465    0.015166
  C      2.133836   -0.227741   -0.010235
  O      2.805165   -1.246399   -0.032151
  O      2.674428    0.993181    0.022360
  C      4.098513    1.099727    0.025018
  H     -4.094406    1.392221    0.917266
  H     -5.298795    0.442596    0.009441
  H     -4.094009    1.416163   -0.872287
  H     -1.950262   -2.365363   -0.033727
  H      0.540557   -2.337230   -0.038803
  H      0.475455    1.925051    0.025977
  H     -1.967869    1.912196    0.030015
  H      4.337719    1.982098    0.612348
  H      4.451001    1.214713   -1.000358
  H      4.539135    0.203321    0.463587

 Total Charge           Charge          ....    0
 Multiplicity           Mult            ....    1
 Number of Electrons    NEL             ....   88
 Basis Dimension        Dim             ....  293

ORBITAL ENERGIES
----------------

  NO   OCC          E(Eh)            E(eV)
   0   2.0000     -18.999931      -517.0144
   1   2.0000     -18.994566      -516.8684
   2   2.0000     -18.922506      -514.9076
   3   2.0000     -10.149977      -276.1949
   4   2.0000     -10.109378      -275.0902
   5   2.0000     -10.097471      -274.7661
   6   2.0000     -10.082645      -274.3627
   7   2.0000     -10.048065      -273.4217
   8   2.0000     -10.045070      -273.3403
   9   2.0000     -10.043894      -273.3082
  10   2.0000     -10.043396      -273.2947
  11   2.0000     -10.038512      -273.1618
  12   2.0000      -1.066739       -29.0275
  13   2.0000      -1.049528       -28.5591
  14   2.0000      -0.969302       -26.3760
  15   2.0000      -0.835141       -22.7253
  16   2.0000      -0.750245       -20.4152
  17   2.0000      -0.729148       -19.8411
  18   2.0000      -0.705171       -19.1887
  19   2.0000      -0.670547       -18.2465
  20   2.0000      -0.595277       -16.1983
  21   2.0000      -0.583614       -15.8809
  22   2.0000      -0.535986       -14.5849
  23   2.0000      -0.518007       -14.0957
  24   2.0000      -0.489772       -13.3274
  25   2.0000      -0.465577       -12.6690
  26   2.0000      -0.450791       -12.2666
  27   2.0000      -0.447492       -12.1769
  28   2.0000      -0.433904       -11.8071
  29   2.0000      -0.417484       -11.3603
  30   2.0000      -0.408700       -11.1213
  31   2.0000      -0.398805       -10.8520
  32   2.0000      -0.392779       -10.6881
  33   2.0000      -0.378868       -10.3095
  34   2.0000      -0.357707        -9.7337
  35   2.0000      -0.355392        -9.6707
  36   2.0000      -0.337966        -9.1965
  37   2.0000      -0.317599        -8.6423
  38   2.0000      -0.303055        -8.2466
  39   2.0000      -0.302112        -8.2209
  40   2.0000      -0.269094        -7.3224
  41   2.0000      -0.247200        -6.7267
  42   2.0000      -0.235814        -6.4168
  43   2.0000      -0.214460        -5.8358
  44   0.0000      -0.063717        -1.7338
  45   0.0000      -0.038973        -1.0605
  46   0.0000       0.037226         1.0130
  47   0.0000       0.055981         1.5233
  48   0.0000       0.068212         1.8561

MULLIKEN ATOMIC CHARGES
-----------------------
   0 C :   -0.328148
   1 O :   -0.176196
   2 C :    0.370154
   3 C :   -0.309331
   4 C :   -0.227492
   5 C :    0.107965
   6 C :   -0.213602
   7 C :   -0.264370
   8 C :    0.347184
   9 O :   -0.441840
  10 O :   -0.174729
  11 C :   -0.297812
  12 H :    0.156137
  13 H :    0.158292
  14 H :    0.156183
  15 H :    0.157734
  16 H :    0.182238
  17 H :    0.170170
  18 H :    0.147944
  19 H :    0.147252
  20 H :    0.150552
  21 H :    0.181718
Sum of atomic charges:    0.0000000

LOEWDIN ATOMIC CHARGES
----------------------
   0 C :   -0.051576
   1 O :   -0.670763
   2 C :    0.205095
   3 C :   -0.127225
   4 C :   -0.095940
   5 C :   -0.053210
   6 C :   -0.100079
   7 C :   -0.171947
   8 C :    0.383408
   9 O :   -0.449438
  10 O :   -0.615893
  11 C :   -0.043350
  12 H :    0.167092
  13 H :    0.182144
  14 H :    0.167162
  15 H :    0.182907
  16 H :    0.191358
  17 H :    0.188559
  18 H :    0.175888
  19 H :    0.174092
  20 H :    0.171917
  21 H :    0.189799

  Mayer bond orders larger than 0.100000
B(  0-C ,  1-O ) :   0.8506 B(  0-C , 12-H ) :   0.9625 B(  0-C , 13-H ) :   0.9673
B(  0-C , 14-H ) :   0.9625 B(  1-O ,  2-C ) :   1.0721 B(  2-C ,  3-C ) :   1.3596
B(  2-C ,  7-C ) :   1.3327 B(  3-C ,  4-C ) :   1.3320 B(  3-C , 15-H ) :   0.9599
B(  4-C ,  5-C ) :   1.4331 B(  4-C , 16-H ) :   0.9436 B(  5-C ,  6-C ) :   1.3852
B(  5-C ,  8-C ) :   1.0501 B(  5-C , 10-O ) :  -0.1237 B(  6-C ,  7-C ) :   1.3429
B(  6-C , 17-H ) :   0.9616 B(  7-C , 18-H ) :   0.9197 B(  8-C ,  9-O ) :   1.8601
B(  8-C , 10-O ) :   1.1505 B( 10-O , 11-C ) :   0.8323 B( 11-C , 19-H ) :   0.9715
B( 11-C , 20-H ) :   0.9595 B( 11-C , 21-H ) :   0.9685

Dispersion correction           -0.007433348
FINAL SINGLE POINT ENERGY      -574.530256278411

DIPOLE MOMENT
-------------

Method             : SCF
Type of density    : Electron Density
Multiplicity       :   1
Irrep              :   0
Energy             :  -574.5357302627279523 Eh
Relativity type    :
Basis              : AO
                                X                 Y                 Z
Electronic contribution:      1.955464168      -4.205957111      -0.075000389
Nuclear contribution   :     -2.842399859       5.418891902       0.106281110
                        -----------------------------------------
Total Dipole Moment    :     -0.886935691       1.212934792       0.031280721
                        -----------------------------------------
Magnitude (a.u.)       :      1.502945179
Magnitude (Debye)      :      3.820183051

Rotational constants in cm-1:             0.099270             0.014652             0.012830
Rotational constants in MHz :          2976.035790           439.254712           384.636028

                             ****ORCA TERMINATED NORMALLY****
TOTAL RUN TIME: 0 days 0 hours 0 minutes 41 seconds 153 msec
