                         Program Version 6.0.0  -   RELEASE  -
|  1> ! r2scan-3c def2/J RI DEFGRID2 scfconv6 printgap
|  2> %output
|  3>     printlevel normal
|  4> end
|  5> %cpcm
|  6>     smd true
|  7>     smdsolvent "water"
|  8> end
|  9> * xyz 0 1
| 10> C -4.2733641352 0.8043475641 0.0144382321
| 11> O -3.4687098337 -0.3640579741 -0.0011211671
| 12> C -2.1243999479 -0.2383840086 -0.0016335252
| 13> C -1.4010728073 -1.4379945498 -0.0208632779
| 14> C -0.0280824054 -1.4201138081 -0.0235273674
| 15> C 0.6645738563 -0.2055669435 -0.0063266856
| 16> C -0.0558771573 0.9869992531 0.0129800852
| 17> C -1.4358453134 0.9754652099 0.0151655532
| 18> C 2.1338359664 -0.2277405332 -0.0102354105
| 19> O 2.8051652042 -1.2463991406 -0.0321512089
| 20> O 2.6744280019 0.9931811426 0.0223598983
| 21> C 4.0985128438 1.0997269007 0.0250177174
| 22> H -4.0944061996 1.3922206948 0.9172659468
| 23> H -5.2987947848 0.4425956003 0.0094405736
| 24> H -4.0940087003 1.4161630005 -0.8722867562
| 25> H -1.9502624008 -2.3653633538 -0.0337269797
| 26> H 0.5405569696 -2.3372296761 -0.0388034264
| 27> H 0.4754553573 1.9250513734 0.0259768214
| 28> H -1.9678691418 1.9121956395 0.0300149327
| 29> H 4.3377189257 1.9820975172 0.6123475648
| 30> H 4.4510011773 1.2147125515 -1.000358032
| 31> H 4.5391351194 0.2033211535 0.4635871092
| 32> *
| 33>
| 34>                          ****END OF INPUT****

CARTESIAN COORDINATES (ANGSTROEM)
---------------------------------
  C     -4.273364    0.804348    0.014438
  O     -3.468710   -0.364058   -0.001121
  C     -2.124400   -0.238384   -0.001634
  C     -1.401073   -1.437995   -0.020863
  C     -0.028082   -1.420114   -0.023527
  C      0.664574   -0.205567   -0.006327
  C     -0.055877    0.986999    0.012980
  C     -1.435845    0.975465    0.015166
  C      2.133836   -0.227741   -0.010235
  O      2.805165   -1.246399   -0.032151
  O      2.674428    0.993181    0.022360
  C      4.098513    1.099727    0.025018
  H     -4.094406    1.392221    0.917266
  H     -5.298795    0.442596    0.009441
  H     -4.094009    1.416163   -0.872287
  H     -1.950262   -2.365363   -0.033727
  H      0.540557   -2.337230   -0.038803
  H      0.475455    1.925051    0.025977
  H     -1.967869    1.912196    0.030015
  H      4.337719    1.982098    0.612348
  H      4.451001    1.214713   -1.000358
  H      4.539135    0.203321    0.463587

 Total Charge           Charge          ....    0
 Multiplicity           Mult            ....    1
 Number of Electrons    NEL             ....   88
 Basis Dimension        Dim             ....  293

ORBITAL ENERGIES
----------------

  NO   OCC          E(Eh)            E(eV)
   0   2.0000     -19.002086      -517.0730
   1   2.0000     -18.997953      -516.9606
   2   2.0000     -18.941068      -515.4127
   3   2.0000     -10.165015      -276.6041
   4   2.0000     -10.110337      -275.1163
   5   2.0000     -10.076058      -274.1835
   6   2.0000     -10.075887      -274.1788
   7   2.0000     -10.048988      -273.4469
   8   2.0000     -10.048532      -273.4345
   9   2.0000     -10.046935      -273.3910
  10   2.0000     -10.040882      -273.2263
  11   2.0000     -10.039156      -273.1793
  12   2.0000      -1.076977       -29.3060
  13   2.0000      -1.046209       -28.4688
  14   2.0000      -0.986157       -26.8347
  15   2.0000      -0.837488       -22.7892
  16   2.0000      -0.750758       -20.4292
  17   2.0000      -0.729631       -19.8543
  18   2.0000      -0.701030       -19.0760
  19   2.0000      -0.663654       -18.0589
  20   2.0000      -0.595903       -16.2154
  21   2.0000      -0.580524       -15.7969
  22   2.0000      -0.535907       -14.5828
  23   2.0000      -0.514891       -14.0109
  24   2.0000      -0.490356       -13.3433
  25   2.0000      -0.467431       -12.7194
  26   2.0000      -0.451916       -12.2973
  27   2.0000      -0.440905       -11.9976
  28   2.0000      -0.438638       -11.9359
  29   2.0000      -0.421001       -11.4560
  30   2.0000      -0.406984       -11.0746
  31   2.0000      -0.396772       -10.7967
  32   2.0000      -0.385845       -10.4994
  33   2.0000      -0.381388       -10.3781
  34   2.0000      -0.359353        -9.7785
  35   2.0000      -0.354657        -9.6507
  36   2.0000      -0.333292        -9.0693
  37   2.0000      -0.321507        -8.7487
  38   2.0000      -0.302140        -8.2217
  39   2.0000      -0.299823        -8.1586
  40   2.0000      -0.279532        -7.6065
  41   2.0000      -0.256299        -6.9743
  42   2.0000      -0.250195        -6.8081
  43   2.0000      -0.216774        -5.8987
  44   0.0000      -0.071489        -1.9453
  45   0.0000      -0.041233        -1.1220
  46   0.0000       0.029828         0.8117
  47   0.0000       0.063993         1.7413
  48   0.0000       0.072531         1.9737

MULLIKEN ATOMIC CHARGES
-----------------------
   0 C :   -0.338201
   1 O :   -0.207805
   2 C :    0.366378
   3 C :   -0.356967
   4 C :   -0.258524
   5 C :    0.107635
   6 C :   -0.232670
   7 C :   -0.273903
   8 C :    0.385130
   9 O :   -0.519565
  10 O :   -0.184730
  11 C :   -0.319331
  12 H :    0.176668
  13 H :    0.176804
  14 H :    0.176660
  15 H :    0.187708
  16 H :    0.195836
  17 H :    0.194476
  18 H :    0.189233
  19 H :    0.175750
  20 H :    0.178416
  21 H :    0.181003
Sum of atomic charges:    0.0000000

LOEWDIN ATOMIC CHARGES
----------------------
   0 C :   -0.045765
   1 O :   -0.686801
   2 C :    0.202205
   3 C :   -0.133279
   4 C :   -0.108763
   5 C :   -0.067782
   6 C :   -0.101586
   7 C :   -0.161640
   8 C :    0.387364
   9 O :   -0.510880
  10 O :   -0.614737
  11 C :   -0.038518
  12 H :    0.177623
  13 H :    0.189271
  14 H :    0.177672
  15 H :    0.192860
  16 H :    0.194140
  17 H :    0.197247
  18 H :    0.192949
  19 H :    0.186785
  20 H :    0.182185
  21 H :    0.189450

  Mayer bond orders larger than 0.100000
B(  0-C ,  1-O ) :   0.8413 B(  0-C , 12-H ) :   0.9541 B(  0-C , 13-H ) :   0.9593
B(  0-C , 14-H ) :   0.9541 B(  1-O ,  2-C ) :   1.0636 B(  2-C ,  3-C ) :   1.3153
B(  2-C ,  7-C ) :   1.3178 B(  3-C ,  4-C ) :   1.3678 B(  3-C , 15-H ) :   0.9622
B(  4-C ,  5-C ) :   1.3578 B(  4-C , 16-H ) :   0.9512 B(  5-C ,  6-C ) :   1.3225
B(  5-C ,  8-C ) :   1.0602 B(  5-C , 10-O ) :  -0.1077 B(  6-C ,  7-C ) :   1.3526
B(  6-C , 17-H ) :   0.9734 B(  7-C , 18-H ) :   0.9265 B(  8-C ,  9-O ) :   1.8014
B(  8-C , 10-O ) :   1.1653 B( 10-O , 11-C ) :   0.8170 B( 11-C , 19-H ) :   0.9608
B( 11-C , 20-H ) :   0.9514 B( 11-C , 21-H ) :   0.9646

Dispersion correction           -0.007433348
FINAL SINGLE POINT ENERGY      -574.537491393664

DIPOLE MOMENT
-------------

Method             : SCF
Type of density    : Electron Density
Multiplicity       :   1
Irrep              :   0
Energy             :  -574.5429653779806358 Eh
Relativity type    :
Basis              : AO
                                X                 Y                 Z
Electronic contribution:      1.565219260      -3.590926635      -0.064819963
Nuclear contribution   :     -2.842399859       5.418891902       0.106281110
                        -----------------------------------------
Total Dipole Moment    :     -1.277180599       1.827965267       0.041461148
                        -----------------------------------------
Magnitude (a.u.)       :      2.230328748
Magnitude (Debye)      :      5.669045152

Rotational constants in cm-1:             0.099270             0.014652             0.012830
Rotational constants in MHz :          2976.035790           439.254712           384.636028

                             ****ORCA TERMINATED NORMALLY****
TOTAL RUN TIME: 0 days 0 hours 0 minutes 55 seconds 92 msec
