                         Program Version 6.0.0  -   RELEASE  -
|  1> ! pbe def2-sv(p) def2/J RI DEFGRID1 loosescf d4 GCP(DFT/SV(P)) printgap
|  2> %output
|  3>     printlevel normal
|  4> end
|  5> * xyz 0 1
|  6> C 1.4785702831 -1.451628409 -0.0426153414
|  7> C 1.2060678162 -0.0266301566 0.4354775352
|  8> C 1.7419919445 0.9867877979 -0.5746693455
|  9> C -0.2783955007 0.2041631799 0.7520257945
| 10> C -1.2271199978 0.0455601092 -0.4372151757
| 11> O -2.5837846036 0.1818370092 -0.0588895769
| 12> H 2.5501362992 -1.623929215 -0.1093216576
| 13> H 1.0475475528 -1.6198667579 -1.0261056739
| 14> H 1.0567485673 -2.1761116063 0.6497184943
| 15> H 1.7477166592 0.1199478604 1.3777018927
| 16> H 1.5223824642 2.0026099009 -0.2549729046
| 17> H 1.3006475742 0.8265438335 -1.55493077
| 18> H 2.8202550944 0.8835466086 -0.6691542
| 19> H -0.3940237059 1.2132958698 1.1571477969
| 20> H -0.5908720505 -0.5013597746 1.525774901
| 21> H -0.9877221051 0.7729195005 -1.2230198301
| 22> H -1.1543362404 -0.9591559207 -0.8572703056
| 23> H -2.7139989268 1.055949939 0.3342618564
| 24> *
| 25>
| 26>                          ****END OF INPUT****

CARTESIAN COORDINATES (ANGSTROEM)
---------------------------------
  C      1.478570   -1.451628   -0.042615
  C      1.206068   -0.026630    0.435478
  C      1.741992    0.986788   -0.574669
  C     -0.278396    0.204163    0.752026
  C     -1.227120    0.045560   -0.437215
  O     -2.583785    0.181837   -0.058890
  H      2.550136   -1.623929   -0.109322
  H      1.047548   -1.619867   -1.026106
  H      1.056749   -2.176112    0.649718
  H      1.747717    0.119948    1.377702
  H      1.522382    2.002610   -0.254973
  H      1.300648    0.826544   -1.554931
  H      2.820255    0.883547   -0.669154
  H     -0.394024    1.213296    1.157148
  H     -0.590872   -0.501360    1.525775
  H     -0.987722    0.772920   -1.223020
  H     -1.154336   -0.959156   -0.857270
  H     -2.713999    1.055950    0.334262

 Total Charge           Charge          ....    0
 Multiplicity           Mult            ....    1
 Number of Electrons    NEL             ....   50
 Basis Dimension        Dim             ....  108

ORBITAL ENERGIES
----------------

  NO   OCC          E(Eh)            E(eV)
   0   2.0000     -18.735179      -509.8101
   1   2.0000      -9.924357      -270.0555
   2   2.0000      -9.897630      -269.3282
   3   2.0000      -9.881807      -268.8977
   4   2.0000      -9.874874      -268.7090
   5   2.0000      -9.873969      -268.6844
   6   2.0000      -0.911465       -24.8022
   7   2.0000      -0.732390       -19.9293
   8   2.0000      -0.644505       -17.5379
   9   2.0000      -0.612737       -16.6734
  10   2.0000      -0.568092       -15.4586
  11   2.0000      -0.493473       -13.4281
  12   2.0000      -0.450223       -12.2512
  13   2.0000      -0.419699       -11.4206
  14   2.0000      -0.394919       -10.7463
  15   2.0000      -0.392618       -10.6837
  16   2.0000      -0.364187        -9.9100
  17   2.0000      -0.351015        -9.5516
  18   2.0000      -0.338109        -9.2004
  19   2.0000      -0.316905        -8.6234
  20   2.0000      -0.299333        -8.1453
  21   2.0000      -0.286916        -7.8074
  22   2.0000      -0.284748        -7.7484
  23   2.0000      -0.262202        -7.1349
  24   2.0000      -0.206422        -5.6170
  25   0.0000       0.027615         0.7514
  26   0.0000       0.037383         1.0172
  27   0.0000       0.061665         1.6780
  28   0.0000       0.070477         1.9178
  29   0.0000       0.090179         2.4539

MULLIKEN ATOMIC CHARGES
-----------------------
   0 C :   -0.258896
   1 C :   -0.169251
   2 C :   -0.258510
   3 C :   -0.166688
   4 C :   -0.000843
   5 O :   -0.438433
   6 H :    0.099624
   7 H :    0.104907
   8 H :    0.101440
   9 H :    0.072592
  10 H :    0.096254
  11 H :    0.104122
  12 H :    0.099558
  13 H :    0.067723
  14 H :    0.087774
  15 H :    0.076710
  16 H :    0.091055
  17 H :    0.290863
Sum of atomic charges:   -0.0000000

LOEWDIN ATOMIC CHARGES
----------------------
   0 C :   -0.331548
   1 C :   -0.157106
   2 C :   -0.332866
   3 C :   -0.243961
   4 C :   -0.124557
   5 O :   -0.344089
   6 H :    0.119267
   7 H :    0.116463
   8 H :    0.118840
   9 H :    0.116116
  10 H :    0.116220
  11 H :    0.115570
  12 H :    0.119030
  13 H :    0.107758
  14 H :    0.117839
  15 H :    0.095089
  16 H :    0.112861
  17 H :    0.279073

  Mayer bond orders larger than 0.100000
B(  0-C ,  1-C ) :   1.1091 B(  0-C ,  6-H ) :   0.9504 B(  0-C ,  7-H ) :   0.9456
B(  0-C ,  8-H ) :   0.9513 B(  1-C ,  2-C ) :   1.1060 B(  1-C ,  3-C ) :   1.0645
B(  1-C ,  9-H ) :   0.8997 B(  2-C , 10-H ) :   0.9520 B(  2-C , 11-H ) :   0.9453
B(  2-C , 12-H ) :   0.9502 B(  3-C ,  4-C ) :   1.1048 B(  3-C , 13-H ) :   0.9164
B(  3-C , 14-H ) :   0.9136 B(  4-C ,  5-O ) :   1.0537 B(  4-C , 15-H ) :   0.9240
B(  4-C , 16-H ) :   0.9232 B(  5-O , 17-H ) :   0.8564

Dispersion correction           -0.012932857
FINAL SINGLE POINT ENERGY      -272.299120321701

DIPOLE MOMENT
-------------

Method             : SCF
Type of density    : Electron Density
Multiplicity       :   1
Irrep              :   0
Energy             :  -272.3686221556479268 Eh
Relativity type    :
Basis              : AO
                                X                 Y                 Z
Electronic contribution:     -5.328423950       0.446439609       0.755272927
Nuclear contribution   :      5.782474047      -0.002564331      -0.610840170
                        -----------------------------------------
Total Dipole Moment    :      0.454050097       0.443875278       0.144432757
                        -----------------------------------------
Magnitude (a.u.)       :      0.651189354
Magnitude (Debye)      :      1.655191796

Rotational constants in cm-1:             0.200609             0.062744             0.056291
Rotational constants in MHz :          6014.094468          1881.028378          1687.549407

                             ****ORCA TERMINATED NORMALLY****
TOTAL RUN TIME: 0 days 0 hours 0 minutes 8 seconds 318 msec
