                         Program Version 6.0.0  -   RELEASE  -
|  1> ! r2scan-3c def2/J RI DEFGRID2 scfconv6 printgap
|  2> %output
|  3>     printlevel normal
|  4> end
|  5> * xyz 0 1
|  6> C -1.0727226429 -0.6071149893 -0.0783877872
|  7> C 0.0204224795 0.2283763955 0.6034324887
|  8> C 1.3559136066 -0.5262883452 0.6345230071
|  9> O 1.8249983985 -0.8176009646 -0.6580023135
| 10> O 0.2238902961 1.4371468047 -0.1020162881
| 11> O -2.2511965983 0.1458868687 -0.2592276766
| 12> H -1.2579663827 -1.5179578498 0.4988072956
| 13> H -0.734355718 -0.8880429341 -1.0785458099
| 14> H -0.277586729 0.457822321 1.6394441488
| 15> H 1.2321729449 -1.4829025441 1.1440939471
| 16> H 2.0893774234 0.0814231526 1.1795741771
| 17> H 1.8769300101 0.0201189592 -1.1435879421
| 18> H -0.6315858889 1.713858049 -0.467975955
| 19> H -2.7035718737 0.250096314 0.5895118852
| 20> *
| 21>
| 22>                          ****END OF INPUT****

CARTESIAN COORDINATES (ANGSTROEM)
---------------------------------
  C     -1.072723   -0.607115   -0.078388
  C      0.020422    0.228376    0.603432
  C      1.355914   -0.526288    0.634523
  O      1.824998   -0.817601   -0.658002
  O      0.223890    1.437147   -0.102016
  O     -2.251197    0.145887   -0.259228
  H     -1.257966   -1.517958    0.498807
  H     -0.734356   -0.888043   -1.078546
  H     -0.277587    0.457822    1.639444
  H      1.232173   -1.482903    1.144094
  H      2.089377    0.081423    1.179574
  H      1.876930    0.020119   -1.143588
  H     -0.631586    1.713858   -0.467976
  H     -2.703572    0.250096    0.589512

 Total Charge           Charge          ....    0
 Multiplicity           Mult            ....    1
 Number of Electrons    NEL             ....   50
 Basis Dimension        Dim             ....  169

ORBITAL ENERGIES
----------------

  NO   OCC          E(Eh)            E(eV)
   0   2.0000     -18.969099      -516.1754
   1   2.0000     -18.955306      -515.8001
   2   2.0000     -18.947776      -515.5952
   3   2.0000     -10.087501      -274.4949
   4   2.0000     -10.083756      -274.3930
   5   2.0000     -10.079904      -274.2881
   6   2.0000      -1.014429       -27.6040
   7   2.0000      -0.994042       -27.0493
   8   2.0000      -0.976702       -26.5774
   9   2.0000      -0.728511       -19.8238
  10   2.0000      -0.648968       -17.6593
  11   2.0000      -0.576071       -15.6757
  12   2.0000      -0.506453       -13.7813
  13   2.0000      -0.474237       -12.9046
  14   2.0000      -0.470013       -12.7897
  15   2.0000      -0.445384       -12.1195
  16   2.0000      -0.407988       -11.1019
  17   2.0000      -0.387578       -10.5465
  18   2.0000      -0.380061       -10.3420
  19   2.0000      -0.324509        -8.8303
  20   2.0000      -0.315301        -8.5798
  21   2.0000      -0.302248        -8.2246
  22   2.0000      -0.273487        -7.4420
  23   2.0000      -0.241542        -6.5727
  24   2.0000      -0.233718        -6.3598
  25   0.0000       0.040703         1.1076
  26   0.0000       0.064442         1.7535
  27   0.0000       0.091653         2.4940
  28   0.0000       0.107581         2.9274
  29   0.0000       0.130887         3.5616

MULLIKEN ATOMIC CHARGES
-----------------------
   0 C :   -0.253183
   1 C :    0.126801
   2 C :   -0.187565
   3 O :   -0.437109
   4 O :   -0.457358
   5 O :   -0.436537
   6 H :    0.130263
   7 H :    0.174064
   8 H :    0.126435
   9 H :    0.133801
  10 H :    0.140847
  11 H :    0.317639
  12 H :    0.318563
  13 H :    0.303340
Sum of atomic charges:    0.0000000

LOEWDIN ATOMIC CHARGES
----------------------
   0 C :    0.021363
   1 C :    0.062054
   2 C :    0.027235
   3 O :   -0.602993
   4 O :   -0.595870
   5 O :   -0.610781
   6 H :    0.165119
   7 H :    0.193188
   8 H :    0.165722
   9 H :    0.180668
  10 H :    0.167342
  11 H :    0.276226
  12 H :    0.282355
  13 H :    0.268372

  Mayer bond orders larger than 0.100000
B(  0-C ,  1-C ) :   0.9215 B(  0-C ,  5-O ) :   0.9669 B(  0-C ,  6-H ) :   0.9740
B(  0-C ,  7-H ) :   0.9728 B(  1-C ,  2-C ) :   0.9554 B(  1-C ,  4-O ) :   0.8639
B(  1-C ,  8-H ) :   0.9147 B(  2-C ,  3-O ) :   0.9794 B(  2-C ,  9-H ) :   0.9694
B(  2-C , 10-H ) :   0.9656 B(  3-O , 11-H ) :   0.8725 B(  4-O , 12-H ) :   0.8635
B(  5-O , 13-H ) :   0.8949

Dispersion correction           -0.003048503
FINAL SINGLE POINT ENERGY      -344.728276858736

DIPOLE MOMENT
-------------

Method             : SCF
Type of density    : Electron Density
Multiplicity       :   1
Irrep              :   0
Energy             :  -344.7360259097735593 Eh
Relativity type    :
Basis              : AO
                                X                 Y                 Z
Electronic contribution:     -0.198121980       1.316286035      -1.473635988
Nuclear contribution   :     -0.384452903      -1.269787355       2.200192029
                        -----------------------------------------
Total Dipole Moment    :     -0.582574883       0.046498680       0.726556041
                        -----------------------------------------
Magnitude (a.u.)       :      0.932437291
Magnitude (Debye)      :      2.370067242

Rotational constants in cm-1:             0.204726             0.076149             0.066938
Rotational constants in MHz :          6137.530278          2282.891837          2006.764900

                             ****ORCA TERMINATED NORMALLY****
TOTAL RUN TIME: 0 days 0 hours 0 minutes 20 seconds 430 msec
