                         Program Version 6.0.0  -   RELEASE  -
|  1> ! r2scan-3c def2/J RI DEFGRID2 scfconv6 printgap
|  2> %output
|  3>     printlevel normal
|  4> end
|  5> %cpcm
|  6>     smd true
|  7>     smdsolvent "water"
|  8> end
|  9> * xyz 0 1
| 10> C -1.0727226429 -0.6071149893 -0.0783877872
| 11> C 0.0204224795 0.2283763955 0.6034324887
| 12> C 1.3559136066 -0.5262883452 0.6345230071
| 13> O 1.8249983985 -0.8176009646 -0.6580023135
| 14> O 0.2238902961 1.4371468047 -0.1020162881
| 15> O -2.2511965983 0.1458868687 -0.2592276766
| 16> H -1.2579663827 -1.5179578498 0.4988072956
| 17> H -0.734355718 -0.8880429341 -1.0785458099
| 18> H -0.277586729 0.457822321 1.6394441488
| 19> H 1.2321729449 -1.4829025441 1.1440939471
| 20> H 2.0893774234 0.0814231526 1.1795741771
| 21> H 1.8769300101 0.0201189592 -1.1435879421
| 22> H -0.6315858889 1.713858049 -0.467975955
| 23> H -2.7035718737 0.250096314 0.5895118852
| 24> *
| 25>
| 26>                          ****END OF INPUT****

CARTESIAN COORDINATES (ANGSTROEM)
---------------------------------
  C     -1.072723   -0.607115   -0.078388
  C      0.020422    0.228376    0.603432
  C      1.355914   -0.526288    0.634523
  O      1.824998   -0.817601   -0.658002
  O      0.223890    1.437147   -0.102016
  O     -2.251197    0.145887   -0.259228
  H     -1.257966   -1.517958    0.498807
  H     -0.734356   -0.888043   -1.078546
  H     -0.277587    0.457822    1.639444
  H      1.232173   -1.482903    1.144094
  H      2.089377    0.081423    1.179574
  H      1.876930    0.020119   -1.143588
  H     -0.631586    1.713858   -0.467976
  H     -2.703572    0.250096    0.589512

 Total Charge           Charge          ....    0
 Multiplicity           Mult            ....    1
 Number of Electrons    NEL             ....   50
 Basis Dimension        Dim             ....  169

ORBITAL ENERGIES
----------------

  NO   OCC          E(Eh)            E(eV)
   0   2.0000     -18.958519      -515.8875
   1   2.0000     -18.954465      -515.7772
   2   2.0000     -18.953452      -515.7497
   3   2.0000     -10.078004      -274.2364
   4   2.0000     -10.072824      -274.0955
   5   2.0000     -10.071992      -274.0728
   6   2.0000      -1.008982       -27.4558
   7   2.0000      -0.991420       -26.9779
   8   2.0000      -0.976331       -26.5673
   9   2.0000      -0.719995       -19.5921
  10   2.0000      -0.640170       -17.4199
  11   2.0000      -0.570164       -15.5149
  12   2.0000      -0.497005       -13.5242
  13   2.0000      -0.467355       -12.7174
  14   2.0000      -0.463443       -12.6109
  15   2.0000      -0.439189       -11.9510
  16   2.0000      -0.405098       -11.0233
  17   2.0000      -0.383964       -10.4482
  18   2.0000      -0.373418       -10.1612
  19   2.0000      -0.325512        -8.8576
  20   2.0000      -0.308976        -8.4077
  21   2.0000      -0.304774        -8.2933
  22   2.0000      -0.269531        -7.3343
  23   2.0000      -0.240710        -6.5501
  24   2.0000      -0.233423        -6.3518
  25   0.0000       0.059457         1.6179
  26   0.0000       0.075839         2.0637
  27   0.0000       0.109739         2.9861
  28   0.0000       0.121418         3.3040
  29   0.0000       0.142386         3.8745

MULLIKEN ATOMIC CHARGES
-----------------------
   0 C :   -0.252367
   1 C :    0.125894
   2 C :   -0.192764
   3 O :   -0.508276
   4 O :   -0.518625
   5 O :   -0.499403
   6 H :    0.156269
   7 H :    0.167942
   8 H :    0.151119
   9 H :    0.160237
  10 H :    0.151702
  11 H :    0.353457
  12 H :    0.350035
  13 H :    0.354780
Sum of atomic charges:   -0.0000000

LOEWDIN ATOMIC CHARGES
----------------------
   0 C :    0.022787
   1 C :    0.069450
   2 C :    0.026760
   3 O :   -0.639313
   4 O :   -0.623334
   5 O :   -0.631826
   6 H :    0.177333
   7 H :    0.188824
   8 H :    0.178873
   9 H :    0.190893
  10 H :    0.172860
  11 H :    0.287270
  12 H :    0.291863
  13 H :    0.287560

  Mayer bond orders larger than 0.100000
B(  0-C ,  1-C ) :   0.9333 B(  0-C ,  5-O ) :   0.9635 B(  0-C ,  6-H ) :   0.9617
B(  0-C ,  7-H ) :   0.9773 B(  1-C ,  2-C ) :   0.9575 B(  1-C ,  4-O ) :   0.8617
B(  1-C ,  8-H ) :   0.9142 B(  2-C ,  3-O ) :   0.9543 B(  2-C ,  9-H ) :   0.9631
B(  2-C , 10-H ) :   0.9579 B(  3-O , 11-H ) :   0.8546 B(  4-O , 12-H ) :   0.8487
B(  5-O , 13-H ) :   0.8677

Dispersion correction           -0.003048503
FINAL SINGLE POINT ENERGY      -344.746428498318

DIPOLE MOMENT
-------------

Method             : SCF
Type of density    : Electron Density
Multiplicity       :   1
Irrep              :   0
Energy             :  -344.7541775493558021 Eh
Relativity type    :
Basis              : AO
                                X                 Y                 Z
Electronic contribution:     -0.402259322       1.317823054      -1.112250304
Nuclear contribution   :     -0.384452903      -1.269787355       2.200192029
                        -----------------------------------------
Total Dipole Moment    :     -0.786712225       0.048035699       1.087941725
                        -----------------------------------------
Magnitude (a.u.)       :      1.343443616
Magnitude (Debye)      :      3.414762297

Rotational constants in cm-1:             0.204726             0.076149             0.066938
Rotational constants in MHz :          6137.530278          2282.891837          2006.764900

                             ****ORCA TERMINATED NORMALLY****
TOTAL RUN TIME: 0 days 0 hours 0 minutes 23 seconds 761 msec
