                         Program Version 6.0.0  -   RELEASE  -
|  1> ! pbe def2-sv(p) def2/J RI DEFGRID1 loosescf d4 GCP(DFT/SV(P)) printgap
|  2> %output
|  3>     printlevel normal
|  4> end
|  5> * xyz 0 1
|  6> C -2.4441635672 0.7386297927 0.5466365424
|  7> C -1.2467675331 -0.2137177352 0.4937366693
|  8> C -1.7157190436 -1.5450141846 -0.0976765888
|  9> C -0.0802658274 0.4020870761 -0.3102865285
| 10> C 0.2760551763 1.7920334386 0.2238110222
| 11> C 1.1608880345 -0.5175246403 -0.3640835802
| 12> C 2.1240707299 -0.0911537993 -1.4739960728
| 13> C 1.9085382975 -0.6028385854 0.9655050506
| 14> H -2.2158657804 1.6371246526 1.1113479037
| 15> H -2.7456499925 1.024017531 -0.4591554848
| 16> H -3.2873939558 0.2484053274 1.0284605353
| 17> H -0.9110488324 -0.3902096797 1.5211865151
| 18> H -1.9465646679 -1.4291187404 -1.1546344918
| 19> H -2.6154559573 -1.8810127388 0.4130225723
| 20> H -0.96676015 -2.3240873012 0.0110571839
| 21> H -0.4299493774 0.5180131589 -1.3439417946
| 22> H 1.2060905472 2.1442264177 -0.2127390123
| 23> H 0.3871026652 1.7726794982 1.3051759879
| 24> H -0.4964480319 2.511694962 -0.0309412275
| 25> H 0.8166033167 -1.5229719059 -0.621355166
| 26> H 2.9265775763 -0.8194187658 -1.5684173387
| 27> H 1.6064441051 -0.0277313536 -2.4285214484
| 28> H 2.5742868999 0.8752290664 -1.2618263509
| 29> H 1.2443603075 -0.9075499917 1.7698611748
| 30> H 2.3523964739 0.3545070206 1.2243491089
| 31> H 2.7081959743 -1.3369312631 0.891953484
| 32> *
| 33>
| 34>                          ****END OF INPUT****

CARTESIAN COORDINATES (ANGSTROEM)
---------------------------------
  C     -2.444164    0.738630    0.546637
  C     -1.246768   -0.213718    0.493737
  C     -1.715719   -1.545014   -0.097677
  C     -0.080266    0.402087   -0.310287
  C      0.276055    1.792033    0.223811
  C      1.160888   -0.517525   -0.364084
  C      2.124071   -0.091154   -1.473996
  C      1.908538   -0.602839    0.965505
  H     -2.215866    1.637125    1.111348
  H     -2.745650    1.024018   -0.459155
  H     -3.287394    0.248405    1.028461
  H     -0.911049   -0.390210    1.521187
  H     -1.946565   -1.429119   -1.154634
  H     -2.615456   -1.881013    0.413023
  H     -0.966760   -2.324087    0.011057
  H     -0.429949    0.518013   -1.343942
  H      1.206091    2.144226   -0.212739
  H      0.387103    1.772679    1.305176
  H     -0.496448    2.511695   -0.030941
  H      0.816603   -1.522972   -0.621355
  H      2.926578   -0.819419   -1.568417
  H      1.606444   -0.027731   -2.428521
  H      2.574287    0.875229   -1.261826
  H      1.244360   -0.907550    1.769861
  H      2.352396    0.354507    1.224349
  H      2.708196   -1.336931    0.891953

 Total Charge           Charge          ....    0
 Multiplicity           Mult            ....    1
 Number of Electrons    NEL             ....   66
 Basis Dimension        Dim             ....  148

ORBITAL ENERGIES
----------------

  NO   OCC          E(Eh)            E(eV)
   0   2.0000      -9.889210      -269.0991
   1   2.0000      -9.887478      -269.0520
   2   2.0000      -9.887130      -269.0425
   3   2.0000      -9.867938      -268.5202
   4   2.0000      -9.867880      -268.5187
   5   2.0000      -9.867647      -268.5123
   6   2.0000      -9.867463      -268.5073
   7   2.0000      -9.866957      -268.4936
   8   2.0000      -0.746536       -20.3143
   9   2.0000      -0.697138       -18.9701
  10   2.0000      -0.644831       -17.5467
  11   2.0000      -0.606637       -16.5074
  12   2.0000      -0.605120       -16.4662
  13   2.0000      -0.562947       -15.3186
  14   2.0000      -0.508926       -13.8486
  15   2.0000      -0.473025       -12.8717
  16   2.0000      -0.427572       -11.6348
  17   2.0000      -0.404716       -11.0129
  18   2.0000      -0.392249       -10.6736
  19   2.0000      -0.382397       -10.4056
  20   2.0000      -0.364393        -9.9156
  21   2.0000      -0.355146        -9.6640
  22   2.0000      -0.346328        -9.4241
  23   2.0000      -0.337530        -9.1847
  24   2.0000      -0.329588        -8.9686
  25   2.0000      -0.323729        -8.8091
  26   2.0000      -0.310384        -8.4460
  27   2.0000      -0.300261        -8.1705
  28   2.0000      -0.295900        -8.0519
  29   2.0000      -0.287221        -7.8157
  30   2.0000      -0.269216        -7.3257
  31   2.0000      -0.258537        -7.0351
  32   2.0000      -0.256198        -6.9715
  33   0.0000       0.031108         0.8465
  34   0.0000       0.055585         1.5125
  35   0.0000       0.058327         1.5871
  36   0.0000       0.066350         1.8055
  37   0.0000       0.085844         2.3359

MULLIKEN ATOMIC CHARGES
-----------------------
   0 C :   -0.240243
   1 C :   -0.159569
   2 C :   -0.248934
   3 C :   -0.107852
   4 C :   -0.257177
   5 C :   -0.158334
   6 C :   -0.238306
   7 C :   -0.256933
   8 H :    0.103868
   9 H :    0.090672
  10 H :    0.094524
  11 H :    0.070084
  12 H :    0.090956
  13 H :    0.094320
  14 H :    0.110779
  15 H :    0.053621
  16 H :    0.099383
  17 H :    0.100580
  18 H :    0.104854
  19 H :    0.069564
  20 H :    0.094585
  21 H :    0.094396
  22 H :    0.097526
  23 H :    0.103586
  24 H :    0.097885
  25 H :    0.096163
Sum of atomic charges:   -0.0000000

LOEWDIN ATOMIC CHARGES
----------------------
   0 C :   -0.328776
   1 C :   -0.150283
   2 C :   -0.331251
   3 C :   -0.134121
   4 C :   -0.332101
   5 C :   -0.152427
   6 C :   -0.328263
   7 C :   -0.330356
   8 H :    0.116960
   9 H :    0.116103
  10 H :    0.115831
  11 H :    0.112212
  12 H :    0.116839
  13 H :    0.116958
  14 H :    0.116041
  15 H :    0.110074
  16 H :    0.116387
  17 H :    0.118131
  18 H :    0.119655
  19 H :    0.114701
  20 H :    0.117195
  21 H :    0.115588
  22 H :    0.113836
  23 H :    0.115619
  24 H :    0.117158
  25 H :    0.118291

  Mayer bond orders larger than 0.100000
B(  0-C ,  1-C ) :   1.1162 B(  0-C ,  8-H ) :   0.9410 B(  0-C ,  9-H ) :   0.9483
B(  0-C , 10-H ) :   0.9482 B(  1-C ,  2-C ) :   1.1167 B(  1-C ,  3-C ) :   1.0475
B(  1-C , 11-H ) :   0.8871 B(  2-C , 12-H ) :   0.9484 B(  2-C , 13-H ) :   0.9465
B(  2-C , 14-H ) :   0.9393 B(  3-C ,  4-C ) :   1.1060 B(  3-C ,  5-C ) :   1.0491
B(  3-C , 15-H ) :   0.8875 B(  4-C , 16-H ) :   0.9426 B(  4-C , 17-H ) :   0.9404
B(  4-C , 18-H ) :   0.9378 B(  5-C ,  6-C ) :   1.1147 B(  5-C ,  7-C ) :   1.1054
B(  5-C , 19-H ) :   0.8903 B(  6-C , 20-H ) :   0.9485 B(  6-C , 21-H ) :   0.9481
B(  6-C , 22-H ) :   0.9420 B(  7-C , 23-H ) :   0.9466 B(  7-C , 24-H ) :   0.9422
B(  7-C , 25-H ) :   0.9487

Dispersion correction           -0.023423486
FINAL SINGLE POINT ENERGY      -314.871135322611

DIPOLE MOMENT
-------------

Method             : SCF
Type of density    : Electron Density
Multiplicity       :   1
Irrep              :   0
Energy             :  -314.9582252884200102 Eh
Relativity type    :
Basis              : AO
                                X                 Y                 Z
Electronic contribution:     -0.202055069      -0.453631882      -0.167018512
Nuclear contribution   :      0.194125456       0.419232437       0.182830957
                        -----------------------------------------
Total Dipole Moment    :     -0.007929613      -0.034399444       0.015812445
                        -----------------------------------------
Magnitude (a.u.)       :      0.038681183
Magnitude (Debye)      :      0.098319755

Rotational constants in cm-1:             0.092130             0.043828             0.038086
Rotational constants in MHz :          2761.997106          1313.916456          1141.794662

                             ****ORCA TERMINATED NORMALLY****
TOTAL RUN TIME: 0 days 0 hours 0 minutes 11 seconds 811 msec
