                         Program Version 6.0.0  -   RELEASE  -
|  1> ! pbe def2-sv(p) def2/J RI DEFGRID1 loosescf d4 GCP(DFT/SV(P)) printgap
|  2> %output
|  3>     printlevel normal
|  4> end
|  5> * xyz 0 1
|  6> C -2.7150206504 0.7111129114 0.7725998231
|  7> C -2.1191345463 0.2281621287 -0.54465696
|  8> C -0.8921393102 -0.6466595338 -0.3227963385
|  9> O 0.1583351232 0.1556110418 0.2374772957
| 10> C 1.4163733107 -0.1509661232 -0.0454413339
| 11> O 1.7356379829 -1.0851412059 -0.7541374495
| 12> C 2.3786587483 0.7880153399 0.6181383502
| 13> H -3.5667611709 1.3588257838 0.5857931386
| 14> H -3.0460023398 -0.1332709027 1.3720107945
| 15> H -1.9713539629 1.2660661195 1.3379571749
| 16> H -1.8318690076 1.0843248524 -1.1566832011
| 17> H -2.8542116039 -0.3578843081 -1.0965888807
| 18> H -1.1092061236 -1.4546254945 0.3829697122
| 19> H -0.5311924573 -1.0847184475 -1.259127853
| 20> H 2.8821518923 0.2564403475 1.4224395906
| 21> H 1.8466087613 1.6434658179 1.019100111
| 22> H 3.1314936662 1.0980524082 -0.1008027283
| 23> *
| 24>
| 25>                          ****END OF INPUT****

CARTESIAN COORDINATES (ANGSTROEM)
---------------------------------
  C     -2.715021    0.711113    0.772600
  C     -2.119135    0.228162   -0.544657
  C     -0.892139   -0.646660   -0.322796
  O      0.158335    0.155611    0.237477
  C      1.416373   -0.150966   -0.045441
  O      1.735638   -1.085141   -0.754137
  C      2.378659    0.788015    0.618138
  H     -3.566761    1.358826    0.585793
  H     -3.046002   -0.133271    1.372011
  H     -1.971354    1.266066    1.337957
  H     -1.831869    1.084325   -1.156683
  H     -2.854212   -0.357884   -1.096589
  H     -1.109206   -1.454625    0.382970
  H     -0.531192   -1.084718   -1.259128
  H      2.882152    0.256440    1.422440
  H      1.846609    1.643466    1.019100
  H      3.131494    1.098052   -0.100803

 Total Charge           Charge          ....    0
 Multiplicity           Mult            ....    1
 Number of Electrons    NEL             ....   56
 Basis Dimension        Dim             ....  118

ORBITAL ENERGIES
----------------

  NO   OCC          E(Eh)            E(eV)
   0   2.0000     -18.798067      -511.5214
   1   2.0000     -18.730241      -509.6758
   2   2.0000     -10.004986      -272.2495
   3   2.0000      -9.941330      -270.5174
   4   2.0000      -9.896287      -269.2917
   5   2.0000      -9.891076      -269.1499
   6   2.0000      -9.879918      -268.8462
   7   2.0000      -1.003964       -27.3193
   8   2.0000      -0.906434       -24.6653
   9   2.0000      -0.725413       -19.7395
  10   2.0000      -0.676798       -18.4166
  11   2.0000      -0.620746       -16.8914
  12   2.0000      -0.551728       -15.0133
  13   2.0000      -0.500663       -13.6237
  14   2.0000      -0.446265       -12.1435
  15   2.0000      -0.432030       -11.7561
  16   2.0000      -0.414805       -11.2874
  17   2.0000      -0.400174       -10.8893
  18   2.0000      -0.382148       -10.3988
  19   2.0000      -0.377682       -10.2772
  20   2.0000      -0.358084        -9.7440
  21   2.0000      -0.335957        -9.1418
  22   2.0000      -0.326588        -8.8869
  23   2.0000      -0.310982        -8.4623
  24   2.0000      -0.305594        -8.3156
  25   2.0000      -0.287367        -7.8197
  26   2.0000      -0.253974        -6.9110
  27   2.0000      -0.216343        -5.8870
  28   0.0000      -0.017812        -0.4847
  29   0.0000       0.038706         1.0532
  30   0.0000       0.057008         1.5513
  31   0.0000       0.074802         2.0355
  32   0.0000       0.080001         2.1769

MULLIKEN ATOMIC CHARGES
-----------------------
   0 C :   -0.289730
   1 C :   -0.185227
   2 C :   -0.003307
   3 O :   -0.241367
   4 C :    0.081553
   5 O :   -0.215785
   6 C :   -0.253450
   7 H :    0.107524
   8 H :    0.098504
   9 H :    0.113263
  10 H :    0.097339
  11 H :    0.096285
  12 H :    0.095565
  13 H :    0.114342
  14 H :    0.136387
  15 H :    0.116631
  16 H :    0.131475
Sum of atomic charges:   -0.0000000

LOEWDIN ATOMIC CHARGES
----------------------
   0 C :   -0.344057
   1 C :   -0.244947
   2 C :   -0.105215
   3 O :   -0.068641
   4 C :    0.028367
   5 O :   -0.176217
   6 C :   -0.360108
   7 H :    0.120812
   8 H :    0.117717
   9 H :    0.121559
  10 H :    0.123191
  11 H :    0.125110
  12 H :    0.114402
  13 H :    0.119576
  14 H :    0.149479
  15 H :    0.133448
  16 H :    0.145524

  Mayer bond orders larger than 0.100000
B(  0-C ,  1-C ) :   1.1449 B(  0-C ,  7-H ) :   0.9536 B(  0-C ,  8-H ) :   0.9552
B(  0-C ,  9-H ) :   0.9539 B(  1-C ,  2-C ) :   1.1174 B(  1-C , 10-H ) :   0.9239
B(  1-C , 11-H ) :   0.9215 B(  2-C ,  3-O ) :   0.9103 B(  2-C , 12-H ) :   0.9304
B(  2-C , 13-H ) :   0.9119 B(  3-O ,  4-C ) :   1.2094 B(  4-C ,  5-O ) :   2.0534
B(  4-C ,  6-C ) :   1.0808 B(  6-C , 14-H ) :   0.9280 B(  6-C , 15-H ) :   0.9382
B(  6-C , 16-H ) :   0.9338

Dispersion correction           -0.011635965
FINAL SINGLE POINT ENERGY      -346.243637291659

DIPOLE MOMENT
-------------

Method             : SCF
Type of density    : Electron Density
Multiplicity       :   1
Irrep              :   0
Energy             :  -346.3086595116063791 Eh
Relativity type    :
Basis              : AO
                                X                 Y                 Z
Electronic contribution:      6.082010283      -2.955023435      -1.991776520
Nuclear contribution   :     -6.586319606       3.435555639       2.344388753
                        -----------------------------------------
Total Dipole Moment    :     -0.504309323       0.480532205       0.352612232
                        -----------------------------------------
Magnitude (a.u.)       :      0.780752508
Magnitude (Debye)      :      1.984515164

Rotational constants in cm-1:             0.197426             0.045690             0.039152
Rotational constants in MHz :          5918.686167          1369.737833          1173.757051

                             ****ORCA TERMINATED NORMALLY****
TOTAL RUN TIME: 0 days 0 hours 0 minutes 8 seconds 437 msec
