                         Program Version 6.0.0  -   RELEASE  -
|  1> ! pbe def2-sv(p) def2/J RI DEFGRID1 loosescf d4 GCP(DFT/SV(P)) printgap
|  2> %output
|  3>     printlevel normal
|  4> end
|  5> * xyz 0 1
|  6> C 1.9654637804 -1.0372921155 0.2258165171
|  7> C 1.2400236883 0.1234352832 0.9022654654
|  8> C 0.1787847559 0.8328628051 0.0386301743
|  9> H -0.0457845651 1.790876024 0.5431898594
| 10> C -1.1823994117 0.1282444959 -0.1349048244
| 11> C -1.0954492322 -1.2346108312 -0.816091932
| 12> C -1.9350261444 0.0222488115 1.188712567
| 13> O 0.6682377742 1.114893362 -1.2630504781
| 14> H 1.3692662529 -1.9432269644 0.2322591506
| 15> H 2.897405757 -1.2423400088 0.7475147386
| 16> H 2.1943352333 -0.7887505249 -0.807548982
| 17> H 0.7711119855 -0.2103901277 1.8270298137
| 18> H 1.9838783254 0.8786550188 1.1722345555
| 19> H -1.7467242308 0.7920256006 -0.8015467257
| 20> H -2.0828594335 -1.534879368 -1.1593620468
| 21> H -0.4322564674 -1.1809397365 -1.6746169171
| 22> H -0.733275458 -1.9920132884 -0.1272330224
| 23> H -1.4384431909 -0.6711712291 1.8627293918
| 24> H -2.9421352414 -0.3442799501 1.0082457558
| 25> H -2.0029704166 0.9921615763 1.6758838699
| 26> H 1.4751861935 1.6409283832 -1.1854889327
| 27> *
| 28>
| 29>                          ****END OF INPUT****

CARTESIAN COORDINATES (ANGSTROEM)
---------------------------------
  C      1.965464   -1.037292    0.225817
  C      1.240024    0.123435    0.902265
  C      0.178785    0.832863    0.038630
  H     -0.045785    1.790876    0.543190
  C     -1.182399    0.128244   -0.134905
  C     -1.095449   -1.234611   -0.816092
  C     -1.935026    0.022249    1.188713
  O      0.668238    1.114893   -1.263050
  H      1.369266   -1.943227    0.232259
  H      2.897406   -1.242340    0.747515
  H      2.194335   -0.788751   -0.807549
  H      0.771112   -0.210390    1.827030
  H      1.983878    0.878655    1.172235
  H     -1.746724    0.792026   -0.801547
  H     -2.082859   -1.534879   -1.159362
  H     -0.432256   -1.180940   -1.674617
  H     -0.733275   -1.992013   -0.127233
  H     -1.438443   -0.671171    1.862729
  H     -2.942135   -0.344280    1.008246
  H     -2.002970    0.992162    1.675884
  H      1.475186    1.640928   -1.185489

 Total Charge           Charge          ....    0
 Multiplicity           Mult            ....    1
 Number of Electrons    NEL             ....   58
 Basis Dimension        Dim             ....  126

ORBITAL ENERGIES
----------------

  NO   OCC          E(Eh)            E(eV)
   0   2.0000     -18.740823      -509.9637
   1   2.0000      -9.932482      -270.2766
   2   2.0000      -9.888657      -269.0840
   3   2.0000      -9.883887      -268.9542
   4   2.0000      -9.872312      -268.6393
   5   2.0000      -9.868874      -268.5457
   6   2.0000      -9.863835      -268.4086
   7   2.0000      -0.918039       -24.9811
   8   2.0000      -0.723069       -19.6757
   9   2.0000      -0.680201       -18.5092
  10   2.0000      -0.608947       -16.5703
  11   2.0000      -0.600462       -16.3394
  12   2.0000      -0.542141       -14.7524
  13   2.0000      -0.480006       -13.0616
  14   2.0000      -0.444241       -12.0884
  15   2.0000      -0.428915       -11.6714
  16   2.0000      -0.406281       -11.0555
  17   2.0000      -0.382183       -10.3997
  18   2.0000      -0.371724       -10.1151
  19   2.0000      -0.346279        -9.4227
  20   2.0000      -0.335479        -9.1289
  21   2.0000      -0.323121        -8.7926
  22   2.0000      -0.318892        -8.6775
  23   2.0000      -0.314922        -8.5695
  24   2.0000      -0.289802        -7.8859
  25   2.0000      -0.286535        -7.7970
  26   2.0000      -0.278399        -7.5756
  27   2.0000      -0.253995        -6.9116
  28   2.0000      -0.212572        -5.7844
  29   0.0000       0.019334         0.5261
  30   0.0000       0.047927         1.3041
  31   0.0000       0.061073         1.6619
  32   0.0000       0.076651         2.0858
  33   0.0000       0.083063         2.2602

MULLIKEN ATOMIC CHARGES
-----------------------
   0 C :   -0.264645
   1 C :   -0.203152
   2 C :    0.056682
   3 H :    0.050308
   4 C :   -0.155036
   5 C :   -0.250243
   6 C :   -0.256385
   7 O :   -0.414706
   8 H :    0.105024
   9 H :    0.097895
  10 H :    0.094258
  11 H :    0.087386
  12 H :    0.073124
  13 H :    0.075655
  14 H :    0.094089
  15 H :    0.116483
  16 H :    0.098012
  17 H :    0.101815
  18 H :    0.100970
  19 H :    0.096715
  20 H :    0.295752
Sum of atomic charges:    0.0000000

LOEWDIN ATOMIC CHARGES
----------------------
   0 C :   -0.347860
   1 C :   -0.250252
   2 C :   -0.046332
   3 H :    0.094256
   4 C :   -0.158636
   5 C :   -0.332336
   6 C :   -0.329949
   7 O :   -0.325877
   8 H :    0.118149
   9 H :    0.117787
  10 H :    0.116447
  11 H :    0.121041
  12 H :    0.111982
  13 H :    0.120900
  14 H :    0.117866
  15 H :    0.124557
  16 H :    0.112723
  17 H :    0.114805
  18 H :    0.121342
  19 H :    0.115943
  20 H :    0.283445

  Mayer bond orders larger than 0.100000
B(  0-C ,  1-C ) :   1.1592 B(  0-C ,  8-H ) :   0.9470 B(  0-C ,  9-H ) :   0.9490
B(  0-C , 10-H ) :   0.9388 B(  1-C ,  2-C ) :   1.0557 B(  1-C , 11-H ) :   0.9114
B(  1-C , 12-H ) :   0.9192 B(  2-C ,  3-H ) :   0.9006 B(  2-C ,  4-C ) :   1.0454
B(  2-C ,  7-O ) :   1.0573 B(  4-C ,  5-C ) :   1.1286 B(  4-C ,  6-C ) :   1.1056
B(  4-C , 13-H ) :   0.8893 B(  5-C , 14-H ) :   0.9462 B(  5-C , 15-H ) :   0.9404
B(  5-C , 16-H ) :   0.9391 B(  6-C , 17-H ) :   0.9406 B(  6-C , 18-H ) :   0.9493
B(  6-C , 19-H ) :   0.9484 B(  7-O , 20-H ) :   0.8483

Dispersion correction           -0.017285240
FINAL SINGLE POINT ENERGY      -311.514761279558

DIPOLE MOMENT
-------------

Method             : SCF
Type of density    : Electron Density
Multiplicity       :   1
Irrep              :   0
Energy             :  -311.5941969889125289 Eh
Relativity type    :
Basis              : AO
                                X                 Y                 Z
Electronic contribution:      0.950666962       3.799733480      -2.703286356
Nuclear contribution   :     -0.678005568      -3.560995011       3.089663729
                        -----------------------------------------
Total Dipole Moment    :      0.272661394       0.238738469       0.386377374
                        -----------------------------------------
Magnitude (a.u.)       :      0.529743114
Magnitude (Debye)      :      1.346499989

Rotational constants in cm-1:             0.103914             0.063016             0.059217
Rotational constants in MHz :          3115.250795          1889.167574          1775.274754

                             ****ORCA TERMINATED NORMALLY****
TOTAL RUN TIME: 0 days 0 hours 0 minutes 9 seconds 852 msec
