                         Program Version 6.0.0  -   RELEASE  -
|  1> ! pbe def2-sv(p) def2/J RI DEFGRID1 loosescf d4 GCP(DFT/SV(P)) printgap
|  2> %output
|  3>     printlevel normal
|  4> end
|  5> * xyz 0 1
|  6> C 0.251712599 -0.5033234331 -0.8217255907
|  7> H 0.5271812532 -0.6350963729 -1.8744166758
|  8> C 1.2562117774 0.4519869746 -0.1482585715
|  9> F 2.5118759943 0.0566204329 -0.3676412876
| 10> F 1.0955833877 0.5305069831 1.1756423209
| 11> F 1.1436938016 1.6908051514 -0.6348133552
| 12> O -1.04526383 -0.0265983053 -0.8263177444
| 13> C -1.6742343327 0.2132778103 0.3647105918
| 14> F -2.9913546055 0.1042743993 0.1473216572
| 15> F -1.4702313881 1.4927714316 0.7664295132
| 16> Cl 0.3972486081 -2.0883012152 0.0149898822
| 17> H -1.3842158545 -0.4576930235 1.1886971766
| 18> *
| 19>
| 20>                          ****END OF INPUT****

CARTESIAN COORDINATES (ANGSTROEM)
---------------------------------
  C      0.251713   -0.503323   -0.821726
  H      0.527181   -0.635096   -1.874417
  C      1.256212    0.451987   -0.148259
  F      2.511876    0.056620   -0.367641
  F      1.095583    0.530507    1.175642
  F      1.143694    1.690805   -0.634813
  O     -1.045264   -0.026598   -0.826318
  C     -1.674234    0.213278    0.364711
  F     -2.991355    0.104274    0.147322
  F     -1.470231    1.492771    0.766430
  Cl     0.397249   -2.088301    0.014990
  H     -1.384216   -0.457693    1.188697

 Total Charge           Charge          ....    0
 Multiplicity           Mult            ....    1
 Number of Electrons    NEL             ....   90
 Basis Dimension        Dim             ....  148

ORBITAL ENERGIES
----------------

  NO   OCC          E(Eh)            E(eV)
   0   2.0000    -100.664851     -2739.2298
   1   2.0000     -24.314271      -661.6249
   2   2.0000     -24.313826      -661.6129
   3   2.0000     -24.312827      -661.5857
   4   2.0000     -24.287468      -660.8956
   5   2.0000     -24.279291      -660.6731
   6   2.0000     -18.839857      -512.6586
   7   2.0000     -10.150096      -276.1982
   8   2.0000     -10.109037      -275.0809
   9   2.0000     -10.047663      -273.4108
  10   2.0000      -9.200874      -250.3685
  11   2.0000      -7.032556      -191.3656
  12   2.0000      -7.020673      -191.0422
  13   2.0000      -7.020110      -191.0269
  14   2.0000      -1.219409       -33.1818
  15   2.0000      -1.167173       -31.7604
  16   2.0000      -1.125162       -30.6172
  17   2.0000      -1.124249       -30.5924
  18   2.0000      -1.091282       -29.6953
  19   2.0000      -1.027475       -27.9590
  20   2.0000      -0.814651       -22.1678
  21   2.0000      -0.711963       -19.3735
  22   2.0000      -0.655403       -17.8344
  23   2.0000      -0.600469       -16.3396
  24   2.0000      -0.567896       -15.4532
  25   2.0000      -0.557436       -15.1686
  26   2.0000      -0.549825       -14.9615
  27   2.0000      -0.530522       -14.4362
  28   2.0000      -0.515800       -14.0356
  29   2.0000      -0.485565       -13.2129
  30   2.0000      -0.453471       -12.3396
  31   2.0000      -0.421752       -11.4765
  32   2.0000      -0.421152       -11.4601
  33   2.0000      -0.407072       -11.0770
  34   2.0000      -0.389702       -10.6043
  35   2.0000      -0.382594       -10.4109
  36   2.0000      -0.377536       -10.2733
  37   2.0000      -0.368821       -10.0361
  38   2.0000      -0.364808        -9.9269
  39   2.0000      -0.360388        -9.8066
  40   2.0000      -0.346980        -9.4418
  41   2.0000      -0.327148        -8.9021
  42   2.0000      -0.307355        -8.3636
  43   2.0000      -0.296241        -8.0611
  44   2.0000      -0.286854        -7.8057
  45   0.0000      -0.038013        -1.0344
  46   0.0000       0.021843         0.5944
  47   0.0000       0.051346         1.3972
  48   0.0000       0.064910         1.7663
  49   0.0000       0.099123         2.6973

MULLIKEN ATOMIC CHARGES
-----------------------
   0 C :   -0.049801
   1 H :    0.163578
   2 C :    0.426379
   3 F :   -0.120771
   4 F :   -0.123225
   5 F :   -0.119610
   6 O :   -0.219141
   7 C :    0.348117
   8 F :   -0.146758
   9 F :   -0.168480
  10 Cl:   -0.072299
  11 H :    0.082011
Sum of atomic charges:    0.0000000

LOEWDIN ATOMIC CHARGES
----------------------
   0 C :   -0.152155
   1 H :    0.147186
   2 C :    0.062601
   3 F :   -0.029304
   4 F :   -0.028392
   5 F :   -0.026565
   6 O :   -0.082416
   7 C :    0.067685
   8 F :   -0.053016
   9 F :   -0.079374
  10 Cl:    0.087372
  11 H :    0.086379

  Mayer bond orders larger than 0.100000
B(  0-C ,  1-H ) :   0.8924 B(  0-C ,  2-C ) :   0.8875 B(  0-C ,  6-O ) :   1.0643
B(  0-C , 10-Cl) :   1.0545 B(  2-C ,  3-F ) :   1.1800 B(  2-C ,  4-F ) :   1.1577
B(  2-C ,  5-F ) :   1.1838 B(  6-O ,  7-C ) :   1.0440 B(  7-C ,  8-F ) :   1.1570
B(  7-C ,  9-F ) :   1.1184 B(  7-C , 11-H ) :   0.9106

Dispersion correction           -0.011958182
FINAL SINGLE POINT ENERGY     -1148.540330591409

DIPOLE MOMENT
-------------

Method             : SCF
Type of density    : Electron Density
Multiplicity       :   1
Irrep              :   0
Energy             : -1148.6236048535531609 Eh
Relativity type    :
Basis              : AO
                                X                 Y                 Z
Electronic contribution:      1.866808295       1.334937327       1.434890043
Nuclear contribution   :     -1.620986954      -1.813025254      -1.682758321
                        -----------------------------------------
Total Dipole Moment    :      0.245821341      -0.478087927      -0.247868278
                        -----------------------------------------
Magnitude (a.u.)       :      0.591975405
Magnitude (Debye)      :      1.504681901

Rotational constants in cm-1:             0.051025             0.031604             0.023231
Rotational constants in MHz :          1529.694273           947.470527           696.437294

                             ****ORCA TERMINATED NORMALLY****
TOTAL RUN TIME: 0 days 0 hours 0 minutes 7 seconds 341 msec
