                         Program Version 6.0.0  -   RELEASE  -
|  1> ! r2scan-3c def2/J RI DEFGRID2 scfconv6 printgap
|  2> %output
|  3>     printlevel normal
|  4> end
|  5> * xyz 0 1
|  6> C 2.3254268578 -0.4009245294 -0.8781843009
|  7> O 1.1860768957 -0.8233127738 -0.1084025154
|  8> S 0.0094972717 0.1979765846 0.028951859
|  9> O -0.2254259328 0.8719921296 -1.2157585596
| 10> O 0.1838034083 1.041028994 1.1766733463
| 11> O -1.1067915787 -0.8668866638 0.3085982649
| 12> C -2.379471002 -0.3018082153 0.6645065503
| 13> H 1.9740804311 0.1417170493 -1.7550006981
| 14> H 2.8458485848 -1.3137302096 -1.1586008839
| 15> H 2.9581665952 0.2398223623 -0.2648016267
| 16> H -2.2444854886 0.3647234015 1.516018213
| 17> H -3.0155611582 -1.1464765765 0.9167689178
| 18> H -2.7740167137 0.2527925373 -0.1865626019
| 19> *
| 20>
| 21>                          ****END OF INPUT****

CARTESIAN COORDINATES (ANGSTROEM)
---------------------------------
  C      2.325427   -0.400925   -0.878184
  O      1.186077   -0.823313   -0.108403
  S      0.009497    0.197977    0.028952
  O     -0.225426    0.871992   -1.215759
  O      0.183803    1.041029    1.176673
  O     -1.106792   -0.866887    0.308598
  C     -2.379471   -0.301808    0.664507
  H      1.974080    0.141717   -1.755001
  H      2.845849   -1.313730   -1.158601
  H      2.958167    0.239822   -0.264802
  H     -2.244485    0.364723    1.516018
  H     -3.015561   -1.146477    0.916769
  H     -2.774017    0.252793   -0.186563

 Total Charge           Charge          ....    0
 Multiplicity           Mult            ....    1
 Number of Electrons    NEL             ....   66
 Basis Dimension        Dim             ....  191

ORBITAL ENERGIES
----------------

  NO   OCC          E(Eh)            E(eV)
   0   2.0000     -88.821454     -2416.9546
   1   2.0000     -19.023192      -517.6474
   2   2.0000     -19.021491      -517.6011
   3   2.0000     -18.954713      -515.7840
   4   2.0000     -18.952472      -515.7230
   5   2.0000     -10.109418      -275.0913
   6   2.0000     -10.107760      -275.0461
   7   2.0000      -8.085328      -220.0130
   8   2.0000      -6.032077      -164.1412
   9   2.0000      -6.031486      -164.1251
  10   2.0000      -6.028040      -164.0313
  11   2.0000      -1.161644       -31.6100
  12   2.0000      -1.051077       -28.6013
  13   2.0000      -1.022352       -27.8196
  14   2.0000      -0.987668       -26.8758
  15   2.0000      -0.749103       -20.3841
  16   2.0000      -0.688556       -18.7366
  17   2.0000      -0.585865       -15.9422
  18   2.0000      -0.546333       -14.8665
  19   2.0000      -0.498828       -13.5738
  20   2.0000      -0.478890       -13.0313
  21   2.0000      -0.455485       -12.3944
  22   2.0000      -0.451392       -12.2830
  23   2.0000      -0.436322       -11.8729
  24   2.0000      -0.419422       -11.4130
  25   2.0000      -0.381563       -10.3829
  26   2.0000      -0.375656       -10.2221
  27   2.0000      -0.329497        -8.9661
  28   2.0000      -0.325833        -8.8664
  29   2.0000      -0.323167        -8.7938
  30   2.0000      -0.310930        -8.4608
  31   2.0000      -0.279874        -7.6157
  32   2.0000      -0.261203        -7.1077
  33   0.0000       0.008702         0.2368
  34   0.0000       0.054549         1.4844
  35   0.0000       0.056941         1.5494
  36   0.0000       0.083952         2.2845
  37   0.0000       0.102324         2.7844

MULLIKEN ATOMIC CHARGES
-----------------------
   0 C :   -0.284363
   1 O :   -0.237492
   2 S :    1.149019
   3 O :   -0.572630
   4 O :   -0.550207
   5 O :   -0.248546
   6 C :   -0.286020
   7 H :    0.187737
   8 H :    0.161937
   9 H :    0.165789
  10 H :    0.180573
  11 H :    0.162875
  12 H :    0.171327
Sum of atomic charges:   -0.0000000

LOEWDIN ATOMIC CHARGES
----------------------
   0 C :   -0.032185
   1 O :   -0.552492
   2 S :    0.896525
   3 O :   -0.410696
   4 O :   -0.397144
   5 O :   -0.557531
   6 C :   -0.036445
   7 H :    0.188347
   8 H :    0.183688
   9 H :    0.173618
  10 H :    0.182854
  11 H :    0.184523
  12 H :    0.176937

  Mayer bond orders larger than 0.100000
B(  0-C ,  1-O ) :   0.7986 B(  0-C ,  7-H ) :   0.9627 B(  0-C ,  8-H ) :   0.9619
B(  0-C ,  9-H ) :   0.9622 B(  1-O ,  2-S ) :   1.0503 B(  2-S ,  3-O ) :   1.6263
B(  2-S ,  4-O ) :   1.6612 B(  2-S ,  5-O ) :   1.0442 B(  5-O ,  6-C ) :   0.8060
B(  6-C , 10-H ) :   0.9621 B(  6-C , 11-H ) :   0.9605 B(  6-C , 12-H ) :   0.9610

Dispersion correction           -0.003450103
FINAL SINGLE POINT ENERGY      -778.748912413267

DIPOLE MOMENT
-------------

Method             : SCF
Type of density    : Electron Density
Multiplicity       :   1
Irrep              :   0
Energy             :  -778.7693460169712125 Eh
Relativity type    :
Basis              : AO
                                X                 Y                 Z
Electronic contribution:      0.224121141       0.686990864       0.708780229
Nuclear contribution   :     -0.239856793      -1.373194930      -0.872989320
                        -----------------------------------------
Total Dipole Moment    :     -0.015735652      -0.686204066      -0.164209091
                        -----------------------------------------
Magnitude (a.u.)       :      0.705753680
Magnitude (Debye)      :      1.793883291

Rotational constants in cm-1:             0.152172             0.058307             0.056490
Rotational constants in MHz :          4561.996361          1747.997386          1693.540441

                             ****ORCA TERMINATED NORMALLY****
TOTAL RUN TIME: 0 days 0 hours 0 minutes 18 seconds 812 msec
