                         Program Version 6.0.0  -   RELEASE  -
|  1> ! r2scan-3c def2/J RI DEFGRID2 scfconv6 printgap
|  2> %output
|  3>     printlevel normal
|  4> end
|  5> %cpcm
|  6>     smd true
|  7>     smdsolvent "water"
|  8> end
|  9> * xyz 0 1
| 10> C 2.3254268578 -0.4009245294 -0.8781843009
| 11> O 1.1860768957 -0.8233127738 -0.1084025154
| 12> S 0.0094972717 0.1979765846 0.028951859
| 13> O -0.2254259328 0.8719921296 -1.2157585596
| 14> O 0.1838034083 1.041028994 1.1766733463
| 15> O -1.1067915787 -0.8668866638 0.3085982649
| 16> C -2.379471002 -0.3018082153 0.6645065503
| 17> H 1.9740804311 0.1417170493 -1.7550006981
| 18> H 2.8458485848 -1.3137302096 -1.1586008839
| 19> H 2.9581665952 0.2398223623 -0.2648016267
| 20> H -2.2444854886 0.3647234015 1.516018213
| 21> H -3.0155611582 -1.1464765765 0.9167689178
| 22> H -2.7740167137 0.2527925373 -0.1865626019
| 23> *
| 24>
| 25>                          ****END OF INPUT****

CARTESIAN COORDINATES (ANGSTROEM)
---------------------------------
  C      2.325427   -0.400925   -0.878184
  O      1.186077   -0.823313   -0.108403
  S      0.009497    0.197977    0.028952
  O     -0.225426    0.871992   -1.215759
  O      0.183803    1.041029    1.176673
  O     -1.106792   -0.866887    0.308598
  C     -2.379471   -0.301808    0.664507
  H      1.974080    0.141717   -1.755001
  H      2.845849   -1.313730   -1.158601
  H      2.958167    0.239822   -0.264802
  H     -2.244485    0.364723    1.516018
  H     -3.015561   -1.146477    0.916769
  H     -2.774017    0.252793   -0.186563

 Total Charge           Charge          ....    0
 Multiplicity           Mult            ....    1
 Number of Electrons    NEL             ....   66
 Basis Dimension        Dim             ....  191

ORBITAL ENERGIES
----------------

  NO   OCC          E(Eh)            E(eV)
   0   2.0000     -88.835218     -2417.3292
   1   2.0000     -19.027131      -517.7545
   2   2.0000     -19.026130      -517.7273
   3   2.0000     -18.971480      -516.2402
   4   2.0000     -18.970576      -516.2156
   5   2.0000     -10.092752      -274.6377
   6   2.0000     -10.092408      -274.6284
   7   2.0000      -8.098911      -220.3826
   8   2.0000      -6.045442      -164.5048
   9   2.0000      -6.044981      -164.4923
  10   2.0000      -6.042052      -164.4126
  11   2.0000      -1.171817       -31.8868
  12   2.0000      -1.053405       -28.6646
  13   2.0000      -1.033381       -28.1197
  14   2.0000      -1.005817       -27.3697
  15   2.0000      -0.744841       -20.2681
  16   2.0000      -0.677398       -18.4329
  17   2.0000      -0.583382       -15.8746
  18   2.0000      -0.546927       -14.8826
  19   2.0000      -0.509342       -13.8599
  20   2.0000      -0.487566       -13.2673
  21   2.0000      -0.450558       -12.2603
  22   2.0000      -0.445830       -12.1317
  23   2.0000      -0.428725       -11.6662
  24   2.0000      -0.423350       -11.5199
  25   2.0000      -0.381466       -10.3802
  26   2.0000      -0.375787       -10.2257
  27   2.0000      -0.336185        -9.1481
  28   2.0000      -0.333377        -9.0717
  29   2.0000      -0.327542        -8.9129
  30   2.0000      -0.319456        -8.6928
  31   2.0000      -0.288202        -7.8424
  32   2.0000      -0.276554        -7.5254
  33   0.0000       0.010608         0.2887
  34   0.0000       0.044694         1.2162
  35   0.0000       0.052510         1.4289
  36   0.0000       0.092403         2.5144
  37   0.0000       0.105706         2.8764

MULLIKEN ATOMIC CHARGES
-----------------------
   0 C :   -0.295851
   1 O :   -0.256939
   2 S :    1.174058
   3 O :   -0.609551
   4 O :   -0.595169
   5 O :   -0.269880
   6 C :   -0.294806
   7 H :    0.193127
   8 H :    0.194048
   9 H :    0.188146
  10 H :    0.188973
  11 H :    0.196340
  12 H :    0.187503
Sum of atomic charges:   -0.0000000

LOEWDIN ATOMIC CHARGES
----------------------
   0 C :   -0.023605
   1 O :   -0.558341
   2 S :    0.900312
   3 O :   -0.438408
   4 O :   -0.431456
   5 O :   -0.563966
   6 C :   -0.028289
   7 H :    0.191482
   8 H :    0.198147
   9 H :    0.183202
  10 H :    0.187170
  11 H :    0.199595
  12 H :    0.184156

  Mayer bond orders larger than 0.100000
B(  0-C ,  1-O ) :   0.7861 B(  0-C ,  7-H ) :   0.9550 B(  0-C ,  8-H ) :   0.9490
B(  0-C ,  9-H ) :   0.9517 B(  1-O ,  2-S ) :   1.0738 B(  2-S ,  3-O ) :   1.5987
B(  2-S ,  4-O ) :   1.6203 B(  2-S ,  5-O ) :   1.0667 B(  5-O ,  6-C ) :   0.7945
B(  6-C , 10-H ) :   0.9534 B(  6-C , 11-H ) :   0.9471 B(  6-C , 12-H ) :   0.9512

Dispersion correction           -0.003450103
FINAL SINGLE POINT ENERGY      -778.760305479352

DIPOLE MOMENT
-------------

Method             : SCF
Type of density    : Electron Density
Multiplicity       :   1
Irrep              :   0
Energy             :  -778.7807390830570284 Eh
Relativity type    :
Basis              : AO
                                X                 Y                 Z
Electronic contribution:      0.218900971       0.476243382       0.658701623
Nuclear contribution   :     -0.239856793      -1.373194930      -0.872989320
                        -----------------------------------------
Total Dipole Moment    :     -0.020955822      -0.896951547      -0.214287697
                        -----------------------------------------
Magnitude (a.u.)       :      0.922431809
Magnitude (Debye)      :      2.344635327

Rotational constants in cm-1:             0.152172             0.058307             0.056490
Rotational constants in MHz :          4561.996361          1747.997386          1693.540441

                             ****ORCA TERMINATED NORMALLY****
TOTAL RUN TIME: 0 days 0 hours 0 minutes 24 seconds 497 msec
