                         Program Version 6.0.0  -   RELEASE  -
|  1> ! pbe def2-sv(p) def2/J RI DEFGRID1 loosescf d4 GCP(DFT/SV(P)) printgap
|  2> %output
|  3>     printlevel normal
|  4> end
|  5> * xyz 0 1
|  6> C -2.1929245113 0.2423016563 -1.2445554931
|  7> C -1.9557809317 0.0567139026 0.2523909605
|  8> C -2.1331912437 -1.4045306986 0.6578808868
|  9> C -0.5642524126 0.5557487607 0.6413616625
| 10> O 0.4276490773 -0.2077042569 -0.0572180845
| 11> C 1.680797791 0.2199812941 -0.0070354161
| 12> O 2.0202995067 1.2105685414 0.6097935291
| 13> C 2.6013969146 -0.6500539805 -0.8091597636
| 14> H -1.4731826242 -0.3427286005 -1.811087894
| 15> H -2.0864400547 1.2882110033 -1.5224017691
| 16> H -3.1940057089 -0.085998762 -1.5094081734
| 17> H -2.6724097912 0.6712473768 0.806379397
| 18> H -1.4035062227 -2.0243585657 0.1439222218
| 19> H -3.1297527984 -1.7482618607 0.3955140824
| 20> H -1.9964384924 -1.5235245625 1.7298242753
| 21> H -0.4327416591 1.6128360125 0.3858054457
| 22> H -0.3905375955 0.4433929644 1.7169828925
| 23> H 2.1676038004 -1.6362721212 -0.9328704242
| 24> H 3.5688787913 -0.7037359233 -0.3197832141
| 25> H 2.7380851359 -0.1936681772 -1.7873805852
| 26> *
| 27>
| 28>                          ****END OF INPUT****

CARTESIAN COORDINATES (ANGSTROEM)
---------------------------------
  C     -2.192925    0.242302   -1.244555
  C     -1.955781    0.056714    0.252391
  C     -2.133191   -1.404531    0.657881
  C     -0.564252    0.555749    0.641362
  O      0.427649   -0.207704   -0.057218
  C      1.680798    0.219981   -0.007035
  O      2.020300    1.210569    0.609794
  C      2.601397   -0.650054   -0.809160
  H     -1.473183   -0.342729   -1.811088
  H     -2.086440    1.288211   -1.522402
  H     -3.194006   -0.085999   -1.509408
  H     -2.672410    0.671247    0.806379
  H     -1.403506   -2.024359    0.143922
  H     -3.129753   -1.748262    0.395514
  H     -1.996438   -1.523525    1.729824
  H     -0.432742    1.612836    0.385805
  H     -0.390538    0.443393    1.716983
  H      2.167604   -1.636272   -0.932870
  H      3.568879   -0.703736   -0.319783
  H      2.738085   -0.193668   -1.787381

 Total Charge           Charge          ....    0
 Multiplicity           Mult            ....    1
 Number of Electrons    NEL             ....   64
 Basis Dimension        Dim             ....  136

ORBITAL ENERGIES
----------------

  NO   OCC          E(Eh)            E(eV)
   0   2.0000     -18.799165      -511.5513
   1   2.0000     -18.731127      -509.6999
   2   2.0000     -10.005330      -272.2589
   3   2.0000      -9.940658      -270.4991
   4   2.0000      -9.905366      -269.5387
   5   2.0000      -9.891750      -269.1682
   6   2.0000      -9.878091      -268.7965
   7   2.0000      -9.877680      -268.7853
   8   2.0000      -1.006074       -27.3767
   9   2.0000      -0.907056       -24.6822
  10   2.0000      -0.739230       -20.1155
  11   2.0000      -0.682828       -18.5807
  12   2.0000      -0.622552       -16.9405
  13   2.0000      -0.616618       -16.7790
  14   2.0000      -0.537462       -14.6251
  15   2.0000      -0.486989       -13.2517
  16   2.0000      -0.443009       -12.0549
  17   2.0000      -0.439833       -11.9685
  18   2.0000      -0.414924       -11.2907
  19   2.0000      -0.399004       -10.8574
  20   2.0000      -0.396068       -10.7776
  21   2.0000      -0.383868       -10.4456
  22   2.0000      -0.359273        -9.7763
  23   2.0000      -0.355286        -9.6678
  24   2.0000      -0.340015        -9.2523
  25   2.0000      -0.324539        -8.8312
  26   2.0000      -0.318413        -8.6645
  27   2.0000      -0.298451        -8.1213
  28   2.0000      -0.296244        -8.0612
  29   2.0000      -0.285143        -7.7591
  30   2.0000      -0.255596        -6.9551
  31   2.0000      -0.216257        -5.8847
  32   0.0000      -0.018652        -0.5075
  33   0.0000       0.028749         0.7823
  34   0.0000       0.051240         1.3943
  35   0.0000       0.076026         2.0688
  36   0.0000       0.079454         2.1621

MULLIKEN ATOMIC CHARGES
-----------------------
   0 C :   -0.253935
   1 C :   -0.169599
   2 C :   -0.253688
   3 C :    0.020961
   4 O :   -0.241337
   5 C :    0.082486
   6 O :   -0.218696
   7 C :   -0.246409
   8 H :    0.106083
   9 H :    0.098915
  10 H :    0.102602
  11 H :    0.080855
  12 H :    0.108194
  13 H :    0.102151
  14 H :    0.097908
  15 H :    0.101873
  16 H :    0.098447
  17 H :    0.118351
  18 H :    0.129017
  19 H :    0.135821
Sum of atomic charges:    0.0000000

LOEWDIN ATOMIC CHARGES
----------------------
   0 C :   -0.331765
   1 C :   -0.168735
   2 C :   -0.331814
   3 C :   -0.094479
   4 O :   -0.064707
   5 C :    0.028065
   6 O :   -0.174143
   7 C :   -0.359754
   8 H :    0.120196
   9 H :    0.118395
  10 H :    0.119466
  11 H :    0.123320
  12 H :    0.120835
  13 H :    0.119045
  14 H :    0.117990
  15 H :    0.115215
  16 H :    0.114282
  17 H :    0.135073
  18 H :    0.143518
  19 H :    0.149997

  Mayer bond orders larger than 0.100000
B(  0-C ,  1-C ) :   1.1040 B(  0-C ,  8-H ) :   0.9492 B(  0-C ,  9-H ) :   0.9513
B(  0-C , 10-H ) :   0.9527 B(  1-C ,  2-C ) :   1.1032 B(  1-C ,  3-C ) :   1.0603
B(  1-C , 11-H ) :   0.8959 B(  2-C , 12-H ) :   0.9490 B(  2-C , 13-H ) :   0.9527
B(  2-C , 14-H ) :   0.9510 B(  3-C ,  4-O ) :   0.9143 B(  3-C , 15-H ) :   0.9219
B(  3-C , 16-H ) :   0.9299 B(  4-O ,  5-C ) :   1.1977 B(  5-C ,  6-O ) :   2.0463
B(  5-C ,  7-C ) :   1.0894 B(  7-C , 17-H ) :   0.9371 B(  7-C , 18-H ) :   0.9372
B(  7-C , 19-H ) :   0.9244

Dispersion correction           -0.015372273
FINAL SINGLE POINT ENERGY      -385.457975350457

DIPOLE MOMENT
-------------

Method             : SCF
Type of density    : Electron Density
Multiplicity       :   1
Irrep              :   0
Energy             :  -385.5329098213550196 Eh
Relativity type    :
Basis              : AO
                                X                 Y                 Z
Electronic contribution:      7.244886525       3.463079076       2.208425466
Nuclear contribution   :     -7.754657243      -3.965640462      -2.529081670
                        -----------------------------------------
Total Dipole Moment    :     -0.509770718      -0.502561386      -0.320656204
                        -----------------------------------------
Magnitude (a.u.)       :      0.784381625
Magnitude (Debye)      :      1.993739645

Rotational constants in cm-1:             0.127823             0.035512             0.034260
Rotational constants in MHz :          3832.031104          1064.626396          1027.074240

                             ****ORCA TERMINATED NORMALLY****
TOTAL RUN TIME: 0 days 0 hours 0 minutes 11 seconds 158 msec
