                         Program Version 6.0.0  -   RELEASE  -
|  1> ! pbe def2-sv(p) def2/J RI DEFGRID1 loosescf d4 GCP(DFT/SV(P)) printgap
|  2> %output
|  3>     printlevel normal
|  4> end
|  5> * xyz 0 1
|  6> C 1.4256112058 -0.8694932057 1.5270281185
|  7> C 2.14532443 -0.1651386816 0.4126808372
|  8> C 3.4537669319 -0.3148011366 0.2609794835
|  9> C 1.3741166845 0.7131802912 -0.5483742687
| 10> H 2.1146760879 1.3501369362 -1.0433739995
| 11> C 0.6712805245 -0.0908282494 -1.6539395197
| 12> C -0.4911345658 -0.9311872726 -1.1344120198
| 13> C -1.3876460081 -0.1254641811 -0.240521581
| 14> C -0.9776908911 1.0162609041 0.3383039287
| 15> C 0.3593038496 1.6283951701 0.1493931963
| 16> C -2.7281068366 -0.6202369816 0.0128420538
| 17> O -3.5608227646 -0.0955426922 0.7328093512
| 18> H 2.0452360668 -0.8859080062 2.4209466217
| 19> H 0.4782529435 -0.3966804576 1.7659096208
| 20> H 1.2264035534 -1.9049143028 1.2523185493
| 21> H 3.9992364828 0.1701305561 -0.53081216
| 22> H 4.0329649978 -0.9383746319 0.9211421657
| 23> H 0.2882278256 0.6179278053 -2.3908495696
| 24> H 1.3980216809 -0.7352321925 -2.1500913587
| 25> H -1.0694362705 -1.317648424 -1.9766565986
| 26> H -0.1166465978 -1.7941612594 -0.5797880996
| 27> H -1.6779365652 1.5488811457 0.9698905565
| 28> H 0.2156684385 2.5313589757 -0.4529948885
| 29> H 0.7499775594 1.9646402689 1.112654344
| 30> H -2.9783948244 -1.5617405849 -0.5115052829
| 31> *
| 32>
| 33>                          ****END OF INPUT****

CARTESIAN COORDINATES (ANGSTROEM)
---------------------------------
  C      1.425611   -0.869493    1.527028
  C      2.145324   -0.165139    0.412681
  C      3.453767   -0.314801    0.260979
  C      1.374117    0.713180   -0.548374
  H      2.114676    1.350137   -1.043374
  C      0.671281   -0.090828   -1.653940
  C     -0.491135   -0.931187   -1.134412
  C     -1.387646   -0.125464   -0.240522
  C     -0.977691    1.016261    0.338304
  C      0.359304    1.628395    0.149393
  C     -2.728107   -0.620237    0.012842
  O     -3.560823   -0.095543    0.732809
  H      2.045236   -0.885908    2.420947
  H      0.478253   -0.396680    1.765910
  H      1.226404   -1.904914    1.252319
  H      3.999236    0.170131   -0.530812
  H      4.032965   -0.938375    0.921142
  H      0.288228    0.617928   -2.390850
  H      1.398022   -0.735232   -2.150091
  H     -1.069436   -1.317648   -1.976657
  H     -0.116647   -1.794161   -0.579788
  H     -1.677937    1.548881    0.969891
  H      0.215668    2.531359   -0.452995
  H      0.749978    1.964640    1.112654
  H     -2.978395   -1.561741   -0.511505

 Total Charge           Charge          ....    0
 Multiplicity           Mult            ....    1
 Number of Electrons    NEL             ....   82
 Basis Dimension        Dim             ....  182

ORBITAL ENERGIES
----------------

  NO   OCC          E(Eh)            E(eV)
   0   2.0000     -18.741152      -509.9727
   1   2.0000      -9.962045      -271.0810
   2   2.0000      -9.912543      -269.7340
   3   2.0000      -9.906784      -269.5773
   4   2.0000      -9.905480      -269.5418
   5   2.0000      -9.904110      -269.5045
   6   2.0000      -9.901942      -269.4455
   7   2.0000      -9.899776      -269.3866
   8   2.0000      -9.896322      -269.2926
   9   2.0000      -9.884165      -268.9618
  10   2.0000      -9.875764      -268.7332
  11   2.0000      -0.930626       -25.3236
  12   2.0000      -0.782486       -21.2925
  13   2.0000      -0.728696       -19.8288
  14   2.0000      -0.687519       -18.7084
  15   2.0000      -0.678479       -18.4624
  16   2.0000      -0.619853       -16.8670
  17   2.0000      -0.583158       -15.8685
  18   2.0000      -0.571422       -15.5492
  19   2.0000      -0.526717       -14.3327
  20   2.0000      -0.483494       -13.1565
  21   2.0000      -0.456300       -12.4166
  22   2.0000      -0.445987       -12.1359
  23   2.0000      -0.426412       -11.6033
  24   2.0000      -0.413901       -11.2628
  25   2.0000      -0.397925       -10.8281
  26   2.0000      -0.386470       -10.5164
  27   2.0000      -0.381931       -10.3929
  28   2.0000      -0.365008        -9.9324
  29   2.0000      -0.361056        -9.8248
  30   2.0000      -0.357513        -9.7284
  31   2.0000      -0.353050        -9.6070
  32   2.0000      -0.345695        -9.4068
  33   2.0000      -0.333741        -9.0816
  34   2.0000      -0.322152        -8.7662
  35   2.0000      -0.299067        -8.1380
  36   2.0000      -0.285642        -7.7727
  37   2.0000      -0.282863        -7.6971
  38   2.0000      -0.232588        -6.3290
  39   2.0000      -0.217679        -5.9234
  40   2.0000      -0.200250        -5.4491
  41   0.0000      -0.092677        -2.5219
  42   0.0000      -0.022611        -0.6153
  43   0.0000       0.017126         0.4660
  44   0.0000       0.029449         0.8013
  45   0.0000       0.050244         1.3672

MULLIKEN ATOMIC CHARGES
-----------------------
   0 C :   -0.236972
   1 C :   -0.066222
   2 C :   -0.231253
   3 C :   -0.118804
   4 H :    0.059878
   5 C :   -0.101397
   6 C :   -0.099104
   7 C :   -0.057461
   8 C :   -0.181942
   9 C :   -0.067177
  10 C :    0.045310
  11 O :   -0.171109
  12 H :    0.110617
  13 H :    0.121434
  14 H :    0.123172
  15 H :    0.086205
  16 H :    0.083188
  17 H :    0.088603
  18 H :    0.084477
  19 H :    0.094285
  20 H :    0.104326
  21 H :    0.078377
  22 H :    0.110651
  23 H :    0.111611
  24 H :    0.029308
Sum of atomic charges:    0.0000000

LOEWDIN ATOMIC CHARGES
----------------------
   0 C :   -0.332044
   1 C :   -0.050114
   2 C :   -0.262619
   3 C :   -0.130048
   4 H :    0.124919
   5 C :   -0.203591
   6 C :   -0.216054
   7 C :   -0.121920
   8 C :   -0.073390
   9 C :   -0.214039
  10 C :   -0.000147
  11 O :   -0.135913
  12 H :    0.131548
  13 H :    0.129144
  14 H :    0.133188
  15 H :    0.116520
  16 H :    0.116546
  17 H :    0.120410
  18 H :    0.121722
  19 H :    0.128446
  20 H :    0.130140
  21 H :    0.131606
  22 H :    0.143691
  23 H :    0.135717
  24 H :    0.076281

  Mayer bond orders larger than 0.100000
B(  0-C ,  1-C ) :   1.1175 B(  0-C , 12-H ) :   0.9313 B(  0-C , 13-H ) :   0.9248
B(  0-C , 14-H ) :   0.9227 B(  1-C ,  2-C ) :   2.0237 B(  1-C ,  3-C ) :   1.0358
B(  2-C , 15-H ) :   0.9087 B(  2-C , 16-H ) :   0.9165 B(  3-C ,  4-H ) :   0.8699
B(  3-C ,  5-C ) :   1.0713 B(  3-C ,  9-C ) :   1.0583 B(  5-C ,  6-C ) :   1.1417
B(  5-C , 17-H ) :   0.9182 B(  5-C , 18-H ) :   0.9115 B(  6-C ,  7-C ) :   1.0512
B(  6-C , 19-H ) :   0.8948 B(  6-C , 20-H ) :   0.8778 B(  7-C ,  8-C ) :   1.7973
B(  7-C , 10-C ) :   1.0127 B(  8-C ,  9-C ) :   1.0617 B(  8-C , 11-O ) :   0.1072
B(  8-C , 21-H ) :   0.9168 B(  9-C , 22-H ) :   0.8748 B(  9-C , 23-H ) :   0.9019
B( 10-C , 11-O ) :   2.1362 B( 10-C , 24-H ) :   0.9170

Dispersion correction           -0.027806596
FINAL SINGLE POINT ENERGY      -463.620922912501

DIPOLE MOMENT
-------------

Method             : SCF
Type of density    : Electron Density
Multiplicity       :   1
Irrep              :   0
Energy             :  -463.6960080767124737 Eh
Relativity type    :
Basis              : AO
                                X                 Y                 Z
Electronic contribution:     -8.989351550       1.281211490       0.636493186
Nuclear contribution   :      9.991472092      -1.269428918      -1.108567737
                        -----------------------------------------
Total Dipole Moment    :      1.002120543       0.011782572      -0.472074551
                        -----------------------------------------
Magnitude (a.u.)       :      1.107808103
Magnitude (Debye)      :      2.815824420

Rotational constants in cm-1:             0.073687             0.022607             0.022028
Rotational constants in MHz :          2209.088227           677.741770           660.379363

                             ****ORCA TERMINATED NORMALLY****
TOTAL RUN TIME: 0 days 0 hours 0 minutes 19 seconds 554 msec
