                         Program Version 6.0.0  -   RELEASE  -
|  1> ! pbe def2-sv(p) def2/J RI DEFGRID1 loosescf d4 GCP(DFT/SV(P)) printgap
|  2> %output
|  3>     printlevel normal
|  4> end
|  5> * xyz 0 1
|  6> C -2.2068797254 -0.7929337383 -0.2344815634
|  7> C -1.4698560735 0.5414716409 -0.2264273957
|  8> C -0.273760395 0.5811220541 0.7430410848
|  9> C 1.0204322987 0.1425399879 0.1122108127
| 10> C 1.946663688 1.0232719143 -0.2350496668
| 11> C 1.2091332234 -1.3262603641 -0.1183177689
| 12> H -1.5596937612 -1.6036699718 -0.5547428753
| 13> H -3.0553524284 -0.746982069 -0.9138422271
| 14> H -2.5792012043 -1.0246182223 0.7612151155
| 15> H -1.1206583597 0.7783044532 -1.2337577664
| 16> H -2.1776854235 1.3201118261 0.0657197566
| 17> H -0.1496052281 1.6050860488 1.0998977525
| 18> H -0.4955342825 -0.0499432874 1.6063652214
| 19> H 2.8747930436 0.7239254337 -0.6929497351
| 20> H 1.815864607 2.0810600183 -0.0791092589
| 21> H 0.8923877818 -1.8952688314 0.7530387025
| 22> H 0.6136434727 -1.6523637742 -0.969953991
| 23> H 2.2510137465 -1.5521107816 -0.3301798929
| 24> *
| 25>
| 26>                          ****END OF INPUT****

CARTESIAN COORDINATES (ANGSTROEM)
---------------------------------
  C     -2.206880   -0.792934   -0.234482
  C     -1.469856    0.541472   -0.226427
  C     -0.273760    0.581122    0.743041
  C      1.020432    0.142540    0.112211
  C      1.946664    1.023272   -0.235050
  C      1.209133   -1.326260   -0.118318
  H     -1.559694   -1.603670   -0.554743
  H     -3.055352   -0.746982   -0.913842
  H     -2.579201   -1.024618    0.761215
  H     -1.120658    0.778304   -1.233758
  H     -2.177685    1.320112    0.065720
  H     -0.149605    1.605086    1.099898
  H     -0.495534   -0.049943    1.606365
  H      2.874793    0.723925   -0.692950
  H      1.815865    2.081060   -0.079109
  H      0.892388   -1.895269    0.753039
  H      0.613643   -1.652364   -0.969954
  H      2.251014   -1.552111   -0.330180

 Total Charge           Charge          ....    0
 Multiplicity           Mult            ....    1
 Number of Electrons    NEL             ....   48
 Basis Dimension        Dim             ....  108

ORBITAL ENERGIES
----------------

  NO   OCC          E(Eh)            E(eV)
   0   2.0000      -9.895403      -269.2676
   1   2.0000      -9.885402      -268.9955
   2   2.0000      -9.883171      -268.9347
   3   2.0000      -9.877935      -268.7923
   4   2.0000      -9.873996      -268.6851
   5   2.0000      -9.864168      -268.4176
   6   2.0000      -0.736699       -20.0466
   7   2.0000      -0.684524       -18.6269
   8   2.0000      -0.618076       -16.8187
   9   2.0000      -0.599434       -16.3114
  10   2.0000      -0.526902       -14.3377
  11   2.0000      -0.462747       -12.5920
  12   2.0000      -0.417897       -11.3716
  13   2.0000      -0.410187       -11.1618
  14   2.0000      -0.386951       -10.5295
  15   2.0000      -0.371998       -10.1226
  16   2.0000      -0.358992        -9.7687
  17   2.0000      -0.343700        -9.3525
  18   2.0000      -0.330400        -8.9907
  19   2.0000      -0.307952        -8.3798
  20   2.0000      -0.297518        -8.0959
  21   2.0000      -0.290313        -7.8998
  22   2.0000      -0.275438        -7.4950
  23   2.0000      -0.211706        -5.7608
  24   0.0000      -0.009687        -0.2636
  25   0.0000       0.038409         1.0452
  26   0.0000       0.068325         1.8592
  27   0.0000       0.073426         1.9980
  28   0.0000       0.079850         2.1728

MULLIKEN ATOMIC CHARGES
-----------------------
   0 C :   -0.291647
   1 C :   -0.180019
   2 C :   -0.103925
   3 C :   -0.107580
   4 C :   -0.226101
   5 C :   -0.220810
   6 H :    0.103476
   7 H :    0.103361
   8 H :    0.099112
   9 H :    0.094524
  10 H :    0.086983
  11 H :    0.076646
  12 H :    0.081246
  13 H :    0.079309
  14 H :    0.080956
  15 H :    0.100795
  16 H :    0.125149
  17 H :    0.098527
Sum of atomic charges:   -0.0000000

LOEWDIN ATOMIC CHARGES
----------------------
   0 C :   -0.343856
   1 C :   -0.229035
   2 C :   -0.211407
   3 C :   -0.058220
   4 C :   -0.269498
   5 C :   -0.325252
   6 H :    0.115374
   7 H :    0.119738
   8 H :    0.116728
   9 H :    0.118591
  10 H :    0.117702
  11 H :    0.121329
  12 H :    0.118132
  13 H :    0.114776
  14 H :    0.115365
  15 H :    0.124163
  16 H :    0.130440
  17 H :    0.124931

  Mayer bond orders larger than 0.100000
B(  0-C ,  1-C ) :   1.1615 B(  0-C ,  6-H ) :   0.9465 B(  0-C ,  7-H ) :   0.9501
B(  0-C ,  8-H ) :   0.9531 B(  1-C ,  2-C ) :   1.0843 B(  1-C ,  9-H ) :   0.9290
B(  1-C , 10-H ) :   0.9264 B(  2-C ,  3-C ) :   1.0912 B(  2-C , 11-H ) :   0.9065
B(  2-C , 12-H ) :   0.9082 B(  3-C ,  4-C ) :   2.0347 B(  3-C ,  5-C ) :   1.1177
B(  4-C , 13-H ) :   0.9105 B(  4-C , 14-H ) :   0.9109 B(  5-C , 15-H ) :   0.9334
B(  5-C , 16-H ) :   0.9204 B(  5-C , 17-H ) :   0.9369

Dispersion correction           -0.013690258
FINAL SINGLE POINT ENERGY      -235.241392834574

DIPOLE MOMENT
-------------

Method             : SCF
Type of density    : Electron Density
Multiplicity       :   1
Irrep              :   0
Energy             :  -235.2989755933533615 Eh
Relativity type    :
Basis              : AO
                                X                 Y                 Z
Electronic contribution:      2.338108249       1.771337163       0.462744906
Nuclear contribution   :     -2.523684879      -1.891776834      -0.458104260
                        -----------------------------------------
Total Dipole Moment    :     -0.185576630      -0.120439671       0.004640646
                        -----------------------------------------
Magnitude (a.u.)       :      0.221282479
Magnitude (Debye)      :      0.562455362

Rotational constants in cm-1:             0.193054             0.075341             0.060955
Rotational constants in MHz :          5787.600416          2258.656457          1827.396085

                             ****ORCA TERMINATED NORMALLY****
TOTAL RUN TIME: 0 days 0 hours 0 minutes 7 seconds 788 msec
