                         Program Version 6.0.0  -   RELEASE  -
|  1> ! pbe def2-sv(p) def2/J RI DEFGRID1 loosescf d4 GCP(DFT/SV(P)) printgap
|  2> %output
|  3>     printlevel normal
|  4> end
|  5> * xyz 0 1
|  6> C -0.2749220834 -2.5553879546 0.3677760628
|  7> C -0.0450885242 -1.1132365011 -0.0432807974
|  8> O 1.2332873222 -0.7223642986 0.4410633616
|  9> C 1.7976117061 0.3874853591 -0.061933566
| 10> O 1.2679720676 1.0536006972 -0.9232426548
| 11> C 3.1342091971 0.6437534017 0.5464084181
| 12> O -1.0068721668 -0.2815528184 0.5888226206
| 13> C -1.7983534683 0.6098516406 -0.0357571524
| 14> O -2.4790684825 1.3156998041 0.6730384846
| 15> C -1.8246389614 0.6698329128 -1.5304595961
| 16> H -0.2581299494 -2.6196466725 1.451213051
| 17> H 0.5127017633 -3.1754511775 -0.0466730187
| 18> H -1.2405300173 -2.8869275003 0.0009386547
| 19> H -0.06386146 -0.9781423911 -1.1309907953
| 20> H 3.1220487264 0.3626304998 1.5943460857
| 21> H 3.8667807414 0.0237735328 0.0330066389
| 22> H 3.4017312312 1.6875322897 0.4181899005
| 23> H -2.5786172547 1.3943350457 -1.8217694924
| 24> H -0.8515894901 0.9989130966 -1.8949765808
| 25> H -2.063309409 -0.3015762117 -1.9559502818
| 26> *
| 27>
| 28>                          ****END OF INPUT****

CARTESIAN COORDINATES (ANGSTROEM)
---------------------------------
  C     -0.274922   -2.555388    0.367776
  C     -0.045089   -1.113237   -0.043281
  O      1.233287   -0.722364    0.441063
  C      1.797612    0.387485   -0.061934
  O      1.267972    1.053601   -0.923243
  C      3.134209    0.643753    0.546408
  O     -1.006872   -0.281553    0.588823
  C     -1.798353    0.609852   -0.035757
  O     -2.479068    1.315700    0.673038
  C     -1.824639    0.669833   -1.530460
  H     -0.258130   -2.619647    1.451213
  H      0.512702   -3.175451   -0.046673
  H     -1.240530   -2.886928    0.000939
  H     -0.063861   -0.978142   -1.130991
  H      3.122049    0.362630    1.594346
  H      3.866781    0.023774    0.033007
  H      3.401731    1.687532    0.418190
  H     -2.578617    1.394335   -1.821769
  H     -0.851589    0.998913   -1.894977
  H     -2.063309   -0.301576   -1.955950

 Total Charge           Charge          ....    0
 Multiplicity           Mult            ....    1
 Number of Electrons    NEL             ....   78
 Basis Dimension        Dim             ....  160

ORBITAL ENERGIES
----------------

  NO   OCC          E(Eh)            E(eV)
   0   2.0000     -18.815988      -512.0091
   1   2.0000     -18.801656      -511.6191
   2   2.0000     -18.754344      -510.3316
   3   2.0000     -18.724667      -509.5241
   4   2.0000     -10.029762      -272.9237
   5   2.0000     -10.022224      -272.7186
   6   2.0000     -10.011407      -272.4242
   7   2.0000      -9.907129      -269.5867
   8   2.0000      -9.902979      -269.4737
   9   2.0000      -9.893295      -269.2103
  10   2.0000      -1.037922       -28.2433
  11   2.0000      -0.995276       -27.0828
  12   2.0000      -0.934495       -25.4289
  13   2.0000      -0.906961       -24.6797
  14   2.0000      -0.732601       -19.9351
  15   2.0000      -0.684761       -18.6333
  16   2.0000      -0.672818       -18.3083
  17   2.0000      -0.608821       -16.5669
  18   2.0000      -0.566793       -15.4232
  19   2.0000      -0.523821       -14.2539
  20   2.0000      -0.457391       -12.4462
  21   2.0000      -0.449361       -12.2277
  22   2.0000      -0.438414       -11.9299
  23   2.0000      -0.429238       -11.6802
  24   2.0000      -0.419751       -11.4220
  25   2.0000      -0.396981       -10.8024
  26   2.0000      -0.384634       -10.4664
  27   2.0000      -0.380301       -10.3485
  28   2.0000      -0.371534       -10.1100
  29   2.0000      -0.364971        -9.9314
  30   2.0000      -0.359188        -9.7740
  31   2.0000      -0.347836        -9.4651
  32   2.0000      -0.336440        -9.1550
  33   2.0000      -0.326538        -8.8856
  34   2.0000      -0.300124        -8.1668
  35   2.0000      -0.286808        -7.8045
  36   2.0000      -0.260064        -7.0767
  37   2.0000      -0.238175        -6.4811
  38   2.0000      -0.211720        -5.7612
  39   0.0000      -0.042320        -1.1516
  40   0.0000      -0.020707        -0.5635
  41   0.0000       0.030034         0.8173
  42   0.0000       0.048136         1.3098
  43   0.0000       0.068830         1.8730

MULLIKEN ATOMIC CHARGES
-----------------------
   0 C :   -0.217860
   1 C :    0.117692
   2 O :   -0.227894
   3 C :    0.106077
   4 O :   -0.202065
   5 C :   -0.240841
   6 O :   -0.212334
   7 C :    0.098966
   8 O :   -0.170522
   9 C :   -0.335182
  10 H :    0.127623
  11 H :    0.116022
  12 H :    0.116122
  13 H :    0.094738
  14 H :    0.133843
  15 H :    0.139118
  16 H :    0.133986
  17 H :    0.131210
  18 H :    0.166006
  19 H :    0.125293
Sum of atomic charges:   -0.0000000

LOEWDIN ATOMIC CHARGES
----------------------
   0 C :   -0.343563
   1 C :    0.037224
   2 O :   -0.066779
   3 C :    0.048650
   4 O :   -0.157395
   5 C :   -0.355676
   6 O :   -0.066233
   7 C :    0.041740
   8 O :   -0.145813
   9 C :   -0.386136
  10 H :    0.138426
  11 H :    0.133334
  12 H :    0.133892
  13 H :    0.109382
  14 H :    0.145702
  15 H :    0.153550
  16 H :    0.145941
  17 H :    0.145305
  18 H :    0.152529
  19 H :    0.135919

  Mayer bond orders larger than 0.100000
B(  0-C ,  1-C ) :   1.1155 B(  0-C , 10-H ) :   0.9333 B(  0-C , 11-H ) :   0.9388
B(  0-C , 12-H ) :   0.9390 B(  1-C ,  2-O ) :   0.9611 B(  1-C ,  6-O ) :   1.0034
B(  1-C , 13-H ) :   0.8959 B(  2-O ,  3-C ) :   1.1518 B(  3-C ,  4-O ) :   2.0293
B(  3-C ,  5-C ) :   1.1003 B(  5-C , 14-H ) :   0.9305 B(  5-C , 15-H ) :   0.9185
B(  5-C , 16-H ) :   0.9361 B(  6-O ,  7-C ) :   1.1030 B(  7-C ,  8-O ) :   2.1670
B(  7-C ,  9-C ) :   1.0884 B(  9-C , 17-H ) :   0.9307 B(  9-C , 18-H ) :   0.8912
B(  9-C , 19-H ) :   0.9172

Dispersion correction           -0.017197058
FINAL SINGLE POINT ENERGY      -534.465391500525

DIPOLE MOMENT
-------------

Method             : SCF
Type of density    : Electron Density
Multiplicity       :   1
Irrep              :   0
Energy             :  -534.5447834963479181 Eh
Relativity type    :
Basis              : AO
                                X                 Y                 Z
Electronic contribution:     -2.474241123       3.892129707       2.498096607
Nuclear contribution   :      3.594762610      -5.134602291      -3.133819269
                        -----------------------------------------
Total Dipole Moment    :      1.120521487      -1.242472585      -0.635722662
                        -----------------------------------------
Magnitude (a.u.)       :      1.789818379
Magnitude (Debye)      :      4.549356775

Rotational constants in cm-1:             0.061518             0.032106             0.025598
Rotational constants in MHz :          1844.268233           962.524132           767.398834

                             ****ORCA TERMINATED NORMALLY****
TOTAL RUN TIME: 0 days 0 hours 0 minutes 12 seconds 983 msec
