                         Program Version 6.0.0  -   RELEASE  -
|  1> ! r2scan-3c def2/J RI DEFGRID2 scfconv6 printgap
|  2> %output
|  3>     printlevel normal
|  4> end
|  5> * xyz 0 1
|  6> C -1.8540006862 -1.123009369 -0.3355738854
|  7> C -1.4531908843 0.1166180784 0.441444437
|  8> S 0.011609719 0.9750437112 -0.2459077328
|  9> C 1.4070360718 0.1204413204 0.576847329
| 10> C 1.8751354131 -1.1247013781 -0.1521162896
| 11> H -2.7924667427 -1.5098105588 0.0555343798
| 12> H -1.9860687719 -0.879470657 -1.3869316557
| 13> H -1.0991656088 -1.9002573315 -0.2525354081
| 14> H -1.2326864296 -0.1090376125 1.4840888797
| 15> H -2.2428646459 0.8663945521 0.3986925634
| 16> H 2.1979390827 0.8697116296 0.6004691737
| 17> H 1.092899287 -0.0978151719 1.5968272097
| 18> H 2.1017181695 -0.8887768659 -1.1889246388
| 19> H 2.7741409343 -1.508773862 0.3248004104
| 20> H 1.1153664825 -1.9012764609 -0.1318696439
| 21> *
| 22>
| 23>                          ****END OF INPUT****

CARTESIAN COORDINATES (ANGSTROEM)
---------------------------------
  C     -1.854001   -1.123009   -0.335574
  C     -1.453191    0.116618    0.441444
  S      0.011610    0.975044   -0.245908
  C      1.407036    0.120441    0.576847
  C      1.875135   -1.124701   -0.152116
  H     -2.792467   -1.509811    0.055534
  H     -1.986069   -0.879471   -1.386932
  H     -1.099166   -1.900257   -0.252535
  H     -1.232686   -0.109038    1.484089
  H     -2.242865    0.866395    0.398693
  H      2.197939    0.869712    0.600469
  H      1.092899   -0.097815    1.596827
  H      2.101718   -0.888777   -1.188925
  H      2.774141   -1.508774    0.324800
  H      1.115366   -1.901276   -0.131870

 Total Charge           Charge          ....    0
 Multiplicity           Mult            ....    1
 Number of Electrons    NEL             ....   50
 Basis Dimension        Dim             ....  153

ORBITAL ENERGIES
----------------

  NO   OCC          E(Eh)            E(eV)
   0   2.0000     -88.539930     -2409.2940
   1   2.0000     -10.060370      -273.7566
   2   2.0000     -10.060357      -273.7562
   3   2.0000     -10.024216      -272.7728
   4   2.0000     -10.024195      -272.7722
   5   2.0000      -7.833993      -213.1738
   6   2.0000      -5.781543      -157.3238
   7   2.0000      -5.777696      -157.2191
   8   2.0000      -5.770596      -157.0259
   9   2.0000      -0.777266       -21.1505
  10   2.0000      -0.732589       -19.9348
  11   2.0000      -0.656308       -17.8590
  12   2.0000      -0.590342       -16.0640
  13   2.0000      -0.537263       -14.6197
  14   2.0000      -0.443870       -12.0783
  15   2.0000      -0.424811       -11.5597
  16   2.0000      -0.395753       -10.7690
  17   2.0000      -0.392770       -10.6878
  18   2.0000      -0.357343        -9.7238
  19   2.0000      -0.353937        -9.6311
  20   2.0000      -0.343925        -9.3587
  21   2.0000      -0.327186        -8.9032
  22   2.0000      -0.298956        -8.1350
  23   2.0000      -0.269284        -7.3276
  24   2.0000      -0.189409        -5.1541
  25   0.0000       0.025569         0.6958
  26   0.0000       0.046317         1.2604
  27   0.0000       0.082419         2.2427
  28   0.0000       0.110517         3.0073
  29   0.0000       0.124716         3.3937

MULLIKEN ATOMIC CHARGES
-----------------------
   0 C :   -0.426327
   1 C :   -0.232788
   2 S :   -0.141194
   3 C :   -0.233223
   4 C :   -0.426648
   5 H :    0.139005
   6 H :    0.155626
   7 H :    0.136019
   8 H :    0.143132
   9 H :    0.156074
  10 H :    0.155987
  11 H :    0.143555
  12 H :    0.155760
  13 H :    0.138979
  14 H :    0.136044
Sum of atomic charges:   -0.0000000

LOEWDIN ATOMIC CHARGES
----------------------
   0 C :   -0.431528
   1 C :   -0.363214
   2 S :    0.027116
   3 C :   -0.363297
   4 C :   -0.431498
   5 H :    0.149610
   6 H :    0.157191
   7 H :    0.148767
   8 H :    0.158981
   9 H :    0.166662
  10 H :    0.166719
  11 H :    0.158924
  12 H :    0.157226
  13 H :    0.149622
  14 H :    0.148721

  Mayer bond orders larger than 0.100000
B(  0-C ,  1-C ) :   0.8916 B(  0-C ,  5-H ) :   0.9623 B(  0-C ,  6-H ) :   0.9762
B(  0-C ,  7-H ) :   0.9764 B(  1-C ,  2-S ) :   0.9597 B(  1-C ,  8-H ) :   0.9581
B(  1-C ,  9-H ) :   0.9495 B(  2-S ,  3-C ) :   0.9610 B(  3-C ,  4-C ) :   0.8909
B(  3-C , 10-H ) :   0.9494 B(  3-C , 11-H ) :   0.9588 B(  4-C , 12-H ) :   0.9760
B(  4-C , 13-H ) :   0.9622 B(  4-C , 14-H ) :   0.9767

Dispersion correction           -0.003696700
FINAL SINGLE POINT ENERGY      -556.552725576475

DIPOLE MOMENT
-------------

Method             : SCF
Type of density    : Electron Density
Multiplicity       :   1
Irrep              :   0
Energy             :  -556.5598300818016924 Eh
Relativity type    :
Basis              : AO
                                X                 Y                 Z
Electronic contribution:      0.048553450       6.102085429      -1.002597958
Nuclear contribution   :     -0.067116337      -6.650336965       1.414379548
                        -----------------------------------------
Total Dipole Moment    :     -0.018562887      -0.548251535       0.411781590
                        -----------------------------------------
Magnitude (a.u.)       :      0.685921573
Magnitude (Debye)      :      1.743474083

Rotational constants in cm-1:             0.178272             0.088519             0.067819
Rotational constants in MHz :          5344.448867          2653.733439          2033.150667

                             ****ORCA TERMINATED NORMALLY****
TOTAL RUN TIME: 0 days 0 hours 0 minutes 14 seconds 495 msec
