                         Program Version 6.0.0  -   RELEASE  -
|  1> ! r2scan-3c def2/J RI DEFGRID2 scfconv6 printgap
|  2> %output
|  3>     printlevel normal
|  4> end
|  5> %cpcm
|  6>     smd true
|  7>     smdsolvent "water"
|  8> end
|  9> * xyz 0 1
| 10> C -1.8540006862 -1.123009369 -0.3355738854
| 11> C -1.4531908843 0.1166180784 0.441444437
| 12> S 0.011609719 0.9750437112 -0.2459077328
| 13> C 1.4070360718 0.1204413204 0.576847329
| 14> C 1.8751354131 -1.1247013781 -0.1521162896
| 15> H -2.7924667427 -1.5098105588 0.0555343798
| 16> H -1.9860687719 -0.879470657 -1.3869316557
| 17> H -1.0991656088 -1.9002573315 -0.2525354081
| 18> H -1.2326864296 -0.1090376125 1.4840888797
| 19> H -2.2428646459 0.8663945521 0.3986925634
| 20> H 2.1979390827 0.8697116296 0.6004691737
| 21> H 1.092899287 -0.0978151719 1.5968272097
| 22> H 2.1017181695 -0.8887768659 -1.1889246388
| 23> H 2.7741409343 -1.508773862 0.3248004104
| 24> H 1.1153664825 -1.9012764609 -0.1318696439
| 25> *
| 26>
| 27>                          ****END OF INPUT****

CARTESIAN COORDINATES (ANGSTROEM)
---------------------------------
  C     -1.854001   -1.123009   -0.335574
  C     -1.453191    0.116618    0.441444
  S      0.011610    0.975044   -0.245908
  C      1.407036    0.120441    0.576847
  C      1.875135   -1.124701   -0.152116
  H     -2.792467   -1.509811    0.055534
  H     -1.986069   -0.879471   -1.386932
  H     -1.099166   -1.900257   -0.252535
  H     -1.232686   -0.109038    1.484089
  H     -2.242865    0.866395    0.398693
  H      2.197939    0.869712    0.600469
  H      1.092899   -0.097815    1.596827
  H      2.101718   -0.888777   -1.188925
  H      2.774141   -1.508774    0.324800
  H      1.115366   -1.901276   -0.131870

 Total Charge           Charge          ....    0
 Multiplicity           Mult            ....    1
 Number of Electrons    NEL             ....   50
 Basis Dimension        Dim             ....  153

ORBITAL ENERGIES
----------------

  NO   OCC          E(Eh)            E(eV)
   0   2.0000     -88.538766     -2409.2623
   1   2.0000     -10.050357      -273.4841
   2   2.0000     -10.050322      -273.4832
   3   2.0000     -10.013236      -272.4740
   4   2.0000     -10.013230      -272.4739
   5   2.0000      -7.832890      -213.1438
   6   2.0000      -5.780192      -157.2870
   7   2.0000      -5.776492      -157.1863
   8   2.0000      -5.769910      -157.0072
   9   2.0000      -0.769712       -20.9449
  10   2.0000      -0.722348       -19.6561
  11   2.0000      -0.648667       -17.6511
  12   2.0000      -0.580486       -15.7958
  13   2.0000      -0.528873       -14.3914
  14   2.0000      -0.432542       -11.7701
  15   2.0000      -0.414647       -11.2831
  16   2.0000      -0.384843       -10.4721
  17   2.0000      -0.383713       -10.4414
  18   2.0000      -0.347850        -9.4655
  19   2.0000      -0.344330        -9.3697
  20   2.0000      -0.332687        -9.0529
  21   2.0000      -0.317047        -8.6273
  22   2.0000      -0.288819        -7.8592
  23   2.0000      -0.266116        -7.2414
  24   2.0000      -0.189877        -5.1668
  25   0.0000       0.028303         0.7702
  26   0.0000       0.050988         1.3874
  27   0.0000       0.094215         2.5637
  28   0.0000       0.118968         3.2373
  29   0.0000       0.134461         3.6589

MULLIKEN ATOMIC CHARGES
-----------------------
   0 C :   -0.479788
   1 C :   -0.220190
   2 S :   -0.216874
   3 C :   -0.220645
   4 C :   -0.480023
   5 H :    0.154817
   6 H :    0.159240
   7 H :    0.158204
   8 H :    0.167278
   9 H :    0.169058
  10 H :    0.168970
  11 H :    0.167489
  12 H :    0.159275
  13 H :    0.154894
  14 H :    0.158296
Sum of atomic charges:    0.0000000

LOEWDIN ATOMIC CHARGES
----------------------
   0 C :   -0.438034
   1 C :   -0.359255
   2 S :   -0.015188
   3 C :   -0.359355
   4 C :   -0.437978
   5 H :    0.155619
   6 H :    0.155819
   7 H :    0.154399
   8 H :    0.168188
   9 H :    0.170892
  10 H :    0.170931
  11 H :    0.168071
  12 H :    0.155841
  13 H :    0.155651
  14 H :    0.154401

  Mayer bond orders larger than 0.100000
B(  0-C ,  1-C ) :   0.8812 B(  0-C ,  5-H ) :   0.9583 B(  0-C ,  6-H ) :   0.9775
B(  0-C ,  7-H ) :   0.9745 B(  1-C ,  2-S ) :   0.9477 B(  1-C ,  8-H ) :   0.9517
B(  1-C ,  9-H ) :   0.9450 B(  2-S ,  3-C ) :   0.9492 B(  3-C ,  4-C ) :   0.8807
B(  3-C , 10-H ) :   0.9449 B(  3-C , 11-H ) :   0.9523 B(  4-C , 12-H ) :   0.9774
B(  4-C , 13-H ) :   0.9582 B(  4-C , 14-H ) :   0.9747

Dispersion correction           -0.003696700
FINAL SINGLE POINT ENERGY      -556.554618919796

DIPOLE MOMENT
-------------

Method             : SCF
Type of density    : Electron Density
Multiplicity       :   1
Irrep              :   0
Energy             :  -556.5617234251224090 Eh
Relativity type    :
Basis              : AO
                                X                 Y                 Z
Electronic contribution:      0.038538792       5.885445539      -0.786039667
Nuclear contribution   :     -0.067116337      -6.650336965       1.414379548
                        -----------------------------------------
Total Dipole Moment    :     -0.028577545      -0.764891426       0.628339881
                        -----------------------------------------
Magnitude (a.u.)       :      0.990296206
Magnitude (Debye)      :      2.517132916

Rotational constants in cm-1:             0.178272             0.088519             0.067819
Rotational constants in MHz :          5344.448867          2653.733439          2033.150667

                             ****ORCA TERMINATED NORMALLY****
TOTAL RUN TIME: 0 days 0 hours 0 minutes 17 seconds 65 msec
