                         Program Version 6.0.0  -   RELEASE  -
|  1> ! r2scan-3c def2/J RI DEFGRID2 scfconv6 printgap
|  2> %output
|  3>     printlevel normal
|  4> end
|  5> * xyz 0 1
|  6> C -3.5746325138 -0.3211824641 -0.2526208374
|  7> C -2.1799881956 -0.6011824076 0.2952393099
|  8> C -1.1738409815 0.4553212335 -0.157646853
|  9> C 0.2181797798 0.2458626763 0.4356205157
| 10> C 0.8983324176 -1.0486039744 -0.0277200811
| 11> C 2.3855718054 -0.7482123686 0.1221832383
| 12> C 2.5004159463 0.6796304999 -0.4082369975
| 13> C 1.2031848352 1.369766905 0.0419401488
| 14> H -4.2766464389 -1.0816059116 0.0806728143
| 15> H -3.9303806984 0.6486292499 0.08843941
| 16> H -3.5624010373 -0.3175107013 -1.3402906564
| 17> H -2.216040308 -0.618240077 1.3870144372
| 18> H -1.8511373163 -1.5857189552 -0.0417224979
| 19> H -1.106053262 0.4445307584 -1.2484226679
| 20> H -1.5389416231 1.4411697107 0.142236249
| 21> H 0.1259440729 0.2177812487 1.5262981973
| 22> H 0.5865562098 -1.9134943136 0.5555869546
| 23> H 0.6640123188 -1.2342070952 -1.0776188808
| 24> H 2.6651112836 -0.7812543182 1.1765304449
| 25> H 3.0152600277 -1.4488938407 -0.4243250881
| 26> H 3.3880072585 1.1890016139 -0.0358805513
| 27> H 2.5553273839 0.6588893387 -1.4974184122
| 28> H 1.3869895066 2.0282697199 0.890435437
| 29> H 0.7907647068 1.9784630768 -0.7625825837
| 30> *
| 31>
| 32>                          ****END OF INPUT****

CARTESIAN COORDINATES (ANGSTROEM)
---------------------------------
  C     -3.574633   -0.321182   -0.252621
  C     -2.179988   -0.601182    0.295239
  C     -1.173841    0.455321   -0.157647
  C      0.218180    0.245863    0.435621
  C      0.898332   -1.048604   -0.027720
  C      2.385572   -0.748212    0.122183
  C      2.500416    0.679630   -0.408237
  C      1.203185    1.369767    0.041940
  H     -4.276646   -1.081606    0.080673
  H     -3.930381    0.648629    0.088439
  H     -3.562401   -0.317511   -1.340291
  H     -2.216040   -0.618240    1.387014
  H     -1.851137   -1.585719   -0.041722
  H     -1.106053    0.444531   -1.248423
  H     -1.538942    1.441170    0.142236
  H      0.125944    0.217781    1.526298
  H      0.586556   -1.913494    0.555587
  H      0.664012   -1.234207   -1.077619
  H      2.665111   -0.781254    1.176530
  H      3.015260   -1.448894   -0.424325
  H      3.388007    1.189002   -0.035881
  H      2.555327    0.658889   -1.497418
  H      1.386990    2.028270    0.890435
  H      0.790765    1.978463   -0.762583

 Total Charge           Charge          ....    0
 Multiplicity           Mult            ....    1
 Number of Electrons    NEL             ....   64
 Basis Dimension        Dim             ....  232

ORBITAL ENERGIES
----------------

  NO   OCC          E(Eh)            E(eV)
   0   2.0000     -10.023895      -272.7640
   1   2.0000     -10.020020      -272.6586
   2   2.0000     -10.018027      -272.6044
   3   2.0000     -10.017825      -272.5989
   4   2.0000     -10.017413      -272.5877
   5   2.0000     -10.016452      -272.5615
   6   2.0000     -10.015562      -272.5373
   7   2.0000     -10.012778      -272.4615
   8   2.0000      -0.804633       -21.8952
   9   2.0000      -0.749667       -20.3995
  10   2.0000      -0.687668       -18.7124
  11   2.0000      -0.670819       -18.2539
  12   2.0000      -0.616794       -16.7838
  13   2.0000      -0.552008       -15.0209
  14   2.0000      -0.530358       -14.4318
  15   2.0000      -0.513509       -13.9733
  16   2.0000      -0.448755       -12.2112
  17   2.0000      -0.434521       -11.8239
  18   2.0000      -0.427839       -11.6421
  19   2.0000      -0.389568       -10.6007
  20   2.0000      -0.380771       -10.3613
  21   2.0000      -0.371253       -10.1023
  22   2.0000      -0.350970        -9.5504
  23   2.0000      -0.338999        -9.2246
  24   2.0000      -0.315296        -8.5796
  25   2.0000      -0.301367        -8.2006
  26   2.0000      -0.300319        -8.1721
  27   2.0000      -0.295665        -8.0455
  28   2.0000      -0.288810        -7.8589
  29   2.0000      -0.279206        -7.5976
  30   2.0000      -0.275297        -7.4912
  31   2.0000      -0.269305        -7.3282
  32   0.0000       0.085916         2.3379
  33   0.0000       0.093576         2.5463
  34   0.0000       0.103656         2.8206
  35   0.0000       0.115259         3.1364
  36   0.0000       0.126344         3.4380

MULLIKEN ATOMIC CHARGES
-----------------------
   0 C :   -0.477543
   1 C :   -0.233573
   2 C :   -0.377209
   3 C :    0.060704
   4 C :   -0.404998
   5 C :   -0.257313
   6 C :   -0.294624
   7 C :   -0.400644
   8 H :    0.145175
   9 H :    0.141378
  10 H :    0.142079
  11 H :    0.140487
  12 H :    0.143434
  13 H :    0.145220
  14 H :    0.145280
  15 H :    0.157691
  16 H :    0.157905
  17 H :    0.160567
  18 H :    0.144986
  19 H :    0.151324
  20 H :    0.147868
  21 H :    0.148902
  22 H :    0.153699
  23 H :    0.159207
Sum of atomic charges:    0.0000000

LOEWDIN ATOMIC CHARGES
----------------------
   0 C :   -0.425474
   1 C :   -0.314141
   2 C :   -0.301672
   3 C :   -0.226722
   4 C :   -0.301912
   5 C :   -0.302699
   6 C :   -0.304029
   7 C :   -0.300275
   8 H :    0.149240
   9 H :    0.149318
  10 H :    0.149421
  11 H :    0.151415
  12 H :    0.153141
  13 H :    0.155429
  14 H :    0.156808
  15 H :    0.159467
  16 H :    0.158261
  17 H :    0.157854
  18 H :    0.155148
  19 H :    0.155003
  20 H :    0.155025
  21 H :    0.154128
  22 H :    0.157634
  23 H :    0.159631

  Mayer bond orders larger than 0.100000
B(  0-C ,  1-C ) :   0.8945 B(  0-C ,  8-H ) :   0.9752 B(  0-C ,  9-H ) :   0.9854
B(  0-C , 10-H ) :   0.9848 B(  1-C ,  2-C ) :   0.8980 B(  1-C , 11-H ) :   0.9772
B(  1-C , 12-H ) :   0.9627 B(  2-C ,  3-C ) :   0.8843 B(  2-C , 13-H ) :   1.0015
B(  2-C , 14-H ) :   0.9931 B(  3-C ,  4-C ) :   0.8770 B(  3-C ,  7-C ) :   0.9150
B(  3-C , 15-H ) :   0.9466 B(  4-C ,  5-C ) :   0.8820 B(  4-C , 16-H ) :   0.9520
B(  4-C , 17-H ) :   1.0145 B(  5-C ,  6-C ) :   0.9125 B(  5-C , 18-H ) :   0.9831
B(  5-C , 19-H ) :   0.9604 B(  6-C ,  7-C ) :   0.9249 B(  6-C , 20-H ) :   0.9588
B(  6-C , 21-H ) :   0.9881 B(  7-C , 22-H ) :   0.9769 B(  7-C , 23-H ) :   0.9988

Dispersion correction           -0.006846119
FINAL SINGLE POINT ENERGY      -314.382923938734

DIPOLE MOMENT
-------------

Method             : SCF
Type of density    : Electron Density
Multiplicity       :   1
Irrep              :   0
Energy             :  -314.3861798463433956 Eh
Relativity type    :
Basis              : AO
                                X                 Y                 Z
Electronic contribution:      3.111546911       0.333591226       0.586110322
Nuclear contribution   :     -3.099341607      -0.351051693      -0.545117189
                        -----------------------------------------
Total Dipole Moment    :      0.012205304      -0.017460467       0.040993132
                        -----------------------------------------
Magnitude (a.u.)       :      0.046198206
Magnitude (Debye)      :      0.117426509

Rotational constants in cm-1:             0.169820             0.032490             0.029214
Rotational constants in MHz :          5091.069500           974.013420           875.807695

                             ****ORCA TERMINATED NORMALLY****
TOTAL RUN TIME: 0 days 0 hours 0 minutes 24 seconds 910 msec
