                         Program Version 6.0.0  -   RELEASE  -
|  1> ! r2scan-3c def2/J RI DEFGRID2 scfconv6 printgap
|  2> %output
|  3>     printlevel normal
|  4> end
|  5> %cpcm
|  6>     smd true
|  7>     smdsolvent "water"
|  8> end
|  9> * xyz 0 1
| 10> C -3.5746325138 -0.3211824641 -0.2526208374
| 11> C -2.1799881956 -0.6011824076 0.2952393099
| 12> C -1.1738409815 0.4553212335 -0.157646853
| 13> C 0.2181797798 0.2458626763 0.4356205157
| 14> C 0.8983324176 -1.0486039744 -0.0277200811
| 15> C 2.3855718054 -0.7482123686 0.1221832383
| 16> C 2.5004159463 0.6796304999 -0.4082369975
| 17> C 1.2031848352 1.369766905 0.0419401488
| 18> H -4.2766464389 -1.0816059116 0.0806728143
| 19> H -3.9303806984 0.6486292499 0.08843941
| 20> H -3.5624010373 -0.3175107013 -1.3402906564
| 21> H -2.216040308 -0.618240077 1.3870144372
| 22> H -1.8511373163 -1.5857189552 -0.0417224979
| 23> H -1.106053262 0.4445307584 -1.2484226679
| 24> H -1.5389416231 1.4411697107 0.142236249
| 25> H 0.1259440729 0.2177812487 1.5262981973
| 26> H 0.5865562098 -1.9134943136 0.5555869546
| 27> H 0.6640123188 -1.2342070952 -1.0776188808
| 28> H 2.6651112836 -0.7812543182 1.1765304449
| 29> H 3.0152600277 -1.4488938407 -0.4243250881
| 30> H 3.3880072585 1.1890016139 -0.0358805513
| 31> H 2.5553273839 0.6588893387 -1.4974184122
| 32> H 1.3869895066 2.0282697199 0.890435437
| 33> H 0.7907647068 1.9784630768 -0.7625825837
| 34> *
| 35>
| 36>                          ****END OF INPUT****

CARTESIAN COORDINATES (ANGSTROEM)
---------------------------------
  C     -3.574633   -0.321182   -0.252621
  C     -2.179988   -0.601182    0.295239
  C     -1.173841    0.455321   -0.157647
  C      0.218180    0.245863    0.435621
  C      0.898332   -1.048604   -0.027720
  C      2.385572   -0.748212    0.122183
  C      2.500416    0.679630   -0.408237
  C      1.203185    1.369767    0.041940
  H     -4.276646   -1.081606    0.080673
  H     -3.930381    0.648629    0.088439
  H     -3.562401   -0.317511   -1.340291
  H     -2.216040   -0.618240    1.387014
  H     -1.851137   -1.585719   -0.041722
  H     -1.106053    0.444531   -1.248423
  H     -1.538942    1.441170    0.142236
  H      0.125944    0.217781    1.526298
  H      0.586556   -1.913494    0.555587
  H      0.664012   -1.234207   -1.077619
  H      2.665111   -0.781254    1.176530
  H      3.015260   -1.448894   -0.424325
  H      3.388007    1.189002   -0.035881
  H      2.555327    0.658889   -1.497418
  H      1.386990    2.028270    0.890435
  H      0.790765    1.978463   -0.762583

 Total Charge           Charge          ....    0
 Multiplicity           Mult            ....    1
 Number of Electrons    NEL             ....   64
 Basis Dimension        Dim             ....  232

ORBITAL ENERGIES
----------------

  NO   OCC          E(Eh)            E(eV)
   0   2.0000     -10.016796      -272.5709
   1   2.0000     -10.013381      -272.4779
   2   2.0000     -10.011512      -272.4271
   3   2.0000     -10.011081      -272.4154
   4   2.0000     -10.010539      -272.4006
   5   2.0000     -10.009312      -272.3672
   6   2.0000     -10.009034      -272.3597
   7   2.0000     -10.006552      -272.2921
   8   2.0000      -0.797979       -21.7141
   9   2.0000      -0.743252       -20.2249
  10   2.0000      -0.681412       -18.5422
  11   2.0000      -0.664548       -18.0833
  12   2.0000      -0.610585       -16.6149
  13   2.0000      -0.545792       -14.8517
  14   2.0000      -0.523996       -14.2586
  15   2.0000      -0.506891       -13.7932
  16   2.0000      -0.442168       -12.0320
  17   2.0000      -0.428030       -11.6473
  18   2.0000      -0.421191       -11.4612
  19   2.0000      -0.383044       -10.4231
  20   2.0000      -0.373932       -10.1752
  21   2.0000      -0.364932        -9.9303
  22   2.0000      -0.344847        -9.3838
  23   2.0000      -0.332267        -9.0414
  24   2.0000      -0.309022        -8.4089
  25   2.0000      -0.294875        -8.0240
  26   2.0000      -0.294212        -8.0059
  27   2.0000      -0.289073        -7.8661
  28   2.0000      -0.281646        -7.6640
  29   2.0000      -0.272421        -7.4130
  30   2.0000      -0.268331        -7.3017
  31   2.0000      -0.262625        -7.1464
  32   0.0000       0.093538         2.5453
  33   0.0000       0.100701         2.7402
  34   0.0000       0.111153         3.0246
  35   0.0000       0.120698         3.2844
  36   0.0000       0.130968         3.5638

MULLIKEN ATOMIC CHARGES
-----------------------
   0 C :   -0.519944
   1 C :   -0.243036
   2 C :   -0.388083
   3 C :    0.057510
   4 C :   -0.418936
   5 C :   -0.279214
   6 C :   -0.309972
   7 C :   -0.418831
   8 H :    0.154740
   9 H :    0.152744
  10 H :    0.153525
  11 H :    0.149416
  12 H :    0.150200
  13 H :    0.154689
  14 H :    0.151837
  15 H :    0.166169
  16 H :    0.164840
  17 H :    0.169310
  18 H :    0.154483
  19 H :    0.158590
  20 H :    0.155408
  21 H :    0.157399
  22 H :    0.162103
  23 H :    0.165054
Sum of atomic charges:    0.0000000

LOEWDIN ATOMIC CHARGES
----------------------
   0 C :   -0.434429
   1 C :   -0.316608
   2 C :   -0.304405
   3 C :   -0.226326
   4 C :   -0.305060
   5 C :   -0.307377
   6 C :   -0.308504
   7 C :   -0.304286
   8 H :    0.151368
   9 H :    0.151741
  10 H :    0.151843
  11 H :    0.153456
  12 H :    0.154471
  13 H :    0.157806
  14 H :    0.158028
  15 H :    0.161670
  16 H :    0.159624
  17 H :    0.160295
  18 H :    0.157275
  19 H :    0.156517
  20 H :    0.156507
  21 H :    0.156218
  22 H :    0.159418
  23 H :    0.160759

  Mayer bond orders larger than 0.100000
B(  0-C ,  1-C ) :   0.8854 B(  0-C ,  8-H ) :   0.9724 B(  0-C ,  9-H ) :   0.9833
B(  0-C , 10-H ) :   0.9827 B(  1-C ,  2-C ) :   0.8947 B(  1-C , 11-H ) :   0.9763
B(  1-C , 12-H ) :   0.9620 B(  2-C ,  3-C ) :   0.8865 B(  2-C , 13-H ) :   0.9973
B(  2-C , 14-H ) :   0.9915 B(  3-C ,  4-C ) :   0.8768 B(  3-C ,  7-C ) :   0.9133
B(  3-C , 15-H ) :   0.9477 B(  4-C ,  5-C ) :   0.8811 B(  4-C , 16-H ) :   0.9509
B(  4-C , 17-H ) :   1.0113 B(  5-C ,  6-C ) :   0.9087 B(  5-C , 18-H ) :   0.9825
B(  5-C , 19-H ) :   0.9588 B(  6-C ,  7-C ) :   0.9208 B(  6-C , 20-H ) :   0.9577
B(  6-C , 21-H ) :   0.9858 B(  7-C , 22-H ) :   0.9762 B(  7-C , 23-H ) :   0.9973

Dispersion correction           -0.006846119
FINAL SINGLE POINT ENERGY      -314.380147608065

DIPOLE MOMENT
-------------

Method             : SCF
Type of density    : Electron Density
Multiplicity       :   1
Irrep              :   0
Energy             :  -314.3834035156745585 Eh
Relativity type    :
Basis              : AO
                                X                 Y                 Z
Electronic contribution:      3.106053314       0.329291586       0.592734944
Nuclear contribution   :     -3.099341607      -0.351051693      -0.545117189
                        -----------------------------------------
Total Dipole Moment    :      0.006711707      -0.021760107       0.047617755
                        -----------------------------------------
Magnitude (a.u.)       :      0.052782572
Magnitude (Debye)      :      0.134162636

Rotational constants in cm-1:             0.169820             0.032490             0.029214
Rotational constants in MHz :          5091.069500           974.013420           875.807695

                             ****ORCA TERMINATED NORMALLY****
TOTAL RUN TIME: 0 days 0 hours 0 minutes 29 seconds 667 msec
