                         Program Version 6.0.0  -   RELEASE  -
|  1> ! r2scan-3c def2/J RI DEFGRID2 scfconv6 printgap
|  2> %output
|  3>     printlevel normal
|  4> end
|  5> * xyz 0 1
|  6> C 0.529915725 1.931934936 0.3426786393
|  7> C 1.8771289004 2.1912123762 0.41999042
|  8> C 2.8163611135 1.1800392933 0.1930743692
|  9> C 2.3524849405 -0.1138904529 -0.1178330275
| 10> C 0.9785495667 -0.3603441957 -0.1844855032
| 11> C 0.0589472901 0.6475830857 0.0420789391
| 12> C -1.3883650694 0.393801334 -0.0384907817
| 13> C -2.2361265968 1.2950254791 -0.6831081342
| 14> C -3.5979810802 1.0756115734 -0.7721285425
| 15> C -4.1228104286 -0.0668138329 -0.198699592
| 16> C -3.3326352395 -0.9896028373 0.458957551
| 17> C -1.975830187 -0.7378746265 0.5224614539
| 18> F -1.2083028525 -1.6368209038 1.1916972124
| 19> F -5.4591243067 -0.2967128535 -0.2778595774
| 20> C 3.3082311292 -1.1942210317 -0.3697667433
| 21> O 4.5268557348 -1.0518174283 -0.3079347811
| 22> O 2.7659711475 -2.3596231834 -0.6781383617
| 23> O 4.1128756177 1.495611085 0.2824428721
| 24> H -0.176027317 2.7234734767 0.5383046526
| 25> H 2.2460697648 3.1750038179 0.6600612389
| 26> H 0.6519830509 -1.3580247065 -0.4313484443
| 27> H -1.8097243353 2.1739753433 -1.1379498571
| 28> H -4.2477645955 1.7709613442 -1.2766029606
| 29> H -3.754010734 -1.8719962344 0.9104261552
| 30> H 3.440739079 -3.0485917508 -0.8334638814
| 31> H 4.6643757523 0.7003642827 0.1058430968
| 32> *
| 33>
| 34>                          ****END OF INPUT****

CARTESIAN COORDINATES (ANGSTROEM)
---------------------------------
  C      0.529916    1.931935    0.342679
  C      1.877129    2.191212    0.419990
  C      2.816361    1.180039    0.193074
  C      2.352485   -0.113890   -0.117833
  C      0.978550   -0.360344   -0.184486
  C      0.058947    0.647583    0.042079
  C     -1.388365    0.393801   -0.038491
  C     -2.236127    1.295025   -0.683108
  C     -3.597981    1.075612   -0.772129
  C     -4.122810   -0.066814   -0.198700
  C     -3.332635   -0.989603    0.458958
  C     -1.975830   -0.737875    0.522461
  F     -1.208303   -1.636821    1.191697
  F     -5.459124   -0.296713   -0.277860
  C      3.308231   -1.194221   -0.369767
  O      4.526856   -1.051817   -0.307935
  O      2.765971   -2.359623   -0.678138
  O      4.112876    1.495611    0.282443
  H     -0.176027    2.723473    0.538305
  H      2.246070    3.175004    0.660061
  H      0.651983   -1.358025   -0.431348
  H     -1.809724    2.173975   -1.137950
  H     -4.247765    1.770961   -1.276603
  H     -3.754011   -1.871996    0.910426
  H      3.440739   -3.048592   -0.833464
  H      4.664376    0.700364    0.105843

 Total Charge           Charge          ....    0
 Multiplicity           Mult            ....    1
 Number of Electrons    NEL             ....  128
 Basis Dimension        Dim             ....  407

ORBITAL ENERGIES
----------------

  NO   OCC          E(Eh)            E(eV)
   0   2.0000     -24.510192      -666.9562
   1   2.0000     -24.507350      -666.8789
   2   2.0000     -19.020643      -517.5780
   3   2.0000     -18.987508      -516.6763
   4   2.0000     -18.957414      -515.8575
   5   2.0000     -10.183629      -277.1106
   6   2.0000     -10.139277      -275.9038
   7   2.0000     -10.137089      -275.8442
   8   2.0000     -10.121201      -275.4119
   9   2.0000     -10.066613      -273.9265
  10   2.0000     -10.064349      -273.8649
  11   2.0000     -10.062444      -273.8130
  12   2.0000     -10.060027      -273.7472
  13   2.0000     -10.059120      -273.7226
  14   2.0000     -10.059086      -273.7217
  15   2.0000     -10.057424      -273.6764
  16   2.0000     -10.054670      -273.6015
  17   2.0000     -10.047435      -273.4046
  18   2.0000      -1.195787       -32.5390
  19   2.0000      -1.192356       -32.4456
  20   2.0000      -1.097219       -29.8568
  21   2.0000      -1.040324       -28.3086
  22   2.0000      -0.995765       -27.0961
  23   2.0000      -0.863093       -23.4860
  24   2.0000      -0.841184       -22.8898
  25   2.0000      -0.770900       -20.9773
  26   2.0000      -0.753219       -20.4961
  27   2.0000      -0.743392       -20.2287
  28   2.0000      -0.707726       -19.2582
  29   2.0000      -0.655472       -17.8363
  30   2.0000      -0.618813       -16.8387
  31   2.0000      -0.614855       -16.7311
  32   2.0000      -0.602475       -16.3942
  33   2.0000      -0.576402       -15.6847
  34   2.0000      -0.538517       -14.6538
  35   2.0000      -0.527421       -14.3518
  36   2.0000      -0.509027       -13.8513
  37   2.0000      -0.496636       -13.5141
  38   2.0000      -0.476495       -12.9661
  39   2.0000      -0.475173       -12.9301
  40   2.0000      -0.459891       -12.5143
  41   2.0000      -0.459113       -12.4931
  42   2.0000      -0.444774       -12.1029
  43   2.0000      -0.444534       -12.0964
  44   2.0000      -0.430535       -11.7155
  45   2.0000      -0.429867       -11.6973
  46   2.0000      -0.418803       -11.3962
  47   2.0000      -0.410353       -11.1663
  48   2.0000      -0.399730       -10.8772
  49   2.0000      -0.391470       -10.6525
  50   2.0000      -0.379446       -10.3252
  51   2.0000      -0.374539       -10.1917
  52   2.0000      -0.359455        -9.7813
  53   2.0000      -0.347467        -9.4551
  54   2.0000      -0.347236        -9.4488
  55   2.0000      -0.342608        -9.3228
  56   2.0000      -0.325523        -8.8579
  57   2.0000      -0.323442        -8.8013
  58   2.0000      -0.311978        -8.4893
  59   2.0000      -0.264687        -7.2025
  60   2.0000      -0.261123        -7.1055
  61   2.0000      -0.257477        -7.0063
  62   2.0000      -0.249145        -6.7796
  63   2.0000      -0.210110        -5.7174
  64   0.0000      -0.087450        -2.3796
  65   0.0000      -0.061167        -1.6644
  66   0.0000      -0.050087        -1.3629
  67   0.0000      -0.018782        -0.5111
  68   0.0000       0.015402         0.4191

MULLIKEN ATOMIC CHARGES
-----------------------
   0 C :   -0.156534
   1 C :   -0.332776
   2 C :    0.294093
   3 C :   -0.043723
   4 C :   -0.206778
   5 C :    0.252734
   6 C :   -0.085572
   7 C :   -0.132357
   8 C :   -0.298471
   9 C :    0.414612
  10 C :   -0.398186
  11 C :    0.364451
  12 F :   -0.232104
  13 F :   -0.235493
  14 C :    0.284714
  15 O :   -0.464696
  16 O :   -0.342871
  17 O :   -0.382901
  18 H :    0.155218
  19 H :    0.160406
  20 H :    0.184122
  21 H :    0.157778
  22 H :    0.164062
  23 H :    0.178848
  24 H :    0.339738
  25 H :    0.361684
Sum of atomic charges:    0.0000000

LOEWDIN ATOMIC CHARGES
----------------------
   0 C :   -0.110521
   1 C :   -0.130294
   2 C :    0.232909
   3 C :   -0.043411
   4 C :   -0.069685
   5 C :   -0.083009
   6 C :   -0.072278
   7 C :   -0.123154
   8 C :   -0.161415
   9 C :    0.224656
  10 C :   -0.139837
  11 C :    0.241124
  12 F :   -0.280482
  13 F :   -0.283651
  14 C :    0.386810
  15 O :   -0.467567
  16 O :   -0.395794
  17 O :   -0.461096
  18 H :    0.177237
  19 H :    0.184711
  20 H :    0.199830
  21 H :    0.179216
  22 H :    0.184077
  23 H :    0.196530
  24 H :    0.305172
  25 H :    0.309920

  Mayer bond orders larger than 0.100000
B(  0-C ,  1-C ) :   1.4274 B(  0-C ,  5-C ) :   1.3265 B(  0-C , 18-H ) :   0.9301
B(  1-C ,  2-C ) :   1.3187 B(  1-C , 19-H ) :   0.9528 B(  2-C ,  3-C ) :   1.3322
B(  2-C , 17-O ) :   1.0931 B(  3-C ,  4-C ) :   1.3170 B(  3-C , 14-C ) :   1.1207
B(  4-C ,  5-C ) :   1.3412 B(  4-C , 20-H ) :   0.9444 B(  5-C ,  6-C ) :   0.7464
B(  6-C ,  7-C ) :   1.3662 B(  6-C , 11-C ) :   1.4490 B(  7-C ,  8-C ) :   1.3866
B(  7-C , 21-H ) :   0.9369 B(  8-C ,  9-C ) :   1.4236 B(  8-C , 22-H ) :   0.9297
B(  9-C , 10-C ) :   1.3942 B(  9-C , 13-F ) :   0.8657 B( 10-C , 11-C ) :   1.3571
B( 10-C , 23-H ) :   0.9201 B( 11-C , 12-F ) :   0.8930 B( 14-C , 15-O ) :   1.8360
B( 14-C , 16-O ) :   1.1020 B( 16-O , 24-H ) :   0.8546 B( 17-O , 25-H ) :   0.7726

Dispersion correction           -0.011428886
FINAL SINGLE POINT ENERGY      -925.457350461444

DIPOLE MOMENT
-------------

Method             : SCF
Type of density    : Electron Density
Multiplicity       :   1
Irrep              :   0
Energy             :  -925.4569408853624282 Eh
Relativity type    :
Basis              : AO
                                X                 Y                 Z
Electronic contribution:     -7.555159149      -5.871224341       1.875663378
Nuclear contribution   :      7.299169765       5.764583546      -2.231277527
                        -----------------------------------------
Total Dipole Moment    :     -0.255989384      -0.106640795      -0.355614149
                        -----------------------------------------
Magnitude (a.u.)       :      0.450959252
Magnitude (Debye)      :      1.146247324

Rotational constants in cm-1:             0.033540             0.006929             0.006027
Rotational constants in MHz :          1005.502472           207.736986           180.698387

                             ****ORCA TERMINATED NORMALLY****
TOTAL RUN TIME: 0 days 0 hours 1 minutes 17 seconds 842 msec
