                         Program Version 6.0.0  -   RELEASE  -
|  1> ! r2scan-3c def2/J RI DEFGRID2 scfconv6 printgap
|  2> %output
|  3>     printlevel normal
|  4> end
|  5> %cpcm
|  6>     smd true
|  7>     smdsolvent "water"
|  8> end
|  9> * xyz 0 1
| 10> C 0.529915725 1.931934936 0.3426786393
| 11> C 1.8771289004 2.1912123762 0.41999042
| 12> C 2.8163611135 1.1800392933 0.1930743692
| 13> C 2.3524849405 -0.1138904529 -0.1178330275
| 14> C 0.9785495667 -0.3603441957 -0.1844855032
| 15> C 0.0589472901 0.6475830857 0.0420789391
| 16> C -1.3883650694 0.393801334 -0.0384907817
| 17> C -2.2361265968 1.2950254791 -0.6831081342
| 18> C -3.5979810802 1.0756115734 -0.7721285425
| 19> C -4.1228104286 -0.0668138329 -0.198699592
| 20> C -3.3326352395 -0.9896028373 0.458957551
| 21> C -1.975830187 -0.7378746265 0.5224614539
| 22> F -1.2083028525 -1.6368209038 1.1916972124
| 23> F -5.4591243067 -0.2967128535 -0.2778595774
| 24> C 3.3082311292 -1.1942210317 -0.3697667433
| 25> O 4.5268557348 -1.0518174283 -0.3079347811
| 26> O 2.7659711475 -2.3596231834 -0.6781383617
| 27> O 4.1128756177 1.495611085 0.2824428721
| 28> H -0.176027317 2.7234734767 0.5383046526
| 29> H 2.2460697648 3.1750038179 0.6600612389
| 30> H 0.6519830509 -1.3580247065 -0.4313484443
| 31> H -1.8097243353 2.1739753433 -1.1379498571
| 32> H -4.2477645955 1.7709613442 -1.2766029606
| 33> H -3.754010734 -1.8719962344 0.9104261552
| 34> H 3.440739079 -3.0485917508 -0.8334638814
| 35> H 4.6643757523 0.7003642827 0.1058430968
| 36> *
| 37>
| 38>                          ****END OF INPUT****

CARTESIAN COORDINATES (ANGSTROEM)
---------------------------------
  C      0.529916    1.931935    0.342679
  C      1.877129    2.191212    0.419990
  C      2.816361    1.180039    0.193074
  C      2.352485   -0.113890   -0.117833
  C      0.978550   -0.360344   -0.184486
  C      0.058947    0.647583    0.042079
  C     -1.388365    0.393801   -0.038491
  C     -2.236127    1.295025   -0.683108
  C     -3.597981    1.075612   -0.772129
  C     -4.122810   -0.066814   -0.198700
  C     -3.332635   -0.989603    0.458958
  C     -1.975830   -0.737875    0.522461
  F     -1.208303   -1.636821    1.191697
  F     -5.459124   -0.296713   -0.277860
  C      3.308231   -1.194221   -0.369767
  O      4.526856   -1.051817   -0.307935
  O      2.765971   -2.359623   -0.678138
  O      4.112876    1.495611    0.282443
  H     -0.176027    2.723473    0.538305
  H      2.246070    3.175004    0.660061
  H      0.651983   -1.358025   -0.431348
  H     -1.809724    2.173975   -1.137950
  H     -4.247765    1.770961   -1.276603
  H     -3.754011   -1.871996    0.910426
  H      3.440739   -3.048592   -0.833464
  H      4.664376    0.700364    0.105843

 Total Charge           Charge          ....    0
 Multiplicity           Mult            ....    1
 Number of Electrons    NEL             ....  128
 Basis Dimension        Dim             ....  407

ORBITAL ENERGIES
----------------

  NO   OCC          E(Eh)            E(eV)
   0   2.0000     -24.508433      -666.9084
   1   2.0000     -24.506456      -666.8546
   2   2.0000     -19.006896      -517.2039
   3   2.0000     -18.988665      -516.7078
   4   2.0000     -18.955722      -515.8114
   5   2.0000     -10.180644      -277.0294
   6   2.0000     -10.133415      -275.7442
   7   2.0000     -10.130766      -275.6722
   8   2.0000     -10.118094      -275.3273
   9   2.0000     -10.060353      -273.7561
  10   2.0000     -10.059979      -273.7459
  11   2.0000     -10.054985      -273.6101
  12   2.0000     -10.052041      -273.5299
  13   2.0000     -10.051898      -273.5260
  14   2.0000     -10.051152      -273.5058
  15   2.0000     -10.050678      -273.4929
  16   2.0000     -10.044853      -273.3344
  17   2.0000     -10.041025      -273.2302
  18   2.0000      -1.194531       -32.5048
  19   2.0000      -1.191983       -32.4355
  20   2.0000      -1.087580       -29.5946
  21   2.0000      -1.040762       -28.3206
  22   2.0000      -0.991670       -26.9847
  23   2.0000      -0.856789       -23.3144
  24   2.0000      -0.835824       -22.7439
  25   2.0000      -0.765142       -20.8206
  26   2.0000      -0.747270       -20.3343
  27   2.0000      -0.735090       -20.0028
  28   2.0000      -0.702798       -19.1241
  29   2.0000      -0.646430       -17.5903
  30   2.0000      -0.611041       -16.6273
  31   2.0000      -0.609229       -16.5780
  32   2.0000      -0.595211       -16.1965
  33   2.0000      -0.570660       -15.5284
  34   2.0000      -0.534611       -14.5475
  35   2.0000      -0.520720       -14.1695
  36   2.0000      -0.503439       -13.6993
  37   2.0000      -0.491433       -13.3726
  38   2.0000      -0.474806       -12.9201
  39   2.0000      -0.469001       -12.7622
  40   2.0000      -0.455614       -12.3979
  41   2.0000      -0.452283       -12.3073
  42   2.0000      -0.442413       -12.0387
  43   2.0000      -0.439078       -11.9479
  44   2.0000      -0.429472       -11.6865
  45   2.0000      -0.418357       -11.3841
  46   2.0000      -0.413062       -11.2400
  47   2.0000      -0.404188       -10.9985
  48   2.0000      -0.394359       -10.7311
  49   2.0000      -0.388664       -10.5761
  50   2.0000      -0.372414       -10.1339
  51   2.0000      -0.371241       -10.1020
  52   2.0000      -0.355553        -9.6751
  53   2.0000      -0.344314        -9.3693
  54   2.0000      -0.341425        -9.2907
  55   2.0000      -0.336305        -9.1513
  56   2.0000      -0.322725        -8.7818
  57   2.0000      -0.318809        -8.6752
  58   2.0000      -0.306861        -8.3501
  59   2.0000      -0.263815        -7.1788
  60   2.0000      -0.257089        -6.9957
  61   2.0000      -0.252013        -6.8576
  62   2.0000      -0.243996        -6.6395
  63   2.0000      -0.207306        -5.6411
  64   0.0000      -0.083475        -2.2715
  65   0.0000      -0.055790        -1.5181
  66   0.0000      -0.043050        -1.1715
  67   0.0000      -0.014268        -0.3883
  68   0.0000       0.020386         0.5547

MULLIKEN ATOMIC CHARGES
-----------------------
   0 C :   -0.155158
   1 C :   -0.372695
   2 C :    0.295831
   3 C :   -0.024303
   4 C :   -0.224568
   5 C :    0.207993
   6 C :   -0.095453
   7 C :   -0.146292
   8 C :   -0.326022
   9 C :    0.400029
  10 C :   -0.398761
  11 C :    0.352687
  12 F :   -0.240586
  13 F :   -0.244999
  14 C :    0.298927
  15 O :   -0.515434
  16 O :   -0.359418
  17 O :   -0.423516
  18 H :    0.191492
  19 H :    0.189131
  20 H :    0.205144
  21 H :    0.194491
  22 H :    0.199222
  23 H :    0.214126
  24 H :    0.387664
  25 H :    0.390468
Sum of atomic charges:   -0.0000000

LOEWDIN ATOMIC CHARGES
----------------------
   0 C :   -0.104399
   1 C :   -0.136309
   2 C :    0.224706
   3 C :   -0.044798
   4 C :   -0.076340
   5 C :   -0.087722
   6 C :   -0.075491
   7 C :   -0.119279
   8 C :   -0.161338
   9 C :    0.216129
  10 C :   -0.139333
  11 C :    0.236125
  12 F :   -0.289809
  13 F :   -0.294789
  14 C :    0.392477
  15 O :   -0.499731
  16 O :   -0.385998
  17 O :   -0.483165
  18 H :    0.191187
  19 H :    0.194160
  20 H :    0.205603
  21 H :    0.192900
  22 H :    0.196081
  23 H :    0.208609
  24 H :    0.325300
  25 H :    0.315221

  Mayer bond orders larger than 0.100000
B(  0-C ,  1-C ) :   1.4301 B(  0-C ,  5-C ) :   1.3236 B(  0-C , 18-H ) :   0.9288
B(  1-C ,  2-C ) :   1.2748 B(  1-C , 19-H ) :   0.9645 B(  2-C ,  3-C ) :   1.3209
B(  2-C , 17-O ) :   1.0799 B(  3-C ,  4-C ) :   1.2891 B(  3-C , 14-C ) :   1.1196
B(  4-C ,  5-C ) :   1.3296 B(  4-C , 20-H ) :   0.9487 B(  5-C ,  6-C ) :   0.7426
B(  6-C ,  7-C ) :   1.3594 B(  6-C , 11-C ) :   1.4259 B(  7-C ,  8-C ) :   1.3944
B(  7-C , 21-H ) :   0.9354 B(  8-C ,  9-C ) :   1.3887 B(  8-C , 22-H ) :   0.9332
B(  9-C , 10-C ) :   1.3840 B(  9-C , 13-F ) :   0.8627 B( 10-C , 11-C ) :   1.3586
B( 10-C , 23-H ) :   0.9123 B( 11-C , 12-F ) :   0.8902 B( 14-C , 15-O ) :   1.8009
B( 14-C , 16-O ) :   1.1280 B( 16-O , 24-H ) :   0.8294 B( 17-O , 25-H ) :   0.7658

Dispersion correction           -0.011428886
FINAL SINGLE POINT ENERGY      -925.467777682267

DIPOLE MOMENT
-------------

Method             : SCF
Type of density    : Electron Density
Multiplicity       :   1
Irrep              :   0
Energy             :  -925.4673681061848356 Eh
Relativity type    :
Basis              : AO
                                X                 Y                 Z
Electronic contribution:     -7.812995142      -5.841244340       1.720554245
Nuclear contribution   :      7.299169765       5.764583546      -2.231277527
                        -----------------------------------------
Total Dipole Moment    :     -0.513825377      -0.076660794      -0.510723281
                        -----------------------------------------
Magnitude (a.u.)       :      0.728513326
Magnitude (Debye)      :      1.851733714

Rotational constants in cm-1:             0.033540             0.006929             0.006027
Rotational constants in MHz :          1005.502472           207.736986           180.698387

                             ****ORCA TERMINATED NORMALLY****
TOTAL RUN TIME: 0 days 0 hours 1 minutes 49 seconds 309 msec
