                         Program Version 6.0.0  -   RELEASE  -
|  1> ! r2scan-3c def2/J RI DEFGRID2 scfconv6 printgap
|  2> %output
|  3>     printlevel normal
|  4> end
|  5> * xyz 0 1
|  6> C -3.2429448963 -0.006441644 -0.9029071854
|  7> C -2.747031365 1.2649220453 -0.6706745256
|  8> C -1.5898416597 1.4341063099 0.0703569976
|  9> C -0.9230892014 0.3343224393 0.5915094632
| 10> C -1.4255283961 -0.9390209565 0.3534528678
| 11> C -2.5794180961 -1.1089169658 -0.3900970747
| 12> C 0.3596262201 0.5051942007 1.3709792318
| 13> N 1.4879557048 0.059435111 0.5861673162
| 14> C 2.1118494012 -1.1512350668 0.6601753559
| 15> C 3.0594770944 -1.1503394581 -0.3220441996
| 16> N 3.0248699816 0.029258004 -1.0004941839
| 17> C 2.0708584447 0.7232059585 -0.4341601972
| 18> H -4.1437631131 -0.1387440759 -1.4824490883
| 19> H -3.259930513 2.1269985997 -1.0692408491
| 20> H -1.2056716834 2.4280529033 0.2470561263
| 21> H -0.9091248053 -1.8009734263 0.7499076696
| 22> H -2.9616762149 -2.102374779 -0.5692549152
| 23> H 0.5061754528 1.5567884195 1.6286953576
| 24> H 0.3297043425 -0.0880842616 2.2877500607
| 25> H 1.8505776658 -1.8875724813 1.3911781105
| 26> H 3.763597374 -1.9140986489 -0.5845908247
| 27> H 1.7803648703 1.7100524289 -0.7331216611
| 28> *
| 29>
| 30>                          ****END OF INPUT****

CARTESIAN COORDINATES (ANGSTROEM)
---------------------------------
  C     -3.242945   -0.006442   -0.902907
  C     -2.747031    1.264922   -0.670675
  C     -1.589842    1.434106    0.070357
  C     -0.923089    0.334322    0.591509
  C     -1.425528   -0.939021    0.353453
  C     -2.579418   -1.108917   -0.390097
  C      0.359626    0.505194    1.370979
  N      1.487956    0.059435    0.586167
  C      2.111849   -1.151235    0.660175
  C      3.059477   -1.150339   -0.322044
  N      3.024870    0.029258   -1.000494
  C      2.070858    0.723206   -0.434160
  H     -4.143763   -0.138744   -1.482449
  H     -3.259931    2.126999   -1.069241
  H     -1.205672    2.428053    0.247056
  H     -0.909125   -1.800973    0.749908
  H     -2.961676   -2.102375   -0.569255
  H      0.506175    1.556788    1.628695
  H      0.329704   -0.088084    2.287750
  H      1.850578   -1.887572    1.391178
  H      3.763597   -1.914099   -0.584591
  H      1.780365    1.710052   -0.733122

 Total Charge           Charge          ....    0
 Multiplicity           Mult            ....    1
 Number of Electrons    NEL             ....   84
 Basis Dimension        Dim             ....  288

ORBITAL ENERGIES
----------------

  NO   OCC          E(Eh)            E(eV)
   0   2.0000     -14.222011      -387.0006
   1   2.0000     -14.131181      -384.5290
   2   2.0000     -10.096616      -274.7429
   3   2.0000     -10.071936      -274.0713
   4   2.0000     -10.058036      -273.6931
   5   2.0000     -10.052840      -273.5517
   6   2.0000     -10.047977      -273.4193
   7   2.0000     -10.046830      -273.3882
   8   2.0000     -10.046448      -273.3777
   9   2.0000     -10.046265      -273.3728
  10   2.0000     -10.045050      -273.3397
  11   2.0000     -10.035764      -273.0870
  12   2.0000      -0.992291       -27.0016
  13   2.0000      -0.864559       -23.5258
  14   2.0000      -0.836193       -22.7540
  15   2.0000      -0.753679       -20.5087
  16   2.0000      -0.729485       -19.8503
  17   2.0000      -0.711403       -19.3583
  18   2.0000      -0.676485       -18.4081
  19   2.0000      -0.592330       -16.1181
  20   2.0000      -0.578800       -15.7499
  21   2.0000      -0.565279       -15.3820
  22   2.0000      -0.543563       -14.7911
  23   2.0000      -0.512840       -13.9551
  24   2.0000      -0.494102       -13.4452
  25   2.0000      -0.452200       -12.3050
  26   2.0000      -0.445677       -12.1275
  27   2.0000      -0.421946       -11.4817
  28   2.0000      -0.414354       -11.2752
  29   2.0000      -0.403724       -10.9859
  30   2.0000      -0.401043       -10.9129
  31   2.0000      -0.380149       -10.3444
  32   2.0000      -0.375958       -10.2303
  33   2.0000      -0.367131        -9.9901
  34   2.0000      -0.353985        -9.6324
  35   2.0000      -0.328617        -8.9421
  36   2.0000      -0.322757        -8.7827
  37   2.0000      -0.255529        -6.9533
  38   2.0000      -0.250328        -6.8118
  39   2.0000      -0.241525        -6.5722
  40   2.0000      -0.231170        -6.2904
  41   2.0000      -0.205974        -5.6048
  42   0.0000      -0.048548        -1.3211
  43   0.0000      -0.044198        -1.2027
  44   0.0000      -0.000052        -0.0014
  45   0.0000       0.036265         0.9868
  46   0.0000       0.063306         1.7226

MULLIKEN ATOMIC CHARGES
-----------------------
   0 C :   -0.133802
   1 C :   -0.152587
   2 C :   -0.207146
   3 C :    0.233186
   4 C :   -0.177372
   5 C :   -0.168221
   6 C :   -0.459831
   7 N :    0.261426
   8 C :   -0.200376
   9 C :   -0.128783
  10 N :   -0.191644
  11 C :   -0.149574
  12 H :    0.148453
  13 H :    0.147309
  14 H :    0.145329
  15 H :    0.147091
  16 H :    0.147318
  17 H :    0.168747
  18 H :    0.176487
  19 H :    0.130804
  20 H :    0.132594
  21 H :    0.130592
Sum of atomic charges:    0.0000000

LOEWDIN ATOMIC CHARGES
----------------------
   0 C :   -0.160124
   1 C :   -0.155806
   2 C :   -0.157449
   3 C :   -0.065742
   4 C :   -0.143173
   5 C :   -0.153375
   6 C :    0.017064
   7 N :   -0.767889
   8 C :    0.059670
   9 C :    0.052342
  10 N :   -0.563024
  11 C :    0.225698
  12 H :    0.168719
  13 H :    0.168909
  14 H :    0.169583
  15 H :    0.172668
  16 H :    0.169130
  17 H :    0.195248
  18 H :    0.199807
  19 H :    0.185820
  20 H :    0.181488
  21 H :    0.200434

  Mayer bond orders larger than 0.100000
B(  0-C ,  1-C ) :   1.4355 B(  0-C ,  5-C ) :   1.4143 B(  0-C , 12-H ) :   0.9476
B(  1-C ,  2-C ) :   1.4269 B(  1-C , 13-H ) :   0.9462 B(  2-C ,  3-C ) :   1.4043
B(  2-C , 14-H ) :   0.9407 B(  3-C ,  4-C ) :   1.3976 B(  3-C ,  6-C ) :   0.8391
B(  4-C ,  5-C ) :   1.4503 B(  4-C , 15-H ) :   0.9370 B(  5-C , 16-H ) :   0.9496
B(  6-C ,  7-N ) :   0.8984 B(  6-C , 17-H ) :   0.9861 B(  6-C , 18-H ) :   0.9743
B(  7-N ,  8-C ) :   1.2128 B(  7-N , 11-C ) :   1.2492 B(  8-C ,  9-C ) :   1.4746
B(  8-C , 11-C ) :   0.1019 B(  8-C , 19-H ) :   0.9489 B(  9-C , 10-N ) :   1.3126
B(  9-C , 20-H ) :   0.9756 B( 10-N , 11-C ) :   1.6109 B( 11-C , 21-H ) :   0.9554

Dispersion correction           -0.008580292
FINAL SINGLE POINT ENERGY      -496.440129209081

DIPOLE MOMENT
-------------

Method             : SCF
Type of density    : Electron Density
Multiplicity       :   1
Irrep              :   0
Energy             :  -496.4444306799451851 Eh
Relativity type    :
Basis              : AO
                                X                 Y                 Z
Electronic contribution:      2.694611345       0.134302442      -0.805316634
Nuclear contribution   :     -3.962216640      -0.102670014       1.748286255
                        -----------------------------------------
Total Dipole Moment    :     -1.267605295       0.031632428       0.942969621
                        -----------------------------------------
Magnitude (a.u.)       :      1.580194766
Magnitude (Debye)      :      4.016535897

Rotational constants in cm-1:             0.076801             0.018776             0.017831
Rotational constants in MHz :          2302.445292           562.886257           534.555204

                             ****ORCA TERMINATED NORMALLY****
TOTAL RUN TIME: 0 days 0 hours 0 minutes 43 seconds 498 msec
