                         Program Version 6.0.0  -   RELEASE  -
|  1> ! r2scan-3c def2/J RI DEFGRID2 scfconv6 printgap
|  2> %output
|  3>     printlevel normal
|  4> end
|  5> * xyz 0 1
|  6> C 1.7403080412 -1.1911012056 -0.1003745024
|  7> C 1.2383142636 0.1286666872 0.4797084202
|  8> H 1.057791974 0.0011558626 1.561256953
|  9> C -0.0567142763 0.6177379457 -0.1771388332
| 10> C -1.2874861233 -0.2592871649 0.1085276826
| 11> C -2.4906370045 0.6080894349 0.4784220532
| 12> C -1.639929478 -1.1367074679 -1.0919654923
| 13> O 2.1917414739 1.1667953736 0.2957166565
| 14> H 1.011278435 -1.9762492816 0.0720839833
| 15> H 1.9085586829 -1.0851819117 -1.1695418771
| 16> H 2.6754811028 -1.4825284067 0.3736977717
| 17> H -0.22515377 1.6300150648 0.1953369409
| 18> H 0.1146248847 0.6972036029 -1.251638986
| 19> H -1.0644800805 -0.9085541088 0.9626313526
| 20> H -2.7305721532 1.287025526 -0.3367953441
| 21> H -2.2809524663 1.1970540197 1.3681092887
| 22> H -3.3611808468 -0.0133406782 0.6756500701
| 23> H -1.927516802 -0.5147790016 -1.9368820757
| 24> H -0.7963377364 -1.751996541 -1.3908464741
| 25> H -2.47419688 -1.7915395582 -0.8502804622
| 26> H 3.04715906 0.8787498072 0.6416845962
| 27> *
| 28>
| 29>                          ****END OF INPUT****

CARTESIAN COORDINATES (ANGSTROEM)
---------------------------------
  C      1.740308   -1.191101   -0.100375
  C      1.238314    0.128667    0.479708
  H      1.057792    0.001156    1.561257
  C     -0.056714    0.617738   -0.177139
  C     -1.287486   -0.259287    0.108528
  C     -2.490637    0.608089    0.478422
  C     -1.639929   -1.136707   -1.091965
  O      2.191741    1.166795    0.295717
  H      1.011278   -1.976249    0.072084
  H      1.908559   -1.085182   -1.169542
  H      2.675481   -1.482528    0.373698
  H     -0.225154    1.630015    0.195337
  H      0.114625    0.697204   -1.251639
  H     -1.064480   -0.908554    0.962631
  H     -2.730572    1.287026   -0.336795
  H     -2.280952    1.197054    1.368109
  H     -3.361181   -0.013341    0.675650
  H     -1.927517   -0.514779   -1.936882
  H     -0.796338   -1.751997   -1.390846
  H     -2.474197   -1.791540   -0.850280
  H      3.047159    0.878750    0.641685

 Total Charge           Charge          ....    0
 Multiplicity           Mult            ....    1
 Number of Electrons    NEL             ....   58
 Basis Dimension        Dim             ....  208

ORBITAL ENERGIES
----------------

  NO   OCC          E(Eh)            E(eV)
   0   2.0000     -18.943323      -515.4740
   1   2.0000     -10.080599      -274.3070
   2   2.0000     -10.035060      -273.0679
   3   2.0000     -10.020989      -272.6850
   4   2.0000     -10.018101      -272.6064
   5   2.0000     -10.015075      -272.5240
   6   2.0000     -10.014594      -272.5110
   7   2.0000      -0.980980       -26.6938
   8   2.0000      -0.778444       -21.1825
   9   2.0000      -0.719426       -19.5766
  10   2.0000      -0.654569       -17.8117
  11   2.0000      -0.647677       -17.6242
  12   2.0000      -0.563288       -15.3279
  13   2.0000      -0.526818       -14.3355
  14   2.0000      -0.468113       -12.7380
  15   2.0000      -0.432466       -11.7680
  16   2.0000      -0.427686       -11.6379
  17   2.0000      -0.397682       -10.8215
  18   2.0000      -0.394098       -10.7240
  19   2.0000      -0.375392       -10.2149
  20   2.0000      -0.354432        -9.6446
  21   2.0000      -0.351594        -9.5673
  22   2.0000      -0.337672        -9.1885
  23   2.0000      -0.319597        -8.6967
  24   2.0000      -0.304991        -8.2992
  25   2.0000      -0.293346        -7.9823
  26   2.0000      -0.290945        -7.9170
  27   2.0000      -0.277682        -7.5561
  28   2.0000      -0.233749        -6.3606
  29   0.0000       0.065423         1.7803
  30   0.0000       0.083270         2.2659
  31   0.0000       0.111803         3.0423
  32   0.0000       0.115142         3.1332
  33   0.0000       0.118999         3.2381

MULLIKEN ATOMIC CHARGES
-----------------------
   0 C :   -0.515969
   1 C :    0.015188
   2 H :    0.133887
   3 C :   -0.277286
   4 C :   -0.029614
   5 C :   -0.494492
   6 C :   -0.507494
   7 O :   -0.421609
   8 H :    0.156058
   9 H :    0.168635
  10 H :    0.134807
  11 H :    0.162578
  12 H :    0.153517
  13 H :    0.150240
  14 H :    0.151953
  15 H :    0.148603
  16 H :    0.142545
  17 H :    0.154526
  18 H :    0.147449
  19 H :    0.144383
  20 H :    0.282097
Sum of atomic charges:   -0.0000000

LOEWDIN ATOMIC CHARGES
----------------------
   0 C :   -0.402094
   1 C :    0.051127
   2 H :    0.158193
   3 C :   -0.261903
   4 C :   -0.246421
   5 C :   -0.415629
   6 C :   -0.417172
   7 O :   -0.619113
   8 H :    0.159300
   9 H :    0.161375
  10 H :    0.151180
  11 H :    0.173489
  12 H :    0.167514
  13 H :    0.154920
  14 H :    0.154858
  15 H :    0.152941
  16 H :    0.151564
  17 H :    0.153839
  18 H :    0.152754
  19 H :    0.151833
  20 H :    0.267446

  Mayer bond orders larger than 0.100000
B(  0-C ,  1-C ) :   0.8797 B(  0-C ,  8-H ) :   0.9667 B(  0-C ,  9-H ) :   0.9845
B(  0-C , 10-H ) :   0.9657 B(  1-C ,  2-H ) :   0.9889 B(  1-C ,  3-C ) :   0.9122
B(  1-C ,  7-O ) :   0.9045 B(  3-C ,  4-C ) :   0.8004 B(  3-C , 11-H ) :   0.9762
B(  3-C , 12-H ) :   0.9693 B(  4-C ,  5-C ) :   0.8981 B(  4-C ,  6-C ) :   0.9052
B(  4-C , 13-H ) :   0.9659 B(  5-C , 14-H ) :   0.9841 B(  5-C , 15-H ) :   0.9771
B(  5-C , 16-H ) :   0.9773 B(  6-C , 17-H ) :   0.9895 B(  6-C , 18-H ) :   0.9656
B(  6-C , 19-H ) :   0.9764 B(  7-O , 20-H ) :   0.9024

Dispersion correction           -0.005560414
FINAL SINGLE POINT ENERGY      -312.200352108041

DIPOLE MOMENT
-------------

Method             : SCF
Type of density    : Electron Density
Multiplicity       :   1
Irrep              :   0
Energy             :  -312.2058786929582652 Eh
Relativity type    :
Basis              : AO
                                X                 Y                 Z
Electronic contribution:      4.789669194       3.039281092       1.259072273
Nuclear contribution   :     -4.700973844      -3.578632461      -1.014020010
                        -----------------------------------------
Total Dipole Moment    :      0.088695351      -0.539351370       0.245052263
                        -----------------------------------------
Magnitude (a.u.)       :      0.599013670
Magnitude (Debye)      :      1.522571749

Rotational constants in cm-1:             0.141379             0.049009             0.040317
Rotational constants in MHz :          4238.427542          1469.266230          1208.669117

                             ****ORCA TERMINATED NORMALLY****
TOTAL RUN TIME: 0 days 0 hours 0 minutes 30 seconds 85 msec
