                         Program Version 6.0.0  -   RELEASE  -
|  1> ! r2scan-3c def2/J RI DEFGRID2 scfconv6 printgap
|  2> %output
|  3>     printlevel normal
|  4> end
|  5> %cpcm
|  6>     smd true
|  7>     smdsolvent "water"
|  8> end
|  9> * xyz 0 1
| 10> C 1.7403080412 -1.1911012056 -0.1003745024
| 11> C 1.2383142636 0.1286666872 0.4797084202
| 12> H 1.057791974 0.0011558626 1.561256953
| 13> C -0.0567142763 0.6177379457 -0.1771388332
| 14> C -1.2874861233 -0.2592871649 0.1085276826
| 15> C -2.4906370045 0.6080894349 0.4784220532
| 16> C -1.639929478 -1.1367074679 -1.0919654923
| 17> O 2.1917414739 1.1667953736 0.2957166565
| 18> H 1.011278435 -1.9762492816 0.0720839833
| 19> H 1.9085586829 -1.0851819117 -1.1695418771
| 20> H 2.6754811028 -1.4825284067 0.3736977717
| 21> H -0.22515377 1.6300150648 0.1953369409
| 22> H 0.1146248847 0.6972036029 -1.251638986
| 23> H -1.0644800805 -0.9085541088 0.9626313526
| 24> H -2.7305721532 1.287025526 -0.3367953441
| 25> H -2.2809524663 1.1970540197 1.3681092887
| 26> H -3.3611808468 -0.0133406782 0.6756500701
| 27> H -1.927516802 -0.5147790016 -1.9368820757
| 28> H -0.7963377364 -1.751996541 -1.3908464741
| 29> H -2.47419688 -1.7915395582 -0.8502804622
| 30> H 3.04715906 0.8787498072 0.6416845962
| 31> *
| 32>
| 33>                          ****END OF INPUT****

CARTESIAN COORDINATES (ANGSTROEM)
---------------------------------
  C      1.740308   -1.191101   -0.100375
  C      1.238314    0.128667    0.479708
  H      1.057792    0.001156    1.561257
  C     -0.056714    0.617738   -0.177139
  C     -1.287486   -0.259287    0.108528
  C     -2.490637    0.608089    0.478422
  C     -1.639929   -1.136707   -1.091965
  O      2.191741    1.166795    0.295717
  H      1.011278   -1.976249    0.072084
  H      1.908559   -1.085182   -1.169542
  H      2.675481   -1.482528    0.373698
  H     -0.225154    1.630015    0.195337
  H      0.114625    0.697204   -1.251639
  H     -1.064480   -0.908554    0.962631
  H     -2.730572    1.287026   -0.336795
  H     -2.280952    1.197054    1.368109
  H     -3.361181   -0.013341    0.675650
  H     -1.927517   -0.514779   -1.936882
  H     -0.796338   -1.751997   -1.390846
  H     -2.474197   -1.791540   -0.850280
  H      3.047159    0.878750    0.641685

 Total Charge           Charge          ....    0
 Multiplicity           Mult            ....    1
 Number of Electrons    NEL             ....   58
 Basis Dimension        Dim             ....  208

ORBITAL ENERGIES
----------------

  NO   OCC          E(Eh)            E(eV)
   0   2.0000     -18.947739      -515.5942
   1   2.0000     -10.075421      -274.1661
   2   2.0000     -10.027020      -272.8491
   3   2.0000     -10.013633      -272.4848
   4   2.0000     -10.009505      -272.3725
   5   2.0000     -10.006469      -272.2899
   6   2.0000     -10.005808      -272.2719
   7   2.0000      -0.984165       -26.7805
   8   2.0000      -0.771323       -20.9888
   9   2.0000      -0.712067       -19.3763
  10   2.0000      -0.647013       -17.6061
  11   2.0000      -0.639824       -17.4105
  12   2.0000      -0.558210       -15.1897
  13   2.0000      -0.520100       -14.1526
  14   2.0000      -0.464516       -12.6401
  15   2.0000      -0.425231       -11.5711
  16   2.0000      -0.422449       -11.4954
  17   2.0000      -0.390206       -10.6180
  18   2.0000      -0.387957       -10.5569
  19   2.0000      -0.367361        -9.9964
  20   2.0000      -0.346447        -9.4273
  21   2.0000      -0.343677        -9.3519
  22   2.0000      -0.332138        -9.0379
  23   2.0000      -0.313447        -8.5293
  24   2.0000      -0.302894        -8.2422
  25   2.0000      -0.286383        -7.7929
  26   2.0000      -0.284245        -7.7347
  27   2.0000      -0.272707        -7.4207
  28   2.0000      -0.238450        -6.4885
  29   0.0000       0.081801         2.2259
  30   0.0000       0.092237         2.5099
  31   0.0000       0.119966         3.2644
  32   0.0000       0.123869         3.3706
  33   0.0000       0.128034         3.4840

MULLIKEN ATOMIC CHARGES
-----------------------
   0 C :   -0.551192
   1 C :    0.032157
   2 H :    0.146184
   3 C :   -0.293584
   4 C :   -0.013191
   5 C :   -0.535791
   6 C :   -0.548136
   7 O :   -0.513257
   8 H :    0.171777
   9 H :    0.170171
  10 H :    0.160395
  11 H :    0.159512
  12 H :    0.160517
  13 H :    0.163586
  14 H :    0.161122
  15 H :    0.158208
  16 H :    0.154620
  17 H :    0.163747
  18 H :    0.158821
  19 H :    0.155517
  20 H :    0.338816
Sum of atomic charges:   -0.0000000

LOEWDIN ATOMIC CHARGES
----------------------
   0 C :   -0.404988
   1 C :    0.052687
   2 H :    0.165469
   3 C :   -0.268685
   4 C :   -0.241880
   5 C :   -0.423882
   6 C :   -0.424338
   7 O :   -0.657643
   8 H :    0.165650
   9 H :    0.161395
  10 H :    0.159561
  11 H :    0.170758
  12 H :    0.168023
  13 H :    0.159983
  14 H :    0.156486
  15 H :    0.154896
  16 H :    0.154457
  17 H :    0.155559
  18 H :    0.155892
  19 H :    0.154476
  20 H :    0.286124

  Mayer bond orders larger than 0.100000
B(  0-C ,  1-C ) :   0.8926 B(  0-C ,  8-H ) :   0.9619 B(  0-C ,  9-H ) :   0.9793
B(  0-C , 10-H ) :   0.9620 B(  1-C ,  2-H ) :   0.9828 B(  1-C ,  3-C ) :   0.9052
B(  1-C ,  7-O ) :   0.8843 B(  3-C ,  4-C ) :   0.8176 B(  3-C , 11-H ) :   0.9732
B(  3-C , 12-H ) :   0.9655 B(  4-C ,  5-C ) :   0.8861 B(  4-C ,  6-C ) :   0.8971
B(  4-C , 13-H ) :   0.9676 B(  5-C , 14-H ) :   0.9825 B(  5-C , 15-H ) :   0.9747
B(  5-C , 16-H ) :   0.9754 B(  6-C , 17-H ) :   0.9873 B(  6-C , 18-H ) :   0.9642
B(  6-C , 19-H ) :   0.9745 B(  7-O , 20-H ) :   0.8769

Dispersion correction           -0.005560414
FINAL SINGLE POINT ENERGY      -312.206430790233

DIPOLE MOMENT
-------------

Method             : SCF
Type of density    : Electron Density
Multiplicity       :   1
Irrep              :   0
Energy             :  -312.2119573751505186 Eh
Relativity type    :
Basis              : AO
                                X                 Y                 Z
Electronic contribution:      4.838093128       2.755821743       1.400124312
Nuclear contribution   :     -4.700973844      -3.578632461      -1.014020010
                        -----------------------------------------
Total Dipole Moment    :      0.137119285      -0.822810719       0.386104301
                        -----------------------------------------
Magnitude (a.u.)       :      0.919182087
Magnitude (Debye)      :      2.336375190

Rotational constants in cm-1:             0.141379             0.049009             0.040317
Rotational constants in MHz :          4238.427542          1469.266230          1208.669117

                             ****ORCA TERMINATED NORMALLY****
TOTAL RUN TIME: 0 days 0 hours 0 minutes 36 seconds 493 msec
