                         Program Version 6.0.0  -   RELEASE  -
|  1> ! r2scan-3c def2/J RI DEFGRID2 scfconv6 printgap
|  2> %output
|  3>     printlevel normal
|  4> end
|  5> * xyz 0 1
|  6> C -1.447404783 1.2226875752 -0.4970326666
|  7> C -1.2449512258 0.3420659327 0.7316300674
|  8> C -0.0916091352 -0.6667807878 0.6244282696
|  9> H -0.0826058594 -1.2353419312 1.5622112589
| 10> C -0.2912061734 -1.6550708989 -0.5239797756
| 11> C 1.2883604216 0.0125150652 0.5497004013
| 12> O 1.5821611081 0.671056984 -0.6627273225
| 13> H -0.5258773463 1.7386116966 -0.7520003409
| 14> H -1.7681913433 0.6339464696 -1.352290275
| 15> H -2.2146015284 1.9663730606 -0.2936442574
| 16> H -2.1664616502 -0.2112556415 0.9297936835
| 17> H -1.055034051 0.9828481401 1.5961521136
| 18> H -0.3055912173 -1.1447617303 -1.4830913054
| 19> H -1.238069329 -2.1753936122 -0.403984132
| 20> H 0.5071630299 -2.3942731537 -0.5293221801
| 21> H 2.0630410355 -0.7402553259 0.7551980219
| 22> H 1.3556052262 0.7854766304 1.3197560794
| 23> H 1.6085744531 0.0147602603 -1.3720431168
| 24> *
| 25>
| 26>                          ****END OF INPUT****

CARTESIAN COORDINATES (ANGSTROEM)
---------------------------------
  C     -1.447405    1.222688   -0.497033
  C     -1.244951    0.342066    0.731630
  C     -0.091609   -0.666781    0.624428
  H     -0.082606   -1.235342    1.562211
  C     -0.291206   -1.655071   -0.523980
  C      1.288360    0.012515    0.549700
  O      1.582161    0.671057   -0.662727
  H     -0.525877    1.738612   -0.752000
  H     -1.768191    0.633946   -1.352290
  H     -2.214602    1.966373   -0.293644
  H     -2.166462   -0.211256    0.929794
  H     -1.055034    0.982848    1.596152
  H     -0.305591   -1.144762   -1.483091
  H     -1.238069   -2.175394   -0.403984
  H      0.507163   -2.394273   -0.529322
  H      2.063041   -0.740255    0.755198
  H      1.355605    0.785477    1.319756
  H      1.608574    0.014760   -1.372043

 Total Charge           Charge          ....    0
 Multiplicity           Mult            ....    1
 Number of Electrons    NEL             ....   50
 Basis Dimension        Dim             ....  179

ORBITAL ENERGIES
----------------

  NO   OCC          E(Eh)            E(eV)
   0   2.0000     -18.947733      -515.5940
   1   2.0000     -10.072197      -274.0784
   2   2.0000     -10.034634      -273.0563
   3   2.0000     -10.023319      -272.7484
   4   2.0000     -10.022130      -272.7160
   5   2.0000     -10.005815      -272.2721
   6   2.0000      -0.985672       -26.8215
   7   2.0000      -0.772840       -21.0300
   8   2.0000      -0.693906       -18.8821
   9   2.0000      -0.651045       -17.7158
  10   2.0000      -0.593838       -16.1591
  11   2.0000      -0.523542       -14.2463
  12   2.0000      -0.466010       -12.6808
  13   2.0000      -0.439187       -11.9509
  14   2.0000      -0.425971       -11.5913
  15   2.0000      -0.408218       -11.1082
  16   2.0000      -0.369219       -10.0470
  17   2.0000      -0.355021        -9.6606
  18   2.0000      -0.346880        -9.4391
  19   2.0000      -0.341204        -9.2846
  20   2.0000      -0.311401        -8.4736
  21   2.0000      -0.304980        -8.2989
  22   2.0000      -0.291985        -7.9453
  23   2.0000      -0.279361        -7.6018
  24   2.0000      -0.228481        -6.2173
  25   0.0000       0.051188         1.3929
  26   0.0000       0.091907         2.5009
  27   0.0000       0.117290         3.1916
  28   0.0000       0.129848         3.5333
  29   0.0000       0.133023         3.6197

MULLIKEN ATOMIC CHARGES
-----------------------
   0 C :   -0.513887
   1 C :   -0.271636
   2 C :    0.041825
   3 H :    0.150682
   4 C :   -0.563949
   5 C :   -0.224717
   6 O :   -0.420771
   7 H :    0.190511
   8 H :    0.143832
   9 H :    0.141141
  10 H :    0.143410
  11 H :    0.138794
  12 H :    0.156401
  13 H :    0.155563
  14 H :    0.154057
  15 H :    0.134460
  16 H :    0.141937
  17 H :    0.302347
Sum of atomic charges:   -0.0000000

LOEWDIN ATOMIC CHARGES
----------------------
   0 C :   -0.426162
   1 C :   -0.307126
   2 C :   -0.236201
   3 H :    0.163085
   4 C :   -0.418768
   5 C :    0.002623
   6 O :   -0.623770
   7 H :    0.171347
   8 H :    0.148068
   9 H :    0.147971
  10 H :    0.152758
  11 H :    0.155035
  12 H :    0.152641
  13 H :    0.159456
  14 H :    0.155336
  15 H :    0.159001
  16 H :    0.179041
  17 H :    0.265665

  Mayer bond orders larger than 0.100000
B(  0-C ,  1-C ) :   0.8793 B(  0-C ,  7-H ) :   0.9715 B(  0-C ,  8-H ) :   0.9840
B(  0-C ,  9-H ) :   0.9686 B(  1-C ,  2-C ) :   0.8971 B(  1-C , 10-H ) :   0.9782
B(  1-C , 11-H ) :   0.9759 B(  2-C ,  3-H ) :   0.9573 B(  2-C ,  4-C ) :   0.8628
B(  2-C ,  5-C ) :   0.8994 B(  4-C , 12-H ) :   0.9846 B(  4-C , 13-H ) :   0.9686
B(  4-C , 14-H ) :   0.9732 B(  5-C ,  6-O ) :   0.9630 B(  5-C , 15-H ) :   0.9760
B(  5-C , 16-H ) :   0.9812 B(  6-O , 17-H ) :   0.8922

Dispersion correction           -0.004570735
FINAL SINGLE POINT ENERGY      -272.895871978027

DIPOLE MOMENT
-------------

Method             : SCF
Type of density    : Electron Density
Multiplicity       :   1
Irrep              :   0
Energy             :  -272.9014439594237160 Eh
Relativity type    :
Basis              : AO
                                X                 Y                 Z
Electronic contribution:      3.439116730       1.060083110       0.106376240
Nuclear contribution   :     -3.562226978      -1.659283048      -0.031661033
                        -----------------------------------------
Total Dipole Moment    :     -0.123110247      -0.599199938       0.074715207
                        -----------------------------------------
Magnitude (a.u.)       :      0.616262168
Magnitude (Debye)      :      1.566413947

Rotational constants in cm-1:             0.130682             0.097022             0.076990
Rotational constants in MHz :          3917.758638          2908.645057          2308.115545

                             ****ORCA TERMINATED NORMALLY****
TOTAL RUN TIME: 0 days 0 hours 0 minutes 24 seconds 129 msec
