                         Program Version 6.0.0  -   RELEASE  -
|  1> ! r2scan-3c def2/J RI DEFGRID2 scfconv6 printgap
|  2> %output
|  3>     printlevel normal
|  4> end
|  5> %cpcm
|  6>     smd true
|  7>     smdsolvent "water"
|  8> end
|  9> * xyz 0 1
| 10> C -1.447404783 1.2226875752 -0.4970326666
| 11> C -1.2449512258 0.3420659327 0.7316300674
| 12> C -0.0916091352 -0.6667807878 0.6244282696
| 13> H -0.0826058594 -1.2353419312 1.5622112589
| 14> C -0.2912061734 -1.6550708989 -0.5239797756
| 15> C 1.2883604216 0.0125150652 0.5497004013
| 16> O 1.5821611081 0.671056984 -0.6627273225
| 17> H -0.5258773463 1.7386116966 -0.7520003409
| 18> H -1.7681913433 0.6339464696 -1.352290275
| 19> H -2.2146015284 1.9663730606 -0.2936442574
| 20> H -2.1664616502 -0.2112556415 0.9297936835
| 21> H -1.055034051 0.9828481401 1.5961521136
| 22> H -0.3055912173 -1.1447617303 -1.4830913054
| 23> H -1.238069329 -2.1753936122 -0.403984132
| 24> H 0.5071630299 -2.3942731537 -0.5293221801
| 25> H 2.0630410355 -0.7402553259 0.7551980219
| 26> H 1.3556052262 0.7854766304 1.3197560794
| 27> H 1.6085744531 0.0147602603 -1.3720431168
| 28> *
| 29>
| 30>                          ****END OF INPUT****

CARTESIAN COORDINATES (ANGSTROEM)
---------------------------------
  C     -1.447405    1.222688   -0.497033
  C     -1.244951    0.342066    0.731630
  C     -0.091609   -0.666781    0.624428
  H     -0.082606   -1.235342    1.562211
  C     -0.291206   -1.655071   -0.523980
  C      1.288360    0.012515    0.549700
  O      1.582161    0.671057   -0.662727
  H     -0.525877    1.738612   -0.752000
  H     -1.768191    0.633946   -1.352290
  H     -2.214602    1.966373   -0.293644
  H     -2.166462   -0.211256    0.929794
  H     -1.055034    0.982848    1.596152
  H     -0.305591   -1.144762   -1.483091
  H     -1.238069   -2.175394   -0.403984
  H      0.507163   -2.394273   -0.529322
  H      2.063041   -0.740255    0.755198
  H      1.355605    0.785477    1.319756
  H      1.608574    0.014760   -1.372043

 Total Charge           Charge          ....    0
 Multiplicity           Mult            ....    1
 Number of Electrons    NEL             ....   50
 Basis Dimension        Dim             ....  179

ORBITAL ENERGIES
----------------

  NO   OCC          E(Eh)            E(eV)
   0   2.0000     -18.948172      -515.6060
   1   2.0000     -10.064485      -273.8686
   2   2.0000     -10.024394      -272.7776
   3   2.0000     -10.014488      -272.5081
   4   2.0000     -10.008509      -272.3454
   5   2.0000     -10.003244      -272.2021
   6   2.0000      -0.985159       -26.8075
   7   2.0000      -0.763732       -20.7822
   8   2.0000      -0.687188       -18.6993
   9   2.0000      -0.641206       -17.4481
  10   2.0000      -0.587799       -15.9948
  11   2.0000      -0.516459       -14.0536
  12   2.0000      -0.459657       -12.5079
  13   2.0000      -0.430604       -11.7173
  14   2.0000      -0.419606       -11.4181
  15   2.0000      -0.400115       -10.8877
  16   2.0000      -0.362977        -9.8771
  17   2.0000      -0.347822        -9.4647
  18   2.0000      -0.340123        -9.2552
  19   2.0000      -0.334012        -9.0889
  20   2.0000      -0.308611        -8.3977
  21   2.0000      -0.298547        -8.1239
  22   2.0000      -0.283325        -7.7097
  23   2.0000      -0.273018        -7.4292
  24   2.0000      -0.227872        -6.2007
  25   0.0000       0.067075         1.8252
  26   0.0000       0.104472         2.8428
  27   0.0000       0.124850         3.3974
  28   0.0000       0.137610         3.7446
  29   0.0000       0.140372         3.8197

MULLIKEN ATOMIC CHARGES
-----------------------
   0 C :   -0.545489
   1 C :   -0.289134
   2 C :    0.036746
   3 H :    0.162296
   4 C :   -0.582146
   5 C :   -0.223080
   6 O :   -0.499897
   7 H :    0.174053
   8 H :    0.160430
   9 H :    0.151674
  10 H :    0.153833
  11 H :    0.149383
  12 H :    0.170247
  13 H :    0.163986
  14 H :    0.164056
  15 H :    0.145026
  16 H :    0.153098
  17 H :    0.354917
Sum of atomic charges:   -0.0000000

LOEWDIN ATOMIC CHARGES
----------------------
   0 C :   -0.434292
   1 C :   -0.310221
   2 C :   -0.231779
   3 H :    0.168153
   4 C :   -0.422153
   5 C :    0.001206
   6 O :   -0.658079
   7 H :    0.163818
   8 H :    0.152665
   9 H :    0.149868
  10 H :    0.155990
  11 H :    0.157251
  12 H :    0.157609
  13 H :    0.160264
  14 H :    0.159777
  15 H :    0.165913
  16 H :    0.181417
  17 H :    0.282590

  Mayer bond orders larger than 0.100000
B(  0-C ,  1-C ) :   0.8718 B(  0-C ,  7-H ) :   0.9762 B(  0-C ,  8-H ) :   0.9791
B(  0-C ,  9-H ) :   0.9679 B(  1-C ,  2-C ) :   0.8943 B(  1-C , 10-H ) :   0.9772
B(  1-C , 11-H ) :   0.9777 B(  2-C ,  3-H ) :   0.9555 B(  2-C ,  4-C ) :   0.8784
B(  2-C ,  5-C ) :   0.9087 B(  4-C , 12-H ) :   0.9763 B(  4-C , 13-H ) :   0.9688
B(  4-C , 14-H ) :   0.9679 B(  5-C ,  6-O ) :   0.9502 B(  5-C , 15-H ) :   0.9665
B(  5-C , 16-H ) :   0.9786 B(  6-O , 17-H ) :   0.8657

Dispersion correction           -0.004570735
FINAL SINGLE POINT ENERGY      -272.900789876300

DIPOLE MOMENT
-------------

Method             : SCF
Type of density    : Electron Density
Multiplicity       :   1
Irrep              :   0
Energy             :  -272.9063618576969930 Eh
Relativity type    :
Basis              : AO
                                X                 Y                 Z
Electronic contribution:      3.392059031       0.786816196       0.136906620
Nuclear contribution   :     -3.562226978      -1.659283048      -0.031661033
                        -----------------------------------------
Total Dipole Moment    :     -0.170167947      -0.872466852       0.105245586
                        -----------------------------------------
Magnitude (a.u.)       :      0.895115731
Magnitude (Debye)      :      2.275203375

Rotational constants in cm-1:             0.130682             0.097022             0.076990
Rotational constants in MHz :          3917.758638          2908.645057          2308.115545

                             ****ORCA TERMINATED NORMALLY****
TOTAL RUN TIME: 0 days 0 hours 0 minutes 26 seconds 770 msec
