                         Program Version 6.0.0  -   RELEASE  -
|  1> ! r2scan-3c def2/J RI DEFGRID2 scfconv6 printgap
|  2> %output
|  3>     printlevel normal
|  4> end
|  5> * xyz 0 1
|  6> C -2.1683138467 0.6495366863 0.5713585472
|  7> C -1.3428005146 0.2970436804 -0.6618789775
|  8> C -0.5420573556 -0.9958592763 -0.5013941242
|  9> C 0.582005778 -0.88628582 0.5399294375
| 10> C 1.5613073425 0.0919643731 0.1618618008
| 11> N 2.3474571414 0.8670367306 -0.1459666559
| 12> H -2.8110863404 -0.1825320336 0.8502169558
| 13> H -1.531442285 0.8976219721 1.4168956464
| 14> H -2.7959782425 1.5127278666 0.3651011901
| 15> H -2.0155862819 0.1780882619 -1.5137398576
| 16> H -0.6604624324 1.1188625404 -0.8928210902
| 17> H -0.1043687484 -1.2649431217 -1.4650989506
| 18> H -1.2122161374 -1.8014328592 -0.1968026759
| 19> H 0.1761157816 -0.6070650444 1.5143883133
| 20> H 1.0920161012 -1.8475412189 0.6409620589
| 21> *
| 22>
| 23>                          ****END OF INPUT****

CARTESIAN COORDINATES (ANGSTROEM)
---------------------------------
  C     -2.168314    0.649537    0.571359
  C     -1.342801    0.297044   -0.661879
  C     -0.542057   -0.995859   -0.501394
  C      0.582006   -0.886286    0.539929
  C      1.561307    0.091964    0.161862
  N      2.347457    0.867037   -0.145967
  H     -2.811086   -0.182532    0.850217
  H     -1.531442    0.897622    1.416896
  H     -2.795978    1.512728    0.365101
  H     -2.015586    0.178088   -1.513740
  H     -0.660462    1.118863   -0.892821
  H     -0.104369   -1.264943   -1.465099
  H     -1.212216   -1.801433   -0.196803
  H      0.176116   -0.607065    1.514388
  H      1.092016   -1.847541    0.640962

 Total Charge           Charge          ....    0
 Multiplicity           Mult            ....    1
 Number of Electrons    NEL             ....   46
 Basis Dimension        Dim             ....  164

ORBITAL ENERGIES
----------------

  NO   OCC          E(Eh)            E(eV)
   0   2.0000     -14.149605      -385.0303
   1   2.0000     -10.082622      -274.3621
   2   2.0000     -10.064775      -273.8765
   3   2.0000     -10.055305      -273.6188
   4   2.0000     -10.040060      -273.2039
   5   2.0000     -10.029383      -272.9134
   6   2.0000      -0.875118       -23.8132
   7   2.0000      -0.797815       -21.7097
   8   2.0000      -0.730990       -19.8912
   9   2.0000      -0.648618       -17.6498
  10   2.0000      -0.567425       -15.4404
  11   2.0000      -0.487413       -13.2632
  12   2.0000      -0.464663       -12.6441
  13   2.0000      -0.441065       -12.0020
  14   2.0000      -0.397610       -10.8195
  15   2.0000      -0.387888       -10.5550
  16   2.0000      -0.376184       -10.2365
  17   2.0000      -0.328204        -8.9309
  18   2.0000      -0.323034        -8.7902
  19   2.0000      -0.321966        -8.7611
  20   2.0000      -0.316903        -8.6234
  21   2.0000      -0.297823        -8.1042
  22   2.0000      -0.297221        -8.0878
  23   0.0000       0.006271         0.1706
  24   0.0000       0.011558         0.3145
  25   0.0000       0.059768         1.6264
  26   0.0000       0.102706         2.7948
  27   0.0000       0.105486         2.8704

MULLIKEN ATOMIC CHARGES
-----------------------
   0 C :   -0.478686
   1 C :   -0.247444
   2 C :   -0.259608
   3 C :   -0.362036
   4 C :    0.148513
   5 N :   -0.237048
   6 H :    0.146579
   7 H :    0.147331
   8 H :    0.152665
   9 H :    0.145512
  10 H :    0.166259
  11 H :    0.156589
  12 H :    0.157554
  13 H :    0.189104
  14 H :    0.174718
Sum of atomic charges:    0.0000000

LOEWDIN ATOMIC CHARGES
----------------------
   0 C :   -0.422444
   1 C :   -0.311371
   2 C :   -0.284313
   3 C :   -0.260394
   4 C :    0.126402
   5 N :   -0.321015
   6 H :    0.150275
   7 H :    0.148293
   8 H :    0.155877
   9 H :    0.156562
  10 H :    0.164564
  11 H :    0.165649
  12 H :    0.159125
  13 H :    0.185783
  14 H :    0.187008

  Mayer bond orders larger than 0.100000
B(  0-C ,  1-C ) :   0.8891 B(  0-C ,  6-H ) :   0.9799 B(  0-C ,  7-H ) :   0.9794
B(  0-C ,  8-H ) :   0.9663 B(  1-C ,  2-C ) :   0.9128 B(  1-C ,  9-H ) :   0.9580
B(  1-C , 10-H ) :   0.9742 B(  2-C ,  3-C ) :   0.8652 B(  2-C , 11-H ) :   0.9673
B(  2-C , 12-H ) :   0.9803 B(  3-C ,  4-C ) :   0.9687 B(  3-C , 13-H ) :   0.9964
B(  3-C , 14-H ) :   0.9430 B(  4-C ,  5-N ) :   2.8909

Dispersion correction           -0.003636661
FINAL SINGLE POINT ENERGY      -250.612369688701

DIPOLE MOMENT
-------------

Method             : SCF
Type of density    : Electron Density
Multiplicity       :   1
Irrep              :   0
Energy             :  -250.6150034358400944 Eh
Relativity type    :
Basis              : AO
                                X                 Y                 Z
Electronic contribution:      8.005300573       0.867788235      -0.379510838
Nuclear contribution   :     -9.240275568      -1.868017574       0.673837489
                        -----------------------------------------
Total Dipole Moment    :     -1.234974996      -1.000229340       0.294326650
                        -----------------------------------------
Magnitude (a.u.)       :      1.616245696
Magnitude (Debye)      :      4.108170076

Rotational constants in cm-1:             0.214896             0.068838             0.062674
Rotational constants in MHz :          6442.429379          2063.725790          1878.910257

                             ****ORCA TERMINATED NORMALLY****
TOTAL RUN TIME: 0 days 0 hours 0 minutes 15 seconds 280 msec
