                         Program Version 6.0.0  -   RELEASE  -
|  1> ! r2scan-3c def2/J RI DEFGRID2 scfconv6 printgap
|  2> %output
|  3>     printlevel normal
|  4> end
|  5> %cpcm
|  6>     smd true
|  7>     smdsolvent "water"
|  8> end
|  9> * xyz 0 1
| 10> C -2.1683138467 0.6495366863 0.5713585472
| 11> C -1.3428005146 0.2970436804 -0.6618789775
| 12> C -0.5420573556 -0.9958592763 -0.5013941242
| 13> C 0.582005778 -0.88628582 0.5399294375
| 14> C 1.5613073425 0.0919643731 0.1618618008
| 15> N 2.3474571414 0.8670367306 -0.1459666559
| 16> H -2.8110863404 -0.1825320336 0.8502169558
| 17> H -1.531442285 0.8976219721 1.4168956464
| 18> H -2.7959782425 1.5127278666 0.3651011901
| 19> H -2.0155862819 0.1780882619 -1.5137398576
| 20> H -0.6604624324 1.1188625404 -0.8928210902
| 21> H -0.1043687484 -1.2649431217 -1.4650989506
| 22> H -1.2122161374 -1.8014328592 -0.1968026759
| 23> H 0.1761157816 -0.6070650444 1.5143883133
| 24> H 1.0920161012 -1.8475412189 0.6409620589
| 25> *
| 26>
| 27>                          ****END OF INPUT****

CARTESIAN COORDINATES (ANGSTROEM)
---------------------------------
  C     -2.168314    0.649537    0.571359
  C     -1.342801    0.297044   -0.661879
  C     -0.542057   -0.995859   -0.501394
  C      0.582006   -0.886286    0.539929
  C      1.561307    0.091964    0.161862
  N      2.347457    0.867037   -0.145967
  H     -2.811086   -0.182532    0.850217
  H     -1.531442    0.897622    1.416896
  H     -2.795978    1.512728    0.365101
  H     -2.015586    0.178088   -1.513740
  H     -0.660462    1.118863   -0.892821
  H     -0.104369   -1.264943   -1.465099
  H     -1.212216   -1.801433   -0.196803
  H      0.176116   -0.607065    1.514388
  H      1.092016   -1.847541    0.640962

 Total Charge           Charge          ....    0
 Multiplicity           Mult            ....    1
 Number of Electrons    NEL             ....   46
 Basis Dimension        Dim             ....  164

ORBITAL ENERGIES
----------------

  NO   OCC          E(Eh)            E(eV)
   0   2.0000     -14.154998      -385.1771
   1   2.0000     -10.074578      -274.1432
   2   2.0000     -10.062988      -273.8278
   3   2.0000     -10.034363      -273.0489
   4   2.0000     -10.021942      -272.7109
   5   2.0000     -10.009437      -272.3706
   6   2.0000      -0.882428       -24.0121
   7   2.0000      -0.780760       -21.2455
   8   2.0000      -0.713910       -19.4265
   9   2.0000      -0.630025       -17.1439
  10   2.0000      -0.549428       -14.9507
  11   2.0000      -0.470235       -12.7957
  12   2.0000      -0.445237       -12.1155
  13   2.0000      -0.423908       -11.5351
  14   2.0000      -0.380014       -10.3407
  15   2.0000      -0.371096       -10.0980
  16   2.0000      -0.359555        -9.7840
  17   2.0000      -0.338871        -9.2212
  18   2.0000      -0.315810        -8.5936
  19   2.0000      -0.314208        -8.5500
  20   2.0000      -0.300019        -8.1639
  21   2.0000      -0.290382        -7.9017
  22   2.0000      -0.289757        -7.8847
  23   0.0000       0.005411         0.1472
  24   0.0000       0.010273         0.2796
  25   0.0000       0.068149         1.8544
  26   0.0000       0.119031         3.2390
  27   0.0000       0.124932         3.3996

MULLIKEN ATOMIC CHARGES
-----------------------
   0 C :   -0.516503
   1 C :   -0.255207
   2 C :   -0.278980
   3 C :   -0.355211
   4 C :    0.192093
   5 N :   -0.353587
   6 H :    0.158674
   7 H :    0.161921
   8 H :    0.157897
   9 H :    0.156392
  10 H :    0.156682
  11 H :    0.167845
  12 H :    0.177965
  13 H :    0.222517
  14 H :    0.207500
Sum of atomic charges:   -0.0000000

LOEWDIN ATOMIC CHARGES
----------------------
   0 C :   -0.430402
   1 C :   -0.313118
   2 C :   -0.280621
   3 C :   -0.254559
   4 C :    0.155642
   5 N :   -0.398625
   6 H :    0.154441
   7 H :    0.152778
   8 H :    0.155041
   9 H :    0.159261
  10 H :    0.159449
  11 H :    0.168260
  12 H :    0.167959
  13 H :    0.201515
  14 H :    0.202980

  Mayer bond orders larger than 0.100000
B(  0-C ,  1-C ) :   0.8850 B(  0-C ,  6-H ) :   0.9763 B(  0-C ,  7-H ) :   0.9768
B(  0-C ,  8-H ) :   0.9664 B(  1-C ,  2-C ) :   0.9063 B(  1-C ,  9-H ) :   0.9590
B(  1-C , 10-H ) :   0.9786 B(  2-C ,  3-C ) :   0.8399 B(  2-C , 11-H ) :   0.9707
B(  2-C , 12-H ) :   0.9735 B(  3-C ,  4-C ) :   0.9749 B(  3-C , 13-H ) :   0.9815
B(  3-C , 14-H ) :   0.9287 B(  4-C ,  5-N ) :   2.8728

Dispersion correction           -0.003636661
FINAL SINGLE POINT ENERGY      -250.618219855057

DIPOLE MOMENT
-------------

Method             : SCF
Type of density    : Electron Density
Multiplicity       :   1
Irrep              :   0
Energy             :  -250.6208536021954387 Eh
Relativity type    :
Basis              : AO
                                X                 Y                 Z
Electronic contribution:      7.682159659       0.457629297      -0.214434053
Nuclear contribution   :     -9.240275568      -1.868017574       0.673837489
                        -----------------------------------------
Total Dipole Moment    :     -1.558115909      -1.410388278       0.459403436
                        -----------------------------------------
Magnitude (a.u.)       :      2.151272134
Magnitude (Debye)      :      5.468099209

Rotational constants in cm-1:             0.214896             0.068838             0.062674
Rotational constants in MHz :          6442.429379          2063.725790          1878.910257

                             ****ORCA TERMINATED NORMALLY****
TOTAL RUN TIME: 0 days 0 hours 0 minutes 21 seconds 921 msec
