                         Program Version 6.0.0  -   RELEASE  -
|  1> ! pbe def2-sv(p) def2/J RI DEFGRID1 loosescf d4 GCP(DFT/SV(P)) printgap
|  2> %output
|  3>     printlevel normal
|  4> end
|  5> * xyz 0 1
|  6> C 1.5120767011 0.1708075769 -1.1940735802
|  7> C 1.1173387452 -0.2172947162 0.2295578158
|  8> H 0.9777034465 -1.3010114772 0.2898755254
|  9> C -0.1359035029 0.500703975 0.7552888732
| 10> C -1.5048788374 0.1148969328 0.1685607934
| 11> C -1.791681454 0.7676850698 -1.1831295202
| 12> C -1.7012795102 -1.397280023 0.0855570764
| 13> O 2.1988954034 0.0261681557 1.1229848993
| 14> H 0.8499470964 -0.2923265137 -1.917378984
| 15> H 1.4783124399 1.2503154501 -1.3228587294
| 16> H 2.5249003752 -0.1762520974 -1.3886619688
| 17> H -0.164342861 0.2963802494 1.8296957264
| 18> H 0.0037218182 1.5781650804 0.6305885575
| 19> H -2.2471039585 0.5074131794 0.8750278602
| 20> H -2.8321322834 0.604614071 -1.4557107534
| 21> H -1.1703915954 0.3482366144 -1.9677453211
| 22> H -1.6163511029 1.8397614386 -1.1374361563
| 23> H -1.0665806718 -1.8299672338 -0.6836319357
| 24> H -1.4648670837 -1.8675913317 1.0370564524
| 25> H -2.7354615435 -1.6246239938 -0.1622712081
| 26> H 2.4011068695 0.9722389994 1.11141951
| 27> *
| 28>
| 29>                          ****END OF INPUT****

CARTESIAN COORDINATES (ANGSTROEM)
---------------------------------
  C      1.512077    0.170808   -1.194074
  C      1.117339   -0.217295    0.229558
  H      0.977703   -1.301011    0.289876
  C     -0.135904    0.500704    0.755289
  C     -1.504879    0.114897    0.168561
  C     -1.791681    0.767685   -1.183130
  C     -1.701280   -1.397280    0.085557
  O      2.198895    0.026168    1.122985
  H      0.849947   -0.292327   -1.917379
  H      1.478312    1.250315   -1.322859
  H      2.524900   -0.176252   -1.388662
  H     -0.164343    0.296380    1.829696
  H      0.003722    1.578165    0.630589
  H     -2.247104    0.507413    0.875028
  H     -2.832132    0.604614   -1.455711
  H     -1.170392    0.348237   -1.967745
  H     -1.616351    1.839761   -1.137436
  H     -1.066581   -1.829967   -0.683632
  H     -1.464867   -1.867591    1.037056
  H     -2.735462   -1.624624   -0.162271
  H      2.401107    0.972239    1.111420

 Total Charge           Charge          ....    0
 Multiplicity           Mult            ....    1
 Number of Electrons    NEL             ....   58
 Basis Dimension        Dim             ....  126

ORBITAL ENERGIES
----------------

  NO   OCC          E(Eh)            E(eV)
   0   2.0000     -18.733754      -509.7714
   1   2.0000      -9.933548      -270.3056
   2   2.0000      -9.896641      -269.3013
   3   2.0000      -9.879595      -268.8374
   4   2.0000      -9.874092      -268.6877
   5   2.0000      -9.874088      -268.6876
   6   2.0000      -9.872755      -268.6513
   7   2.0000      -0.911885       -24.8137
   8   2.0000      -0.731607       -19.9080
   9   2.0000      -0.670422       -18.2431
  10   2.0000      -0.615864       -16.7585
  11   2.0000      -0.611291       -16.6341
  12   2.0000      -0.544793       -14.8246
  13   2.0000      -0.494992       -13.4694
  14   2.0000      -0.435286       -11.8447
  15   2.0000      -0.418401       -11.3853
  16   2.0000      -0.397691       -10.8217
  17   2.0000      -0.393288       -10.7019
  18   2.0000      -0.374040       -10.1782
  19   2.0000      -0.364705        -9.9241
  20   2.0000      -0.346609        -9.4317
  21   2.0000      -0.328485        -8.9385
  22   2.0000      -0.322050        -8.7634
  23   2.0000      -0.316317        -8.6074
  24   2.0000      -0.297055        -8.0833
  25   2.0000      -0.285488        -7.7685
  26   2.0000      -0.275493        -7.4965
  27   2.0000      -0.258510        -7.0344
  28   2.0000      -0.208025        -5.6606
  29   0.0000       0.025933         0.7057
  30   0.0000       0.042388         1.1534
  31   0.0000       0.056223         1.5299
  32   0.0000       0.070285         1.9126
  33   0.0000       0.086736         2.3602

MULLIKEN ATOMIC CHARGES
-----------------------
   0 C :   -0.257171
   1 C :    0.011340
   2 H :    0.073681
   3 C :   -0.132826
   4 C :   -0.161663
   5 C :   -0.248375
   6 C :   -0.261278
   7 O :   -0.431067
   8 H :    0.111334
   9 H :    0.083779
  10 H :    0.107893
  11 H :    0.086743
  12 H :    0.059970
  13 H :    0.070696
  14 H :    0.097583
  15 H :    0.097565
  16 H :    0.094600
  17 H :    0.105834
  18 H :    0.104909
  19 H :    0.099184
  20 H :    0.287269
Sum of atomic charges:    0.0000000

LOEWDIN ATOMIC CHARGES
----------------------
   0 C :   -0.355009
   1 C :   -0.057050
   2 H :    0.113117
   3 C :   -0.234181
   4 C :   -0.156542
   5 C :   -0.332682
   6 C :   -0.331563
   7 O :   -0.331921
   8 H :    0.121639
   9 H :    0.114034
  10 H :    0.123652
  11 H :    0.120052
  12 H :    0.107522
  13 H :    0.117791
  14 H :    0.118075
  15 H :    0.114646
  16 H :    0.115775
  17 H :    0.116191
  18 H :    0.119603
  19 H :    0.119315
  20 H :    0.277538

  Mayer bond orders larger than 0.100000
B(  0-C ,  1-C ) :   1.1181 B(  0-C ,  8-H ) :   0.9257 B(  0-C ,  9-H ) :   0.9397
B(  0-C , 10-H ) :   0.9403 B(  1-C ,  2-H ) :   0.8939 B(  1-C ,  3-C ) :   1.0855
B(  1-C ,  7-O ) :   1.0227 B(  3-C ,  4-C ) :   1.0658 B(  3-C , 11-H ) :   0.9081
B(  3-C , 12-H ) :   0.9067 B(  4-C ,  5-C ) :   1.1180 B(  4-C ,  6-C ) :   1.1136
B(  4-C , 13-H ) :   0.8957 B(  5-C , 14-H ) :   0.9486 B(  5-C , 15-H ) :   0.9404
B(  5-C , 16-H ) :   0.9493 B(  6-C , 17-H ) :   0.9407 B(  6-C , 18-H ) :   0.9498
B(  6-C , 19-H ) :   0.9485 B(  7-O , 20-H ) :   0.8575

Dispersion correction           -0.016865890
FINAL SINGLE POINT ENERGY      -311.514811957244

DIPOLE MOMENT
-------------

Method             : SCF
Type of density    : Electron Density
Multiplicity       :   1
Irrep              :   0
Energy             :  -311.5940878723259857 Eh
Relativity type    :
Basis              : AO
                                X                 Y                 Z
Electronic contribution:      4.405143410       0.125896410       3.700620109
Nuclear contribution   :     -4.715918123       0.286858879      -3.981816555
                        -----------------------------------------
Total Dipole Moment    :     -0.310774714       0.412755289      -0.281196446
                        -----------------------------------------
Magnitude (a.u.)       :      0.588234046
Magnitude (Debye)      :      1.495172121

Rotational constants in cm-1:             0.130069             0.052513             0.047093
Rotational constants in MHz :          3899.365130          1574.311128          1411.800522

                             ****ORCA TERMINATED NORMALLY****
TOTAL RUN TIME: 0 days 0 hours 0 minutes 10 seconds 349 msec
