                         Program Version 6.0.0  -   RELEASE  -
|  1> ! pbe def2-sv(p) def2/J RI DEFGRID1 loosescf d4 GCP(DFT/SV(P)) printgap
|  2> %output
|  3>     printlevel normal
|  4> end
|  5> * xyz 0 1
|  6> C -2.6967894702 0.2930833669 -0.0459660063
|  7> C -2.3343196007 -1.011807344 0.242033598
|  8> C -0.9990053849 -1.3715361819 0.2674871491
|  9> C 0.0002031115 -0.4406338541 0.0030161688
| 10> C -0.3778071249 0.8647985296 -0.2863626382
| 11> C -1.712994237 1.2299776289 -0.3084889381
| 12> C 1.4411366344 -0.8784306682 0.0231264197
| 13> C 2.4281603391 0.1594077225 0.5814354893
| 14> O 3.085201935 0.9140101713 -0.416718756
| 15> H -3.7379554783 0.5778023301 -0.0639895917
| 16> H -3.0935631079 -1.7506517286 0.4512270059
| 17> H -0.7256516685 -2.3915005946 0.4963869564
| 18> H 0.3687241437 1.6170512761 -0.4910589687
| 19> H -1.9844983222 2.2508150118 -0.5331957489
| 20> H 1.5171802801 -1.7910018027 0.6152600924
| 21> H 1.7584608631 -1.1273390367 -0.9941158428
| 22> H 1.9179888881 0.8253362533 1.2900041222
| 23> H 3.2372210286 -0.3477208736 1.1115649913
| 24> H 2.4311245544 1.3938634142 -0.942866761
| 25> *
| 26>
| 27>                          ****END OF INPUT****

CARTESIAN COORDINATES (ANGSTROEM)
---------------------------------
  C     -2.696789    0.293083   -0.045966
  C     -2.334320   -1.011807    0.242034
  C     -0.999005   -1.371536    0.267487
  C      0.000203   -0.440634    0.003016
  C     -0.377807    0.864799   -0.286363
  C     -1.712994    1.229978   -0.308489
  C      1.441137   -0.878431    0.023126
  C      2.428160    0.159408    0.581435
  O      3.085202    0.914010   -0.416719
  H     -3.737955    0.577802   -0.063990
  H     -3.093563   -1.750652    0.451227
  H     -0.725652   -2.391501    0.496387
  H      0.368724    1.617051   -0.491059
  H     -1.984498    2.250815   -0.533196
  H      1.517180   -1.791002    0.615260
  H      1.758461   -1.127339   -0.994116
  H      1.917989    0.825336    1.290004
  H      3.237221   -0.347721    1.111565
  H      2.431125    1.393863   -0.942867

 Total Charge           Charge          ....    0
 Multiplicity           Mult            ....    1
 Number of Electrons    NEL             ....   66
 Basis Dimension        Dim             ....  146

ORBITAL ENERGIES
----------------

  NO   OCC          E(Eh)            E(eV)
   0   2.0000     -18.742478      -510.0087
   1   2.0000      -9.931843      -270.2592
   2   2.0000      -9.906583      -269.5718
   3   2.0000      -9.897243      -269.3177
   4   2.0000      -9.895996      -269.2837
   5   2.0000      -9.894687      -269.2481
   6   2.0000      -9.893407      -269.2133
   7   2.0000      -9.892722      -269.1947
   8   2.0000      -9.892637      -269.1923
   9   2.0000      -0.918518       -24.9941
  10   2.0000      -0.782463       -21.2919
  11   2.0000      -0.708900       -19.2902
  12   2.0000      -0.673806       -18.3352
  13   2.0000      -0.644945       -17.5498
  14   2.0000      -0.572951       -15.5908
  15   2.0000      -0.547203       -14.8902
  16   2.0000      -0.523256       -14.2385
  17   2.0000      -0.469470       -12.7749
  18   2.0000      -0.453339       -12.3360
  19   2.0000      -0.423904       -11.5350
  20   2.0000      -0.408393       -11.1129
  21   2.0000      -0.392562       -10.6821
  22   2.0000      -0.378919       -10.3109
  23   2.0000      -0.371432       -10.1072
  24   2.0000      -0.358470        -9.7545
  25   2.0000      -0.340922        -9.2770
  26   2.0000      -0.321040        -8.7359
  27   2.0000      -0.311252        -8.4696
  28   2.0000      -0.300924        -8.1886
  29   2.0000      -0.270545        -7.3619
  30   2.0000      -0.233166        -6.3448
  31   2.0000      -0.223651        -6.0859
  32   2.0000      -0.215018        -5.8509
  33   0.0000      -0.039536        -1.0758
  34   0.0000      -0.036323        -0.9884
  35   0.0000       0.018667         0.5080
  36   0.0000       0.049395         1.3441
  37   0.0000       0.055661         1.5146

MULLIKEN ATOMIC CHARGES
-----------------------
   0 C :   -0.049969
   1 C :   -0.044000
   2 C :   -0.117623
   3 C :    0.070531
   4 C :   -0.129970
   5 C :   -0.046040
   6 C :   -0.146935
   7 C :    0.016550
   8 O :   -0.443020
   9 H :    0.053754
  10 H :    0.052662
  11 H :    0.040534
  12 H :    0.019188
  13 H :    0.051321
  14 H :    0.084449
  15 H :    0.112978
  16 H :    0.087947
  17 H :    0.088542
  18 H :    0.299102
Sum of atomic charges:    0.0000000

LOEWDIN ATOMIC CHARGES
----------------------
   0 C :   -0.127978
   1 C :   -0.118572
   2 C :   -0.123084
   3 C :   -0.040241
   4 C :   -0.131529
   5 C :   -0.118688
   6 C :   -0.238321
   7 C :   -0.119304
   8 O :   -0.340358
   9 H :    0.123800
  10 H :    0.123944
  11 H :    0.121565
  12 H :    0.110232
  13 H :    0.123837
  14 H :    0.128007
  15 H :    0.136949
  16 H :    0.099230
  17 H :    0.115772
  18 H :    0.274738

  Mayer bond orders larger than 0.100000
B(  0-C ,  1-C ) :   1.3778 B(  0-C ,  5-C ) :   1.3847 B(  0-C ,  9-H ) :   0.9656
B(  1-C ,  2-C ) :   1.3777 B(  1-C , 10-H ) :   0.9627 B(  2-C ,  3-C ) :   1.3955
B(  2-C , 11-H ) :   0.9601 B(  3-C ,  4-C ) :   1.3836 B(  3-C ,  6-C ) :   1.0727
B(  4-C ,  5-C ) :   1.3858 B(  4-C , 12-H ) :   0.9433 B(  5-C , 13-H ) :   0.9617
B(  6-C ,  7-C ) :   1.0901 B(  6-C , 14-H ) :   0.8973 B(  6-C , 15-H ) :   0.8921
B(  7-C ,  8-O ) :   1.0529 B(  7-C , 16-H ) :   0.9294 B(  7-C , 17-H ) :   0.9301
B(  8-O , 18-H ) :   0.8519

Dispersion correction           -0.018662632
FINAL SINGLE POINT ENERGY      -385.214305498435

DIPOLE MOMENT
-------------

Method             : SCF
Type of density    : Electron Density
Multiplicity       :   1
Irrep              :   0
Energy             :  -385.2769747400505480 Eh
Relativity type    :
Basis              : AO
                                X                 Y                 Z
Electronic contribution:     -2.184507665       0.606626186      -0.852863896
Nuclear contribution   :      1.630319120      -0.683838046       0.874967518
                        -----------------------------------------
Total Dipole Moment    :     -0.554188545      -0.077211859       0.022103622
                        -----------------------------------------
Magnitude (a.u.)       :      0.559977843
Magnitude (Debye)      :      1.423350562

Rotational constants in cm-1:             0.134824             0.032506             0.027075
Rotational constants in MHz :          4041.933077           974.493201           811.683630

                             ****ORCA TERMINATED NORMALLY****
TOTAL RUN TIME: 0 days 0 hours 0 minutes 8 seconds 53 msec
