                         Program Version 6.0.0  -   RELEASE  -
|  1> ! wb97x-v def2-tzvp def2/J RIJCOSX DEFGRID2 scfconv7 GCP(DFT/TZ) printgap
|  2> %output
|  3>     printlevel normal
|  4> end
|  5> * xyz 0 1
|  6> C 2.870368169542877 -0.3833308751934148 -0.08067365254769145
|  7> C 1.4199060524224785 -0.3552656128316792 0.39307709215574727
|  8> C 0.6383932090190929 0.8058898197043717 -0.21575986543875456
|  9> C -0.7841064888237199 0.9494690586047628 0.3062880785351278
| 10> S -1.9279343304753473 -0.4316733516334214 -0.16538384963527064
| 11> H 3.417422945548111 -1.2233457156961556 0.3588479387720532
| 12> H 3.3923850429008966 0.5392219565008919 0.19639780580261787
| 13> H 2.9241246811851287 -0.48230203970576874 -1.1706033929104487
| 14> H 1.3880836705239528 -0.2747146925912811 1.4878243157637419
| 15> H 0.9363730629366052 -1.304834210671475 0.1328054413757644
| 16> H 0.6234560511356979 0.7145235118855178 -1.308903696071417
| 17> H 1.1607017056441489 1.7450108575338847 0.0170567867923194
| 18> H -0.7978025756172967 1.0468270637724146 1.3960228414203784
| 19> H -1.2590425805924732 1.8419239223809722 -0.11208329676966027
| 20> H -1.3576248345933204 -1.389244191348503 0.5872223763922103
| 21> *
| 22>
| 23>                          ****END OF INPUT****

CARTESIAN COORDINATES (ANGSTROEM)
---------------------------------
  C      2.870368   -0.383331   -0.080674
  C      1.419906   -0.355266    0.393077
  C      0.638393    0.805890   -0.215760
  C     -0.784106    0.949469    0.306288
  S     -1.927934   -0.431673   -0.165384
  H      3.417423   -1.223346    0.358848
  H      3.392385    0.539222    0.196398
  H      2.924125   -0.482302   -1.170603
  H      1.388084   -0.274715    1.487824
  H      0.936373   -1.304834    0.132805
  H      0.623456    0.714524   -1.308904
  H      1.160702    1.745011    0.017057
  H     -0.797803    1.046827    1.396023
  H     -1.259043    1.841924   -0.112083
  H     -1.357625   -1.389244    0.587222

 Total Charge           Charge          ....    0
 Multiplicity           Mult            ....    1
 Number of Electrons    NEL             ....   50
 Basis Dimension        Dim             ....  221

ORBITAL ENERGIES
----------------

  NO   OCC          E(Eh)            E(eV)
   0   2.0000     -94.118215     -2561.0868
   1   2.0000     -12.081485      -328.7539
   2   2.0000     -12.049638      -327.8873
   3   2.0000     -12.046172      -327.7930
   4   2.0000     -12.037598      -327.5597
   5   2.0000      -9.629500      -262.0320
   6   2.0000      -7.607166      -207.0015
   7   2.0000      -7.606008      -206.9700
   8   2.0000      -7.605467      -206.9553
   9   2.0000      -1.319430       -35.9035
  10   2.0000      -1.261329       -34.3225
  11   2.0000      -1.191885       -32.4329
  12   2.0000      -1.111336       -30.2410
  13   2.0000      -1.046312       -28.4716
  14   2.0000      -0.902894       -24.5690
  15   2.0000      -0.885424       -24.0936
  16   2.0000      -0.873920       -23.7806
  17   2.0000      -0.850466       -23.1424
  18   2.0000      -0.812826       -22.1181
  19   2.0000      -0.809907       -22.0387
  20   2.0000      -0.798906       -21.7393
  21   2.0000      -0.767127       -20.8746
  22   2.0000      -0.758149       -20.6303
  23   2.0000      -0.739931       -20.1345
  24   2.0000      -0.643299       -17.5051
  25   0.0000      -0.197454        -5.3730
  26   0.0000      -0.108792        -2.9604
  27   0.0000      -0.037447        -1.0190
  28   0.0000      -0.025101        -0.6830
  29   0.0000      -0.009029        -0.2457

MULLIKEN ATOMIC CHARGES
-----------------------
   0 C :   -0.335598
   1 C :   -0.192518
   2 C :   -0.146014
   3 C :   -0.183510
   4 S :   -0.228563
   5 H :    0.115403
   6 H :    0.105018
   7 H :    0.108074
   8 H :    0.089686
   9 H :    0.089397
  10 H :    0.101404
  11 H :    0.090218
  12 H :    0.123404
  13 H :    0.127985
  14 H :    0.135616
Sum of atomic charges:    0.0000000

LOEWDIN ATOMIC CHARGES
----------------------
   0 C :   -0.306738
   1 C :   -0.298856
   2 C :   -0.300138
   3 C :   -0.466096
   4 S :    0.214933
   5 H :    0.116344
   6 H :    0.115755
   7 H :    0.117530
   8 H :    0.130314
   9 H :    0.127413
  10 H :    0.135153
  11 H :    0.137012
  12 H :    0.121775
  13 H :    0.126466
  14 H :    0.029133

  Mayer bond orders larger than 0.100000
B(  0-C ,  1-C ) :   0.9935 B(  0-C ,  5-H ) :   0.9843 B(  0-C ,  6-H ) :   0.9830
B(  0-C ,  7-H ) :   0.9799 B(  1-C ,  2-C ) :   0.9787 B(  1-C ,  8-H ) :   0.9706
B(  1-C ,  9-H ) :   0.9691 B(  2-C ,  3-C ) :   0.9631 B(  2-C , 10-H ) :   0.9681
B(  2-C , 11-H ) :   0.9594 B(  3-C ,  4-S ) :   1.0304 B(  3-C , 12-H ) :   0.9722
B(  3-C , 13-H ) :   0.9692 B(  4-S , 14-H ) :   0.9722

FINAL SINGLE POINT ENERGY      -556.595607573949

DIPOLE MOMENT
-------------

Method             : SCF
Type of density    : Electron Density
Multiplicity       :   1
Irrep              :   0
Energy             :  -556.6061171328494765 Eh
Relativity type    :
Basis              : AO
                                X                 Y                 Z
Electronic contribution:     -9.421374968      -0.962248840      -1.077010702
Nuclear contribution   :      9.996591519       1.192500694       1.373735525
                        -----------------------------------------
Total Dipole Moment    :      0.575216552       0.230251854       0.296724823
                        -----------------------------------------
Magnitude (a.u.)       :      0.686975704
Magnitude (Debye)      :      1.746153471

Rotational constants in cm-1:             0.312833             0.054820             0.049976
Rotational constants in MHz :          9378.497647          1643.451370          1498.250145

                             ****ORCA TERMINATED NORMALLY****
TOTAL RUN TIME: 0 days 0 hours 1 minutes 9 seconds 136 msec
