                         Program Version 6.0.0  -   RELEASE  -
|  1> ! wb97x-v def2-tzvp def2/J RIJCOSX DEFGRID2 scfconv7 GCP(DFT/TZ) printgap
|  2> %output
|  3>     printlevel normal
|  4> end
|  5> %cpcm
|  6>     smd true
|  7>     smdsolvent "water"
|  8> end
|  9> * xyz 0 1
| 10> C 2.870368169542877 -0.3833308751934148 -0.08067365254769145
| 11> C 1.4199060524224785 -0.3552656128316792 0.39307709215574727
| 12> C 0.6383932090190929 0.8058898197043717 -0.21575986543875456
| 13> C -0.7841064888237199 0.9494690586047628 0.3062880785351278
| 14> S -1.9279343304753473 -0.4316733516334214 -0.16538384963527064
| 15> H 3.417422945548111 -1.2233457156961556 0.3588479387720532
| 16> H 3.3923850429008966 0.5392219565008919 0.19639780580261787
| 17> H 2.9241246811851287 -0.48230203970576874 -1.1706033929104487
| 18> H 1.3880836705239528 -0.2747146925912811 1.4878243157637419
| 19> H 0.9363730629366052 -1.304834210671475 0.1328054413757644
| 20> H 0.6234560511356979 0.7145235118855178 -1.308903696071417
| 21> H 1.1607017056441489 1.7450108575338847 0.0170567867923194
| 22> H -0.7978025756172967 1.0468270637724146 1.3960228414203784
| 23> H -1.2590425805924732 1.8419239223809722 -0.11208329676966027
| 24> H -1.3576248345933204 -1.389244191348503 0.5872223763922103
| 25> *
| 26>
| 27>                          ****END OF INPUT****

CARTESIAN COORDINATES (ANGSTROEM)
---------------------------------
  C      2.870368   -0.383331   -0.080674
  C      1.419906   -0.355266    0.393077
  C      0.638393    0.805890   -0.215760
  C     -0.784106    0.949469    0.306288
  S     -1.927934   -0.431673   -0.165384
  H      3.417423   -1.223346    0.358848
  H      3.392385    0.539222    0.196398
  H      2.924125   -0.482302   -1.170603
  H      1.388084   -0.274715    1.487824
  H      0.936373   -1.304834    0.132805
  H      0.623456    0.714524   -1.308904
  H      1.160702    1.745011    0.017057
  H     -0.797803    1.046827    1.396023
  H     -1.259043    1.841924   -0.112083
  H     -1.357625   -1.389244    0.587222

 Total Charge           Charge          ....    0
 Multiplicity           Mult            ....    1
 Number of Electrons    NEL             ....   50
 Basis Dimension        Dim             ....  221

ORBITAL ENERGIES
----------------

  NO   OCC          E(Eh)            E(eV)
   0   2.0000     -94.115543     -2561.0141
   1   2.0000     -12.070077      -328.4435
   2   2.0000     -12.036404      -327.5272
   3   2.0000     -12.032394      -327.4181
   4   2.0000     -12.025001      -327.2169
   5   2.0000      -9.626975      -261.9633
   6   2.0000      -7.604662      -206.9334
   7   2.0000      -7.603520      -206.9023
   8   2.0000      -7.603191      -206.8933
   9   2.0000      -1.307728       -35.5851
  10   2.0000      -1.251886       -34.0656
  11   2.0000      -1.183197       -32.1964
  12   2.0000      -1.100297       -29.9406
  13   2.0000      -1.033881       -28.1333
  14   2.0000      -0.890518       -24.2322
  15   2.0000      -0.873555       -23.7707
  16   2.0000      -0.861287       -23.4368
  17   2.0000      -0.839712       -22.8497
  18   2.0000      -0.801030       -21.7971
  19   2.0000      -0.799313       -21.7504
  20   2.0000      -0.787269       -21.4227
  21   2.0000      -0.754384       -20.5278
  22   2.0000      -0.748312       -20.3626
  23   2.0000      -0.731643       -19.9090
  24   2.0000      -0.641776       -17.4636
  25   0.0000      -0.191940        -5.2230
  26   0.0000      -0.099946        -2.7197
  27   0.0000      -0.025573        -0.6959
  28   0.0000      -0.010780        -0.2933
  29   0.0000       0.004782         0.1301

MULLIKEN ATOMIC CHARGES
-----------------------
   0 C :   -0.383433
   1 C :   -0.199295
   2 C :   -0.172759
   3 C :   -0.191455
   4 S :   -0.307264
   5 H :    0.128839
   6 H :    0.120547
   7 H :    0.119327
   8 H :    0.103863
   9 H :    0.096786
  10 H :    0.106614
  11 H :    0.109293
  12 H :    0.146221
  13 H :    0.152698
  14 H :    0.170018
Sum of atomic charges:    0.0000000

LOEWDIN ATOMIC CHARGES
----------------------
   0 C :   -0.314263
   1 C :   -0.299179
   2 C :   -0.299933
   3 C :   -0.460667
   4 S :    0.177689
   5 H :    0.117755
   6 H :    0.118120
   7 H :    0.118560
   8 H :    0.134151
   9 H :    0.128434
  10 H :    0.134871
  11 H :    0.142541
  12 H :    0.128229
  13 H :    0.132418
  14 H :    0.041273

  Mayer bond orders larger than 0.100000
B(  0-C ,  1-C ) :   0.9849 B(  0-C ,  5-H ) :   0.9818 B(  0-C ,  6-H ) :   0.9811
B(  0-C ,  7-H ) :   0.9776 B(  1-C ,  2-C ) :   0.9782 B(  1-C ,  8-H ) :   0.9709
B(  1-C ,  9-H ) :   0.9684 B(  2-C ,  3-C ) :   0.9678 B(  2-C , 10-H ) :   0.9709
B(  2-C , 11-H ) :   0.9579 B(  3-C ,  4-S ) :   1.0065 B(  3-C , 12-H ) :   0.9683
B(  3-C , 13-H ) :   0.9621 B(  4-S , 14-H ) :   0.9665

FINAL SINGLE POINT ENERGY      -556.597347028609

DIPOLE MOMENT
-------------

Method             : SCF
Type of density    : Electron Density
Multiplicity       :   1
Irrep              :   0
Energy             :  -556.6078565875088771 Eh
Relativity type    :
Basis              : AO
                                X                 Y                 Z
Electronic contribution:     -9.260449937      -0.849111576      -0.935573208
Nuclear contribution   :      9.996591519       1.192500694       1.373735525
                        -----------------------------------------
Total Dipole Moment    :      0.736141582       0.343389118       0.438162317
                        -----------------------------------------
Magnitude (a.u.)       :      0.922933763
Magnitude (Debye)      :      2.345911193

Rotational constants in cm-1:             0.312833             0.054820             0.049976
Rotational constants in MHz :          9378.497647          1643.451370          1498.250145

                             ****ORCA TERMINATED NORMALLY****
TOTAL RUN TIME: 0 days 0 hours 1 minutes 12 seconds 302 msec
