                         Program Version 6.0.0  -   RELEASE  -
|  1> ! pbe def2-sv(p) def2/J RI DEFGRID1 loosescf d4 GCP(DFT/SV(P)) printgap
|  2> %output
|  3>     printlevel normal
|  4> end
|  5> * xyz 0 1
|  6> C 0.5235542719 1.9420008086 0.3371341849
|  7> C 1.8732322806 2.203617077 0.4111790813
|  8> C 2.815885257 1.1981891911 0.1884861152
|  9> C 2.3586972943 -0.0978205963 -0.1169246756
| 10> C 0.9883077596 -0.3456517951 -0.1836431766
| 11> C 0.0598470033 0.6582746739 0.0406823522
| 12> C -1.3853961315 0.3934923351 -0.0385325073
| 13> C -2.2397907306 1.2842055243 -0.688893723
| 14> C -3.599956973 1.0541742144 -0.7768902592
| 15> C -4.1161951959 -0.0886624743 -0.1965870316
| 16> C -3.319291009 -1.0012479642 0.467132972
| 17> C -1.9643920134 -0.7389664468 0.5295941989
| 18> F -1.1909156299 -1.6270945827 1.2063475015
| 19> F -5.4508705359 -0.3289430507 -0.2746150682
| 20> C 3.3112990772 -1.1956798073 -0.357333902
| 21> O 4.5114985022 -1.1451018643 -0.1668739331
| 22> O 2.7307176297 -2.3041350016 -0.8180651072
| 23> O 4.1322600304 1.4427214586 0.246508584
| 24> H -0.1837510225 2.73267759 0.5316560454
| 25> H 2.2128999768 3.200359981 0.6491744736
| 26> H 0.6646632369 -1.3450684812 -0.4260388803
| 27> H -1.820016748 2.1634130002 -1.1493795505
| 28> H -4.254888142 1.7412797283 -1.2858731795
| 29> H -3.7339187256 -1.8840655142 0.9239363264
| 30> H 3.3833786527 -3.0160060389 -0.9577086027
| 31> H 4.307624324 2.3758648645 0.4565746667
| 32> *
| 33>
| 34>                          ****END OF INPUT****

CARTESIAN COORDINATES (ANGSTROEM)
---------------------------------
  C      0.523554    1.942001    0.337134
  C      1.873232    2.203617    0.411179
  C      2.815885    1.198189    0.188486
  C      2.358697   -0.097821   -0.116925
  C      0.988308   -0.345652   -0.183643
  C      0.059847    0.658275    0.040682
  C     -1.385396    0.393492   -0.038533
  C     -2.239791    1.284206   -0.688894
  C     -3.599957    1.054174   -0.776890
  C     -4.116195   -0.088662   -0.196587
  C     -3.319291   -1.001248    0.467133
  C     -1.964392   -0.738966    0.529594
  F     -1.190916   -1.627095    1.206348
  F     -5.450871   -0.328943   -0.274615
  C      3.311299   -1.195680   -0.357334
  O      4.511499   -1.145102   -0.166874
  O      2.730718   -2.304135   -0.818065
  O      4.132260    1.442721    0.246509
  H     -0.183751    2.732678    0.531656
  H      2.212900    3.200360    0.649174
  H      0.664663   -1.345068   -0.426039
  H     -1.820017    2.163413   -1.149380
  H     -4.254888    1.741280   -1.285873
  H     -3.733919   -1.884066    0.923936
  H      3.383379   -3.016006   -0.957709
  H      4.307624    2.375865    0.456575

 Total Charge           Charge          ....    0
 Multiplicity           Mult            ....    1
 Number of Electrons    NEL             ....  128
 Basis Dimension        Dim             ....  268

ORBITAL ENERGIES
----------------

  NO   OCC          E(Eh)            E(eV)
   0   2.0000     -24.280305      -660.7007
   1   2.0000     -24.276590      -660.5996
   2   2.0000     -18.798585      -511.5355
   3   2.0000     -18.791393      -511.3398
   4   2.0000     -18.728213      -509.6206
   5   2.0000     -10.007871      -272.3280
   6   2.0000      -9.987647      -271.7777
   7   2.0000      -9.986326      -271.7417
   8   2.0000      -9.974354      -271.4160
   9   2.0000      -9.918731      -269.9024
  10   2.0000      -9.915870      -269.8245
  11   2.0000      -9.912799      -269.7410
  12   2.0000      -9.912425      -269.7308
  13   2.0000      -9.912207      -269.7249
  14   2.0000      -9.909524      -269.6519
  15   2.0000      -9.907793      -269.6047
  16   2.0000      -9.907387      -269.5937
  17   2.0000      -9.905498      -269.5423
  18   2.0000      -1.107139       -30.1268
  19   2.0000      -1.103383       -30.0246
  20   2.0000      -1.001082       -27.2408
  21   2.0000      -0.983905       -26.7734
  22   2.0000      -0.900450       -24.5025
  23   2.0000      -0.806836       -21.9551
  24   2.0000      -0.786773       -21.4092
  25   2.0000      -0.718668       -19.5560
  26   2.0000      -0.700660       -19.0659
  27   2.0000      -0.691843       -18.8260
  28   2.0000      -0.659257       -17.9393
  29   2.0000      -0.607823       -16.5397
  30   2.0000      -0.588916       -16.0252
  31   2.0000      -0.576817       -15.6960
  32   2.0000      -0.562550       -15.3078
  33   2.0000      -0.535364       -14.5680
  34   2.0000      -0.511930       -13.9303
  35   2.0000      -0.507132       -13.7998
  36   2.0000      -0.478282       -13.0147
  37   2.0000      -0.470906       -12.8140
  38   2.0000      -0.451132       -12.2759
  39   2.0000      -0.438860       -11.9420
  40   2.0000      -0.428034       -11.6474
  41   2.0000      -0.419977       -11.4282
  42   2.0000      -0.411294       -11.1919
  43   2.0000      -0.406681       -11.0663
  44   2.0000      -0.403589       -10.9822
  45   2.0000      -0.401076       -10.9138
  46   2.0000      -0.392577       -10.6826
  47   2.0000      -0.390890       -10.6367
  48   2.0000      -0.375458       -10.2167
  49   2.0000      -0.370065       -10.0700
  50   2.0000      -0.352143        -9.5823
  51   2.0000      -0.344238        -9.3672
  52   2.0000      -0.331122        -9.0103
  53   2.0000      -0.325408        -8.8548
  54   2.0000      -0.320098        -8.7103
  55   2.0000      -0.316172        -8.6035
  56   2.0000      -0.310354        -8.4452
  57   2.0000      -0.307352        -8.3635
  58   2.0000      -0.266229        -7.2445
  59   2.0000      -0.245148        -6.6708
  60   2.0000      -0.243807        -6.6343
  61   2.0000      -0.235750        -6.4151
  62   2.0000      -0.211126        -5.7450
  63   2.0000      -0.199545        -5.4299
  64   0.0000      -0.075267        -2.0481
  65   0.0000      -0.059406        -1.6165
  66   0.0000      -0.048703        -1.3253
  67   0.0000      -0.017904        -0.4872
  68   0.0000       0.012545         0.3414

MULLIKEN ATOMIC CHARGES
-----------------------
   0 C :   -0.106548
   1 C :   -0.162076
   2 C :    0.181123
   3 C :   -0.024903
   4 C :   -0.171092
   5 C :    0.152821
   6 C :    0.040044
   7 C :   -0.123323
   8 C :   -0.140135
   9 C :    0.354956
  10 C :   -0.259748
  11 C :    0.260651
  12 F :   -0.161933
  13 F :   -0.173515
  14 C :    0.109886
  15 O :   -0.166400
  16 O :   -0.297179
  17 O :   -0.275696
  18 H :    0.052331
  19 H :    0.028863
  20 H :    0.062457
  21 H :    0.058521
  22 H :    0.060169
  23 H :    0.064521
  24 H :    0.315624
  25 H :    0.320580
Sum of atomic charges:   -0.0000000

LOEWDIN ATOMIC CHARGES
----------------------
   0 C :   -0.093587
   1 C :   -0.170997
   2 C :    0.046810
   3 C :   -0.100544
   4 C :   -0.076623
   5 C :   -0.050474
   6 C :   -0.064131
   7 C :   -0.098326
   8 C :   -0.159399
   9 C :    0.074035
  10 C :   -0.173208
  11 C :    0.083608
  12 F :   -0.043440
  13 F :   -0.053844
  14 C :    0.033712
  15 O :   -0.162263
  16 O :   -0.212116
  17 O :   -0.187200
  18 H :    0.129047
  19 H :    0.124302
  20 H :    0.135947
  21 H :    0.131811
  22 H :    0.138401
  23 H :    0.148730
  24 H :    0.298857
  25 H :    0.300892

  Mayer bond orders larger than 0.100000
B(  0-C ,  1-C ) :   1.3681 B(  0-C ,  5-C ) :   1.3453 B(  0-C , 18-H ) :   0.9569
B(  1-C ,  2-C ) :   1.2876 B(  1-C , 19-H ) :   0.9553 B(  2-C ,  3-C ) :   1.3354
B(  2-C , 17-O ) :   1.2925 B(  3-C ,  4-C ) :   1.3580 B(  3-C , 14-C ) :   0.9374
B(  4-C ,  5-C ) :   1.3226 B(  4-C , 20-H ) :   0.9577 B(  5-C ,  6-C ) :   0.9779
B(  6-C ,  7-C ) :   1.3670 B(  6-C , 11-C ) :   1.3331 B(  7-C ,  8-C ) :   1.3288
B(  7-C , 21-H ) :   0.9564 B(  8-C ,  9-C ) :   1.3439 B(  8-C , 22-H ) :   0.9685
B(  9-C , 10-C ) :   1.2882 B(  9-C , 13-F ) :   1.0868 B( 10-C , 11-C ) :   1.3023
B( 10-C , 23-H ) :   0.9752 B( 11-C , 12-F ) :   1.1079 B( 14-C , 15-O ) :   2.1265
B( 14-C , 16-O ) :   1.2880 B( 16-O , 24-H ) :   0.8208 B( 17-O , 25-H ) :   0.8331

Dispersion correction           -0.034641003
FINAL SINGLE POINT ENERGY      -923.747101816368

DIPOLE MOMENT
-------------

Method             : SCF
Type of density    : Electron Density
Multiplicity       :   1
Irrep              :   0
Energy             :  -923.8294385628237251 Eh
Relativity type    :
Basis              : AO
                                X                 Y                 Z
Electronic contribution:     -7.081517589      -6.428222106       1.908464438
Nuclear contribution   :      6.862483224       7.382074150      -2.054103548
                        -----------------------------------------
Total Dipole Moment    :     -0.219034365       0.953852044      -0.145639110
                        -----------------------------------------
Magnitude (a.u.)       :      0.989454661
Magnitude (Debye)      :      2.514993878

Rotational constants in cm-1:             0.033159             0.006950             0.006044
Rotational constants in MHz :           994.095297           208.365654           181.208335

                             ****ORCA TERMINATED NORMALLY****
TOTAL RUN TIME: 0 days 0 hours 0 minutes 23 seconds 812 msec
