                         Program Version 6.0.0  -   RELEASE  -
|  1> ! pbe def2-sv(p) def2/J RI DEFGRID1 loosescf d4 GCP(DFT/SV(P)) printgap
|  2> %output
|  3>     printlevel normal
|  4> end
|  5> * xyz 0 1
|  6> C 2.3109631347 0.0496048255 -0.7188551188
|  7> C 1.5850718571 -0.2414230505 0.5900779775
|  8> C 0.2489708645 0.4931756896 0.7166849458
|  9> C -0.8284385002 0.0780110695 -0.2924441378
| 10> C -2.0324661042 1.0112857566 -0.1659176199
| 11> C -1.2712690006 -1.3689482008 -0.086741488
| 12> H 1.7576191793 -0.3404600566 -1.5690295332
| 13> H 2.4371409642 1.1218583145 -0.8524822136
| 14> H 3.2947388555 -0.4140047642 -0.7148159036
| 15> H 1.4303584988 -1.3167468534 0.6895787021
| 16> H 2.2220305206 0.072678177 1.420704558
| 17> H -0.1431240791 0.3329576326 1.7245029561
| 18> H 0.4348526603 1.5644586968 0.6038778006
| 19> H -0.4251078034 0.1802740617 -1.3047729931
| 20> H -1.7396754208 2.043648752 -0.3439491825
| 21> H -2.4604703967 0.9432598573 0.8322263155
| 22> H -2.8008919703 0.7438568931 -0.8876707661
| 23> H -2.0757193545 -1.6179292943 -0.7752154765
| 24> H -0.4516806983 -2.0603049445 -0.262525438
| 25> H -1.6329910584 -1.5122148386 0.9294753761
| 26> *
| 27>
| 28>                          ****END OF INPUT****

CARTESIAN COORDINATES (ANGSTROEM)
---------------------------------
  C      2.310963    0.049605   -0.718855
  C      1.585072   -0.241423    0.590078
  C      0.248971    0.493176    0.716685
  C     -0.828439    0.078011   -0.292444
  C     -2.032466    1.011286   -0.165918
  C     -1.271269   -1.368948   -0.086741
  H      1.757619   -0.340460   -1.569030
  H      2.437141    1.121858   -0.852482
  H      3.294739   -0.414005   -0.714816
  H      1.430358   -1.316747    0.689579
  H      2.222031    0.072678    1.420705
  H     -0.143124    0.332958    1.724503
  H      0.434853    1.564459    0.603878
  H     -0.425108    0.180274   -1.304773
  H     -1.739675    2.043649   -0.343949
  H     -2.460470    0.943260    0.832226
  H     -2.800892    0.743857   -0.887671
  H     -2.075719   -1.617929   -0.775215
  H     -0.451681   -2.060305   -0.262525
  H     -1.632991   -1.512215    0.929475

 Total Charge           Charge          ....    0
 Multiplicity           Mult            ....    1
 Number of Electrons    NEL             ....   50
 Basis Dimension        Dim             ....  112

ORBITAL ENERGIES
----------------

  NO   OCC          E(Eh)            E(eV)
   0   2.0000      -9.888893      -269.0905
   1   2.0000      -9.878773      -268.8151
   2   2.0000      -9.876164      -268.7441
   3   2.0000      -9.869723      -268.5688
   4   2.0000      -9.868651      -268.5396
   5   2.0000      -9.867767      -268.5156
   6   2.0000      -0.732392       -19.9294
   7   2.0000      -0.680761       -18.5244
   8   2.0000      -0.607129       -16.5208
   9   2.0000      -0.601012       -16.3544
  10   2.0000      -0.529802       -14.4166
  11   2.0000      -0.484115       -13.1734
  12   2.0000      -0.420511       -11.4427
  13   2.0000      -0.406772       -11.0688
  14   2.0000      -0.380069       -10.3422
  15   2.0000      -0.372074       -10.1246
  16   2.0000      -0.360243        -9.8027
  17   2.0000      -0.338549        -9.2124
  18   2.0000      -0.329634        -8.9698
  19   2.0000      -0.310544        -8.4503
  20   2.0000      -0.302302        -8.2260
  21   2.0000      -0.297624        -8.0988
  22   2.0000      -0.276138        -7.5141
  23   2.0000      -0.270402        -7.3580
  24   2.0000      -0.264202        -7.1893
  25   0.0000       0.032878         0.8946
  26   0.0000       0.061596         1.6761
  27   0.0000       0.064238         1.7480
  28   0.0000       0.070979         1.9314
  29   0.0000       0.097385         2.6500

MULLIKEN ATOMIC CHARGES
-----------------------
   0 C :   -0.293137
   1 C :   -0.162192
   2 C :   -0.140678
   3 C :   -0.192947
   4 C :   -0.233688
   5 C :   -0.253038
   6 H :    0.109381
   7 H :    0.096428
   8 H :    0.101626
   9 H :    0.086788
  10 H :    0.081816
  11 H :    0.073928
  12 H :    0.074473
  13 H :    0.077141
  14 H :    0.095429
  15 H :    0.089999
  16 H :    0.095740
  17 H :    0.096613
  18 H :    0.105235
  19 H :    0.091085
Sum of atomic charges:   -0.0000000

LOEWDIN ATOMIC CHARGES
----------------------
   0 C :   -0.342770
   1 C :   -0.235584
   2 C :   -0.218186
   3 C :   -0.160443
   4 C :   -0.327605
   5 C :   -0.330159
   6 H :    0.116123
   7 H :    0.116470
   8 H :    0.119052
   9 H :    0.113459
  10 H :    0.115986
  11 H :    0.112823
  12 H :    0.111705
  13 H :    0.113338
  14 H :    0.115553
  15 H :    0.115245
  16 H :    0.115388
  17 H :    0.117340
  18 H :    0.116011
  19 H :    0.116255

  Mayer bond orders larger than 0.100000
B(  0-C ,  1-C ) :   1.1517 B(  0-C ,  6-H ) :   0.9499 B(  0-C ,  7-H ) :   0.9547
B(  0-C ,  8-H ) :   0.9514 B(  1-C ,  2-C ) :   1.1291 B(  1-C ,  9-H ) :   0.9196
B(  1-C , 10-H ) :   0.9239 B(  2-C ,  3-C ) :   1.0851 B(  2-C , 11-H ) :   0.9147
B(  2-C , 12-H ) :   0.9211 B(  3-C ,  4-C ) :   1.1136 B(  3-C ,  5-C ) :   1.1054
B(  3-C , 13-H ) :   0.8990 B(  4-C , 14-H ) :   0.9499 B(  4-C , 15-H ) :   0.9503
B(  4-C , 16-H ) :   0.9513 B(  5-C , 17-H ) :   0.9503 B(  5-C , 18-H ) :   0.9457
B(  5-C , 19-H ) :   0.9499

Dispersion correction           -0.014879335
FINAL SINGLE POINT ENERGY      -236.449830907229

DIPOLE MOMENT
-------------

Method             : SCF
Type of density    : Electron Density
Multiplicity       :   1
Irrep              :   0
Energy             :  -236.5176927547145169 Eh
Relativity type    :
Basis              : AO
                                X                 Y                 Z
Electronic contribution:      0.176976594       0.231842322       0.460234777
Nuclear contribution   :     -0.143463703      -0.242672619      -0.478552074
                        -----------------------------------------
Total Dipole Moment    :      0.033512891      -0.010830297      -0.018317296
                        -----------------------------------------
Magnitude (a.u.)       :      0.039698016
Magnitude (Debye)      :      0.100904339

Rotational constants in cm-1:             0.184368             0.065619             0.059459
Rotational constants in MHz :          5527.204229          1967.206957          1782.545443

                             ****ORCA TERMINATED NORMALLY****
TOTAL RUN TIME: 0 days 0 hours 0 minutes 8 seconds 249 msec
