                         Program Version 6.0.0  -   RELEASE  -
|  1> ! r2scan-3c def2/J RI DEFGRID2 scfconv6 printgap
|  2> %output
|  3>     printlevel normal
|  4> end
|  5> * xyz 0 1
|  6> C 1.6345218182 -1.2160619932 -0.6290286828
|  7> C 1.0815021899 -0.2780585372 0.4431399706
|  8> C 1.2794980624 1.1795440038 0.0301414775
|  9> C -0.3832111281 -0.6026951548 0.7786157601
| 10> C -1.4088961258 -0.2819208162 -0.3166271939
| 11> O -1.9917896214 1.0005512501 -0.1878990752
| 12> H 2.6923194791 -1.0205621038 -0.787816751
| 13> H 1.119571076 -1.0768968331 -1.576379656
| 14> H 1.5187020961 -2.2537052463 -0.3257709351
| 15> H 1.6548177823 -0.4489656521 1.362031432
| 16> H 2.3404787827 1.3956777738 -0.074263533
| 17> H 0.8712140928 1.8509304115 0.7821644743
| 18> H 0.8067011733 1.3777345756 -0.9291452372
| 19> H -0.6804712319 -0.0530117862 1.6748561047
| 20> H -0.4484336601 -1.666781549 1.0105731948
| 21> H -0.966440753 -0.3939978922 -1.3138140871
| 22> H -2.2532608644 -0.9714762433 -0.2440082454
| 23> H -1.2953175218 1.6689138751 -0.2451518024
| 24> *
| 25>
| 26>                          ****END OF INPUT****

CARTESIAN COORDINATES (ANGSTROEM)
---------------------------------
  C      1.634522   -1.216062   -0.629029
  C      1.081502   -0.278059    0.443140
  C      1.279498    1.179544    0.030141
  C     -0.383211   -0.602695    0.778616
  C     -1.408896   -0.281921   -0.316627
  O     -1.991790    1.000551   -0.187899
  H      2.692319   -1.020562   -0.787817
  H      1.119571   -1.076897   -1.576380
  H      1.518702   -2.253705   -0.325771
  H      1.654818   -0.448966    1.362031
  H      2.340479    1.395678   -0.074264
  H      0.871214    1.850930    0.782164
  H      0.806701    1.377735   -0.929145
  H     -0.680471   -0.053012    1.674856
  H     -0.448434   -1.666782    1.010573
  H     -0.966441   -0.393998   -1.313814
  H     -2.253261   -0.971476   -0.244008
  H     -1.295318    1.668914   -0.245152

 Total Charge           Charge          ....    0
 Multiplicity           Mult            ....    1
 Number of Electrons    NEL             ....   50
 Basis Dimension        Dim             ....  179

ORBITAL ENERGIES
----------------

  NO   OCC          E(Eh)            E(eV)
   0   2.0000     -18.942329      -515.4470
   1   2.0000     -10.071570      -274.0614
   2   2.0000     -10.040038      -273.2033
   3   2.0000     -10.026300      -272.8295
   4   2.0000     -10.024502      -272.7806
   5   2.0000     -10.019789      -272.6523
   6   2.0000      -0.979298       -26.6480
   7   2.0000      -0.780598       -21.2411
   8   2.0000      -0.692001       -18.8303
   9   2.0000      -0.657914       -17.9027
  10   2.0000      -0.602318       -16.3899
  11   2.0000      -0.525478       -14.2990
  12   2.0000      -0.475435       -12.9372
  13   2.0000      -0.434298       -11.8178
  14   2.0000      -0.413992       -11.2653
  15   2.0000      -0.413798       -11.2600
  16   2.0000      -0.381189       -10.3727
  17   2.0000      -0.371192       -10.1007
  18   2.0000      -0.361273        -9.8307
  19   2.0000      -0.335663        -9.1338
  20   2.0000      -0.318862        -8.6767
  21   2.0000      -0.303066        -8.2468
  22   2.0000      -0.297316        -8.0904
  23   2.0000      -0.276639        -7.5277
  24   2.0000      -0.230842        -6.2815
  25   0.0000       0.058983         1.6050
  26   0.0000       0.085926         2.3382
  27   0.0000       0.112634         3.0649
  28   0.0000       0.115667         3.1475
  29   0.0000       0.125676         3.4198

MULLIKEN ATOMIC CHARGES
-----------------------
   0 C :   -0.496111
   1 C :   -0.009056
   2 C :   -0.542332
   3 C :   -0.268251
   4 C :   -0.212264
   5 O :   -0.422358
   6 H :    0.145527
   7 H :    0.148661
   8 H :    0.148248
   9 H :    0.149282
  10 H :    0.153579
  11 H :    0.159896
  12 H :    0.154473
  13 H :    0.165887
  14 H :    0.141302
  15 H :    0.136587
  16 H :    0.142129
  17 H :    0.304802
Sum of atomic charges:   -0.0000000

LOEWDIN ATOMIC CHARGES
----------------------
   0 C :   -0.418661
   1 C :   -0.247055
   2 C :   -0.422423
   3 C :   -0.296944
   4 C :    0.000120
   5 O :   -0.623527
   6 H :    0.153718
   7 H :    0.150902
   8 H :    0.154428
   9 H :    0.156506
  10 H :    0.156815
  11 H :    0.154078
  12 H :    0.151015
  13 H :    0.170085
  14 H :    0.162051
  15 H :    0.157068
  16 H :    0.177932
  17 H :    0.263894

  Mayer bond orders larger than 0.100000
B(  0-C ,  1-C ) :   0.9347 B(  0-C ,  6-H ) :   0.9696 B(  0-C ,  7-H ) :   0.9807
B(  0-C ,  8-H ) :   0.9738 B(  1-C ,  2-C ) :   0.8745 B(  1-C ,  3-C ) :   0.9109
B(  1-C ,  9-H ) :   0.9701 B(  2-C , 10-H ) :   0.9646 B(  2-C , 11-H ) :   0.9755
B(  2-C , 12-H ) :   0.9727 B(  3-C ,  4-C ) :   0.8552 B(  3-C , 13-H ) :   0.9749
B(  3-C , 14-H ) :   0.9706 B(  4-C ,  5-O ) :   0.9439 B(  4-C , 15-H ) :   1.0018
B(  4-C , 16-H ) :   0.9689 B(  5-O , 17-H ) :   0.8836

Dispersion correction           -0.004513931
FINAL SINGLE POINT ENERGY      -272.895521454869

DIPOLE MOMENT
-------------

Method             : SCF
Type of density    : Electron Density
Multiplicity       :   1
Irrep              :   0
Energy             :  -272.9011028524899416 Eh
Relativity type    :
Basis              : AO
                                X                 Y                 Z
Electronic contribution:     -4.275002137       1.323618249       0.657649956
Nuclear contribution   :      4.998885833      -1.478839835      -0.628285691
                        -----------------------------------------
Total Dipole Moment    :      0.723883696      -0.155221587       0.029364265
                        -----------------------------------------
Magnitude (a.u.)       :      0.740920783
Magnitude (Debye)      :      1.883270965

Rotational constants in cm-1:             0.174762             0.075708             0.064269
Rotational constants in MHz :          5239.223661          2269.671552          1926.729959

                             ****ORCA TERMINATED NORMALLY****
TOTAL RUN TIME: 0 days 0 hours 0 minutes 25 seconds 360 msec
