                         Program Version 6.0.0  -   RELEASE  -
|  1> ! r2scan-3c def2/J RI DEFGRID2 scfconv6 printgap
|  2> %output
|  3>     printlevel normal
|  4> end
|  5> %cpcm
|  6>     smd true
|  7>     smdsolvent "water"
|  8> end
|  9> * xyz 0 1
| 10> C 1.6345218182 -1.2160619932 -0.6290286828
| 11> C 1.0815021899 -0.2780585372 0.4431399706
| 12> C 1.2794980624 1.1795440038 0.0301414775
| 13> C -0.3832111281 -0.6026951548 0.7786157601
| 14> C -1.4088961258 -0.2819208162 -0.3166271939
| 15> O -1.9917896214 1.0005512501 -0.1878990752
| 16> H 2.6923194791 -1.0205621038 -0.787816751
| 17> H 1.119571076 -1.0768968331 -1.576379656
| 18> H 1.5187020961 -2.2537052463 -0.3257709351
| 19> H 1.6548177823 -0.4489656521 1.362031432
| 20> H 2.3404787827 1.3956777738 -0.074263533
| 21> H 0.8712140928 1.8509304115 0.7821644743
| 22> H 0.8067011733 1.3777345756 -0.9291452372
| 23> H -0.6804712319 -0.0530117862 1.6748561047
| 24> H -0.4484336601 -1.666781549 1.0105731948
| 25> H -0.966440753 -0.3939978922 -1.3138140871
| 26> H -2.2532608644 -0.9714762433 -0.2440082454
| 27> H -1.2953175218 1.6689138751 -0.2451518024
| 28> *
| 29>
| 30>                          ****END OF INPUT****

CARTESIAN COORDINATES (ANGSTROEM)
---------------------------------
  C      1.634522   -1.216062   -0.629029
  C      1.081502   -0.278059    0.443140
  C      1.279498    1.179544    0.030141
  C     -0.383211   -0.602695    0.778616
  C     -1.408896   -0.281921   -0.316627
  O     -1.991790    1.000551   -0.187899
  H      2.692319   -1.020562   -0.787817
  H      1.119571   -1.076897   -1.576380
  H      1.518702   -2.253705   -0.325771
  H      1.654818   -0.448966    1.362031
  H      2.340479    1.395678   -0.074264
  H      0.871214    1.850930    0.782164
  H      0.806701    1.377735   -0.929145
  H     -0.680471   -0.053012    1.674856
  H     -0.448434   -1.666782    1.010573
  H     -0.966441   -0.393998   -1.313814
  H     -2.253261   -0.971476   -0.244008
  H     -1.295318    1.668914   -0.245152

 Total Charge           Charge          ....    0
 Multiplicity           Mult            ....    1
 Number of Electrons    NEL             ....   50
 Basis Dimension        Dim             ....  179

ORBITAL ENERGIES
----------------

  NO   OCC          E(Eh)            E(eV)
   0   2.0000     -18.948360      -515.6111
   1   2.0000     -10.066037      -273.9108
   2   2.0000     -10.026350      -272.8309
   3   2.0000     -10.014673      -272.5131
   4   2.0000     -10.008481      -272.3446
   5   2.0000     -10.005888      -272.2741
   6   2.0000      -0.984024       -26.7767
   7   2.0000      -0.767541       -20.8858
   8   2.0000      -0.683029       -18.5862
   9   2.0000      -0.642899       -17.4942
  10   2.0000      -0.594821       -16.1859
  11   2.0000      -0.514621       -14.0035
  12   2.0000      -0.470194       -12.7946
  13   2.0000      -0.425904       -11.5894
  14   2.0000      -0.405023       -11.0212
  15   2.0000      -0.401299       -10.9199
  16   2.0000      -0.373621       -10.1668
  17   2.0000      -0.363414        -9.8890
  18   2.0000      -0.345623        -9.4049
  19   2.0000      -0.323004        -8.7894
  20   2.0000      -0.314336        -8.5535
  21   2.0000      -0.291824        -7.9409
  22   2.0000      -0.285300        -7.7634
  23   2.0000      -0.270230        -7.3533
  24   2.0000      -0.235540        -6.4094
  25   0.0000       0.072609         1.9758
  26   0.0000       0.097757         2.6601
  27   0.0000       0.125255         3.4084
  28   0.0000       0.128359         3.4928
  29   0.0000       0.136224         3.7068

MULLIKEN ATOMIC CHARGES
-----------------------
   0 C :   -0.541752
   1 C :    0.004518
   2 C :   -0.572082
   3 C :   -0.283929
   4 C :   -0.214193
   5 O :   -0.514567
   6 H :    0.156445
   7 H :    0.162019
   8 H :    0.157873
   9 H :    0.155203
  10 H :    0.161997
  11 H :    0.169050
  12 H :    0.171579
  13 H :    0.164108
  14 H :    0.156969
  15 H :    0.153487
  16 H :    0.154317
  17 H :    0.358959
Sum of atomic charges:   -0.0000000

LOEWDIN ATOMIC CHARGES
----------------------
   0 C :   -0.427295
   1 C :   -0.243834
   2 C :   -0.427369
   3 C :   -0.297276
   4 C :   -0.002302
   5 O :   -0.663241
   6 H :    0.155940
   7 H :    0.154386
   8 H :    0.156078
   9 H :    0.158405
  10 H :    0.157825
  11 H :    0.157993
  12 H :    0.157065
  13 H :    0.169479
  14 H :    0.167235
  15 H :    0.166142
  16 H :    0.180476
  17 H :    0.280293

  Mayer bond orders larger than 0.100000
B(  0-C ,  1-C ) :   0.9246 B(  0-C ,  6-H ) :   0.9686 B(  0-C ,  7-H ) :   0.9784
B(  0-C ,  8-H ) :   0.9718 B(  1-C ,  2-C ) :   0.8761 B(  1-C ,  3-C ) :   0.9085
B(  1-C ,  9-H ) :   0.9710 B(  2-C , 10-H ) :   0.9637 B(  2-C , 11-H ) :   0.9709
B(  2-C , 12-H ) :   0.9698 B(  3-C ,  4-C ) :   0.8657 B(  3-C , 13-H ) :   0.9733
B(  3-C , 14-H ) :   0.9701 B(  4-C ,  5-O ) :   0.9266 B(  4-C , 15-H ) :   0.9896
B(  4-C , 16-H ) :   0.9668 B(  5-O , 17-H ) :   0.8569

Dispersion correction           -0.004513931
FINAL SINGLE POINT ENERGY      -272.901905157744

DIPOLE MOMENT
-------------

Method             : SCF
Type of density    : Electron Density
Multiplicity       :   1
Irrep              :   0
Energy             :  -272.9074865553650397 Eh
Relativity type    :
Basis              : AO
                                X                 Y                 Z
Electronic contribution:     -4.056530853       1.296495306       0.620267230
Nuclear contribution   :      4.998885833      -1.478839835      -0.628285691
                        -----------------------------------------
Total Dipole Moment    :      0.942354980      -0.182344530      -0.008018461
                        -----------------------------------------
Magnitude (a.u.)       :      0.959868080
Magnitude (Debye)      :      2.439790766

Rotational constants in cm-1:             0.174762             0.075708             0.064269
Rotational constants in MHz :          5239.223661          2269.671552          1926.729959

                             ****ORCA TERMINATED NORMALLY****
TOTAL RUN TIME: 0 days 0 hours 0 minutes 29 seconds 727 msec
