                         Program Version 6.0.0  -   RELEASE  -
|  1> ! pbe def2-sv(p) def2/J RI DEFGRID1 loosescf d4 GCP(DFT/SV(P)) printgap
|  2> %output
|  3>     printlevel normal
|  4> end
|  5> * xyz 0 1
|  6> C -2.0655286653 0.3676682697 0.7055590535
|  7> C -1.524238601 0.2038833246 -0.7096779888
|  8> C -0.2459034091 -0.6349112947 -0.7411903635
|  9> C 0.9374048135 -0.0504996749 -0.010444908
| 10> C 1.1771325146 1.2464532935 0.0991682532
| 11> C 1.8690766173 -1.0734055872 0.5688377768
| 12> H -2.9729556498 0.966684248 0.7006223064
| 13> H -1.3297945866 0.8582033609 1.3382539431
| 14> H -2.2968805548 -0.6032951987 1.1379735456
| 15> H -2.2769268249 -0.2920578525 -1.3268199202
| 16> H -1.3384590445 1.1849120935 -1.1487559911
| 17> H -0.4644989028 -1.6177239723 -0.316416012
| 18> H 0.0471554772 -0.7934217587 -1.7841496328
| 19> H 2.0481676857 1.6146033905 0.6154142711
| 20> H 0.5263615353 1.9976939649 -0.3124363701
| 21> H 2.7534588447 -0.6050397277 0.9924884352
| 22> H 1.3637522121 -1.6378548808 1.3517441438
| 23> H 2.1776010403 -1.7780425344 -0.2022362599
| 24> *
| 25>
| 26>                          ****END OF INPUT****

CARTESIAN COORDINATES (ANGSTROEM)
---------------------------------
  C     -2.065529    0.367668    0.705559
  C     -1.524239    0.203883   -0.709678
  C     -0.245903   -0.634911   -0.741190
  C      0.937405   -0.050500   -0.010445
  C      1.177133    1.246453    0.099168
  C      1.869077   -1.073406    0.568838
  H     -2.972956    0.966684    0.700622
  H     -1.329795    0.858203    1.338254
  H     -2.296881   -0.603295    1.137974
  H     -2.276927   -0.292058   -1.326820
  H     -1.338459    1.184912   -1.148756
  H     -0.464499   -1.617724   -0.316416
  H      0.047155   -0.793422   -1.784150
  H      2.048168    1.614603    0.615414
  H      0.526362    1.997694   -0.312436
  H      2.753459   -0.605040    0.992488
  H      1.363752   -1.637855    1.351744
  H      2.177601   -1.778043   -0.202236

 Total Charge           Charge          ....    0
 Multiplicity           Mult            ....    1
 Number of Electrons    NEL             ....   48
 Basis Dimension        Dim             ....  108

ORBITAL ENERGIES
----------------

  NO   OCC          E(Eh)            E(eV)
   0   2.0000      -9.896096      -269.2865
   1   2.0000      -9.885151      -268.9886
   2   2.0000      -9.883151      -268.9342
   3   2.0000      -9.877024      -268.7675
   4   2.0000      -9.867889      -268.5189
   5   2.0000      -9.865004      -268.4404
   6   2.0000      -0.737284       -20.0625
   7   2.0000      -0.682929       -18.5834
   8   2.0000      -0.609093       -16.5743
   9   2.0000      -0.606582       -16.5059
  10   2.0000      -0.527971       -14.3668
  11   2.0000      -0.456184       -12.4134
  12   2.0000      -0.422049       -11.4845
  13   2.0000      -0.404632       -11.0106
  14   2.0000      -0.390345       -10.6218
  15   2.0000      -0.372351       -10.1322
  16   2.0000      -0.362102        -9.8533
  17   2.0000      -0.336257        -9.1500
  18   2.0000      -0.322536        -8.7767
  19   2.0000      -0.313299        -8.5253
  20   2.0000      -0.297162        -8.0862
  21   2.0000      -0.286537        -7.7971
  22   2.0000      -0.275215        -7.4890
  23   2.0000      -0.212659        -5.7867
  24   0.0000      -0.009756        -0.2655
  25   0.0000       0.036817         1.0018
  26   0.0000       0.065884         1.7928
  27   0.0000       0.075126         2.0443
  28   0.0000       0.088087         2.3970

MULLIKEN ATOMIC CHARGES
-----------------------
   0 C :   -0.282954
   1 C :   -0.189883
   2 C :   -0.107322
   3 C :   -0.107121
   4 C :   -0.230883
   5 C :   -0.224454
   6 H :    0.101229
   7 H :    0.113349
   8 H :    0.092962
   9 H :    0.083652
  10 H :    0.094162
  11 H :    0.074967
  12 H :    0.101210
  13 H :    0.080944
  14 H :    0.086237
  15 H :    0.096467
  16 H :    0.109237
  17 H :    0.108202
Sum of atomic charges:   -0.0000000

LOEWDIN ATOMIC CHARGES
----------------------
   0 C :   -0.344106
   1 C :   -0.231020
   2 C :   -0.215884
   3 C :   -0.059397
   4 C :   -0.272912
   5 C :   -0.322571
   6 H :    0.118101
   7 H :    0.120938
   8 H :    0.115146
   9 H :    0.116633
  10 H :    0.115464
  11 H :    0.117422
  12 H :    0.131983
  13 H :    0.117375
  14 H :    0.115918
  15 H :    0.122026
  16 H :    0.128080
  17 H :    0.126804

  Mayer bond orders larger than 0.100000
B(  0-C ,  1-C ) :   1.1570 B(  0-C ,  6-H ) :   0.9535 B(  0-C ,  7-H ) :   0.9488
B(  0-C ,  8-H ) :   0.9547 B(  1-C ,  2-C ) :   1.1311 B(  1-C ,  9-H ) :   0.9238
B(  1-C , 10-H ) :   0.9168 B(  2-C ,  3-C ) :   1.0514 B(  2-C , 11-H ) :   0.9146
B(  2-C , 12-H ) :   0.8938 B(  3-C ,  4-C ) :   2.0465 B(  3-C ,  5-C ) :   1.1196
B(  4-C , 13-H ) :   0.9028 B(  4-C , 14-H ) :   0.9071 B(  5-C , 15-H ) :   0.9428
B(  5-C , 16-H ) :   0.9283 B(  5-C , 17-H ) :   0.9360

Dispersion correction           -0.013775430
FINAL SINGLE POINT ENERGY      -235.243240406679

DIPOLE MOMENT
-------------

Method             : SCF
Type of density    : Electron Density
Multiplicity       :   1
Irrep              :   0
Energy             :  -235.3008177787253885 Eh
Relativity type    :
Basis              : AO
                                X                 Y                 Z
Electronic contribution:      1.616307548       0.470265223      -1.039818068
Nuclear contribution   :     -1.653999046      -0.661722856       0.981020634
                        -----------------------------------------
Total Dipole Moment    :     -0.037691498      -0.191457632      -0.058797433
                        -----------------------------------------
Magnitude (a.u.)       :      0.203798459
Magnitude (Debye)      :      0.518014517

Rotational constants in cm-1:             0.188242             0.073055             0.066798
Rotational constants in MHz :          5643.338284          2190.139315          2002.543950

                             ****ORCA TERMINATED NORMALLY****
TOTAL RUN TIME: 0 days 0 hours 0 minutes 7 seconds 874 msec
