                         Program Version 6.0.0  -   RELEASE  -
|  1> ! pbe def2-sv(p) def2/J RI DEFGRID1 loosescf d4 GCP(DFT/SV(P)) printgap
|  2> %output
|  3>     printlevel normal
|  4> end
|  5> * xyz 0 1
|  6> C -1.3626985447 -0.3519719199 -0.431615951
|  7> C -0.0017865554 -0.0581547068 0.2113582576
|  8> C 1.1406292362 -0.768736246 -0.5244984661
|  9> O 2.3725037251 -0.5954386095 0.1340120726
| 10> O 0.2328729214 1.3361407338 0.2677935685
| 11> O -2.4224874903 0.1988024 0.3132175124
| 12> H -1.5380552821 -1.427902526 -0.4685474649
| 13> H -1.37597393 0.0440958748 -1.4581917355
| 14> H -0.0168374188 -0.3838823502 1.2566872779
| 15> H 1.206104034 -0.387833066 -1.5547630498
| 16> H 0.957082954 -1.8433228694 -0.558784226
| 17> H 2.4550829468 0.3377155344 0.3850890544
| 18> H 0.2620059238 1.6887448659 -0.6348974291
| 19> H -2.1849826041 1.1067555987 0.5581872589
| 20> *
| 21>
| 22>                          ****END OF INPUT****

CARTESIAN COORDINATES (ANGSTROEM)
---------------------------------
  C     -1.362699   -0.351972   -0.431616
  C     -0.001787   -0.058155    0.211358
  C      1.140629   -0.768736   -0.524498
  O      2.372504   -0.595439    0.134012
  O      0.232873    1.336141    0.267794
  O     -2.422487    0.198802    0.313218
  H     -1.538055   -1.427903   -0.468547
  H     -1.375974    0.044096   -1.458192
  H     -0.016837   -0.383882    1.256687
  H      1.206104   -0.387833   -1.554763
  H      0.957083   -1.843323   -0.558784
  H      2.455083    0.337716    0.385089
  H      0.262006    1.688745   -0.634897
  H     -2.184983    1.106756    0.558187

 Total Charge           Charge          ....    0
 Multiplicity           Mult            ....    1
 Number of Electrons    NEL             ....   50
 Basis Dimension        Dim             ....  100

ORBITAL ENERGIES
----------------

  NO   OCC          E(Eh)            E(eV)
   0   2.0000     -18.775705      -510.9129
   1   2.0000     -18.745385      -510.0878
   2   2.0000     -18.745363      -510.0872
   3   2.0000      -9.946315      -270.6530
   4   2.0000      -9.937735      -270.4195
   5   2.0000      -9.937693      -270.4184
   6   2.0000      -0.957063       -26.0430
   7   2.0000      -0.921885       -25.0858
   8   2.0000      -0.914748       -24.8915
   9   2.0000      -0.689106       -18.7515
  10   2.0000      -0.603815       -16.4307
  11   2.0000      -0.569648       -15.5009
  12   2.0000      -0.485065       -13.1993
  13   2.0000      -0.455454       -12.3935
  14   2.0000      -0.454885       -12.3780
  15   2.0000      -0.409896       -11.1538
  16   2.0000      -0.401743       -10.9320
  17   2.0000      -0.379896       -10.3375
  18   2.0000      -0.358153        -9.7459
  19   2.0000      -0.313900        -8.5416
  20   2.0000      -0.285606        -7.7717
  21   2.0000      -0.284192        -7.7332
  22   2.0000      -0.252126        -6.8607
  23   2.0000      -0.229121        -6.2347
  24   2.0000      -0.205609        -5.5949
  25   0.0000       0.004706         0.1281
  26   0.0000       0.045508         1.2383
  27   0.0000       0.054857         1.4927
  28   0.0000       0.057932         1.5764
  29   0.0000       0.079118         2.1529

MULLIKEN ATOMIC CHARGES
-----------------------
   0 C :    0.050189
   1 C :   -0.067893
   2 C :    0.049144
   3 O :   -0.432774
   4 O :   -0.435222
   5 O :   -0.432914
   6 H :    0.090976
   7 H :    0.055202
   8 H :    0.090777
   9 H :    0.055478
  10 H :    0.091070
  11 H :    0.294492
  12 H :    0.296811
  13 H :    0.294663
Sum of atomic charges:   -0.0000000

LOEWDIN ATOMIC CHARGES
----------------------
   0 C :   -0.134684
   1 C :   -0.106589
   2 C :   -0.134843
   3 O :   -0.340049
   4 O :   -0.320813
   5 O :   -0.340056
   6 H :    0.118316
   7 H :    0.090015
   8 H :    0.122412
   9 H :    0.090037
  10 H :    0.118344
  11 H :    0.277435
  12 H :    0.282828
  13 H :    0.277648

  Mayer bond orders larger than 0.100000
B(  0-C ,  1-C ) :   1.0506 B(  0-C ,  5-O ) :   1.0780 B(  0-C ,  6-H ) :   0.9192
B(  0-C ,  7-H ) :   0.9003 B(  1-C ,  2-C ) :   1.0516 B(  1-C ,  4-O ) :   0.9872
B(  1-C ,  8-H ) :   0.8846 B(  2-C ,  3-O ) :   1.0781 B(  2-C ,  9-H ) :   0.9002
B(  2-C , 10-H ) :   0.9192 B(  3-O , 11-H ) :   0.8395 B(  4-O , 12-H ) :   0.8478
B(  5-O , 13-H ) :   0.8397

Dispersion correction           -0.009041942
FINAL SINGLE POINT ENERGY      -344.010242529557

DIPOLE MOMENT
-------------

Method             : SCF
Type of density    : Electron Density
Multiplicity       :   1
Irrep              :   0
Energy             :  -344.0842990790850422 Eh
Relativity type    :
Basis              : AO
                                X                 Y                 Z
Electronic contribution:      0.289944260       1.377510977       1.674582611
Nuclear contribution   :     -0.218292522      -0.798157128      -2.311566751
                        -----------------------------------------
Total Dipole Moment    :      0.071651738       0.579353849      -0.636984140
                        -----------------------------------------
Magnitude (a.u.)       :      0.864021787
Magnitude (Debye)      :      2.196168851

Rotational constants in cm-1:             0.260412             0.065329             0.056510
Rotational constants in MHz :          7806.956013          1958.523823          1694.136773

                             ****ORCA TERMINATED NORMALLY****
TOTAL RUN TIME: 0 days 0 hours 0 minutes 8 seconds 31 msec
