                         Program Version 6.0.0  -   RELEASE  -
|  1> ! pbe def2-sv(p) def2/J RI DEFGRID1 loosescf d4 GCP(DFT/SV(P)) printgap
|  2> %output
|  3>     printlevel normal
|  4> end
|  5> * xyz 0 1
|  6> C 1.6631524838 -0.7755520696 0.4916042377
|  7> C 1.3632614271 0.5493873693 -0.1992137232
|  8> C -0.0300685324 0.6195706387 -0.8281031149
|  9> C -1.1832641831 0.5522871914 0.1841465768
| 10> C -1.8035701576 -0.8366897782 0.2996427005
| 11> H 1.5155357785 -1.605376815 -0.196111242
| 12> H 1.0188531366 -0.9183877623 1.3548185731
| 13> H 2.6954370683 -0.7942718415 0.8343206299
| 14> H 1.4709341025 1.3638693586 0.5212406873
| 15> H 2.102573351 0.7100863343 -0.9880074551
| 16> H -0.1374044611 -0.1901534121 -1.5527271992
| 17> H -0.0944729355 1.5599236727 -1.3802498079
| 18> H -0.8253191913 0.8751033736 1.1637955936
| 19> H -1.9674598606 1.2498806041 -0.1182543052
| 20> H -2.2218514737 -1.1432861399 -0.6568217233
| 21> H -2.6046040306 -0.8320532311 1.0358695439
| 22> H -1.0655631592 -1.5743114773 0.6008895143
| 23> *
| 24>
| 25>                          ****END OF INPUT****

CARTESIAN COORDINATES (ANGSTROEM)
---------------------------------
  C      1.663152   -0.775552    0.491604
  C      1.363261    0.549387   -0.199214
  C     -0.030069    0.619571   -0.828103
  C     -1.183264    0.552287    0.184147
  C     -1.803570   -0.836690    0.299643
  H      1.515536   -1.605377   -0.196111
  H      1.018853   -0.918388    1.354819
  H      2.695437   -0.794272    0.834321
  H      1.470934    1.363869    0.521241
  H      2.102573    0.710086   -0.988007
  H     -0.137404   -0.190153   -1.552727
  H     -0.094473    1.559924   -1.380250
  H     -0.825319    0.875103    1.163796
  H     -1.967460    1.249881   -0.118254
  H     -2.221851   -1.143286   -0.656822
  H     -2.604604   -0.832053    1.035870
  H     -1.065563   -1.574311    0.600890

 Total Charge           Charge          ....    0
 Multiplicity           Mult            ....    1
 Number of Electrons    NEL             ....   42
 Basis Dimension        Dim             ....   94

ORBITAL ENERGIES
----------------

  NO   OCC          E(Eh)            E(eV)
   0   2.0000      -9.879180      -268.8262
   1   2.0000      -9.878474      -268.8070
   2   2.0000      -9.876267      -268.7469
   3   2.0000      -9.869719      -268.5687
   4   2.0000      -9.868817      -268.5442
   5   2.0000      -0.720398       -19.6030
   6   2.0000      -0.667192       -18.1552
   7   2.0000      -0.604746       -16.4560
   8   2.0000      -0.537075       -14.6145
   9   2.0000      -0.498108       -13.5542
  10   2.0000      -0.417353       -11.3567
  11   2.0000      -0.399375       -10.8675
  12   2.0000      -0.384966       -10.4755
  13   2.0000      -0.358523        -9.7559
  14   2.0000      -0.344662        -9.3787
  15   2.0000      -0.324878        -8.8404
  16   2.0000      -0.313889        -8.5414
  17   2.0000      -0.301050        -8.1920
  18   2.0000      -0.280088        -7.6216
  19   2.0000      -0.270775        -7.3682
  20   2.0000      -0.266025        -7.2389
  21   0.0000       0.037547         1.0217
  22   0.0000       0.066886         1.8201
  23   0.0000       0.069834         1.9003
  24   0.0000       0.071878         1.9559
  25   0.0000       0.099653         2.7117

MULLIKEN ATOMIC CHARGES
-----------------------
   0 C :   -0.288299
   1 C :   -0.194476
   2 C :   -0.154492
   3 C :   -0.183549
   4 C :   -0.293692
   5 H :    0.098819
   6 H :    0.111300
   7 H :    0.101296
   8 H :    0.086203
   9 H :    0.083324
  10 H :    0.079589
  11 H :    0.079793
  12 H :    0.086946
  13 H :    0.082689
  14 H :    0.100473
  15 H :    0.099415
  16 H :    0.104660
Sum of atomic charges:   -0.0000000

LOEWDIN ATOMIC CHARGES
----------------------
   0 C :   -0.344076
   1 C :   -0.232791
   2 C :   -0.229070
   3 C :   -0.236194
   4 C :   -0.342823
   5 H :    0.116216
   6 H :    0.116862
   7 H :    0.118702
   8 H :    0.112894
   9 H :    0.113802
  10 H :    0.112466
  11 H :    0.115613
  12 H :    0.113165
  13 H :    0.116024
  14 H :    0.116164
  15 H :    0.117321
  16 H :    0.115725

  Mayer bond orders larger than 0.100000
B(  0-C ,  1-C ) :   1.1575 B(  0-C ,  5-H ) :   0.9526 B(  0-C ,  6-H ) :   0.9458
B(  0-C ,  7-H ) :   0.9502 B(  1-C ,  2-C ) :   1.1403 B(  1-C ,  8-H ) :   0.9261
B(  1-C ,  9-H ) :   0.9270 B(  2-C ,  3-C ) :   1.0884 B(  2-C , 10-H ) :   0.9293
B(  2-C , 11-H ) :   0.9251 B(  3-C ,  4-C ) :   1.1608 B(  3-C , 12-H ) :   0.9319
B(  3-C , 13-H ) :   0.9304 B(  4-C , 14-H ) :   0.9530 B(  4-C , 15-H ) :   0.9519
B(  4-C , 16-H ) :   0.9495

Dispersion correction           -0.011450971
FINAL SINGLE POINT ENERGY      -197.232855951176

DIPOLE MOMENT
-------------

Method             : SCF
Type of density    : Electron Density
Multiplicity       :   1
Irrep              :   0
Energy             :  -197.2908577045934351 Eh
Relativity type    :
Basis              : AO
                                X                 Y                 Z
Electronic contribution:      0.116472650       1.255082948      -0.586959034
Nuclear contribution   :     -0.106332718      -1.218649633       0.580499020
                        -----------------------------------------
Total Dipole Moment    :      0.010139932       0.036433315      -0.006460014
                        -----------------------------------------
Magnitude (a.u.)       :      0.038365824
Magnitude (Debye)      :      0.097518175

Rotational constants in cm-1:             0.249332             0.104882             0.084221
Rotational constants in MHz :          7474.787470          3144.279337          2524.877533

                             ****ORCA TERMINATED NORMALLY****
TOTAL RUN TIME: 0 days 0 hours 0 minutes 6 seconds 749 msec
