                         Program Version 6.0.0  -   RELEASE  -
|  1> ! pbe def2-sv(p) def2/J RI DEFGRID1 loosescf d4 GCP(DFT/SV(P)) printgap
|  2> %output
|  3>     printlevel normal
|  4> end
|  5> * xyz 0 1
|  6> C 0.5294099462 1.6494172795 0.6213472192
|  7> C 1.8764093063 1.9284075823 0.6867713168
|  8> C 2.8356195824 0.9663082627 0.3642307862
|  9> C 2.3929393358 -0.310479751 -0.0284789051
| 10> C 1.0259228714 -0.5773575252 -0.0809780375
| 11> C 0.08034027 0.3846537166 0.234801282
| 12> C -1.3537732162 0.0636516606 0.1702218572
| 13> C -1.8340890958 -1.1544574016 0.6517634711
| 14> C -3.1769598036 -1.4775615683 0.6008103633
| 15> C -4.0570393942 -0.5642847283 0.052025139
| 16> C -3.6375433202 0.6537174556 -0.4464710712
| 17> C -2.2884754339 0.941764003 -0.3737815903
| 18> F -1.8795519536 2.1311370283 -0.8872693196
| 19> F -5.3798941869 -0.8673404377 -0.0046886736
| 20> C 3.3046273085 -1.4088122409 -0.3988020906
| 21> O 2.910667973 -2.5196863384 -0.7175280243
| 22> O 4.5925981481 -1.1112147869 -0.364144014
| 23> O 4.1458519369 1.2369893201 0.4257712056
| 24> H -0.1821237768 2.415614121 0.8861323808
| 25> H 2.2001118488 2.9114827616 0.9939687476
| 26> H 0.7285559089 -1.5641989476 -0.4020400086
| 27> H -1.1354950015 -1.8508342072 1.0859988832
| 28> H -3.5432948311 -2.4173692687 0.9785359953
| 29> H -4.3310135768 1.353910214 -0.880967152
| 30> H 5.1509470997 -1.8711265374 -0.617000051
| 31> H 4.3047228349 2.1529850187 0.7093047125
| 32> *
| 33>
| 34>                          ****END OF INPUT****

CARTESIAN COORDINATES (ANGSTROEM)
---------------------------------
  C      0.529410    1.649417    0.621347
  C      1.876409    1.928408    0.686771
  C      2.835620    0.966308    0.364231
  C      2.392939   -0.310480   -0.028479
  C      1.025923   -0.577358   -0.080978
  C      0.080340    0.384654    0.234801
  C     -1.353773    0.063652    0.170222
  C     -1.834089   -1.154457    0.651763
  C     -3.176960   -1.477562    0.600810
  C     -4.057039   -0.564285    0.052025
  C     -3.637543    0.653717   -0.446471
  C     -2.288475    0.941764   -0.373782
  F     -1.879552    2.131137   -0.887269
  F     -5.379894   -0.867340   -0.004689
  C      3.304627   -1.408812   -0.398802
  O      2.910668   -2.519686   -0.717528
  O      4.592598   -1.111215   -0.364144
  O      4.145852    1.236989    0.425771
  H     -0.182124    2.415614    0.886132
  H      2.200112    2.911483    0.993969
  H      0.728556   -1.564199   -0.402040
  H     -1.135495   -1.850834    1.085999
  H     -3.543295   -2.417369    0.978536
  H     -4.331014    1.353910   -0.880967
  H      5.150947   -1.871127   -0.617000
  H      4.304723    2.152985    0.709305

 Total Charge           Charge          ....    0
 Multiplicity           Mult            ....    1
 Number of Electrons    NEL             ....  128
 Basis Dimension        Dim             ....  268

ORBITAL ENERGIES
----------------

  NO   OCC          E(Eh)            E(eV)
   0   2.0000     -24.280635      -660.7097
   1   2.0000     -24.274957      -660.5552
   2   2.0000     -18.800604      -511.5904
   3   2.0000     -18.792360      -511.3661
   4   2.0000     -18.730632      -509.6864
   5   2.0000     -10.010470      -272.3987
   6   2.0000      -9.986578      -271.7486
   7   2.0000      -9.984705      -271.6976
   8   2.0000      -9.974385      -271.4168
   9   2.0000      -9.917284      -269.8630
  10   2.0000      -9.913303      -269.7547
  11   2.0000      -9.912587      -269.7352
  12   2.0000      -9.912555      -269.7343
  13   2.0000      -9.910033      -269.6657
  14   2.0000      -9.908121      -269.6137
  15   2.0000      -9.906051      -269.5573
  16   2.0000      -9.905531      -269.5432
  17   2.0000      -9.905526      -269.5431
  18   2.0000      -1.107498       -30.1365
  19   2.0000      -1.101792       -29.9813
  20   2.0000      -1.005237       -27.3539
  21   2.0000      -0.985886       -26.8273
  22   2.0000      -0.902909       -24.5694
  23   2.0000      -0.805356       -21.9148
  24   2.0000      -0.785676       -21.3793
  25   2.0000      -0.717937       -19.5361
  26   2.0000      -0.699421       -19.0322
  27   2.0000      -0.689216       -18.7545
  28   2.0000      -0.659518       -17.9464
  29   2.0000      -0.608600       -16.5609
  30   2.0000      -0.588857       -16.0236
  31   2.0000      -0.573908       -15.6168
  32   2.0000      -0.559078       -15.2133
  33   2.0000      -0.541208       -14.7270
  34   2.0000      -0.514994       -14.0137
  35   2.0000      -0.506737       -13.7890
  36   2.0000      -0.478844       -13.0300
  37   2.0000      -0.469023       -12.7628
  38   2.0000      -0.448110       -12.1937
  39   2.0000      -0.441756       -12.0208
  40   2.0000      -0.427868       -11.6429
  41   2.0000      -0.415791       -11.3143
  42   2.0000      -0.408534       -11.1168
  43   2.0000      -0.407102       -11.0778
  44   2.0000      -0.402923       -10.9641
  45   2.0000      -0.400894       -10.9089
  46   2.0000      -0.397482       -10.8160
  47   2.0000      -0.385272       -10.4838
  48   2.0000      -0.374474       -10.1900
  49   2.0000      -0.369699       -10.0600
  50   2.0000      -0.357624        -9.7314
  51   2.0000      -0.344693        -9.3796
  52   2.0000      -0.333088        -9.0638
  53   2.0000      -0.324115        -8.8196
  54   2.0000      -0.318849        -8.6763
  55   2.0000      -0.317688        -8.6447
  56   2.0000      -0.307950        -8.3797
  57   2.0000      -0.295413        -8.0386
  58   2.0000      -0.269071        -7.3218
  59   2.0000      -0.243826        -6.6348
  60   2.0000      -0.240738        -6.5508
  61   2.0000      -0.234656        -6.3853
  62   2.0000      -0.220375        -5.9967
  63   2.0000      -0.199597        -5.4313
  64   0.0000      -0.075389        -2.0514
  65   0.0000      -0.058943        -1.6039
  66   0.0000      -0.046883        -1.2758
  67   0.0000      -0.017209        -0.4683
  68   0.0000       0.009634         0.2622

MULLIKEN ATOMIC CHARGES
-----------------------
   0 C :   -0.090359
   1 C :   -0.166377
   2 C :    0.194827
   3 C :   -0.014736
   4 C :   -0.202783
   5 C :    0.154683
   6 C :    0.041531
   7 C :   -0.120010
   8 C :   -0.139358
   9 C :    0.355200
  10 C :   -0.260173
  11 C :    0.256144
  12 F :   -0.165333
  13 F :   -0.173534
  14 C :    0.106002
  15 O :   -0.195028
  16 O :   -0.267267
  17 O :   -0.287003
  18 H :    0.054060
  19 H :    0.028487
  20 H :    0.064203
  21 H :    0.066378
  22 H :    0.061600
  23 H :    0.063263
  24 H :    0.313769
  25 H :    0.321816
Sum of atomic charges:   -0.0000000

LOEWDIN ATOMIC CHARGES
----------------------
   0 C :   -0.088135
   1 C :   -0.170675
   2 C :    0.038868
   3 C :   -0.103509
   4 C :   -0.070745
   5 C :   -0.049155
   6 C :   -0.064433
   7 C :   -0.094063
   8 C :   -0.157888
   9 C :    0.074298
  10 C :   -0.174414
  11 C :    0.081799
  12 F :   -0.046157
  13 F :   -0.053791
  14 C :    0.033636
  15 O :   -0.184805
  16 O :   -0.190599
  17 O :   -0.195511
  18 H :    0.129399
  19 H :    0.123670
  20 H :    0.139746
  21 H :    0.135566
  22 H :    0.139197
  23 H :    0.148151
  24 H :    0.298284
  25 H :    0.301266

  Mayer bond orders larger than 0.100000
B(  0-C ,  1-C ) :   1.3811 B(  0-C ,  5-C ) :   1.3311 B(  0-C , 18-H ) :   0.9586
B(  1-C ,  2-C ) :   1.2805 B(  1-C , 19-H ) :   0.9544 B(  2-C ,  3-C ) :   1.3026
B(  2-C , 17-O ) :   1.2765 B(  3-C ,  4-C ) :   1.3789 B(  3-C , 14-C ) :   0.9342
B(  4-C ,  5-C ) :   1.3240 B(  4-C , 20-H ) :   0.9523 B(  5-C ,  6-C ) :   0.9799
B(  6-C ,  7-C ) :   1.3688 B(  6-C , 11-C ) :   1.3321 B(  7-C ,  8-C ) :   1.3296
B(  7-C , 21-H ) :   0.9560 B(  8-C ,  9-C ) :   1.3420 B(  8-C , 22-H ) :   0.9689
B(  9-C , 10-C ) :   1.2885 B(  9-C , 13-F ) :   1.0867 B( 10-C , 11-C ) :   1.3022
B( 10-C , 23-H ) :   0.9752 B( 11-C , 12-F ) :   1.1038 B( 14-C , 15-O ) :   2.0796
B( 14-C , 16-O ) :   1.3294 B( 16-O , 24-H ) :   0.8198 B( 17-O , 25-H ) :   0.8338

Dispersion correction           -0.034614359
FINAL SINGLE POINT ENERGY      -923.747752708799

DIPOLE MOMENT
-------------

Method             : SCF
Type of density    : Electron Density
Multiplicity       :   1
Irrep              :   0
Energy             :  -923.8301852019828857 Eh
Relativity type    :
Basis              : AO
                                X                 Y                 Z
Electronic contribution:     -9.086576930       1.142460222      -2.824446283
Nuclear contribution   :      9.893481291      -0.145793499       3.400383998
                        -----------------------------------------
Total Dipole Moment    :      0.806904360       0.996666723       0.575937715
                        -----------------------------------------
Magnitude (a.u.)       :      1.405753696
Magnitude (Debye)      :      3.573141933

Rotational constants in cm-1:             0.032049             0.006830             0.005869
Rotational constants in MHz :           960.818404           204.763936           175.961299

                             ****ORCA TERMINATED NORMALLY****
TOTAL RUN TIME: 0 days 0 hours 0 minutes 23 seconds 532 msec
