                         Program Version 6.0.0  -   RELEASE  -
|  1> ! r2scan-3c def2/J RI DEFGRID2 scfconv6 printgap
|  2> %output
|  3>     printlevel normal
|  4> end
|  5> * xyz 0 1
|  6> C -1.0272372551 -0.4538158718 -0.3347967805
|  7> C 0.1313899665 0.3488203249 0.2708489306
|  8> C 1.4723375487 -0.0916451347 -0.334349414
|  9> O 1.8111153654 -1.4144164542 -0.0023730214
| 10> O -0.0184137596 1.7309319732 0.0280929514
| 11> O -2.2660892234 -0.1080456884 0.2438407776
| 12> H -0.8168529878 -1.5238878911 -0.2371940701
| 13> H -1.113310514 -0.2077789735 -1.3959663045
| 14> H 0.1562652525 0.1754243547 1.361590158
| 15> H 2.2447774271 0.617565784 -0.0161583717
| 16> H 1.401304358 -0.0552494404 -1.4236072932
| 17> H 2.0464343404 -1.4621532306 0.9351170011
| 18> H -0.961121056 1.9480117508 0.0990286741
| 19> H -2.3127685316 -0.4578561346 1.1445116589
| 20> *
| 21>
| 22>                          ****END OF INPUT****

CARTESIAN COORDINATES (ANGSTROEM)
---------------------------------
  C     -1.027237   -0.453816   -0.334797
  C      0.131390    0.348820    0.270849
  C      1.472338   -0.091645   -0.334349
  O      1.811115   -1.414416   -0.002373
  O     -0.018414    1.730932    0.028093
  O     -2.266089   -0.108046    0.243841
  H     -0.816853   -1.523888   -0.237194
  H     -1.113311   -0.207779   -1.395966
  H      0.156265    0.175424    1.361590
  H      2.244777    0.617566   -0.016158
  H      1.401304   -0.055249   -1.423607
  H      2.046434   -1.462153    0.935117
  H     -0.961121    1.948012    0.099029
  H     -2.312769   -0.457856    1.144512

 Total Charge           Charge          ....    0
 Multiplicity           Mult            ....    1
 Number of Electrons    NEL             ....   50
 Basis Dimension        Dim             ....  169

ORBITAL ENERGIES
----------------

  NO   OCC          E(Eh)            E(eV)
   0   2.0000     -18.963817      -516.0317
   1   2.0000     -18.960719      -515.9474
   2   2.0000     -18.951990      -515.7099
   3   2.0000     -10.086050      -274.4554
   4   2.0000     -10.081208      -274.3236
   5   2.0000     -10.080493      -274.3042
   6   2.0000      -1.008489       -27.4424
   7   2.0000      -0.997438       -27.1417
   8   2.0000      -0.982710       -26.7409
   9   2.0000      -0.726682       -19.7740
  10   2.0000      -0.648343       -17.6423
  11   2.0000      -0.579638       -15.7727
  12   2.0000      -0.506817       -13.7912
  13   2.0000      -0.475130       -12.9289
  14   2.0000      -0.466890       -12.7047
  15   2.0000      -0.441772       -12.0212
  16   2.0000      -0.414657       -11.2834
  17   2.0000      -0.392918       -10.6918
  18   2.0000      -0.371483       -10.1086
  19   2.0000      -0.323968        -8.8156
  20   2.0000      -0.309290        -8.4162
  21   2.0000      -0.303885        -8.2691
  22   2.0000      -0.276285        -7.5181
  23   2.0000      -0.241676        -6.5763
  24   2.0000      -0.232744        -6.3333
  25   0.0000       0.036176         0.9844
  26   0.0000       0.057044         1.5523
  27   0.0000       0.086142         2.3440
  28   0.0000       0.118672         3.2292
  29   0.0000       0.125194         3.4067

MULLIKEN ATOMIC CHARGES
-----------------------
   0 C :   -0.229736
   1 C :    0.090296
   2 C :   -0.209264
   3 O :   -0.421819
   4 O :   -0.433396
   5 O :   -0.430056
   6 H :    0.154892
   7 H :    0.152655
   8 H :    0.119624
   9 H :    0.145963
  10 H :    0.144685
  11 H :    0.300904
  12 H :    0.315055
  13 H :    0.300197
Sum of atomic charges:   -0.0000000

LOEWDIN ATOMIC CHARGES
----------------------
   0 C :    0.018929
   1 C :    0.067249
   2 C :    0.037428
   3 O :   -0.609663
   4 O :   -0.593547
   5 O :   -0.609108
   6 H :    0.174342
   7 H :    0.185062
   8 H :    0.160338
   9 H :    0.170210
  10 H :    0.184279
  11 H :    0.267432
  12 H :    0.279845
  13 H :    0.267205

  Mayer bond orders larger than 0.100000
B(  0-C ,  1-C ) :   0.9039 B(  0-C ,  5-O ) :   0.9702 B(  0-C ,  6-H ) :   0.9696
B(  0-C ,  7-H ) :   0.9741 B(  1-C ,  2-C ) :   0.9224 B(  1-C ,  4-O ) :   0.8681
B(  1-C ,  8-H ) :   0.9451 B(  2-C ,  3-O ) :   0.9719 B(  2-C ,  9-H ) :   0.9693
B(  2-C , 10-H ) :   0.9721 B(  3-O , 11-H ) :   0.8944 B(  4-O , 12-H ) :   0.8720
B(  5-O , 13-H ) :   0.8946

Dispersion correction           -0.002997641
FINAL SINGLE POINT ENERGY      -344.723978322572

DIPOLE MOMENT
-------------

Method             : SCF
Type of density    : Electron Density
Multiplicity       :   1
Irrep              :   0
Energy             :  -344.7313574032790484 Eh
Relativity type    :
Basis              : AO
                                X                 Y                 Z
Electronic contribution:     -0.641412449       0.604872997       0.356455835
Nuclear contribution   :      0.597836478      -0.903107919       0.442431881
                        -----------------------------------------
Total Dipole Moment    :     -0.043575971      -0.298234923       0.798887715
                        -----------------------------------------
Magnitude (a.u.)       :      0.853852748
Magnitude (Debye)      :      2.170321208

Rotational constants in cm-1:             0.178117             0.077943             0.058744
Rotational constants in MHz :          5339.825048          2336.660454          1761.089867

                             ****ORCA TERMINATED NORMALLY****
TOTAL RUN TIME: 0 days 0 hours 0 minutes 20 seconds 762 msec
