                         Program Version 6.0.0  -   RELEASE  -
|  1> ! r2scan-3c def2/J RI DEFGRID2 scfconv6 printgap
|  2> %output
|  3>     printlevel normal
|  4> end
|  5> %cpcm
|  6>     smd true
|  7>     smdsolvent "water"
|  8> end
|  9> * xyz 0 1
| 10> C -1.0272372551 -0.4538158718 -0.3347967805
| 11> C 0.1313899665 0.3488203249 0.2708489306
| 12> C 1.4723375487 -0.0916451347 -0.334349414
| 13> O 1.8111153654 -1.4144164542 -0.0023730214
| 14> O -0.0184137596 1.7309319732 0.0280929514
| 15> O -2.2660892234 -0.1080456884 0.2438407776
| 16> H -0.8168529878 -1.5238878911 -0.2371940701
| 17> H -1.113310514 -0.2077789735 -1.3959663045
| 18> H 0.1562652525 0.1754243547 1.361590158
| 19> H 2.2447774271 0.617565784 -0.0161583717
| 20> H 1.401304358 -0.0552494404 -1.4236072932
| 21> H 2.0464343404 -1.4621532306 0.9351170011
| 22> H -0.961121056 1.9480117508 0.0990286741
| 23> H -2.3127685316 -0.4578561346 1.1445116589
| 24> *
| 25>
| 26>                          ****END OF INPUT****

CARTESIAN COORDINATES (ANGSTROEM)
---------------------------------
  C     -1.027237   -0.453816   -0.334797
  C      0.131390    0.348820    0.270849
  C      1.472338   -0.091645   -0.334349
  O      1.811115   -1.414416   -0.002373
  O     -0.018414    1.730932    0.028093
  O     -2.266089   -0.108046    0.243841
  H     -0.816853   -1.523888   -0.237194
  H     -1.113311   -0.207779   -1.395966
  H      0.156265    0.175424    1.361590
  H      2.244777    0.617566   -0.016158
  H      1.401304   -0.055249   -1.423607
  H      2.046434   -1.462153    0.935117
  H     -0.961121    1.948012    0.099029
  H     -2.312769   -0.457856    1.144512

 Total Charge           Charge          ....    0
 Multiplicity           Mult            ....    1
 Number of Electrons    NEL             ....   50
 Basis Dimension        Dim             ....  169

ORBITAL ENERGIES
----------------

  NO   OCC          E(Eh)            E(eV)
   0   2.0000     -18.956985      -515.8458
   1   2.0000     -18.956717      -515.8385
   2   2.0000     -18.955159      -515.7961
   3   2.0000     -10.077425      -274.2207
   4   2.0000     -10.073620      -274.1171
   5   2.0000     -10.071181      -274.0508
   6   2.0000      -1.004641       -27.3377
   7   2.0000      -0.992046       -26.9949
   8   2.0000      -0.981152       -26.6985
   9   2.0000      -0.719455       -19.5774
  10   2.0000      -0.640191       -17.4205
  11   2.0000      -0.572243       -15.5715
  12   2.0000      -0.499892       -13.6028
  13   2.0000      -0.466683       -12.6991
  14   2.0000      -0.461297       -12.5525
  15   2.0000      -0.436517       -11.8782
  16   2.0000      -0.409941       -11.1551
  17   2.0000      -0.387140       -10.5346
  18   2.0000      -0.367703       -10.0057
  19   2.0000      -0.327819        -8.9204
  20   2.0000      -0.304941        -8.2979
  21   2.0000      -0.301013        -8.1910
  22   2.0000      -0.275180        -7.4880
  23   2.0000      -0.241346        -6.5674
  24   2.0000      -0.230239        -6.2651
  25   0.0000       0.051527         1.4021
  26   0.0000       0.084657         2.3036
  27   0.0000       0.098190         2.6719
  28   0.0000       0.129694         3.5292
  29   0.0000       0.143080         3.8934

MULLIKEN ATOMIC CHARGES
-----------------------
   0 C :   -0.228307
   1 C :    0.096797
   2 C :   -0.212268
   3 O :   -0.497605
   4 O :   -0.509421
   5 O :   -0.497050
   6 H :    0.156257
   7 H :    0.166061
   8 H :    0.149181
   9 H :    0.153327
  10 H :    0.161295
  11 H :    0.356808
  12 H :    0.351080
  13 H :    0.353844
Sum of atomic charges:   -0.0000000

LOEWDIN ATOMIC CHARGES
----------------------
   0 C :    0.020037
   1 C :    0.072308
   2 C :    0.033699
   3 O :   -0.635634
   4 O :   -0.627347
   5 O :   -0.632346
   6 H :    0.178372
   7 H :    0.187940
   8 H :    0.175585
   9 H :    0.175010
  10 H :    0.187013
  11 H :    0.287528
  12 H :    0.291447
  13 H :    0.286389

  Mayer bond orders larger than 0.100000
B(  0-C ,  1-C ) :   0.9214 B(  0-C ,  5-O ) :   0.9644 B(  0-C ,  6-H ) :   0.9609
B(  0-C ,  7-H ) :   0.9721 B(  1-C ,  2-C ) :   0.9204 B(  1-C ,  4-O ) :   0.8575
B(  1-C ,  8-H ) :   0.9397 B(  2-C ,  3-O ) :   0.9702 B(  2-C ,  9-H ) :   0.9591
B(  2-C , 10-H ) :   0.9712 B(  3-O , 11-H ) :   0.8646 B(  4-O , 12-H ) :   0.8551
B(  5-O , 13-H ) :   0.8667

Dispersion correction           -0.002997641
FINAL SINGLE POINT ENERGY      -344.744822826940

DIPOLE MOMENT
-------------

Method             : SCF
Type of density    : Electron Density
Multiplicity       :   1
Irrep              :   0
Energy             :  -344.7522019076477022 Eh
Relativity type    :
Basis              : AO
                                X                 Y                 Z
Electronic contribution:     -0.653867337       0.489539865       0.718993247
Nuclear contribution   :      0.597836478      -0.903107919       0.442431881
                        -----------------------------------------
Total Dipole Moment    :     -0.056030860      -0.413568054       1.161425128
                        -----------------------------------------
Magnitude (a.u.)       :      1.234133834
Magnitude (Debye)      :      3.136918911

Rotational constants in cm-1:             0.178117             0.077943             0.058744
Rotational constants in MHz :          5339.825048          2336.660454          1761.089867

                             ****ORCA TERMINATED NORMALLY****
TOTAL RUN TIME: 0 days 0 hours 0 minutes 23 seconds 697 msec
