                         Program Version 6.0.0  -   RELEASE  -
|  1> ! pbe def2-sv(p) def2/J RI DEFGRID1 loosescf d4 GCP(DFT/SV(P)) printgap
|  2> %output
|  3>     printlevel normal
|  4> end
|  5> * xyz 0 1
|  6> C -1.3329793887 0.3039268813 0.0037507172
|  7> C 0.1437486137 0.6540319143 0.2650093541
|  8> C 1.0847783095 -0.2832311991 -0.5004789323
|  9> O 1.2523962778 -1.4551819321 0.265324498
| 10> O 0.42933597 1.9744140094 -0.1391399502
| 11> O -1.6049723133 -1.0743926979 0.0551164925
| 12> H -1.5980885051 0.6275447821 -1.0071661927
| 13> H -1.9689011793 0.8418732107 0.723082343
| 14> H 0.3693686488 0.5221208857 1.3354768003
| 15> H 2.0389838953 0.2411678241 -0.6364706939
| 16> H 0.6573413472 -0.5092113775 -1.4838388895
| 17> H 1.7945021438 -2.0843453202 -0.2289902565
| 18> H -0.1163755001 2.5949984101 0.3641646333
| 19> H -1.1506014285 -1.4620151346 0.8170739762
| 20> *
| 21>
| 22>                          ****END OF INPUT****

CARTESIAN COORDINATES (ANGSTROEM)
---------------------------------
  C     -1.332979    0.303927    0.003751
  C      0.143749    0.654032    0.265009
  C      1.084778   -0.283231   -0.500479
  O      1.252396   -1.455182    0.265324
  O      0.429336    1.974414   -0.139140
  O     -1.604972   -1.074393    0.055116
  H     -1.598089    0.627545   -1.007166
  H     -1.968901    0.841873    0.723082
  H      0.369369    0.522121    1.335477
  H      2.038984    0.241168   -0.636471
  H      0.657341   -0.509211   -1.483839
  H      1.794502   -2.084345   -0.228990
  H     -0.116376    2.594998    0.364165
  H     -1.150601   -1.462015    0.817074

 Total Charge           Charge          ....    0
 Multiplicity           Mult            ....    1
 Number of Electrons    NEL             ....   50
 Basis Dimension        Dim             ....  100

ORBITAL ENERGIES
----------------

  NO   OCC          E(Eh)            E(eV)
   0   2.0000     -18.753004      -510.2952
   1   2.0000     -18.752801      -510.2896
   2   2.0000     -18.737604      -509.8761
   3   2.0000      -9.938773      -270.4478
   4   2.0000      -9.929423      -270.1933
   5   2.0000      -9.925862      -270.0964
   6   2.0000      -0.936484       -25.4830
   7   2.0000      -0.922365       -25.0988
   8   2.0000      -0.911872       -24.8133
   9   2.0000      -0.677044       -18.4233
  10   2.0000      -0.604896       -16.4600
  11   2.0000      -0.533708       -14.5229
  12   2.0000      -0.495653       -13.4874
  13   2.0000      -0.453275       -12.3342
  14   2.0000      -0.430693       -11.7197
  15   2.0000      -0.424489       -11.5509
  16   2.0000      -0.373262       -10.1570
  17   2.0000      -0.364954        -9.9309
  18   2.0000      -0.346787        -9.4366
  19   2.0000      -0.305935        -8.3249
  20   2.0000      -0.288371        -7.8470
  21   2.0000      -0.270347        -7.3565
  22   2.0000      -0.231701        -6.3049
  23   2.0000      -0.220968        -6.0128
  24   2.0000      -0.199814        -5.4372
  25   0.0000       0.012536         0.3411
  26   0.0000       0.030845         0.8393
  27   0.0000       0.053268         1.4495
  28   0.0000       0.078286         2.1303
  29   0.0000       0.099800         2.7157

MULLIKEN ATOMIC CHARGES
-----------------------
   0 C :    0.028890
   1 C :   -0.049052
   2 C :    0.035743
   3 O :   -0.442913
   4 O :   -0.421309
   5 O :   -0.433685
   6 H :    0.084250
   7 H :    0.063071
   8 H :    0.067937
   9 H :    0.083307
  10 H :    0.078316
  11 H :    0.304303
  12 H :    0.302534
  13 H :    0.298608
Sum of atomic charges:    0.0000000

LOEWDIN ATOMIC CHARGES
----------------------
   0 C :   -0.139939
   1 C :   -0.090809
   2 C :   -0.125741
   3 O :   -0.342758
   4 O :   -0.321475
   5 O :   -0.335819
   6 H :    0.111056
   7 H :    0.086830
   8 H :    0.097489
   9 H :    0.102198
  10 H :    0.103296
  11 H :    0.289143
  12 H :    0.287755
  13 H :    0.278776

  Mayer bond orders larger than 0.100000
B(  0-C ,  1-C ) :   1.0561 B(  0-C ,  5-O ) :   1.0862 B(  0-C ,  6-H ) :   0.9110
B(  0-C ,  7-H ) :   0.9222 B(  1-C ,  2-C ) :   1.0401 B(  1-C ,  4-O ) :   1.0643
B(  1-C ,  8-H ) :   0.9049 B(  2-C ,  3-O ) :   1.0645 B(  2-C ,  9-H ) :   0.9179
B(  2-C , 10-H ) :   0.9151 B(  3-O , 11-H ) :   0.8487 B(  4-O , 12-H ) :   0.8491
B(  5-O , 13-H ) :   0.8367

Dispersion correction           -0.009257596
FINAL SINGLE POINT ENERGY      -344.003723043583

DIPOLE MOMENT
-------------

Method             : SCF
Type of density    : Electron Density
Multiplicity       :   1
Irrep              :   0
Energy             :  -344.0772907118994226 Eh
Relativity type    :
Basis              : AO
                                X                 Y                 Z
Electronic contribution:      0.280455921      -0.590477708       0.395102367
Nuclear contribution   :      0.025747733       0.716150011      -0.106762512
                        -----------------------------------------
Total Dipole Moment    :      0.306203654       0.125672303       0.288339855
                        -----------------------------------------
Magnitude (a.u.)       :      0.438969335
Magnitude (Debye)      :      1.115771378

Rotational constants in cm-1:             0.127054             0.113308             0.065230
Rotational constants in MHz :          3808.979132          3396.890547          1955.560212

                             ****ORCA TERMINATED NORMALLY****
TOTAL RUN TIME: 0 days 0 hours 0 minutes 6 seconds 696 msec
