                         Program Version 6.0.0  -   RELEASE  -
|  1> ! r2scan-3c def2/J RI DEFGRID2 scfconv6 printgap
|  2> %output
|  3>     printlevel normal
|  4> end
|  5> * xyz 0 1
|  6> C -2.4146963155 0.7208655333 0.6580948832
|  7> C -1.28477325 -0.1850067703 0.1689795007
|  8> C -1.6954278002 -0.8606377812 -1.1378464219
|  9> C -4.5533e-06 0.6355625942 -0.0003711922
| 10> C 1.2849000016 -0.1849210404 -0.1690973238
| 11> C 2.4149234308 0.7210778716 -0.6577517353
| 12> C 1.6950903049 -0.8604127971 1.1379491341
| 13> H -3.3349525247 0.1535354919 0.7769120533
| 14> H -2.1620655506 1.1682375448 1.6166684486
| 15> H -2.5944465243 1.5203533977 -0.0576577621
| 16> H -1.1187054458 -0.9597652841 0.9242127086
| 17> H -2.6113768466 -1.4301563346 -0.9972985893
| 18> H -1.8711119377 -0.1136493386 -1.9093225285
| 19> H -0.924758401 -1.5420207545 -1.4881167491
| 20> H 0.1225305464 1.283301204 0.8714138293
| 21> H -0.1226153624 1.2826411758 -0.8726365769
| 22> H 1.1192356045 -0.9597475651 -0.9243567236
| 23> H 2.1628339994 1.1680810402 -1.6166380195
| 24> H 2.5939740157 1.5208411399 0.0578699509
| 25> H 3.3354127892 0.1539559575 -0.7757520237
| 26> H 2.6114696561 -1.4293750514 0.9979548935
| 27> H 1.8698171907 -0.1133825032 1.9095992865
| 28> H 0.9246179539 -1.5423015793 1.4876620765
| 29> *
| 30>
| 31>                          ****END OF INPUT****

CARTESIAN COORDINATES (ANGSTROEM)
---------------------------------
  C     -2.414696    0.720866    0.658095
  C     -1.284773   -0.185007    0.168980
  C     -1.695428   -0.860638   -1.137846
  C     -0.000005    0.635563   -0.000371
  C      1.284900   -0.184921   -0.169097
  C      2.414923    0.721078   -0.657752
  C      1.695090   -0.860413    1.137949
  H     -3.334953    0.153535    0.776912
  H     -2.162066    1.168238    1.616668
  H     -2.594447    1.520353   -0.057658
  H     -1.118705   -0.959765    0.924213
  H     -2.611377   -1.430156   -0.997299
  H     -1.871112   -0.113649   -1.909323
  H     -0.924758   -1.542021   -1.488117
  H      0.122531    1.283301    0.871414
  H     -0.122615    1.282641   -0.872637
  H      1.119236   -0.959748   -0.924357
  H      2.162834    1.168081   -1.616638
  H      2.593974    1.520841    0.057870
  H      3.335413    0.153956   -0.775752
  H      2.611470   -1.429375    0.997955
  H      1.869817   -0.113383    1.909599
  H      0.924618   -1.542302    1.487662

 Total Charge           Charge          ....    0
 Multiplicity           Mult            ....    1
 Number of Electrons    NEL             ....   58
 Basis Dimension        Dim             ....  213

ORBITAL ENERGIES
----------------

  NO   OCC          E(Eh)            E(eV)
   0   2.0000     -10.029565      -272.9183
   1   2.0000     -10.029560      -272.9182
   2   2.0000     -10.017184      -272.5814
   3   2.0000     -10.012484      -272.4535
   4   2.0000     -10.012480      -272.4534
   5   2.0000     -10.012147      -272.4444
   6   2.0000     -10.012146      -272.4443
   7   2.0000      -0.786284       -21.3959
   8   2.0000      -0.743567       -20.2335
   9   2.0000      -0.647529       -17.6202
  10   2.0000      -0.647067       -17.6076
  11   2.0000      -0.639552       -17.4031
  12   2.0000      -0.539691       -14.6857
  13   2.0000      -0.515349       -14.0234
  14   2.0000      -0.443817       -12.0769
  15   2.0000      -0.417481       -11.3602
  16   2.0000      -0.407886       -11.0992
  17   2.0000      -0.390914       -10.6373
  18   2.0000      -0.378186       -10.2910
  19   2.0000      -0.364779        -9.9261
  20   2.0000      -0.350960        -9.5501
  21   2.0000      -0.349911        -9.5216
  22   2.0000      -0.327828        -8.9207
  23   2.0000      -0.318762        -8.6740
  24   2.0000      -0.308644        -8.3986
  25   2.0000      -0.301934        -8.2160
  26   2.0000      -0.284800        -7.7498
  27   2.0000      -0.278242        -7.5713
  28   2.0000      -0.271525        -7.3886
  29   0.0000       0.082118         2.2345
  30   0.0000       0.100138         2.7249
  31   0.0000       0.117143         3.1876
  32   0.0000       0.122010         3.3201
  33   0.0000       0.129271         3.5176

MULLIKEN ATOMIC CHARGES
-----------------------
   0 C :   -0.479807
   1 C :   -0.019002
   2 C :   -0.506080
   3 C :   -0.310873
   4 C :   -0.019112
   5 C :   -0.479796
   6 C :   -0.506052
   7 H :    0.145310
   8 H :    0.146598
   9 H :    0.146163
  10 H :    0.136673
  11 H :    0.146948
  12 H :    0.148790
  13 H :    0.145181
  14 H :    0.144696
  15 H :    0.144686
  16 H :    0.136689
  17 H :    0.146602
  18 H :    0.146164
  19 H :    0.145306
  20 H :    0.146938
  21 H :    0.148794
  22 H :    0.145183
Sum of atomic charges:   -0.0000000

LOEWDIN ATOMIC CHARGES
----------------------
   0 C :   -0.416596
   1 C :   -0.246084
   2 C :   -0.417597
   3 C :   -0.299378
   4 C :   -0.246083
   5 C :   -0.416598
   6 C :   -0.417605
   7 H :    0.151598
   8 H :    0.152162
   9 H :    0.153807
  10 H :    0.154526
  11 H :    0.152865
  12 H :    0.153452
  13 H :    0.151076
  14 H :    0.160481
  15 H :    0.160488
  16 H :    0.154523
  17 H :    0.152164
  18 H :    0.153809
  19 H :    0.151596
  20 H :    0.152866
  21 H :    0.153456
  22 H :    0.151071

  Mayer bond orders larger than 0.100000
B(  0-C ,  1-C ) :   0.9002 B(  0-C ,  7-H ) :   0.9773 B(  0-C ,  8-H ) :   0.9819
B(  0-C ,  9-H ) :   0.9843 B(  1-C ,  2-C ) :   0.9105 B(  1-C ,  3-C ) :   0.8929
B(  1-C , 10-H ) :   0.9647 B(  2-C , 11-H ) :   0.9751 B(  2-C , 12-H ) :   0.9853
B(  2-C , 13-H ) :   0.9748 B(  3-C ,  4-C ) :   0.8929 B(  3-C , 14-H ) :   0.9819
B(  3-C , 15-H ) :   0.9818 B(  4-C ,  5-C ) :   0.9002 B(  4-C ,  6-C ) :   0.9105
B(  4-C , 16-H ) :   0.9647 B(  5-C , 17-H ) :   0.9818 B(  5-C , 18-H ) :   0.9843
B(  5-C , 19-H ) :   0.9773 B(  6-C , 20-H ) :   0.9751 B(  6-C , 21-H ) :   0.9853
B(  6-C , 22-H ) :   0.9748

Dispersion correction           -0.006285167
FINAL SINGLE POINT ENERGY      -276.288761401894

DIPOLE MOMENT
-------------

Method             : SCF
Type of density    : Electron Density
Multiplicity       :   1
Irrep              :   0
Energy             :  -276.2935049407914789 Eh
Relativity type    :
Basis              : AO
                                X                 Y                 Z
Electronic contribution:      0.000157927      -0.190684857      -0.000483880
Nuclear contribution   :     -0.000132128       0.150620450       0.000482472
                        -----------------------------------------
Total Dipole Moment    :      0.000025799      -0.040064407      -0.000001408
                        -----------------------------------------
Magnitude (a.u.)       :      0.040064415
Magnitude (Debye)      :      0.101835651

Rotational constants in cm-1:             0.136825             0.044730             0.043783
Rotational constants in MHz :          4101.914845          1340.985051          1312.585240

                             ****ORCA TERMINATED NORMALLY****
TOTAL RUN TIME: 0 days 0 hours 0 minutes 23 seconds 145 msec
