                         Program Version 6.0.0  -   RELEASE  -
|  1> ! r2scan-3c def2/J RI DEFGRID2 scfconv6 printgap
|  2> %output
|  3>     printlevel normal
|  4> end
|  5> %cpcm
|  6>     smd true
|  7>     smdsolvent "water"
|  8> end
|  9> * xyz 0 1
| 10> C -2.4146963155 0.7208655333 0.6580948832
| 11> C -1.28477325 -0.1850067703 0.1689795007
| 12> C -1.6954278002 -0.8606377812 -1.1378464219
| 13> C -4.5533e-06 0.6355625942 -0.0003711922
| 14> C 1.2849000016 -0.1849210404 -0.1690973238
| 15> C 2.4149234308 0.7210778716 -0.6577517353
| 16> C 1.6950903049 -0.8604127971 1.1379491341
| 17> H -3.3349525247 0.1535354919 0.7769120533
| 18> H -2.1620655506 1.1682375448 1.6166684486
| 19> H -2.5944465243 1.5203533977 -0.0576577621
| 20> H -1.1187054458 -0.9597652841 0.9242127086
| 21> H -2.6113768466 -1.4301563346 -0.9972985893
| 22> H -1.8711119377 -0.1136493386 -1.9093225285
| 23> H -0.924758401 -1.5420207545 -1.4881167491
| 24> H 0.1225305464 1.283301204 0.8714138293
| 25> H -0.1226153624 1.2826411758 -0.8726365769
| 26> H 1.1192356045 -0.9597475651 -0.9243567236
| 27> H 2.1628339994 1.1680810402 -1.6166380195
| 28> H 2.5939740157 1.5208411399 0.0578699509
| 29> H 3.3354127892 0.1539559575 -0.7757520237
| 30> H 2.6114696561 -1.4293750514 0.9979548935
| 31> H 1.8698171907 -0.1133825032 1.9095992865
| 32> H 0.9246179539 -1.5423015793 1.4876620765
| 33> *
| 34>
| 35>                          ****END OF INPUT****

CARTESIAN COORDINATES (ANGSTROEM)
---------------------------------
  C     -2.414696    0.720866    0.658095
  C     -1.284773   -0.185007    0.168980
  C     -1.695428   -0.860638   -1.137846
  C     -0.000005    0.635563   -0.000371
  C      1.284900   -0.184921   -0.169097
  C      2.414923    0.721078   -0.657752
  C      1.695090   -0.860413    1.137949
  H     -3.334953    0.153535    0.776912
  H     -2.162066    1.168238    1.616668
  H     -2.594447    1.520353   -0.057658
  H     -1.118705   -0.959765    0.924213
  H     -2.611377   -1.430156   -0.997299
  H     -1.871112   -0.113649   -1.909323
  H     -0.924758   -1.542021   -1.488117
  H      0.122531    1.283301    0.871414
  H     -0.122615    1.282641   -0.872637
  H      1.119236   -0.959748   -0.924357
  H      2.162834    1.168081   -1.616638
  H      2.593974    1.520841    0.057870
  H      3.335413    0.153956   -0.775752
  H      2.611470   -1.429375    0.997955
  H      1.869817   -0.113383    1.909599
  H      0.924618   -1.542302    1.487662

 Total Charge           Charge          ....    0
 Multiplicity           Mult            ....    1
 Number of Electrons    NEL             ....   58
 Basis Dimension        Dim             ....  213

ORBITAL ENERGIES
----------------

  NO   OCC          E(Eh)            E(eV)
   0   2.0000     -10.021768      -272.7062
   1   2.0000     -10.021764      -272.7061
   2   2.0000     -10.008898      -272.3560
   3   2.0000     -10.004823      -272.2451
   4   2.0000     -10.004822      -272.2451
   5   2.0000     -10.004499      -272.2363
   6   2.0000     -10.004495      -272.2361
   7   2.0000      -0.778515       -21.1845
   8   2.0000      -0.736114       -20.0307
   9   2.0000      -0.640494       -17.4287
  10   2.0000      -0.640084       -17.4176
  11   2.0000      -0.632255       -17.2045
  12   2.0000      -0.532433       -14.4882
  13   2.0000      -0.507650       -13.8139
  14   2.0000      -0.435918       -11.8619
  15   2.0000      -0.410017       -11.1571
  16   2.0000      -0.400448       -10.8967
  17   2.0000      -0.383431       -10.4337
  18   2.0000      -0.370626       -10.0852
  19   2.0000      -0.357612        -9.7311
  20   2.0000      -0.343741        -9.3537
  21   2.0000      -0.342747        -9.3266
  22   2.0000      -0.320220        -8.7136
  23   2.0000      -0.311137        -8.4665
  24   2.0000      -0.300854        -8.1867
  25   2.0000      -0.294482        -8.0133
  26   2.0000      -0.276783        -7.5317
  27   2.0000      -0.270296        -7.3551
  28   2.0000      -0.264004        -7.1839
  29   0.0000       0.090623         2.4660
  30   0.0000       0.107840         2.9345
  31   0.0000       0.125507         3.4152
  32   0.0000       0.129689         3.5290
  33   0.0000       0.135127         3.6770

MULLIKEN ATOMIC CHARGES
-----------------------
   0 C :   -0.525640
   1 C :   -0.002215
   2 C :   -0.553166
   3 C :   -0.332391
   4 C :   -0.002317
   5 C :   -0.525637
   6 C :   -0.553139
   7 H :    0.156288
   8 H :    0.157581
   9 H :    0.156897
  10 H :    0.147191
  11 H :    0.157616
  12 H :    0.160038
  13 H :    0.157752
  14 H :    0.153886
  15 H :    0.153872
  16 H :    0.147207
  17 H :    0.157584
  18 H :    0.156900
  19 H :    0.156287
  20 H :    0.157608
  21 H :    0.160041
  22 H :    0.157755
Sum of atomic charges:   -0.0000000

LOEWDIN ATOMIC CHARGES
----------------------
   0 C :   -0.425964
   1 C :   -0.244503
   2 C :   -0.426658
   3 C :   -0.302704
   4 C :   -0.244502
   5 C :   -0.425966
   6 C :   -0.426667
   7 H :    0.153836
   8 H :    0.154405
   9 H :    0.155769
  10 H :    0.157426
  11 H :    0.154856
  12 H :    0.155775
  13 H :    0.154078
  14 H :    0.162333
  15 H :    0.162339
  16 H :    0.157423
  17 H :    0.154406
  18 H :    0.155771
  19 H :    0.153836
  20 H :    0.154858
  21 H :    0.155779
  22 H :    0.154073

  Mayer bond orders larger than 0.100000
B(  0-C ,  1-C ) :   0.8879 B(  0-C ,  7-H ) :   0.9754 B(  0-C ,  8-H ) :   0.9792
B(  0-C ,  9-H ) :   0.9833 B(  1-C ,  2-C ) :   0.9006 B(  1-C ,  3-C ) :   0.8902
B(  1-C , 10-H ) :   0.9658 B(  2-C , 11-H ) :   0.9733 B(  2-C , 12-H ) :   0.9836
B(  2-C , 13-H ) :   0.9720 B(  3-C ,  4-C ) :   0.8903 B(  3-C , 14-H ) :   0.9809
B(  3-C , 15-H ) :   0.9808 B(  4-C ,  5-C ) :   0.8879 B(  4-C ,  6-C ) :   0.9006
B(  4-C , 16-H ) :   0.9658 B(  5-C , 17-H ) :   0.9792 B(  5-C , 18-H ) :   0.9833
B(  5-C , 19-H ) :   0.9754 B(  6-C , 20-H ) :   0.9733 B(  6-C , 21-H ) :   0.9836
B(  6-C , 22-H ) :   0.9720

Dispersion correction           -0.006285167
FINAL SINGLE POINT ENERGY      -276.284901002261

DIPOLE MOMENT
-------------

Method             : SCF
Type of density    : Electron Density
Multiplicity       :   1
Irrep              :   0
Energy             :  -276.2896445411584523 Eh
Relativity type    :
Basis              : AO
                                X                 Y                 Z
Electronic contribution:      0.000175367      -0.211836303      -0.000483550
Nuclear contribution   :     -0.000132128       0.150620450       0.000482472
                        -----------------------------------------
Total Dipole Moment    :      0.000043239      -0.061215853      -0.000001077
                        -----------------------------------------
Magnitude (a.u.)       :      0.061215869
Magnitude (Debye)      :      0.155598372

Rotational constants in cm-1:             0.136825             0.044730             0.043783
Rotational constants in MHz :          4101.914845          1340.985051          1312.585240

                             ****ORCA TERMINATED NORMALLY****
TOTAL RUN TIME: 0 days 0 hours 0 minutes 28 seconds 169 msec
