                         Program Version 6.0.0  -   RELEASE  -
|  1> ! r2scan-3c def2/J RI DEFGRID2 scfconv6 printgap
|  2> %output
|  3>     printlevel normal
|  4> end
|  5> * xyz 0 1
|  6> C -2.4782645615 0.9990535472 -0.3123706987
|  7> C -1.7212923547 -0.0615990942 0.4802343879
|  8> C -0.6002252654 -0.738880924 -0.3198743618
|  9> C 0.8105810536 -0.1866457981 -0.0466115708
| 10> C 0.9291997867 1.3030355624 -0.384926207
| 11> C 1.8275091583 -0.9803969042 -0.8792168565
| 12> O 1.0558826048 -0.3947966089 1.3428555549
| 13> H -1.81886373 1.7946540735 -0.6455879102
| 14> H -3.2603427082 1.4379169748 0.3032387097
| 15> H -2.9444810874 0.5517121641 -1.187744318
| 16> H -1.2956369474 0.3733941521 1.3856348431
| 17> H -2.4357570433 -0.8236822531 0.7977316525
| 18> H -0.5716674802 -1.7984727497 -0.0592229785
| 19> H -0.8069188002 -0.6605297845 -1.3874180229
| 20> H 0.6167379637 1.4801239927 -1.4096464973
| 21> H 1.9615032669 1.63099225 -0.2768205726
| 22> H 0.3104210239 1.8919716836 0.2862054767
| 23> H 1.6049976634 -0.8816737799 -1.9374748972
| 24> H 1.7892270653 -2.0327789184 -0.6079464237
| 25> H 2.8359304473 -0.612720144 -0.7009138949
| 26> H 1.9412076068 -0.0708878525 1.5550466229
| 27> *
| 28>
| 29>                          ****END OF INPUT****

CARTESIAN COORDINATES (ANGSTROEM)
---------------------------------
  C     -2.478265    0.999054   -0.312371
  C     -1.721292   -0.061599    0.480234
  C     -0.600225   -0.738881   -0.319874
  C      0.810581   -0.186646   -0.046612
  C      0.929200    1.303036   -0.384926
  C      1.827509   -0.980397   -0.879217
  O      1.055883   -0.394797    1.342856
  H     -1.818864    1.794654   -0.645588
  H     -3.260343    1.437917    0.303239
  H     -2.944481    0.551712   -1.187744
  H     -1.295637    0.373394    1.385635
  H     -2.435757   -0.823682    0.797732
  H     -0.571667   -1.798473   -0.059223
  H     -0.806919   -0.660530   -1.387418
  H      0.616738    1.480124   -1.409646
  H      1.961503    1.630992   -0.276821
  H      0.310421    1.891972    0.286205
  H      1.604998   -0.881674   -1.937475
  H      1.789227   -2.032779   -0.607946
  H      2.835930   -0.612720   -0.700914
  H      1.941208   -0.070888    1.555047

 Total Charge           Charge          ....    0
 Multiplicity           Mult            ....    1
 Number of Electrons    NEL             ....   58
 Basis Dimension        Dim             ....  208

ORBITAL ENERGIES
----------------

  NO   OCC          E(Eh)            E(eV)
   0   2.0000     -18.942745      -515.4583
   1   2.0000     -10.087437      -274.4931
   2   2.0000     -10.019509      -272.6447
   3   2.0000     -10.018076      -272.6057
   4   2.0000     -10.016991      -272.5762
   5   2.0000     -10.016826      -272.5717
   6   2.0000     -10.011358      -272.4229
   7   2.0000      -0.982498       -26.7351
   8   2.0000      -0.766851       -20.8671
   9   2.0000      -0.721908       -19.6441
  10   2.0000      -0.659028       -17.9331
  11   2.0000      -0.646485       -17.5918
  12   2.0000      -0.562394       -15.3035
  13   2.0000      -0.529051       -14.3962
  14   2.0000      -0.454630       -12.3711
  15   2.0000      -0.435731       -11.8568
  16   2.0000      -0.415832       -11.3154
  17   2.0000      -0.393242       -10.7007
  18   2.0000      -0.383119       -10.4252
  19   2.0000      -0.377769       -10.2796
  20   2.0000      -0.359706        -9.7881
  21   2.0000      -0.353393        -9.6163
  22   2.0000      -0.336861        -9.1665
  23   2.0000      -0.323378        -8.7996
  24   2.0000      -0.303964        -8.2713
  25   2.0000      -0.299410        -8.1474
  26   2.0000      -0.289358        -7.8738
  27   2.0000      -0.271906        -7.3989
  28   2.0000      -0.232618        -6.3299
  29   0.0000       0.059872         1.6292
  30   0.0000       0.098711         2.6861
  31   0.0000       0.111061         3.0221
  32   0.0000       0.115055         3.1308
  33   0.0000       0.127271         3.4632

MULLIKEN ATOMIC CHARGES
-----------------------
   0 C :   -0.494068
   1 C :   -0.267089
   2 C :   -0.262571
   3 C :    0.166779
   4 C :   -0.530301
   5 C :   -0.460958
   6 O :   -0.414598
   7 H :    0.148130
   8 H :    0.145530
   9 H :    0.144522
  10 H :    0.172855
  11 H :    0.140773
  12 H :    0.156285
  13 H :    0.142840
  14 H :    0.162478
  15 H :    0.141314
  16 H :    0.172247
  17 H :    0.150634
  18 H :    0.160998
  19 H :    0.140386
  20 H :    0.283814
Sum of atomic charges:    0.0000000

LOEWDIN ATOMIC CHARGES
----------------------
   0 C :   -0.426703
   1 C :   -0.310464
   2 C :   -0.264298
   3 C :    0.058678
   4 C :   -0.391383
   5 C :   -0.389917
   6 O :   -0.609121
   7 H :    0.148965
   8 H :    0.150203
   9 H :    0.147636
  10 H :    0.169606
  11 H :    0.153775
  12 H :    0.170309
  13 H :    0.162870
  14 H :    0.161283
  15 H :    0.154839
  16 H :    0.165355
  17 H :    0.159689
  18 H :    0.164444
  19 H :    0.153639
  20 H :    0.270594

  Mayer bond orders larger than 0.100000
B(  0-C ,  1-C ) :   0.8983 B(  0-C ,  7-H ) :   0.9755 B(  0-C ,  8-H ) :   0.9750
B(  0-C ,  9-H ) :   0.9870 B(  1-C ,  2-C ) :   0.8413 B(  1-C , 10-H ) :   0.9773
B(  1-C , 11-H ) :   0.9655 B(  2-C ,  3-C ) :   0.9419 B(  2-C , 12-H ) :   0.9670
B(  2-C , 13-H ) :   0.9841 B(  3-C ,  4-C ) :   0.9125 B(  3-C ,  5-C ) :   0.9568
B(  3-C ,  6-O ) :   0.8622 B(  4-C , 14-H ) :   0.9739 B(  4-C , 15-H ) :   0.9606
B(  4-C , 16-H ) :   0.9730 B(  5-C , 17-H ) :   0.9783 B(  5-C , 18-H ) :   0.9764
B(  5-C , 19-H ) :   0.9665 B(  6-O , 20-H ) :   0.9040

Dispersion correction           -0.005728814
FINAL SINGLE POINT ENERGY      -312.204653205609

DIPOLE MOMENT
-------------

Method             : SCF
Type of density    : Electron Density
Multiplicity       :   1
Irrep              :   0
Energy             :  -312.2099389344765541 Eh
Relativity type    :
Basis              : AO
                                X                 Y                 Z
Electronic contribution:      2.285777259      -1.923117929       3.278946241
Nuclear contribution   :     -1.929745931       2.133172384      -3.624759633
                        -----------------------------------------
Total Dipole Moment    :      0.356031327       0.210054455      -0.345813392
                        -----------------------------------------
Magnitude (a.u.)       :      0.538950909
Magnitude (Debye)      :      1.369904342

Rotational constants in cm-1:             0.134155             0.053808             0.051963
Rotational constants in MHz :          4021.863107          1613.121960          1557.802791

                             ****ORCA TERMINATED NORMALLY****
TOTAL RUN TIME: 0 days 0 hours 0 minutes 27 seconds 684 msec
