                         Program Version 6.0.0  -   RELEASE  -
|  1> ! r2scan-3c def2/J RI DEFGRID2 scfconv6 printgap
|  2> %output
|  3>     printlevel normal
|  4> end
|  5> %cpcm
|  6>     smd true
|  7>     smdsolvent "water"
|  8> end
|  9> * xyz 0 1
| 10> C -2.4782645615 0.9990535472 -0.3123706987
| 11> C -1.7212923547 -0.0615990942 0.4802343879
| 12> C -0.6002252654 -0.738880924 -0.3198743618
| 13> C 0.8105810536 -0.1866457981 -0.0466115708
| 14> C 0.9291997867 1.3030355624 -0.384926207
| 15> C 1.8275091583 -0.9803969042 -0.8792168565
| 16> O 1.0558826048 -0.3947966089 1.3428555549
| 17> H -1.81886373 1.7946540735 -0.6455879102
| 18> H -3.2603427082 1.4379169748 0.3032387097
| 19> H -2.9444810874 0.5517121641 -1.187744318
| 20> H -1.2956369474 0.3733941521 1.3856348431
| 21> H -2.4357570433 -0.8236822531 0.7977316525
| 22> H -0.5716674802 -1.7984727497 -0.0592229785
| 23> H -0.8069188002 -0.6605297845 -1.3874180229
| 24> H 0.6167379637 1.4801239927 -1.4096464973
| 25> H 1.9615032669 1.63099225 -0.2768205726
| 26> H 0.3104210239 1.8919716836 0.2862054767
| 27> H 1.6049976634 -0.8816737799 -1.9374748972
| 28> H 1.7892270653 -2.0327789184 -0.6079464237
| 29> H 2.8359304473 -0.612720144 -0.7009138949
| 30> H 1.9412076068 -0.0708878525 1.5550466229
| 31> *
| 32>
| 33>                          ****END OF INPUT****

CARTESIAN COORDINATES (ANGSTROEM)
---------------------------------
  C     -2.478265    0.999054   -0.312371
  C     -1.721292   -0.061599    0.480234
  C     -0.600225   -0.738881   -0.319874
  C      0.810581   -0.186646   -0.046612
  C      0.929200    1.303036   -0.384926
  C      1.827509   -0.980397   -0.879217
  O      1.055883   -0.394797    1.342856
  H     -1.818864    1.794654   -0.645588
  H     -3.260343    1.437917    0.303239
  H     -2.944481    0.551712   -1.187744
  H     -1.295637    0.373394    1.385635
  H     -2.435757   -0.823682    0.797732
  H     -0.571667   -1.798473   -0.059223
  H     -0.806919   -0.660530   -1.387418
  H      0.616738    1.480124   -1.409646
  H      1.961503    1.630992   -0.276821
  H      0.310421    1.891972    0.286205
  H      1.604998   -0.881674   -1.937475
  H      1.789227   -2.032779   -0.607946
  H      2.835930   -0.612720   -0.700914
  H      1.941208   -0.070888    1.555047

 Total Charge           Charge          ....    0
 Multiplicity           Mult            ....    1
 Number of Electrons    NEL             ....   58
 Basis Dimension        Dim             ....  208

ORBITAL ENERGIES
----------------

  NO   OCC          E(Eh)            E(eV)
   0   2.0000     -18.945752      -515.5401
   1   2.0000     -10.082664      -274.3632
   2   2.0000     -10.014861      -272.5182
   3   2.0000     -10.014113      -272.4979
   4   2.0000     -10.007256      -272.3113
   5   2.0000     -10.007228      -272.3105
   6   2.0000     -10.006310      -272.2855
   7   2.0000      -0.984286       -26.7838
   8   2.0000      -0.761925       -20.7330
   9   2.0000      -0.716439       -19.4953
  10   2.0000      -0.650279       -17.6950
  11   2.0000      -0.640485       -17.4285
  12   2.0000      -0.558571       -15.1995
  13   2.0000      -0.525922       -14.3111
  14   2.0000      -0.449486       -12.2311
  15   2.0000      -0.430765       -11.7217
  16   2.0000      -0.410676       -11.1751
  17   2.0000      -0.388252       -10.5649
  18   2.0000      -0.377987       -10.2856
  19   2.0000      -0.370732       -10.0881
  20   2.0000      -0.352641        -9.5958
  21   2.0000      -0.344679        -9.3792
  22   2.0000      -0.331022        -9.0076
  23   2.0000      -0.317273        -8.6334
  24   2.0000      -0.302405        -8.2288
  25   2.0000      -0.297203        -8.0873
  26   2.0000      -0.286214        -7.7883
  27   2.0000      -0.267611        -7.2821
  28   2.0000      -0.235761        -6.4154
  29   0.0000       0.074828         2.0362
  30   0.0000       0.106633         2.9016
  31   0.0000       0.119440         3.2501
  32   0.0000       0.123615         3.3637
  33   0.0000       0.134138         3.6501

MULLIKEN ATOMIC CHARGES
-----------------------
   0 C :   -0.528696
   1 C :   -0.273335
   2 C :   -0.290613
   3 C :    0.212130
   4 C :   -0.566668
   5 C :   -0.515132
   6 O :   -0.504585
   7 H :    0.160053
   8 H :    0.153961
   9 H :    0.156915
  10 H :    0.161195
  11 H :    0.151528
  12 H :    0.166436
  13 H :    0.163973
  14 H :    0.178931
  15 H :    0.163488
  16 H :    0.173587
  17 H :    0.169266
  18 H :    0.163023
  19 H :    0.165047
  20 H :    0.339495
Sum of atomic charges:    0.0000000

LOEWDIN ATOMIC CHARGES
----------------------
   0 C :   -0.432497
   1 C :   -0.314968
   2 C :   -0.269280
   3 C :    0.061771
   4 C :   -0.394168
   5 C :   -0.395351
   6 O :   -0.645364
   7 H :    0.152844
   8 H :    0.151773
   9 H :    0.151500
  10 H :    0.163997
  11 H :    0.155709
  12 H :    0.169829
  13 H :    0.170368
  14 H :    0.166945
  15 H :    0.162235
  16 H :    0.165382
  17 H :    0.165721
  18 H :    0.163431
  19 H :    0.161725
  20 H :    0.288399

  Mayer bond orders larger than 0.100000
B(  0-C ,  1-C ) :   0.8988 B(  0-C ,  7-H ) :   0.9734 B(  0-C ,  8-H ) :   0.9729
B(  0-C ,  9-H ) :   0.9836 B(  1-C ,  2-C ) :   0.8261 B(  1-C , 10-H ) :   0.9808
B(  1-C , 11-H ) :   0.9670 B(  2-C ,  3-C ) :   0.9382 B(  2-C , 12-H ) :   0.9720
B(  2-C , 13-H ) :   0.9781 B(  3-C ,  4-C ) :   0.9114 B(  3-C ,  5-C ) :   0.9446
B(  3-C ,  6-O ) :   0.8437 B(  4-C , 14-H ) :   0.9704 B(  4-C , 15-H ) :   0.9608
B(  4-C , 16-H ) :   0.9659 B(  5-C , 17-H ) :   0.9749 B(  5-C , 18-H ) :   0.9719
B(  5-C , 19-H ) :   0.9672 B(  6-O , 20-H ) :   0.8787

Dispersion correction           -0.005728814
FINAL SINGLE POINT ENERGY      -312.210064327689

DIPOLE MOMENT
-------------

Method             : SCF
Type of density    : Electron Density
Multiplicity       :   1
Irrep              :   0
Energy             :  -312.2153500565561899 Eh
Relativity type    :
Basis              : AO
                                X                 Y                 Z
Electronic contribution:      2.454313857      -1.783453773       3.038349792
Nuclear contribution   :     -1.929745931       2.133172384      -3.624759633
                        -----------------------------------------
Total Dipole Moment    :      0.524567926       0.349718611      -0.586409840
                        -----------------------------------------
Magnitude (a.u.)       :      0.861017489
Magnitude (Debye)      :      2.188532531

Rotational constants in cm-1:             0.134155             0.053808             0.051963
Rotational constants in MHz :          4021.863107          1613.121960          1557.802791

                             ****ORCA TERMINATED NORMALLY****
TOTAL RUN TIME: 0 days 0 hours 0 minutes 32 seconds 644 msec
