                         Program Version 6.0.0  -   RELEASE  -
|  1> ! r2scan-3c def2/J RI DEFGRID2 scfconv6 printgap
|  2> %output
|  3>     printlevel normal
|  4> end
|  5> * xyz 0 1
|  6> C 3.0729812215 -0.4562968405 1.2780452345
|  7> C 2.5956659542 0.013124049 -0.0632895273
|  8> C 3.4395616169 0.2389079997 -1.0588740474
|  9> C 1.1102517474 0.2045712329 -0.2517907762
| 10> H 0.9531421511 0.6892455392 -1.2210274123
| 11> C 0.365020963 -1.1369447656 -0.2810942842
| 12> C -1.0749201527 -0.9098131696 -0.7284739087
| 13> C -1.7165088818 0.2071816002 0.0450934941
| 14> C -0.9994022262 1.1008814658 0.7451408183
| 15> C 0.4824189202 1.0891110567 0.8303257769
| 16> C -3.1631838961 0.2987284064 0.0225244365
| 17> O -3.9135698163 -0.4634075795 -0.5612443785
| 18> H 4.1021049532 -0.7988443362 1.2149836692
| 19> H 3.0331157192 0.357503125 2.0007678526
| 20> H 2.4555798963 -1.2714688224 1.6473780302
| 21> H 3.107337551 0.5856977891 -2.0229892973
| 22> H 4.5002305254 0.0854748064 -0.952533122
| 23> H 0.8621716254 -1.8259913571 -0.9648499722
| 24> H 0.3663028504 -1.5824413324 0.7144875794
| 25> H -1.107278988 -0.6604096001 -1.7932063809
| 26> H -1.6740479905 -1.8141902113 -0.5995461981
| 27> H -1.5107170901 1.8748708482 1.3020934689
| 28> H 0.8630866118 2.1100307855 0.7558501793
| 29> H 0.7540022804 0.7204416635 1.8237912174
| 30> H -3.581788719 1.1467959021 0.5974028563
| 31> *
| 32>
| 33>                          ****END OF INPUT****

CARTESIAN COORDINATES (ANGSTROEM)
---------------------------------
  C      3.072981   -0.456297    1.278045
  C      2.595666    0.013124   -0.063290
  C      3.439562    0.238908   -1.058874
  C      1.110252    0.204571   -0.251791
  H      0.953142    0.689246   -1.221027
  C      0.365021   -1.136945   -0.281094
  C     -1.074920   -0.909813   -0.728474
  C     -1.716509    0.207182    0.045093
  C     -0.999402    1.100881    0.745141
  C      0.482419    1.089111    0.830326
  C     -3.163184    0.298728    0.022524
  O     -3.913570   -0.463408   -0.561244
  H      4.102105   -0.798844    1.214984
  H      3.033116    0.357503    2.000768
  H      2.455580   -1.271469    1.647378
  H      3.107338    0.585698   -2.022989
  H      4.500231    0.085475   -0.952533
  H      0.862172   -1.825991   -0.964850
  H      0.366303   -1.582441    0.714488
  H     -1.107279   -0.660410   -1.793206
  H     -1.674048   -1.814190   -0.599546
  H     -1.510717    1.874871    1.302093
  H      0.863087    2.110031    0.755850
  H      0.754002    0.720442    1.823791
  H     -3.581789    1.146796    0.597403

 Total Charge           Charge          ....    0
 Multiplicity           Mult            ....    1
 Number of Electrons    NEL             ....   82
 Basis Dimension        Dim             ....  284

ORBITAL ENERGIES
----------------

  NO   OCC          E(Eh)            E(eV)
   0   2.0000     -18.939466      -515.3691
   1   2.0000     -10.109376      -275.0901
   2   2.0000     -10.063520      -273.8423
   3   2.0000     -10.051949      -273.5274
   4   2.0000     -10.050132      -273.4780
   5   2.0000     -10.050042      -273.4756
   6   2.0000     -10.047556      -273.4079
   7   2.0000     -10.038327      -273.1568
   8   2.0000     -10.037763      -273.1414
   9   2.0000     -10.033533      -273.0263
  10   2.0000     -10.018760      -272.6243
  11   2.0000      -0.999736       -27.2042
  12   2.0000      -0.834736       -22.7143
  13   2.0000      -0.784621       -21.3506
  14   2.0000      -0.730822       -19.8867
  15   2.0000      -0.725264       -19.7354
  16   2.0000      -0.664399       -18.0792
  17   2.0000      -0.626265       -17.0415
  18   2.0000      -0.597945       -16.2709
  19   2.0000      -0.558237       -15.1904
  20   2.0000      -0.511945       -13.9307
  21   2.0000      -0.498538       -13.5659
  22   2.0000      -0.465332       -12.6623
  23   2.0000      -0.443996       -12.0818
  24   2.0000      -0.426611       -11.6087
  25   2.0000      -0.419728       -11.4214
  26   2.0000      -0.414672       -11.2838
  27   2.0000      -0.400284       -10.8923
  28   2.0000      -0.394972       -10.7477
  29   2.0000      -0.377625       -10.2757
  30   2.0000      -0.370279       -10.0758
  31   2.0000      -0.366069        -9.9612
  32   2.0000      -0.354547        -9.6477
  33   2.0000      -0.344848        -9.3838
  34   2.0000      -0.339312        -9.2332
  35   2.0000      -0.312373        -8.5001
  36   2.0000      -0.301625        -8.2076
  37   2.0000      -0.293549        -7.9879
  38   2.0000      -0.248230        -6.7547
  39   2.0000      -0.231750        -6.3062
  40   2.0000      -0.218201        -5.9376
  41   0.0000      -0.087506        -2.3812
  42   0.0000      -0.015969        -0.4345
  43   0.0000       0.024308         0.6615
  44   0.0000       0.065326         1.7776
  45   0.0000       0.085651         2.3307

MULLIKEN ATOMIC CHARGES
-----------------------
   0 C :   -0.547830
   1 C :    0.082717
   2 C :   -0.369680
   3 C :   -0.024966
   4 H :    0.178493
   5 C :   -0.347249
   6 C :   -0.318276
   7 C :    0.123491
   8 C :   -0.134961
   9 C :   -0.394620
  10 C :    0.016371
  11 O :   -0.350389
  12 H :    0.154989
  13 H :    0.168140
  14 H :    0.164759
  15 H :    0.143001
  16 H :    0.138787
  17 H :    0.171820
  18 H :    0.166161
  19 H :    0.181325
  20 H :    0.183074
  21 H :    0.160620
  22 H :    0.172978
  23 H :    0.181193
  24 H :    0.100053
Sum of atomic charges:   -0.0000000

LOEWDIN ATOMIC CHARGES
----------------------
   0 C :   -0.395402
   1 C :   -0.122938
   2 C :   -0.316897
   3 C :   -0.197101
   4 H :    0.173400
   5 C :   -0.271985
   6 C :   -0.262865
   7 C :   -0.115077
   8 C :   -0.120382
   9 C :   -0.270380
  10 C :    0.201077
  11 O :   -0.468346
  12 H :    0.163070
  13 H :    0.163309
  14 H :    0.160847
  15 H :    0.158176
  16 H :    0.156532
  17 H :    0.166837
  18 H :    0.161696
  19 H :    0.175090
  20 H :    0.181046
  21 H :    0.170623
  22 H :    0.174255
  23 H :    0.179978
  24 H :    0.155437

  Mayer bond orders larger than 0.100000
B(  0-C ,  1-C ) :   0.8591 B(  0-C , 12-H ) :   0.9774 B(  0-C , 13-H ) :   0.9705
B(  0-C , 14-H ) :   0.9801 B(  1-C ,  2-C ) :   1.8704 B(  1-C ,  3-C ) :   0.8793
B(  2-C , 15-H ) :   0.9915 B(  2-C , 16-H ) :   0.9675 B(  3-C ,  4-H ) :   1.0065
B(  3-C ,  5-C ) :   0.8618 B(  3-C ,  9-C ) :   0.8765 B(  5-C ,  6-C ) :   0.8832
B(  5-C , 17-H ) :   0.9713 B(  5-C , 18-H ) :   0.9914 B(  6-C ,  7-C ) :   0.8751
B(  6-C , 19-H ) :   0.9943 B(  6-C , 20-H ) :   0.9830 B(  7-C ,  8-C ) :   1.7471
B(  7-C , 10-C ) :   0.9059 B(  7-C , 24-H ) :  -0.1326 B(  8-C ,  9-C ) :   0.9098
B(  8-C , 11-O ) :   0.1065 B(  8-C , 21-H ) :   0.9175 B(  9-C , 22-H ) :   0.9689
B(  9-C , 23-H ) :   0.9628 B( 10-C , 11-O ) :   1.9079 B( 10-C , 24-H ) :   1.0424

Dispersion correction           -0.008900451
FINAL SINGLE POINT ENERGY      -464.556913332348

DIPOLE MOMENT
-------------

Method             : SCF
Type of density    : Electron Density
Multiplicity       :   1
Irrep              :   0
Energy             :  -464.5575611715371451 Eh
Relativity type    :
Basis              : AO
                                X                 Y                 Z
Electronic contribution:    -11.003637338       0.873096387      -1.690747810
Nuclear contribution   :     12.253784718      -0.366455479       2.339540650
                        -----------------------------------------
Total Dipole Moment    :      1.250147380       0.506640908       0.648792840
                        -----------------------------------------
Magnitude (a.u.)       :      1.496825184
Magnitude (Debye)      :      3.804627259

Rotational constants in cm-1:             0.098681             0.018245             0.017116
Rotational constants in MHz :          2958.389263           546.976668           513.125990

                             ****ORCA TERMINATED NORMALLY****
TOTAL RUN TIME: 0 days 0 hours 0 minutes 56 seconds 168 msec
