                         Program Version 6.0.0  -   RELEASE  -
|  1> ! r2scan-3c def2/J RI DEFGRID2 scfconv6 printgap
|  2> %output
|  3>     printlevel normal
|  4> end
|  5> %cpcm
|  6>     smd true
|  7>     smdsolvent "water"
|  8> end
|  9> * xyz 0 1
| 10> C 3.0729812215 -0.4562968405 1.2780452345
| 11> C 2.5956659542 0.013124049 -0.0632895273
| 12> C 3.4395616169 0.2389079997 -1.0588740474
| 13> C 1.1102517474 0.2045712329 -0.2517907762
| 14> H 0.9531421511 0.6892455392 -1.2210274123
| 15> C 0.365020963 -1.1369447656 -0.2810942842
| 16> C -1.0749201527 -0.9098131696 -0.7284739087
| 17> C -1.7165088818 0.2071816002 0.0450934941
| 18> C -0.9994022262 1.1008814658 0.7451408183
| 19> C 0.4824189202 1.0891110567 0.8303257769
| 20> C -3.1631838961 0.2987284064 0.0225244365
| 21> O -3.9135698163 -0.4634075795 -0.5612443785
| 22> H 4.1021049532 -0.7988443362 1.2149836692
| 23> H 3.0331157192 0.357503125 2.0007678526
| 24> H 2.4555798963 -1.2714688224 1.6473780302
| 25> H 3.107337551 0.5856977891 -2.0229892973
| 26> H 4.5002305254 0.0854748064 -0.952533122
| 27> H 0.8621716254 -1.8259913571 -0.9648499722
| 28> H 0.3663028504 -1.5824413324 0.7144875794
| 29> H -1.107278988 -0.6604096001 -1.7932063809
| 30> H -1.6740479905 -1.8141902113 -0.5995461981
| 31> H -1.5107170901 1.8748708482 1.3020934689
| 32> H 0.8630866118 2.1100307855 0.7558501793
| 33> H 0.7540022804 0.7204416635 1.8237912174
| 34> H -3.581788719 1.1467959021 0.5974028563
| 35> *
| 36>
| 37>                          ****END OF INPUT****

CARTESIAN COORDINATES (ANGSTROEM)
---------------------------------
  C      3.072981   -0.456297    1.278045
  C      2.595666    0.013124   -0.063290
  C      3.439562    0.238908   -1.058874
  C      1.110252    0.204571   -0.251791
  H      0.953142    0.689246   -1.221027
  C      0.365021   -1.136945   -0.281094
  C     -1.074920   -0.909813   -0.728474
  C     -1.716509    0.207182    0.045093
  C     -0.999402    1.100881    0.745141
  C      0.482419    1.089111    0.830326
  C     -3.163184    0.298728    0.022524
  O     -3.913570   -0.463408   -0.561244
  H      4.102105   -0.798844    1.214984
  H      3.033116    0.357503    2.000768
  H      2.455580   -1.271469    1.647378
  H      3.107338    0.585698   -2.022989
  H      4.500231    0.085475   -0.952533
  H      0.862172   -1.825991   -0.964850
  H      0.366303   -1.582441    0.714488
  H     -1.107279   -0.660410   -1.793206
  H     -1.674048   -1.814190   -0.599546
  H     -1.510717    1.874871    1.302093
  H      0.863087    2.110031    0.755850
  H      0.754002    0.720442    1.823791
  H     -3.581789    1.146796    0.597403

 Total Charge           Charge          ....    0
 Multiplicity           Mult            ....    1
 Number of Electrons    NEL             ....   82
 Basis Dimension        Dim             ....  284

ORBITAL ENERGIES
----------------

  NO   OCC          E(Eh)            E(eV)
   0   2.0000     -18.949959      -515.6546
   1   2.0000     -10.114266      -275.2232
   2   2.0000     -10.055183      -273.6154
   3   2.0000     -10.041717      -273.2490
   4   2.0000     -10.038144      -273.1518
   5   2.0000     -10.034583      -273.0549
   6   2.0000     -10.033921      -273.0369
   7   2.0000     -10.028236      -272.8822
   8   2.0000     -10.023403      -272.7507
   9   2.0000     -10.015783      -272.5433
  10   2.0000     -10.007261      -272.3114
  11   2.0000      -1.012722       -27.5576
  12   2.0000      -0.822475       -22.3807
  13   2.0000      -0.774268       -21.0689
  14   2.0000      -0.717801       -19.5324
  15   2.0000      -0.713929       -19.4270
  16   2.0000      -0.650185       -17.6924
  17   2.0000      -0.617379       -16.7997
  18   2.0000      -0.586494       -15.9593
  19   2.0000      -0.550216       -14.9721
  20   2.0000      -0.498996       -13.5784
  21   2.0000      -0.486461       -13.2373
  22   2.0000      -0.459780       -12.5112
  23   2.0000      -0.434398       -11.8206
  24   2.0000      -0.423288       -11.5182
  25   2.0000      -0.409790       -11.1509
  26   2.0000      -0.402870       -10.9627
  27   2.0000      -0.391491       -10.6530
  28   2.0000      -0.384494       -10.4626
  29   2.0000      -0.374332       -10.1861
  30   2.0000      -0.362394        -9.8612
  31   2.0000      -0.355187        -9.6651
  32   2.0000      -0.343422        -9.3450
  33   2.0000      -0.336902        -9.1676
  34   2.0000      -0.326911        -8.8957
  35   2.0000      -0.297596        -8.0980
  36   2.0000      -0.287109        -7.8126
  37   2.0000      -0.281468        -7.6591
  38   2.0000      -0.241673        -6.5763
  39   2.0000      -0.229763        -6.2522
  40   2.0000      -0.223838        -6.0909
  41   0.0000      -0.086611        -2.3568
  42   0.0000      -0.007789        -0.2120
  43   0.0000       0.030261         0.8235
  44   0.0000       0.081966         2.2304
  45   0.0000       0.099200         2.6994

MULLIKEN ATOMIC CHARGES
-----------------------
   0 C :   -0.568531
   1 C :    0.041900
   2 C :   -0.452257
   3 C :    0.003640
   4 H :    0.194134
   5 C :   -0.375840
   6 C :   -0.329681
   7 C :    0.066169
   8 C :   -0.110213
   9 C :   -0.400780
  10 C :    0.057421
  11 O :   -0.458530
  12 H :    0.167885
  13 H :    0.186661
  14 H :    0.182604
  15 H :    0.165732
  16 H :    0.162834
  17 H :    0.175243
  18 H :    0.188125
  19 H :    0.196108
  20 H :    0.179583
  21 H :    0.193993
  22 H :    0.191346
  23 H :    0.208569
  24 H :    0.133887
Sum of atomic charges:   -0.0000000

LOEWDIN ATOMIC CHARGES
----------------------
   0 C :   -0.401522
   1 C :   -0.121090
   2 C :   -0.348720
   3 C :   -0.197223
   4 H :    0.177788
   5 C :   -0.271318
   6 C :   -0.268639
   7 C :   -0.128526
   8 C :   -0.086778
   9 C :   -0.266373
  10 C :    0.212522
  11 O :   -0.554438
  12 H :    0.165537
  13 H :    0.171301
  14 H :    0.168221
  15 H :    0.163360
  16 H :    0.161611
  17 H :    0.167469
  18 H :    0.168657
  19 H :    0.178121
  20 H :    0.177613
  21 H :    0.184437
  22 H :    0.182871
  23 H :    0.192591
  24 H :    0.172529

  Mayer bond orders larger than 0.100000
B(  0-C ,  1-C ) :   0.8718 B(  0-C , 12-H ) :   0.9754 B(  0-C , 13-H ) :   0.9610
B(  0-C , 14-H ) :   0.9716 B(  1-C ,  2-C ) :   1.8545 B(  1-C ,  3-C ) :   0.8591
B(  2-C , 15-H ) :   0.9866 B(  2-C , 16-H ) :   0.9700 B(  3-C ,  4-H ) :   1.0061
B(  3-C ,  5-C ) :   0.8483 B(  3-C ,  9-C ) :   0.8618 B(  5-C ,  6-C ) :   0.8942
B(  5-C , 17-H ) :   0.9678 B(  5-C , 18-H ) :   0.9919 B(  6-C ,  7-C ) :   0.8399
B(  6-C , 19-H ) :   0.9852 B(  6-C , 20-H ) :   0.9841 B(  7-C ,  8-C ) :   1.7455
B(  7-C , 10-C ) :   0.9745 B(  7-C , 24-H ) :  -0.1003 B(  8-C ,  9-C ) :   0.9149
B(  8-C , 21-H ) :   0.9103 B(  9-C , 22-H ) :   0.9602 B(  9-C , 23-H ) :   0.9539
B( 10-C , 11-O ) :   1.8258 B( 10-C , 24-H ) :   1.0120

Dispersion correction           -0.008900451
FINAL SINGLE POINT ENERGY      -464.563963594049

DIPOLE MOMENT
-------------

Method             : SCF
Type of density    : Electron Density
Multiplicity       :   1
Irrep              :   0
Energy             :  -464.5646114332372463 Eh
Relativity type    :
Basis              : AO
                                X                 Y                 Z
Electronic contribution:    -10.541616444       1.265454575      -1.224560300
Nuclear contribution   :     12.253784718      -0.366455479       2.339540650
                        -----------------------------------------
Total Dipole Moment    :      1.712168274       0.898999096       1.114980350
                        -----------------------------------------
Magnitude (a.u.)       :      2.232241196
Magnitude (Debye)      :      5.673906206

Rotational constants in cm-1:             0.098681             0.018245             0.017116
Rotational constants in MHz :          2958.389263           546.976668           513.125990

                             ****ORCA TERMINATED NORMALLY****
TOTAL RUN TIME: 0 days 0 hours 1 minutes 6 seconds 579 msec
