                         Program Version 6.0.0  -   RELEASE  -
|  1> ! r2scan-3c def2/J RI DEFGRID2 scfconv6 printgap
|  2> %output
|  3>     printlevel normal
|  4> end
|  5> * xyz 0 1
|  6> C 2.0076926708 -0.984554932 0.2229012599
|  7> C 1.215498077 0.1240017328 0.9090602722
|  8> C 0.1685156571 0.8284120033 0.0280350732
|  9> H -0.0497605125 1.7945946257 0.5194296782
| 10> C -1.1957586599 0.1193428227 -0.1384077826
| 11> C -1.0977293054 -1.2520908514 -0.801641136
| 12> C -1.9488922437 0.0277772839 1.1865654358
| 13> O 0.767313869 1.0880476624 -1.2311429581
| 14> H 1.4026398002 -1.8668908207 0.0465842012
| 15> H 2.8503456277 -1.2669071028 0.8498236239
| 16> H 2.3875697874 -0.6271934598 -0.7301975258
| 17> H 0.7231178989 -0.2586659915 1.8021915508
| 18> H 1.9256113123 0.8917232178 1.2247524322
| 19> H -1.7791180492 0.768754509 -0.8057316256
| 20> H -0.7568294647 -1.9999401985 -0.0913223982
| 21> H -2.0750896906 -1.5569690418 -1.1692028348
| 22> H -0.4059153785 -1.2177366479 -1.639393672
| 23> H -2.0119705881 1.0030853481 1.6638973473
| 24> H -1.4550663994 -0.6595447252 1.8684385961
| 25> H -2.9577977857 -0.3371610135 1.0112573276
| 26> H 0.1592845198 1.6119878716 -1.7685845147
| 27> *
| 28>
| 29>                          ****END OF INPUT****

CARTESIAN COORDINATES (ANGSTROEM)
---------------------------------
  C      2.007693   -0.984555    0.222901
  C      1.215498    0.124002    0.909060
  C      0.168516    0.828412    0.028035
  H     -0.049761    1.794595    0.519430
  C     -1.195759    0.119343   -0.138408
  C     -1.097729   -1.252091   -0.801641
  C     -1.948892    0.027777    1.186565
  O      0.767314    1.088048   -1.231143
  H      1.402640   -1.866891    0.046584
  H      2.850346   -1.266907    0.849824
  H      2.387570   -0.627193   -0.730198
  H      0.723118   -0.258666    1.802192
  H      1.925611    0.891723    1.224752
  H     -1.779118    0.768755   -0.805732
  H     -0.756829   -1.999940   -0.091322
  H     -2.075090   -1.556969   -1.169203
  H     -0.405915   -1.217737   -1.639394
  H     -2.011971    1.003085    1.663897
  H     -1.455066   -0.659545    1.868439
  H     -2.957798   -0.337161    1.011257
  H      0.159285    1.611988   -1.768585

 Total Charge           Charge          ....    0
 Multiplicity           Mult            ....    1
 Number of Electrons    NEL             ....   58
 Basis Dimension        Dim             ....  208

ORBITAL ENERGIES
----------------

  NO   OCC          E(Eh)            E(eV)
   0   2.0000     -18.945634      -515.5369
   1   2.0000     -10.077239      -274.2156
   2   2.0000     -10.035015      -273.0666
   3   2.0000     -10.022836      -272.7352
   4   2.0000     -10.019537      -272.6455
   5   2.0000     -10.012439      -272.4523
   6   2.0000     -10.006321      -272.2858
   7   2.0000      -0.983965       -26.7750
   8   2.0000      -0.771812       -21.0021
   9   2.0000      -0.724772       -19.7220
  10   2.0000      -0.652720       -17.7614
  11   2.0000      -0.637169       -17.3383
  12   2.0000      -0.567142       -15.4327
  13   2.0000      -0.523016       -14.2320
  14   2.0000      -0.468599       -12.7512
  15   2.0000      -0.449235       -12.2243
  16   2.0000      -0.411394       -11.1946
  17   2.0000      -0.392176       -10.6717
  18   2.0000      -0.384726       -10.4689
  19   2.0000      -0.370864       -10.0917
  20   2.0000      -0.356583        -9.7031
  21   2.0000      -0.344832        -9.3834
  22   2.0000      -0.332612        -9.0508
  23   2.0000      -0.316097        -8.6014
  24   2.0000      -0.311087        -8.4651
  25   2.0000      -0.295844        -8.0503
  26   2.0000      -0.295416        -8.0387
  27   2.0000      -0.271288        -7.3821
  28   2.0000      -0.230244        -6.2653
  29   0.0000       0.058055         1.5798
  30   0.0000       0.092637         2.5208
  31   0.0000       0.110222         2.9993
  32   0.0000       0.121932         3.3179
  33   0.0000       0.128029         3.4838

MULLIKEN ATOMIC CHARGES
-----------------------
   0 C :   -0.491720
   1 C :   -0.288957
   2 C :    0.052755
   3 H :    0.130221
   4 C :   -0.006631
   5 C :   -0.540741
   6 C :   -0.520947
   7 O :   -0.432841
   8 H :    0.141938
   9 H :    0.141694
  10 H :    0.179420
  11 H :    0.139811
  12 H :    0.148836
  13 H :    0.130981
  14 H :    0.150669
  15 H :    0.147747
  16 H :    0.177695
  17 H :    0.148396
  18 H :    0.154814
  19 H :    0.149722
  20 H :    0.287136
Sum of atomic charges:    0.0000000

LOEWDIN ATOMIC CHARGES
----------------------
   0 C :   -0.414294
   1 C :   -0.276263
   2 C :    0.058638
   3 H :    0.165665
   4 C :   -0.226176
   5 C :   -0.412642
   6 C :   -0.414566
   7 O :   -0.626585
   8 H :    0.149919
   9 H :    0.148222
  10 H :    0.169620
  11 H :    0.159445
  12 H :    0.161409
  13 H :    0.155827
  14 H :    0.152284
  15 H :    0.152376
  16 H :    0.165843
  17 H :    0.154445
  18 H :    0.152644
  19 H :    0.155935
  20 H :    0.268255

  Mayer bond orders larger than 0.100000
B(  0-C ,  1-C ) :   0.8929 B(  0-C ,  8-H ) :   0.9661 B(  0-C ,  9-H ) :   0.9746
B(  0-C , 10-H ) :   0.9819 B(  1-C ,  2-C ) :   0.9327 B(  1-C , 11-H ) :   0.9795
B(  1-C , 12-H ) :   0.9625 B(  2-C ,  3-H ) :   0.9699 B(  2-C ,  4-C ) :   0.9045
B(  2-C ,  7-O ) :   0.8825 B(  4-C ,  5-C ) :   0.8603 B(  4-C ,  6-C ) :   0.9136
B(  4-C , 13-H ) :   0.9659 B(  5-C , 14-H ) :   0.9828 B(  5-C , 15-H ) :   0.9673
B(  5-C , 16-H ) :   0.9712 B(  6-C , 17-H ) :   0.9745 B(  6-C , 18-H ) :   0.9840
B(  6-C , 19-H ) :   0.9674 B(  7-O , 20-H ) :   0.8980

Dispersion correction           -0.005861066
FINAL SINGLE POINT ENERGY      -312.198475472757

DIPOLE MOMENT
-------------

Method             : SCF
Type of density    : Electron Density
Multiplicity       :   1
Irrep              :   0
Energy             :  -312.2040166054621864 Eh
Relativity type    :
Basis              : AO
                                X                 Y                 Z
Electronic contribution:      1.369463732       3.674680320      -2.486392346
Nuclear contribution   :     -1.905260821      -3.474630964       2.591645635
                        -----------------------------------------
Total Dipole Moment    :     -0.535797089       0.200049356       0.105253289
                        -----------------------------------------
Magnitude (a.u.)       :      0.581529466
Magnitude (Debye)      :      1.478130434

Rotational constants in cm-1:             0.105295             0.062399             0.058859
Rotational constants in MHz :          3156.657696          1870.675356          1764.543992

                             ****ORCA TERMINATED NORMALLY****
TOTAL RUN TIME: 0 days 0 hours 0 minutes 28 seconds 352 msec
