                         Program Version 6.0.0  -   RELEASE  -
|  1> ! r2scan-3c def2/J RI DEFGRID2 scfconv6 printgap
|  2> %output
|  3>     printlevel normal
|  4> end
|  5> %cpcm
|  6>     smd true
|  7>     smdsolvent "water"
|  8> end
|  9> * xyz 0 1
| 10> C 2.0076926708 -0.984554932 0.2229012599
| 11> C 1.215498077 0.1240017328 0.9090602722
| 12> C 0.1685156571 0.8284120033 0.0280350732
| 13> H -0.0497605125 1.7945946257 0.5194296782
| 14> C -1.1957586599 0.1193428227 -0.1384077826
| 15> C -1.0977293054 -1.2520908514 -0.801641136
| 16> C -1.9488922437 0.0277772839 1.1865654358
| 17> O 0.767313869 1.0880476624 -1.2311429581
| 18> H 1.4026398002 -1.8668908207 0.0465842012
| 19> H 2.8503456277 -1.2669071028 0.8498236239
| 20> H 2.3875697874 -0.6271934598 -0.7301975258
| 21> H 0.7231178989 -0.2586659915 1.8021915508
| 22> H 1.9256113123 0.8917232178 1.2247524322
| 23> H -1.7791180492 0.768754509 -0.8057316256
| 24> H -0.7568294647 -1.9999401985 -0.0913223982
| 25> H -2.0750896906 -1.5569690418 -1.1692028348
| 26> H -0.4059153785 -1.2177366479 -1.639393672
| 27> H -2.0119705881 1.0030853481 1.6638973473
| 28> H -1.4550663994 -0.6595447252 1.8684385961
| 29> H -2.9577977857 -0.3371610135 1.0112573276
| 30> H 0.1592845198 1.6119878716 -1.7685845147
| 31> *
| 32>
| 33>                          ****END OF INPUT****

CARTESIAN COORDINATES (ANGSTROEM)
---------------------------------
  C      2.007693   -0.984555    0.222901
  C      1.215498    0.124002    0.909060
  C      0.168516    0.828412    0.028035
  H     -0.049761    1.794595    0.519430
  C     -1.195759    0.119343   -0.138408
  C     -1.097729   -1.252091   -0.801641
  C     -1.948892    0.027777    1.186565
  O      0.767314    1.088048   -1.231143
  H      1.402640   -1.866891    0.046584
  H      2.850346   -1.266907    0.849824
  H      2.387570   -0.627193   -0.730198
  H      0.723118   -0.258666    1.802192
  H      1.925611    0.891723    1.224752
  H     -1.779118    0.768755   -0.805732
  H     -0.756829   -1.999940   -0.091322
  H     -2.075090   -1.556969   -1.169203
  H     -0.405915   -1.217737   -1.639394
  H     -2.011971    1.003085    1.663897
  H     -1.455066   -0.659545    1.868439
  H     -2.957798   -0.337161    1.011257
  H      0.159285    1.611988   -1.768585

 Total Charge           Charge          ....    0
 Multiplicity           Mult            ....    1
 Number of Electrons    NEL             ....   58
 Basis Dimension        Dim             ....  208

ORBITAL ENERGIES
----------------

  NO   OCC          E(Eh)            E(eV)
   0   2.0000     -18.946945      -515.5726
   1   2.0000     -10.071427      -274.0575
   2   2.0000     -10.025004      -272.7942
   3   2.0000     -10.017798      -272.5981
   4   2.0000     -10.008178      -272.3364
   5   2.0000     -10.005876      -272.2737
   6   2.0000     -10.005426      -272.2615
   7   2.0000      -0.984225       -26.7821
   8   2.0000      -0.764061       -20.7912
   9   2.0000      -0.720509       -19.6060
  10   2.0000      -0.645441       -17.5633
  11   2.0000      -0.632227       -17.2038
  12   2.0000      -0.561362       -15.2754
  13   2.0000      -0.518072       -14.0974
  14   2.0000      -0.462783       -12.5930
  15   2.0000      -0.442556       -12.0426
  16   2.0000      -0.405275       -11.0281
  17   2.0000      -0.390670       -10.6307
  18   2.0000      -0.379747       -10.3334
  19   2.0000      -0.363507        -9.8915
  20   2.0000      -0.349716        -9.5162
  21   2.0000      -0.341266        -9.2863
  22   2.0000      -0.327039        -8.8992
  23   2.0000      -0.313338        -8.5263
  24   2.0000      -0.305016        -8.2999
  25   2.0000      -0.292468        -7.9585
  26   2.0000      -0.290268        -7.8986
  27   2.0000      -0.265792        -7.2326
  28   2.0000      -0.230891        -6.2829
  29   0.0000       0.073207         1.9921
  30   0.0000       0.103110         2.8058
  31   0.0000       0.119617         3.2549
  32   0.0000       0.130286         3.5452
  33   0.0000       0.133799         3.6408

MULLIKEN ATOMIC CHARGES
-----------------------
   0 C :   -0.533285
   1 C :   -0.301573
   2 C :    0.057543
   3 H :    0.142722
   4 C :    0.010685
   5 C :   -0.581336
   6 C :   -0.563973
   7 O :   -0.516156
   8 H :    0.160245
   9 H :    0.156306
  10 H :    0.168568
  11 H :    0.158741
  12 H :    0.160832
  13 H :    0.154388
  14 H :    0.166832
  15 H :    0.161214
  16 H :    0.166558
  17 H :    0.160245
  18 H :    0.168604
  19 H :    0.160938
  20 H :    0.341905
Sum of atomic charges:    0.0000000

LOEWDIN ATOMIC CHARGES
----------------------
   0 C :   -0.423818
   1 C :   -0.280352
   2 C :    0.060019
   3 H :    0.172821
   4 C :   -0.221556
   5 C :   -0.420021
   6 C :   -0.421218
   7 O :   -0.659595
   8 H :    0.154468
   9 H :    0.152402
  10 H :    0.162336
  11 H :    0.166758
  12 H :    0.162141
  13 H :    0.164393
  14 H :    0.156256
  15 H :    0.156039
  16 H :    0.160397
  17 H :    0.157769
  18 H :    0.156091
  19 H :    0.158550
  20 H :    0.286119

  Mayer bond orders larger than 0.100000
B(  0-C ,  1-C ) :   0.8699 B(  0-C ,  8-H ) :   0.9661 B(  0-C ,  9-H ) :   0.9708
B(  0-C , 10-H ) :   0.9852 B(  1-C ,  2-C ) :   0.9263 B(  1-C , 11-H ) :   0.9724
B(  1-C , 12-H ) :   0.9682 B(  2-C ,  3-H ) :   0.9656 B(  2-C ,  4-C ) :   0.9102
B(  2-C ,  7-O ) :   0.8727 B(  4-C ,  5-C ) :   0.8476 B(  4-C ,  6-C ) :   0.9038
B(  4-C , 13-H ) :   0.9645 B(  5-C , 14-H ) :   0.9802 B(  5-C , 15-H ) :   0.9652
B(  5-C , 16-H ) :   0.9726 B(  6-C , 17-H ) :   0.9722 B(  6-C , 18-H ) :   0.9798
B(  6-C , 19-H ) :   0.9657 B(  7-O , 20-H ) :   0.8724

Dispersion correction           -0.005861066
FINAL SINGLE POINT ENERGY      -312.203257063462

DIPOLE MOMENT
-------------

Method             : SCF
Type of density    : Electron Density
Multiplicity       :   1
Irrep              :   0
Energy             :  -312.2087981961672085 Eh
Relativity type    :
Basis              : AO
                                X                 Y                 Z
Electronic contribution:      1.092844823       3.760132152      -2.362030232
Nuclear contribution   :     -1.905260821      -3.474630964       2.591645635
                        -----------------------------------------
Total Dipole Moment    :     -0.812415998       0.285501188       0.229615403
                        -----------------------------------------
Magnitude (a.u.)       :      0.891209243
Magnitude (Debye)      :      2.265273872

Rotational constants in cm-1:             0.105295             0.062399             0.058859
Rotational constants in MHz :          3156.657696          1870.675356          1764.543992

                             ****ORCA TERMINATED NORMALLY****
TOTAL RUN TIME: 0 days 0 hours 0 minutes 33 seconds 502 msec
