                         Program Version 6.0.0  -   RELEASE  -
|  1> ! pbe def2-sv(p) def2/J RI DEFGRID1 loosescf d4 GCP(DFT/SV(P)) printgap
|  2> %output
|  3>     printlevel normal
|  4> end
|  5> * xyz 0 1
|  6> C 0.1528511088 -0.2845293641 -0.3706021124
|  7> H -0.0498274918 -0.3363515949 -1.4482484118
|  8> C 1.5171216886 0.3761767603 -0.1350399669
|  9> F 2.4918369424 -0.2812669894 -0.7670060782
| 10> F 1.8428284353 0.4286630543 1.1537013323
| 11> F 1.5285922031 1.6281905504 -0.599530858
| 12> O -0.776213674 0.4720698055 0.3245236351
| 13> C -2.0933498306 0.1557340848 0.1105550161
| 14> F -2.4554597701 0.4763295943 -1.1575748414
| 15> F -2.8190798412 0.9257872043 0.9222759473
| 16> Cl 0.2462927233 -1.9644411132 0.2607490585
| 17> H -2.3436418357 -0.9039514864 0.2801451248
| 18> *
| 19>
| 20>                          ****END OF INPUT****

CARTESIAN COORDINATES (ANGSTROEM)
---------------------------------
  C      0.152851   -0.284529   -0.370602
  H     -0.049827   -0.336352   -1.448248
  C      1.517122    0.376177   -0.135040
  F      2.491837   -0.281267   -0.767006
  F      1.842828    0.428663    1.153701
  F      1.528592    1.628191   -0.599531
  O     -0.776214    0.472070    0.324524
  C     -2.093350    0.155734    0.110555
  F     -2.455460    0.476330   -1.157575
  F     -2.819080    0.925787    0.922276
  Cl     0.246293   -1.964441    0.260749
  H     -2.343642   -0.903951    0.280145

 Total Charge           Charge          ....    0
 Multiplicity           Mult            ....    1
 Number of Electrons    NEL             ....   90
 Basis Dimension        Dim             ....  148

ORBITAL ENERGIES
----------------

  NO   OCC          E(Eh)            E(eV)
   0   2.0000    -100.662206     -2739.1579
   1   2.0000     -24.309535      -661.4961
   2   2.0000     -24.308153      -661.4585
   3   2.0000     -24.308072      -661.4563
   4   2.0000     -24.296203      -661.1333
   5   2.0000     -24.290266      -660.9717
   6   2.0000     -18.839260      -512.6423
   7   2.0000     -10.146982      -276.1134
   8   2.0000     -10.115406      -275.2542
   9   2.0000     -10.043898      -273.3084
  10   2.0000      -9.198313      -250.2988
  11   2.0000      -7.029963      -191.2950
  12   2.0000      -7.018162      -190.9739
  13   2.0000      -7.017542      -190.9570
  14   2.0000      -1.215697       -33.0808
  15   2.0000      -1.176073       -32.0026
  16   2.0000      -1.120625       -30.4938
  17   2.0000      -1.120272       -30.4842
  18   2.0000      -1.102118       -29.9902
  19   2.0000      -1.027346       -27.9555
  20   2.0000      -0.813347       -22.1323
  21   2.0000      -0.715922       -19.4812
  22   2.0000      -0.641393       -17.4532
  23   2.0000      -0.601373       -16.3642
  24   2.0000      -0.567189       -15.4340
  25   2.0000      -0.553808       -15.0699
  26   2.0000      -0.546797       -14.8791
  27   2.0000      -0.529256       -14.4018
  28   2.0000      -0.524891       -14.2830
  29   2.0000      -0.504895       -13.7389
  30   2.0000      -0.452136       -12.3033
  31   2.0000      -0.419064       -11.4033
  32   2.0000      -0.415904       -11.3173
  33   2.0000      -0.402198       -10.9444
  34   2.0000      -0.396996       -10.8028
  35   2.0000      -0.379622       -10.3300
  36   2.0000      -0.375041       -10.2054
  37   2.0000      -0.372633       -10.1399
  38   2.0000      -0.358093        -9.7442
  39   2.0000      -0.356134        -9.6909
  40   2.0000      -0.355486        -9.6733
  41   2.0000      -0.334292        -9.0966
  42   2.0000      -0.309110        -8.4113
  43   2.0000      -0.294329        -8.0091
  44   2.0000      -0.287707        -7.8289
  45   0.0000      -0.034700        -0.9442
  46   0.0000       0.032135         0.8744
  47   0.0000       0.046767         1.2726
  48   0.0000       0.059168         1.6100
  49   0.0000       0.084506         2.2995

MULLIKEN ATOMIC CHARGES
-----------------------
   0 C :   -0.041154
   1 H :    0.156548
   2 C :    0.442617
   3 F :   -0.125014
   4 F :   -0.116409
   5 F :   -0.124105
   6 O :   -0.231540
   7 C :    0.363168
   8 F :   -0.178017
   9 F :   -0.139546
  10 Cl:   -0.085939
  11 H :    0.079393
Sum of atomic charges:   -0.0000000

LOEWDIN ATOMIC CHARGES
----------------------
   0 C :   -0.156085
   1 H :    0.133301
   2 C :    0.072227
   3 F :   -0.031366
   4 F :   -0.022414
   5 F :   -0.028955
   6 O :   -0.090382
   7 C :    0.079919
   8 F :   -0.081285
   9 F :   -0.043071
  10 Cl:    0.080961
  11 H :    0.087151

  Mayer bond orders larger than 0.100000
B(  0-C ,  1-H ) :   0.8811 B(  0-C ,  2-C ) :   0.9107 B(  0-C ,  6-O ) :   1.0370
B(  0-C , 10-Cl) :   1.0469 B(  2-C ,  3-F ) :   1.1782 B(  2-C ,  4-F ) :   1.1976
B(  2-C ,  5-F ) :   1.1838 B(  6-O ,  7-C ) :   1.0530 B(  7-C ,  8-F ) :   1.1026
B(  7-C ,  9-F ) :   1.1686 B(  7-C , 11-H ) :   0.9194

Dispersion correction           -0.011222641
FINAL SINGLE POINT ENERGY     -1148.546196275645

DIPOLE MOMENT
-------------

Method             : SCF
Type of density    : Electron Density
Multiplicity       :   1
Irrep              :   0
Energy             : -1148.6250241089046540 Eh
Relativity type    :
Basis              : AO
                                X                 Y                 Z
Electronic contribution:      2.874675476       0.955465795       0.687789065
Nuclear contribution   :     -3.133022713      -1.464239059      -1.025857449
                        -----------------------------------------
Total Dipole Moment    :     -0.258347237      -0.508773264      -0.338068384
                        -----------------------------------------
Magnitude (a.u.)       :      0.663237334
Magnitude (Debye)      :      1.685815329

Rotational constants in cm-1:             0.054657             0.024571             0.020736
Rotational constants in MHz :          1638.575910           736.622249           621.656267

                             ****ORCA TERMINATED NORMALLY****
TOTAL RUN TIME: 0 days 0 hours 0 minutes 7 seconds 175 msec
