                         Program Version 6.0.0  -   RELEASE  -
|  1> ! r2scan-3c def2/J RI DEFGRID2 scfconv6 printgap
|  2> %output
|  3>     printlevel normal
|  4> end
|  5> * xyz 0 1
|  6> C -3.8400312297 -0.7701446798 -0.0890390062
|  7> C -2.7358301664 0.1134568974 0.4790944343
|  8> C -1.3640826632 -0.3018255209 -0.0542325064
|  9> C -0.2790425753 0.5864019332 0.5205390955
| 10> Br 1.5023944509 0.071250553 -0.1538879153
| 11> H -3.6744766962 -1.8097406513 0.1829505915
| 12> H -4.8072279586 -0.4623809717 0.2988157684
| 13> H -3.8651730404 -0.6992447887 -1.1737169049
| 14> H -2.7369002076 0.0430375342 1.5686702242
| 15> H -2.9279871219 1.1543955714 0.2114206399
| 16> H -1.1668568957 -1.3422557515 0.213505835
| 17> H -1.3580671092 -0.2302791795 -1.1441543818
| 18> H -0.2158948201 0.504047932 1.6042544477
| 19> H -0.4099089962 1.6282227923 0.2330627894
| 20> *
| 21>
| 22>                          ****END OF INPUT****

CARTESIAN COORDINATES (ANGSTROEM)
---------------------------------
  C     -3.840031   -0.770145   -0.089039
  C     -2.735830    0.113457    0.479094
  C     -1.364083   -0.301826   -0.054233
  C     -0.279043    0.586402    0.520539
  Br     1.502394    0.071251   -0.153888
  H     -3.674477   -1.809741    0.182951
  H     -4.807228   -0.462381    0.298816
  H     -3.865173   -0.699245   -1.173717
  H     -2.736900    0.043038    1.568670
  H     -2.927987    1.154396    0.211421
  H     -1.166857   -1.342256    0.213506
  H     -1.358067   -0.230279   -1.144154
  H     -0.215895    0.504048    1.604254
  H     -0.409909    1.628223    0.233063

 Total Charge           Charge          ....    0
 Multiplicity           Mult            ....    1
 Number of Electrons    NEL             ....   68
 Basis Dimension        Dim             ....  157

ORBITAL ENERGIES
----------------

  NO   OCC          E(Eh)            E(eV)
   0   2.0000    -482.209439    -13121.5859
   1   2.0000     -62.281463     -1694.7648
   2   2.0000     -56.061942     -1525.5230
   3   2.0000     -56.059226     -1525.4491
   4   2.0000     -56.059127     -1525.4464
   5   2.0000     -10.091972      -274.6165
   6   2.0000     -10.043667      -273.3021
   7   2.0000     -10.040977      -273.2289
   8   2.0000     -10.026821      -272.8437
   9   2.0000      -8.613638      -234.3890
  10   2.0000      -6.421035      -174.7252
  11   2.0000      -6.407482      -174.3564
  12   2.0000      -6.407412      -174.3546
  13   2.0000      -2.518590       -68.5343
  14   2.0000      -2.515250       -68.4434
  15   2.0000      -2.515190       -68.4418
  16   2.0000      -2.505112       -68.1676
  17   2.0000      -2.505096       -68.1671
  18   2.0000      -0.796102       -21.6630
  19   2.0000      -0.746725       -20.3194
  20   2.0000      -0.679089       -18.4789
  21   2.0000      -0.596741       -16.2381
  22   2.0000      -0.561974       -15.2921
  23   2.0000      -0.464346       -12.6355
  24   2.0000      -0.416487       -11.3332
  25   2.0000      -0.410910       -11.1814
  26   2.0000      -0.394641       -10.7387
  27   2.0000      -0.356965        -9.7135
  28   2.0000      -0.345122        -9.3912
  29   2.0000      -0.326630        -8.8881
  30   2.0000      -0.311021        -8.4633
  31   2.0000      -0.310283        -8.4432
  32   2.0000      -0.248194        -6.7537
  33   2.0000      -0.247917        -6.7462
  34   0.0000      -0.025224        -0.6864
  35   0.0000       0.090954         2.4750
  36   0.0000       0.099219         2.6999
  37   0.0000       0.128083         3.4853
  38   0.0000       0.129762         3.5310

MULLIKEN ATOMIC CHARGES
-----------------------
   0 C :   -0.456356
   1 C :   -0.232787
   2 C :   -0.277943
   3 C :   -0.194268
   4 Br:   -0.182870
   5 H :    0.143993
   6 H :    0.149702
   7 H :    0.143981
   8 H :    0.136176
   9 H :    0.136154
  10 H :    0.153077
  11 H :    0.153110
  12 H :    0.164034
  13 H :    0.163996
Sum of atomic charges:    0.0000000

LOEWDIN ATOMIC CHARGES
----------------------
   0 C :   -0.419470
   1 C :   -0.315198
   2 C :   -0.336460
   3 C :   -0.388180
   4 Br:    0.058981
   5 H :    0.151684
   6 H :    0.152391
   7 H :    0.151687
   8 H :    0.152528
   9 H :    0.152523
  10 H :    0.161390
  11 H :    0.161397
  12 H :    0.158367
  13 H :    0.158360

  Mayer bond orders larger than 0.100000
B(  0-C ,  1-C ) :   0.9071 B(  0-C ,  5-H ) :   0.9813 B(  0-C ,  6-H ) :   0.9740
B(  0-C ,  7-H ) :   0.9813 B(  1-C ,  2-C ) :   0.9095 B(  1-C ,  8-H ) :   0.9669
B(  1-C ,  9-H ) :   0.9669 B(  2-C ,  3-C ) :   0.9450 B(  2-C , 10-H ) :   0.9669
B(  2-C , 11-H ) :   0.9669 B(  3-C ,  4-Br) :   0.9820 B(  3-C , 12-H ) :   0.9605
B(  3-C , 13-H ) :   0.9604

Dispersion correction           -0.003232222
FINAL SINGLE POINT ENERGY     -2731.931994143948

DIPOLE MOMENT
-------------

Method             : SCF
Type of density    : Electron Density
Multiplicity       :   1
Irrep              :   0
Energy             : -2731.9354838042850133 Eh
Relativity type    :
Basis              : AO
                                X                 Y                 Z
Electronic contribution:     32.838459595       1.945893770      -3.044788235
Nuclear contribution   :    -33.803944357      -1.800695758       3.300338186
                        -----------------------------------------
Total Dipole Moment    :     -0.965484762       0.145198012       0.255549952
                        -----------------------------------------
Magnitude (a.u.)       :      1.009231919
Magnitude (Debye)      :      2.565263674

Rotational constants in cm-1:             0.527149             0.030334             0.029313
Rotational constants in MHz :         15803.533916           909.399392           878.789679

                             ****ORCA TERMINATED NORMALLY****
TOTAL RUN TIME: 0 days 0 hours 0 minutes 14 seconds 524 msec
