                         Program Version 6.0.0  -   RELEASE  -
|  1> ! r2scan-3c def2/J RI DEFGRID2 scfconv6 printgap
|  2> %output
|  3>     printlevel normal
|  4> end
|  5> %cpcm
|  6>     smd true
|  7>     smdsolvent "water"
|  8> end
|  9> * xyz 0 1
| 10> C -3.8400312297 -0.7701446798 -0.0890390062
| 11> C -2.7358301664 0.1134568974 0.4790944343
| 12> C -1.3640826632 -0.3018255209 -0.0542325064
| 13> C -0.2790425753 0.5864019332 0.5205390955
| 14> Br 1.5023944509 0.071250553 -0.1538879153
| 15> H -3.6744766962 -1.8097406513 0.1829505915
| 16> H -4.8072279586 -0.4623809717 0.2988157684
| 17> H -3.8651730404 -0.6992447887 -1.1737169049
| 18> H -2.7369002076 0.0430375342 1.5686702242
| 19> H -2.9279871219 1.1543955714 0.2114206399
| 20> H -1.1668568957 -1.3422557515 0.213505835
| 21> H -1.3580671092 -0.2302791795 -1.1441543818
| 22> H -0.2158948201 0.504047932 1.6042544477
| 23> H -0.4099089962 1.6282227923 0.2330627894
| 24> *
| 25>
| 26>                          ****END OF INPUT****

CARTESIAN COORDINATES (ANGSTROEM)
---------------------------------
  C     -3.840031   -0.770145   -0.089039
  C     -2.735830    0.113457    0.479094
  C     -1.364083   -0.301826   -0.054233
  C     -0.279043    0.586402    0.520539
  Br     1.502394    0.071251   -0.153888
  H     -3.674477   -1.809741    0.182951
  H     -4.807228   -0.462381    0.298816
  H     -3.865173   -0.699245   -1.173717
  H     -2.736900    0.043038    1.568670
  H     -2.927987    1.154396    0.211421
  H     -1.166857   -1.342256    0.213506
  H     -1.358067   -0.230279   -1.144154
  H     -0.215895    0.504048    1.604254
  H     -0.409909    1.628223    0.233063

 Total Charge           Charge          ....    0
 Multiplicity           Mult            ....    1
 Number of Electrons    NEL             ....   68
 Basis Dimension        Dim             ....  157

ORBITAL ENERGIES
----------------

  NO   OCC          E(Eh)            E(eV)
   0   2.0000    -482.208499    -13121.5604
   1   2.0000     -62.280497     -1694.7385
   2   2.0000     -56.060899     -1525.4946
   3   2.0000     -56.058328     -1525.4246
   4   2.0000     -56.058222     -1525.4218
   5   2.0000     -10.078057      -274.2379
   6   2.0000     -10.028050      -272.8771
   7   2.0000     -10.022759      -272.7331
   8   2.0000     -10.010269      -272.3933
   9   2.0000      -8.612428      -234.3561
  10   2.0000      -6.419326      -174.6787
  11   2.0000      -6.406529      -174.3305
  12   2.0000      -6.406462      -174.3287
  13   2.0000      -2.517033       -68.4919
  14   2.0000      -2.513867       -68.4058
  15   2.0000      -2.513809       -68.4042
  16   2.0000      -2.504280       -68.1449
  17   2.0000      -2.504264       -68.1445
  18   2.0000      -0.783484       -21.3197
  19   2.0000      -0.735567       -20.0158
  20   2.0000      -0.667586       -18.1659
  21   2.0000      -0.582957       -15.8631
  22   2.0000      -0.545402       -14.8411
  23   2.0000      -0.447591       -12.1796
  24   2.0000      -0.400986       -10.9114
  25   2.0000      -0.394636       -10.7386
  26   2.0000      -0.382795       -10.4164
  27   2.0000      -0.344016        -9.3611
  28   2.0000      -0.329282        -8.9602
  29   2.0000      -0.311068        -8.4646
  30   2.0000      -0.297035        -8.0827
  31   2.0000      -0.292845        -7.9687
  32   2.0000      -0.246887        -6.7181
  33   2.0000      -0.246273        -6.7014
  34   0.0000      -0.018602        -0.5062
  35   0.0000       0.107507         2.9254
  36   0.0000       0.114130         3.1056
  37   0.0000       0.143006         3.8914
  38   0.0000       0.148388         4.0378

MULLIKEN ATOMIC CHARGES
-----------------------
   0 C :   -0.501701
   1 C :   -0.239174
   2 C :   -0.284235
   3 C :   -0.203739
   4 Br:   -0.231233
   5 H :    0.154702
   6 H :    0.158954
   7 H :    0.154669
   8 H :    0.149793
   9 H :    0.149844
  10 H :    0.159697
  11 H :    0.159881
  12 H :    0.186287
  13 H :    0.186256
Sum of atomic charges:   -0.0000000

LOEWDIN ATOMIC CHARGES
----------------------
   0 C :   -0.428273
   1 C :   -0.313094
   2 C :   -0.336468
   3 C :   -0.381168
   4 Br:    0.026759
   5 H :    0.153584
   6 H :    0.154328
   7 H :    0.153585
   8 H :    0.156775
   9 H :    0.156783
  10 H :    0.162387
  11 H :    0.162435
  12 H :    0.166189
  13 H :    0.166179

  Mayer bond orders larger than 0.100000
B(  0-C ,  1-C ) :   0.8925 B(  0-C ,  5-H ) :   0.9798 B(  0-C ,  6-H ) :   0.9718
B(  0-C ,  7-H ) :   0.9798 B(  1-C ,  2-C ) :   0.9087 B(  1-C ,  8-H ) :   0.9673
B(  1-C ,  9-H ) :   0.9674 B(  2-C ,  3-C ) :   0.9403 B(  2-C , 10-H ) :   0.9681
B(  2-C , 11-H ) :   0.9680 B(  3-C ,  4-Br) :   0.9377 B(  3-C , 12-H ) :   0.9542
B(  3-C , 13-H ) :   0.9541

Dispersion correction           -0.003232222
FINAL SINGLE POINT ENERGY     -2731.934158582626

DIPOLE MOMENT
-------------

Method             : SCF
Type of density    : Electron Density
Multiplicity       :   1
Irrep              :   0
Energy             : -2731.9376482429634052 Eh
Relativity type    :
Basis              : AO
                                X                 Y                 Z
Electronic contribution:     32.621495022       2.034973874      -2.941176582
Nuclear contribution   :    -33.803944357      -1.800695758       3.300338186
                        -----------------------------------------
Total Dipole Moment    :     -1.182449335       0.234278116       0.359161604
                        -----------------------------------------
Magnitude (a.u.)       :      1.257803531
Magnitude (Debye)      :      3.197082500

Rotational constants in cm-1:             0.527149             0.030334             0.029313
Rotational constants in MHz :         15803.533916           909.399392           878.789679

                             ****ORCA TERMINATED NORMALLY****
TOTAL RUN TIME: 0 days 0 hours 0 minutes 19 seconds 65 msec
