                         Program Version 6.0.0  -   RELEASE  -
|  1> ! pbe def2-sv(p) def2/J RI DEFGRID1 loosescf d4 GCP(DFT/SV(P)) printgap
|  2> %output
|  3>     printlevel normal
|  4> end
|  5> * xyz 0 1
|  6> C -2.2233236004 0.8982264634 0.1912622069
|  7> C -0.8491873513 0.6826318193 -0.4309349336
|  8> C -0.0240058745 -0.4005026974 0.2726908009
|  9> H -0.0046672683 -0.1777945435 1.3448851326
| 10> C -0.5976582294 -1.7973473785 0.0542773557
| 11> C 1.4243391481 -0.3513042004 -0.2254194998
| 12> O 2.0082225459 0.8805254966 0.1515878255
| 13> H -2.7269893783 1.7291632566 -0.2966299579
| 14> H -2.8463821253 0.0144304306 0.0837143956
| 15> H -2.1287075618 1.1287503069 1.249985419
| 16> H -0.2849411944 1.6161416348 -0.3787602332
| 17> H -0.9621385801 0.416485352 -1.4846396788
| 18> H -1.6020557088 -1.8644643807 0.4603979578
| 19> H 0.0195397657 -2.5443755198 0.5477616975
| 20> H -0.6353552386 -2.0276842405 -1.008203979
| 21> H 1.437095879 -0.460732882 -1.3186965181
| 22> H 1.988864792 -1.1846734344 0.2150827787
| 23> H 2.9165306307 0.9163410315 -0.1751966973
| 24> *
| 25>
| 26>                          ****END OF INPUT****

CARTESIAN COORDINATES (ANGSTROEM)
---------------------------------
  C     -2.223324    0.898226    0.191262
  C     -0.849187    0.682632   -0.430935
  C     -0.024006   -0.400503    0.272691
  H     -0.004667   -0.177795    1.344885
  C     -0.597658   -1.797347    0.054277
  C      1.424339   -0.351304   -0.225419
  O      2.008223    0.880525    0.151588
  H     -2.726989    1.729163   -0.296630
  H     -2.846382    0.014430    0.083714
  H     -2.128708    1.128750    1.249985
  H     -0.284941    1.616142   -0.378760
  H     -0.962139    0.416485   -1.484640
  H     -1.602056   -1.864464    0.460398
  H      0.019540   -2.544376    0.547762
  H     -0.635355   -2.027684   -1.008204
  H      1.437096   -0.460733   -1.318697
  H      1.988865   -1.184673    0.215083
  H      2.916531    0.916341   -0.175197

 Total Charge           Charge          ....    0
 Multiplicity           Mult            ....    1
 Number of Electrons    NEL             ....   50
 Basis Dimension        Dim             ....  108

ORBITAL ENERGIES
----------------

  NO   OCC          E(Eh)            E(eV)
   0   2.0000     -18.738386      -509.8974
   1   2.0000      -9.924314      -270.0543
   2   2.0000      -9.887871      -269.0627
   3   2.0000      -9.872800      -268.6525
   4   2.0000      -9.872677      -268.6492
   5   2.0000      -9.866909      -268.4922
   6   2.0000      -0.914495       -24.8847
   7   2.0000      -0.724833       -19.7237
   8   2.0000      -0.651684       -17.7332
   9   2.0000      -0.601068       -16.3559
  10   2.0000      -0.549423       -14.9506
  11   2.0000      -0.492292       -13.3960
  12   2.0000      -0.459037       -12.4910
  13   2.0000      -0.412760       -11.2318
  14   2.0000      -0.396618       -10.7925
  15   2.0000      -0.389019       -10.5858
  16   2.0000      -0.357442        -9.7265
  17   2.0000      -0.336516        -9.1571
  18   2.0000      -0.329994        -8.9796
  19   2.0000      -0.311883        -8.4868
  20   2.0000      -0.303189        -8.2502
  21   2.0000      -0.277773        -7.5586
  22   2.0000      -0.274785        -7.4773
  23   2.0000      -0.261146        -7.1061
  24   2.0000      -0.209691        -5.7060
  25   0.0000       0.030295         0.8244
  26   0.0000       0.042835         1.1656
  27   0.0000       0.066866         1.8195
  28   0.0000       0.074467         2.0263
  29   0.0000       0.098089         2.6691

MULLIKEN ATOMIC CHARGES
-----------------------
   0 C :   -0.262910
   1 C :   -0.169992
   2 C :   -0.181028
   3 H :    0.073977
   4 C :   -0.255325
   5 C :    0.041087
   6 O :   -0.431590
   7 H :    0.100075
   8 H :    0.098152
   9 H :    0.097266
  10 H :    0.099139
  11 H :    0.070844
  12 H :    0.108475
  13 H :    0.098035
  14 H :    0.093046
  15 H :    0.057034
  16 H :    0.065970
  17 H :    0.297746
Sum of atomic charges:   -0.0000000

LOEWDIN ATOMIC CHARGES
----------------------
   0 C :   -0.340960
   1 C :   -0.228678
   2 C :   -0.163659
   3 H :    0.118125
   4 C :   -0.329742
   5 C :   -0.113715
   6 O :   -0.346242
   7 H :    0.119312
   8 H :    0.113646
   9 H :    0.117662
  10 H :    0.120250
  11 H :    0.110117
  12 H :    0.120711
  13 H :    0.117230
  14 H :    0.116654
  15 H :    0.092114
  16 H :    0.092105
  17 H :    0.285070

  Mayer bond orders larger than 0.100000
B(  0-C ,  1-C ) :   1.1611 B(  0-C ,  7-H ) :   0.9516 B(  0-C ,  8-H ) :   0.9486
B(  0-C ,  9-H ) :   0.9533 B(  1-C ,  2-C ) :   1.0887 B(  1-C , 10-H ) :   0.9163
B(  1-C , 11-H ) :   0.9207 B(  2-C ,  3-H ) :   0.8944 B(  2-C ,  4-C ) :   1.0982
B(  2-C ,  5-C ) :   1.0758 B(  4-C , 12-H ) :   0.9477 B(  4-C , 13-H ) :   0.9476
B(  4-C , 14-H ) :   0.9487 B(  5-C ,  6-O ) :   1.0854 B(  5-C , 15-H ) :   0.9125
B(  5-C , 16-H ) :   0.9248 B(  6-O , 17-H ) :   0.8521

Dispersion correction           -0.012816596
FINAL SINGLE POINT ENERGY      -272.300802316607

DIPOLE MOMENT
-------------

Method             : SCF
Type of density    : Electron Density
Multiplicity       :   1
Irrep              :   0
Energy             :  -272.3705761085479935 Eh
Relativity type    :
Basis              : AO
                                X                 Y                 Z
Electronic contribution:      4.884390611       1.962411548       0.437459526
Nuclear contribution   :     -4.500782482      -2.274562980      -0.711035877
                        -----------------------------------------
Total Dipole Moment    :      0.383608130      -0.312151432      -0.273576352
                        -----------------------------------------
Magnitude (a.u.)       :      0.565188229
Magnitude (Debye)      :      1.436594310

Rotational constants in cm-1:             0.156882             0.078816             0.057366
Rotational constants in MHz :          4703.216677          2362.844061          1719.783641

                             ****ORCA TERMINATED NORMALLY****
TOTAL RUN TIME: 0 days 0 hours 0 minutes 7 seconds 932 msec
