                         Program Version 6.0.0  -   RELEASE  -
|  1> ! pbe def2-sv(p) def2/J RI DEFGRID1 loosescf d4 GCP(DFT/SV(P)) printgap
|  2> %output
|  3>     printlevel normal
|  4> end
|  5> * xyz 0 1
|  6> C -2.509940639 -0.0184578286 -0.2221634222
|  7> C -1.204802909 0.0141284859 0.5623496891
|  8> C 0.0066776828 -0.0124999648 -0.3621916341
|  9> O 1.1826991691 0.0213901162 0.4259607392
| 10> C 2.3656594838 -0.0029234494 -0.3404699806
| 11> H -2.5786912543 0.8417239232 -0.8835900866
| 12> H -2.5698452351 -0.9215506012 -0.8245678419
| 13> H -3.3560612216 0.000211284 0.4585482131
| 14> H -1.1439257856 -0.8439433049 1.2332022931
| 15> H -1.1513148898 0.9167132178 1.1726723097
| 16> H -0.0003798154 -0.9256997134 -0.9773041095
| 17> H -0.0093709759 0.8547577016 -1.0404525542
| 18> H 2.4244533228 -0.9175315516 -0.9414682946
| 19> H 3.1893591407 0.0259705668 0.3682389197
| 20> H 2.4186349149 0.8651915782 -1.0074091761
| 21> *
| 22>
| 23>                          ****END OF INPUT****

CARTESIAN COORDINATES (ANGSTROEM)
---------------------------------
  C     -2.509941   -0.018458   -0.222163
  C     -1.204803    0.014128    0.562350
  C      0.006678   -0.012500   -0.362192
  O      1.182699    0.021390    0.425961
  C      2.365659   -0.002923   -0.340470
  H     -2.578691    0.841724   -0.883590
  H     -2.569845   -0.921551   -0.824568
  H     -3.356061    0.000211    0.458548
  H     -1.143926   -0.843943    1.233202
  H     -1.151315    0.916713    1.172672
  H     -0.000380   -0.925700   -0.977304
  H     -0.009371    0.854758   -1.040453
  H      2.424453   -0.917532   -0.941468
  H      3.189359    0.025971    0.368239
  H      2.418635    0.865192   -1.007409

 Total Charge           Charge          ....    0
 Multiplicity           Mult            ....    1
 Number of Electrons    NEL             ....   42
 Basis Dimension        Dim             ....   90

ORBITAL ENERGIES
----------------

  NO   OCC          E(Eh)            E(eV)
   0   2.0000     -18.746780      -510.1258
   1   2.0000      -9.926269      -270.1075
   2   2.0000      -9.921048      -269.9654
   3   2.0000      -9.882315      -268.9115
   4   2.0000      -9.876951      -268.7655
   5   2.0000      -0.927338       -25.2341
   6   2.0000      -0.706020       -19.2118
   7   2.0000      -0.631716       -17.1899
   8   2.0000      -0.566994       -15.4287
   9   2.0000      -0.522229       -14.2106
  10   2.0000      -0.434077       -11.8118
  11   2.0000      -0.433271       -11.7899
  12   2.0000      -0.402996       -10.9661
  13   2.0000      -0.388856       -10.5813
  14   2.0000      -0.361754        -9.8438
  15   2.0000      -0.341999        -9.3063
  16   2.0000      -0.318137        -8.6569
  17   2.0000      -0.298385        -8.1195
  18   2.0000      -0.291491        -7.9319
  19   2.0000      -0.261976        -7.1287
  20   2.0000      -0.201367        -5.4795
  21   0.0000       0.039192         1.0665
  22   0.0000       0.050052         1.3620
  23   0.0000       0.080207         2.1825
  24   0.0000       0.087608         2.3839
  25   0.0000       0.095062         2.5868

MULLIKEN ATOMIC CHARGES
-----------------------
   0 C :   -0.292200
   1 C :   -0.174529
   2 C :   -0.003564
   3 O :   -0.338514
   4 C :   -0.100123
   5 H :    0.101569
   6 H :    0.101513
   7 H :    0.109394
   8 H :    0.095132
   9 H :    0.095230
  10 H :    0.063314
  11 H :    0.063238
  12 H :    0.082693
  13 H :    0.114168
  14 H :    0.082678
Sum of atomic charges:   -0.0000000

LOEWDIN ATOMIC CHARGES
----------------------
   0 C :   -0.340097
   1 C :   -0.243711
   2 C :   -0.109994
   3 O :   -0.185632
   4 C :   -0.207002
   5 H :    0.117612
   6 H :    0.117606
   7 H :    0.122637
   8 H :    0.120206
   9 H :    0.120238
  10 H :    0.091901
  11 H :    0.091878
  12 H :    0.094769
  13 H :    0.114830
  14 H :    0.094759

  Mayer bond orders larger than 0.100000
B(  0-C ,  1-C ) :   1.1337 B(  0-C ,  5-H ) :   0.9556 B(  0-C ,  6-H ) :   0.9555
B(  0-C ,  7-H ) :   0.9538 B(  1-C ,  2-C ) :   1.1189 B(  1-C ,  8-H ) :   0.9249
B(  1-C ,  9-H ) :   0.9248 B(  2-C ,  3-O ) :   1.0297 B(  2-C , 10-H ) :   0.9151
B(  2-C , 11-H ) :   0.9152 B(  3-O ,  4-C ) :   1.0241 B(  4-C , 12-H ) :   0.9424
B(  4-C , 13-H ) :   0.9648 B(  4-C , 14-H ) :   0.9424

Dispersion correction           -0.008638916
FINAL SINGLE POINT ENERGY      -233.085387217059

DIPOLE MOMENT
-------------

Method             : SCF
Type of density    : Electron Density
Multiplicity       :   1
Irrep              :   0
Energy             :  -233.1444843662509925 Eh
Relativity type    :
Basis              : AO
                                X                 Y                 Z
Electronic contribution:      2.574467708       0.082203521       1.888904118
Nuclear contribution   :     -2.587831138      -0.097398660      -2.284797074
                        -----------------------------------------
Total Dipole Moment    :     -0.013363429      -0.015195139      -0.395892957
                        -----------------------------------------
Magnitude (a.u.)       :      0.396409771
Magnitude (Debye)      :      1.007593564

Rotational constants in cm-1:             0.670966             0.070628             0.067126
Rotational constants in MHz :         20115.068600          2117.376055          2012.399271

                             ****ORCA TERMINATED NORMALLY****
TOTAL RUN TIME: 0 days 0 hours 0 minutes 6 seconds 585 msec
