                         Program Version 6.0.0  -   RELEASE  -
|  1> ! pbe def2-sv(p) def2/J RI DEFGRID1 loosescf d4 GCP(DFT/SV(P)) printgap
|  2> %output
|  3>     printlevel normal
|  4> end
|  5> * xyz 0 1
|  6> C 1.7915744574 -1.0740042569 0.5191703703
|  7> C 1.3228935334 0.3566221016 0.7668232654
|  8> C 0.1777058965 0.8802991665 -0.1193463184
|  9> H -0.0197529659 1.9075912541 0.2184961709
| 10> C -1.178454482 0.1318224833 -0.0501881621
| 11> C -1.2363510928 -1.1532028719 -0.8772449429
| 12> C -1.5994217575 -0.1302471775 1.3934923781
| 13> O 0.6036936623 1.0492957841 -1.4610127943
| 14> H 1.0636236252 -1.7977842759 0.8738189954
| 15> H 2.7197231425 -1.2438862434 1.0605464031
| 16> H 1.9844928791 -1.2555045596 -0.5354675704
| 17> H 1.0274940784 0.4659098208 1.8100056082
| 18> H 2.1649363422 1.0323038262 0.5932414055
| 19> H -1.9060862132 0.8224210408 -0.4953509007
| 20> H -2.2474195722 -1.5530063653 -0.8403250903
| 21> H -0.9986516897 -0.9485132522 -1.9183280199
| 22> H -0.559907535 -1.9123943655 -0.4996842862
| 23> H -2.6267635808 -0.4856576441 1.4181749309
| 24> H -1.5387924696 0.7821576926 1.9820560178
| 25> H -0.9684933938 -0.8854747456 1.8534409911
| 26> H 0.9271744421 0.1976434597 -1.7852449084
| 27> *
| 28>
| 29>                          ****END OF INPUT****

CARTESIAN COORDINATES (ANGSTROEM)
---------------------------------
  C      1.791574   -1.074004    0.519170
  C      1.322894    0.356622    0.766823
  C      0.177706    0.880299   -0.119346
  H     -0.019753    1.907591    0.218496
  C     -1.178454    0.131822   -0.050188
  C     -1.236351   -1.153203   -0.877245
  C     -1.599422   -0.130247    1.393492
  O      0.603694    1.049296   -1.461013
  H      1.063624   -1.797784    0.873819
  H      2.719723   -1.243886    1.060546
  H      1.984493   -1.255505   -0.535468
  H      1.027494    0.465910    1.810006
  H      2.164936    1.032304    0.593241
  H     -1.906086    0.822421   -0.495351
  H     -2.247420   -1.553006   -0.840325
  H     -0.998652   -0.948513   -1.918328
  H     -0.559908   -1.912394   -0.499684
  H     -2.626764   -0.485658    1.418175
  H     -1.538792    0.782158    1.982056
  H     -0.968493   -0.885475    1.853441
  H      0.927174    0.197643   -1.785245

 Total Charge           Charge          ....    0
 Multiplicity           Mult            ....    1
 Number of Electrons    NEL             ....   58
 Basis Dimension        Dim             ....  126

ORBITAL ENERGIES
----------------

  NO   OCC          E(Eh)            E(eV)
   0   2.0000     -18.737695      -509.8786
   1   2.0000      -9.930948      -270.2348
   2   2.0000      -9.891431      -269.1595
   3   2.0000      -9.883900      -268.9546
   4   2.0000      -9.882062      -268.9046
   5   2.0000      -9.875349      -268.7219
   6   2.0000      -9.873966      -268.6843
   7   2.0000      -0.915491       -24.9118
   8   2.0000      -0.724341       -19.7103
   9   2.0000      -0.685470       -18.6526
  10   2.0000      -0.618476       -16.8296
  11   2.0000      -0.604642       -16.4531
  12   2.0000      -0.541326       -14.7302
  13   2.0000      -0.493075       -13.4173
  14   2.0000      -0.448805       -12.2126
  15   2.0000      -0.415666       -11.3109
  16   2.0000      -0.406474       -11.0607
  17   2.0000      -0.393370       -10.7041
  18   2.0000      -0.372298       -10.1307
  19   2.0000      -0.352880        -9.6023
  20   2.0000      -0.341639        -9.2965
  21   2.0000      -0.337618        -9.1870
  22   2.0000      -0.326225        -8.8770
  23   2.0000      -0.310756        -8.4561
  24   2.0000      -0.306247        -8.3334
  25   2.0000      -0.290515        -7.9053
  26   2.0000      -0.276370        -7.5204
  27   2.0000      -0.257088        -6.9957
  28   2.0000      -0.209005        -5.6873
  29   0.0000       0.019246         0.5237
  30   0.0000       0.042309         1.1513
  31   0.0000       0.060673         1.6510
  32   0.0000       0.068908         1.8751
  33   0.0000       0.086000         2.3402

MULLIKEN ATOMIC CHARGES
-----------------------
   0 C :   -0.301585
   1 C :   -0.175945
   2 C :    0.058791
   3 H :    0.063031
   4 C :   -0.134277
   5 C :   -0.284279
   6 C :   -0.262546
   7 O :   -0.426977
   8 H :    0.123342
   9 H :    0.107261
  10 H :    0.085231
  11 H :    0.086122
  12 H :    0.092425
  13 H :    0.073173
  14 H :    0.101459
  15 H :    0.094445
  16 H :    0.097920
  17 H :    0.100153
  18 H :    0.102915
  19 H :    0.102233
  20 H :    0.297109
Sum of atomic charges:    0.0000000

LOEWDIN ATOMIC CHARGES
----------------------
   0 C :   -0.346167
   1 C :   -0.248352
   2 C :   -0.048511
   3 H :    0.112639
   4 C :   -0.167634
   5 C :   -0.341938
   6 C :   -0.330943
   7 O :   -0.323773
   8 H :    0.117313
   9 H :    0.124679
  10 H :    0.108318
  11 H :    0.120263
  12 H :    0.122003
  13 H :    0.120212
  14 H :    0.122106
  15 H :    0.114086
  16 H :    0.115346
  17 H :    0.119868
  18 H :    0.118077
  19 H :    0.116314
  20 H :    0.276092

  Mayer bond orders larger than 0.100000
B(  0-C ,  1-C ) :   1.1565 B(  0-C ,  8-H ) :   0.9366 B(  0-C ,  9-H ) :   0.9453
B(  0-C , 10-H ) :   0.9430 B(  1-C ,  2-C ) :   1.0914 B(  1-C , 11-H ) :   0.9030
B(  1-C , 12-H ) :   0.9165 B(  2-C ,  3-H ) :   0.8941 B(  2-C ,  4-C ) :   1.0087
B(  2-C ,  7-O ) :   1.0527 B(  4-C ,  5-C ) :   1.1065 B(  4-C ,  6-C ) :   1.1004
B(  4-C , 13-H ) :   0.8916 B(  5-C , 14-H ) :   0.9480 B(  5-C , 15-H ) :   0.9383
B(  5-C , 16-H ) :   0.9411 B(  6-C , 17-H ) :   0.9455 B(  6-C , 18-H ) :   0.9492
B(  6-C , 19-H ) :   0.9378 B(  7-O , 20-H ) :   0.8408

Dispersion correction           -0.017494682
FINAL SINGLE POINT ENERGY      -311.514635718563

DIPOLE MOMENT
-------------

Method             : SCF
Type of density    : Electron Density
Multiplicity       :   1
Irrep              :   0
Energy             :  -311.5941299640147690 Eh
Relativity type    :
Basis              : AO
                                X                 Y                 Z
Electronic contribution:      0.942975991       4.053064601      -3.168142099
Nuclear contribution   :     -0.908961427      -4.557219106       3.482714552
                        -----------------------------------------
Total Dipole Moment    :      0.034014564      -0.504154505       0.314572453
                        -----------------------------------------
Magnitude (a.u.)       :      0.595218098
Magnitude (Debye)      :      1.512924170

Rotational constants in cm-1:             0.094657             0.069572             0.059744
Rotational constants in MHz :          2837.748286          2085.729374          1791.087336

                             ****ORCA TERMINATED NORMALLY****
TOTAL RUN TIME: 0 days 0 hours 0 minutes 8 seconds 301 msec
