                         Program Version 6.0.0  -   RELEASE  -
|  1> ! pbe def2-sv(p) def2/J RI DEFGRID1 loosescf d4 GCP(DFT/SV(P)) printgap
|  2> %output
|  3>     printlevel normal
|  4> end
|  5> * xyz 0 1
|  6> C -2.0478336368 1.4952704981 0.0966314083
|  7> C -1.9367193477 0.046124905 -0.3622883766
|  8> C -0.9963779465 -0.7917478941 0.5145901755
|  9> C 0.4625296067 -0.6608134143 0.1616818581
| 10> O 1.2273561325 -1.6030742276 0.0919732265
| 11> O 0.845452127 0.5892346487 -0.0613331982
| 12> C 2.2156494283 0.8068705846 -0.4044626143
| 13> H -2.7178927043 2.0436117103 -0.5604441482
| 14> H -2.4439898261 1.5425412577 1.1082362647
| 15> H -1.0755127197 1.9779699119 0.0817924514
| 16> H -1.5919910065 0.012215746 -1.397217317
| 17> H -2.9261946109 -0.4123092473 -0.3274409602
| 18> H -1.2386555437 -1.8524710798 0.4404424586
| 19> H -1.1095226233 -0.4899709751 1.5582662071
| 20> H 2.8533337995 0.5753976218 0.4494576671
| 21> H 2.2899388071 1.8562209392 -0.671898131
| 22> H 2.4983022371 0.1664945369 -1.240892039
| 23> *
| 24>
| 25>                          ****END OF INPUT****

CARTESIAN COORDINATES (ANGSTROEM)
---------------------------------
  C     -2.047834    1.495270    0.096631
  C     -1.936719    0.046125   -0.362288
  C     -0.996378   -0.791748    0.514590
  C      0.462530   -0.660813    0.161682
  O      1.227356   -1.603074    0.091973
  O      0.845452    0.589235   -0.061333
  C      2.215649    0.806871   -0.404463
  H     -2.717893    2.043612   -0.560444
  H     -2.443990    1.542541    1.108236
  H     -1.075513    1.977970    0.081792
  H     -1.591991    0.012216   -1.397217
  H     -2.926195   -0.412309   -0.327441
  H     -1.238656   -1.852471    0.440442
  H     -1.109523   -0.489971    1.558266
  H      2.853334    0.575398    0.449458
  H      2.289939    1.856221   -0.671898
  H      2.498302    0.166495   -1.240892

 Total Charge           Charge          ....    0
 Multiplicity           Mult            ....    1
 Number of Electrons    NEL             ....   56
 Basis Dimension        Dim             ....  118

ORBITAL ENERGIES
----------------

  NO   OCC          E(Eh)            E(eV)
   0   2.0000     -18.802152      -511.6326
   1   2.0000     -18.731651      -509.7141
   2   2.0000     -10.003311      -272.2039
   3   2.0000      -9.942006      -270.5357
   4   2.0000      -9.896402      -269.2948
   5   2.0000      -9.893398      -269.2130
   6   2.0000      -9.872742      -268.6510
   7   2.0000      -1.007701       -27.4210
   8   2.0000      -0.907124       -24.6841
   9   2.0000      -0.725864       -19.7518
  10   2.0000      -0.667565       -18.1654
  11   2.0000      -0.622759       -16.9461
  12   2.0000      -0.539096       -14.6695
  13   2.0000      -0.508746       -13.8437
  14   2.0000      -0.453871       -12.3505
  15   2.0000      -0.434501       -11.8234
  16   2.0000      -0.419318       -11.4102
  17   2.0000      -0.394079       -10.7234
  18   2.0000      -0.385239       -10.4829
  19   2.0000      -0.374572       -10.1926
  20   2.0000      -0.357080        -9.7166
  21   2.0000      -0.335138        -9.1196
  22   2.0000      -0.320251        -8.7145
  23   2.0000      -0.301731        -8.2105
  24   2.0000      -0.299118        -8.1394
  25   2.0000      -0.285623        -7.7722
  26   2.0000      -0.259257        -7.0547
  27   2.0000      -0.214594        -5.8394
  28   0.0000      -0.019160        -0.5214
  29   0.0000       0.039669         1.0795
  30   0.0000       0.055315         1.5052
  31   0.0000       0.077734         2.1153
  32   0.0000       0.081142         2.2080

MULLIKEN ATOMIC CHARGES
-----------------------
   0 C :   -0.288733
   1 C :   -0.190158
   2 C :   -0.133629
   3 C :    0.086134
   4 O :   -0.210185
   5 O :   -0.234292
   6 C :   -0.109841
   7 H :    0.101667
   8 H :    0.095598
   9 H :    0.115898
  10 H :    0.097082
  11 H :    0.091942
  12 H :    0.103949
  13 H :    0.112348
  14 H :    0.119630
  15 H :    0.120948
  16 H :    0.121642
Sum of atomic charges:    0.0000000

LOEWDIN ATOMIC CHARGES
----------------------
   0 C :   -0.348420
   1 C :   -0.229181
   2 C :   -0.244393
   3 C :    0.034035
   4 O :   -0.170489
   5 O :   -0.068456
   6 C :   -0.203325
   7 H :    0.118590
   8 H :    0.115366
   9 H :    0.119470
  10 H :    0.119092
  11 H :    0.119900
  12 H :    0.136748
  13 H :    0.140430
  14 H :    0.119921
  15 H :    0.119845
  16 H :    0.120867

  Mayer bond orders larger than 0.100000
B(  0-C ,  1-C ) :   1.1487 B(  0-C ,  7-H ) :   0.9503 B(  0-C ,  8-H ) :   0.9531
B(  0-C ,  9-H ) :   0.9473 B(  1-C ,  2-C ) :   1.0824 B(  1-C , 10-H ) :   0.9345
B(  1-C , 11-H ) :   0.9265 B(  2-C ,  3-C ) :   1.0507 B(  2-C , 12-H ) :   0.9097
B(  2-C , 13-H ) :   0.8953 B(  3-C ,  4-O ) :   2.0628 B(  3-C ,  5-O ) :   1.2014
B(  5-O ,  6-C ) :   0.9387 B(  6-C , 14-H ) :   0.9554 B(  6-C , 15-H ) :   0.9579
B(  6-C , 16-H ) :   0.9489

Dispersion correction           -0.012386988
FINAL SINGLE POINT ENERGY      -346.237109700738

DIPOLE MOMENT
-------------

Method             : SCF
Type of density    : Electron Density
Multiplicity       :   1
Irrep              :   0
Energy             :  -346.3021127336837139 Eh
Relativity type    :
Basis              : AO
                                X                 Y                 Z
Electronic contribution:      4.934651469      -4.349574986       0.466253187
Nuclear contribution   :     -5.093710276       5.069553833      -0.524635607
                        -----------------------------------------
Total Dipole Moment    :     -0.159058806       0.719978847      -0.058382420
                        -----------------------------------------
Magnitude (a.u.)       :      0.739647045
Magnitude (Debye)      :      1.880033380

Rotational constants in cm-1:             0.141012             0.061485             0.045763
Rotational constants in MHz :          4227.430761          1843.284534          1371.952246

                             ****ORCA TERMINATED NORMALLY****
TOTAL RUN TIME: 0 days 0 hours 0 minutes 9 seconds 197 msec
