                         Program Version 6.0.0  -   RELEASE  -
|  1> ! pbe def2-sv(p) def2/J RI DEFGRID1 loosescf d4 GCP(DFT/SV(P)) printgap
|  2> %output
|  3>     printlevel normal
|  4> end
|  5> * xyz 0 1
|  6> C -4.3506362227 -0.6834731811 -0.0095254275
|  7> O -3.4488840441 0.4112251256 0.0108633713
|  8> C -2.1202607642 0.1710569013 0.0047745324
|  9> C -1.5379380806 -1.0966783274 -0.0205135544
| 10> C -0.1639189707 -1.2176859539 -0.025029847
| 11> C 0.6561967618 -0.0911629173 -0.0038881793
| 12> C 0.0704155504 1.1780721549 0.0215136943
| 13> C -1.2973945283 1.3049957601 0.0256450643
| 14> C 2.1139889018 -0.2759023757 -0.0103259398
| 15> O 2.6683475267 -1.3628627954 -0.0365674731
| 16> O 2.7855480792 0.8775012533 0.0228974672
| 17> C 4.2126183662 0.8272796932 0.0199235264
| 18> H -5.3414468246 -0.235419151 -0.000423891
| 19> H -4.2228873179 -1.3139678692 0.8731435676
| 20> H -4.2239239341 -1.2798584466 -0.9157295808
| 21> H -2.1447617409 -1.9866814657 -0.0368223846
| 22> H 0.3017368534 -2.191498638 -0.0446598204
| 23> H 0.7004934302 2.0523716813 0.0374362943
| 24> H -1.7692479622 2.2739991303 0.0448325032
| 25> H 4.5714040479 0.9045517466 -1.0067990575
| 26> H 4.5541966693 -0.1124884927 0.4559623079
| 27> H 4.5490891005 1.6774979155 0.6069401304
| 28> *
| 29>
| 30>                          ****END OF INPUT****

CARTESIAN COORDINATES (ANGSTROEM)
---------------------------------
  C     -4.350636   -0.683473   -0.009525
  O     -3.448884    0.411225    0.010863
  C     -2.120261    0.171057    0.004775
  C     -1.537938   -1.096678   -0.020514
  C     -0.163919   -1.217686   -0.025030
  C      0.656197   -0.091163   -0.003888
  C      0.070416    1.178072    0.021514
  C     -1.297395    1.304996    0.025645
  C      2.113989   -0.275902   -0.010326
  O      2.668348   -1.362863   -0.036567
  O      2.785548    0.877501    0.022897
  C      4.212618    0.827280    0.019924
  H     -5.341447   -0.235419   -0.000424
  H     -4.222887   -1.313968    0.873144
  H     -4.223924   -1.279858   -0.915730
  H     -2.144762   -1.986681   -0.036822
  H      0.301737   -2.191499   -0.044660
  H      0.700493    2.052372    0.037436
  H     -1.769248    2.273999    0.044833
  H      4.571404    0.904552   -1.006799
  H      4.554197   -0.112488    0.455962
  H      4.549089    1.677498    0.606940

 Total Charge           Charge          ....    0
 Multiplicity           Mult            ....    1
 Number of Electrons    NEL             ....   88
 Basis Dimension        Dim             ....  188

ORBITAL ENERGIES
----------------

  NO   OCC          E(Eh)            E(eV)
   0   2.0000     -18.800756      -511.5946
   1   2.0000     -18.793976      -511.4101
   2   2.0000     -18.726118      -509.5636
   3   2.0000      -9.999327      -272.0955
   4   2.0000      -9.961794      -271.0742
   5   2.0000      -9.949536      -270.7406
   6   2.0000      -9.935728      -270.3649
   7   2.0000      -9.899773      -269.3865
   8   2.0000      -9.899170      -269.3701
   9   2.0000      -9.898802      -269.3601
  10   2.0000      -9.897490      -269.3244
  11   2.0000      -9.892935      -269.2004
  12   2.0000      -0.997764       -27.1505
  13   2.0000      -0.982607       -26.7381
  14   2.0000      -0.900975       -24.5168
  15   2.0000      -0.781497       -21.2656
  16   2.0000      -0.703431       -19.1413
  17   2.0000      -0.683360       -18.5952
  18   2.0000      -0.660906       -17.9842
  19   2.0000      -0.631809       -17.1924
  20   2.0000      -0.555009       -15.1026
  21   2.0000      -0.549415       -14.9503
  22   2.0000      -0.506301       -13.7772
  23   2.0000      -0.494669       -13.4606
  24   2.0000      -0.469099       -12.7648
  25   2.0000      -0.441191       -12.0054
  26   2.0000      -0.431544       -11.7429
  27   2.0000      -0.427971       -11.6457
  28   2.0000      -0.408793       -11.1238
  29   2.0000      -0.398413       -10.8414
  30   2.0000      -0.381873       -10.3913
  31   2.0000      -0.381562       -10.3828
  32   2.0000      -0.373241       -10.1564
  33   2.0000      -0.362711        -9.8699
  34   2.0000      -0.342020        -9.3068
  35   2.0000      -0.339746        -9.2450
  36   2.0000      -0.321380        -8.7452
  37   2.0000      -0.296895        -8.0789
  38   2.0000      -0.287412        -7.8209
  39   2.0000      -0.285344        -7.7646
  40   2.0000      -0.251235        -6.8365
  41   2.0000      -0.236287        -6.4297
  42   2.0000      -0.216223        -5.8837
  43   2.0000      -0.202850        -5.5198
  44   0.0000      -0.062337        -1.6963
  45   0.0000      -0.038724        -1.0537
  46   0.0000       0.032766         0.8916
  47   0.0000       0.039463         1.0738
  48   0.0000       0.054176         1.4742

MULLIKEN ATOMIC CHARGES
-----------------------
   0 C :   -0.119032
   1 O :   -0.255189
   2 C :    0.275031
   3 C :   -0.182073
   4 C :   -0.095538
   5 C :    0.041779
   6 C :   -0.085218
   7 C :   -0.103234
   8 C :    0.150746
   9 O :   -0.204127
  10 O :   -0.250712
  11 C :   -0.117848
  12 H :    0.130448
  13 H :    0.117287
  14 H :    0.117250
  15 H :    0.044370
  16 H :    0.063333
  17 H :    0.057953
  18 H :    0.047522
  19 H :    0.118659
  20 H :    0.129265
  21 H :    0.119328
Sum of atomic charges:   -0.0000000

LOEWDIN ATOMIC CHARGES
----------------------
   0 C :   -0.200607
   1 O :   -0.077295
   2 C :    0.039276
   3 C :   -0.174210
   4 C :   -0.079149
   5 C :   -0.098484
   6 C :   -0.093776
   7 C :   -0.141759
   8 C :    0.044907
   9 O :   -0.177645
  10 O :   -0.076021
  11 C :   -0.205424
  12 H :    0.125164
  13 H :    0.113472
  14 H :    0.113459
  15 H :    0.128480
  16 H :    0.135826
  17 H :    0.131719
  18 H :    0.131270
  19 H :    0.118451
  20 H :    0.123151
  21 H :    0.119195

  Mayer bond orders larger than 0.100000
B(  0-C ,  1-O ) :   0.9781 B(  0-C , 12-H ) :   0.9586 B(  0-C , 13-H ) :   0.9425
B(  0-C , 14-H ) :   0.9425 B(  1-O ,  2-C ) :   1.1663 B(  2-C ,  3-C ) :   1.2689
B(  2-C ,  7-C ) :   1.3224 B(  3-C ,  4-C ) :   1.3373 B(  3-C , 15-H ) :   0.9665
B(  4-C ,  5-C ) :   1.3848 B(  4-C , 16-H ) :   0.9559 B(  5-C ,  6-C ) :   1.3184
B(  5-C ,  8-C ) :   0.9586 B(  6-C ,  7-C ) :   1.3753 B(  6-C , 17-H ) :   0.9614
B(  7-C , 18-H ) :   0.9657 B(  8-C ,  9-O ) :   2.0592 B(  8-C , 10-O ) :   1.2286
B( 10-O , 11-C ) :   0.9402 B( 11-C , 19-H ) :   0.9592 B( 11-C , 20-H ) :   0.9342
B( 11-C , 21-H ) :   0.9610

Dispersion correction           -0.022684964
FINAL SINGLE POINT ENERGY      -573.452924788253

DIPOLE MOMENT
-------------

Method             : SCF
Type of density    : Electron Density
Multiplicity       :   1
Irrep              :   0
Energy             :  -573.5273954015706295 Eh
Relativity type    :
Basis              : AO
                                X                 Y                 Z
Electronic contribution:      2.033350788       0.475845490      -0.002104740
Nuclear contribution   :     -2.808594476      -0.199515206       0.012980303
                        -----------------------------------------
Total Dipole Moment    :     -0.775243688       0.276330284       0.010875563
                        -----------------------------------------
Magnitude (a.u.)       :      0.823091416
Magnitude (Debye)      :      2.092132116

Rotational constants in cm-1:             0.108501             0.014378             0.012757
Rotational constants in MHz :          3252.782390           431.031596           382.450814

                             ****ORCA TERMINATED NORMALLY****
TOTAL RUN TIME: 0 days 0 hours 0 minutes 13 seconds 211 msec
