                         Program Version 6.0.0  -   RELEASE  -
|  1> ! pbe def2-sv(p) def2/J RI DEFGRID1 loosescf d4 GCP(DFT/SV(P)) printgap
|  2> %output
|  3>     printlevel normal
|  4> end
|  5> * xyz 0 1
|  6> C 1.6040131218 0.8009915182 1.3304087577
|  7> C 1.2585819277 -0.3183158349 0.3431709013
|  8> C 2.428032886 -0.578978544 -0.604098369
|  9> C -2.29186e-05 0.001196615 -0.4467089007
| 10> O 0.0002409392 0.0043622951 -1.6616448454
| 11> C -1.2589063601 0.3168930443 0.3442993023
| 12> C -1.6031586928 -0.8054019948 1.3285224031
| 13> C -2.4288224254 0.5791874677 -0.6019678186
| 14> H 2.5550596651 0.5784706795 1.8072349122
| 15> H 0.8493390135 0.90053066 2.1042411799
| 16> H 1.6988648341 1.7490235539 0.8056816549
| 17> H 1.0556561257 -1.2353412194 0.9060041644
| 18> H 3.3075657157 -0.8840188885 -0.0442893298
| 19> H 2.1721405095 -1.361081476 -1.3149593465
| 20> H 2.6624062424 0.321009067 -1.1682286237
| 21> H -1.0567409241 1.2325672711 0.9096454116
| 22> H -0.8487498925 -0.9058453022 2.1024958541
| 23> H -2.5547331797 -0.5854481686 1.8054753488
| 24> H -1.6964481856 -1.7522180936 0.8013336528
| 25> H -2.1736280853 1.3631609529 -1.3110093609
| 26> H -2.6627770392 -0.3195999377 -1.1681843161
| 27> H -3.3084134143 0.8823084549 -0.0412003664
| 28> *
| 29>
| 30>                          ****END OF INPUT****

CARTESIAN COORDINATES (ANGSTROEM)
---------------------------------
  C      1.604013    0.800992    1.330409
  C      1.258582   -0.318316    0.343171
  C      2.428033   -0.578979   -0.604098
  C     -0.000023    0.001197   -0.446709
  O      0.000241    0.004362   -1.661645
  C     -1.258906    0.316893    0.344299
  C     -1.603159   -0.805402    1.328522
  C     -2.428822    0.579187   -0.601968
  H      2.555060    0.578471    1.807235
  H      0.849339    0.900531    2.104241
  H      1.698865    1.749024    0.805682
  H      1.055656   -1.235341    0.906004
  H      3.307566   -0.884019   -0.044289
  H      2.172141   -1.361081   -1.314959
  H      2.662406    0.321009   -1.168229
  H     -1.056741    1.232567    0.909645
  H     -0.848750   -0.905845    2.102496
  H     -2.554733   -0.585448    1.805475
  H     -1.696448   -1.752218    0.801334
  H     -2.173628    1.363161   -1.311009
  H     -2.662777   -0.319600   -1.168184
  H     -3.308413    0.882308   -0.041200

 Total Charge           Charge          ....    0
 Multiplicity           Mult            ....    1
 Number of Electrons    NEL             ....   64
 Basis Dimension        Dim             ....  140

ORBITAL ENERGIES
----------------

  NO   OCC          E(Eh)            E(eV)
   0   2.0000     -18.737403      -509.8707
   1   2.0000      -9.965293      -271.1694
   2   2.0000      -9.902067      -269.4489
   3   2.0000      -9.902058      -269.4487
   4   2.0000      -9.887590      -269.0550
   5   2.0000      -9.887576      -269.0546
   6   2.0000      -9.870970      -268.6028
   7   2.0000      -9.870953      -268.6023
   8   2.0000      -0.935260       -25.4497
   9   2.0000      -0.736343       -20.0369
  10   2.0000      -0.712263       -19.3817
  11   2.0000      -0.616144       -16.7661
  12   2.0000      -0.616031       -16.7631
  13   2.0000      -0.581581       -15.8256
  14   2.0000      -0.528325       -14.3765
  15   2.0000      -0.450985       -12.2719
  16   2.0000      -0.446713       -12.1557
  17   2.0000      -0.413322       -11.2471
  18   2.0000      -0.406966       -11.0741
  19   2.0000      -0.385703       -10.4955
  20   2.0000      -0.364664        -9.9230
  21   2.0000      -0.361527        -9.8377
  22   2.0000      -0.346917        -9.4401
  23   2.0000      -0.344158        -9.3650
  24   2.0000      -0.334499        -9.1022
  25   2.0000      -0.325887        -8.8678
  26   2.0000      -0.313810        -8.5392
  27   2.0000      -0.301126        -8.1941
  28   2.0000      -0.298524        -8.1233
  29   2.0000      -0.293914        -7.9978
  30   2.0000      -0.291476        -7.9315
  31   2.0000      -0.192536        -5.2392
  32   0.0000      -0.048044        -1.3073
  33   0.0000       0.023961         0.6520
  34   0.0000       0.060044         1.6339
  35   0.0000       0.066455         1.8083
  36   0.0000       0.074957         2.0397

MULLIKEN ATOMIC CHARGES
-----------------------
   0 C :   -0.268258
   1 C :   -0.194707
   2 C :   -0.218960
   3 C :    0.054912
   4 O :   -0.164680
   5 C :   -0.194706
   6 C :   -0.268256
   7 C :   -0.219038
   8 H :    0.110542
   9 H :    0.115822
  10 H :    0.109096
  11 H :    0.100494
  12 H :    0.092436
  13 H :    0.108086
  14 H :    0.100333
  15 H :    0.100550
  16 H :    0.115838
  17 H :    0.110511
  18 H :    0.109089
  19 H :    0.108153
  20 H :    0.100291
  21 H :    0.092454
Sum of atomic charges:    0.0000000

LOEWDIN ATOMIC CHARGES
----------------------
   0 C :   -0.323895
   1 C :   -0.184238
   2 C :   -0.326877
   3 C :    0.064813
   4 O :   -0.119395
   5 C :   -0.184239
   6 C :   -0.323944
   7 C :   -0.326886
   8 H :    0.124726
   9 H :    0.118380
  10 H :    0.123350
  11 H :    0.133552
  12 H :    0.115704
  13 H :    0.124335
  14 H :    0.122263
  15 H :    0.133594
  16 H :    0.118387
  17 H :    0.124722
  18 H :    0.123336
  19 H :    0.124354
  20 H :    0.122247
  21 H :    0.115709

  Mayer bond orders larger than 0.100000
B(  0-C ,  1-C ) :   1.0948 B(  0-C ,  8-H ) :   0.9487 B(  0-C ,  9-H ) :   0.9371
B(  0-C , 10-H ) :   0.9497 B(  1-C ,  2-C ) :   1.1322 B(  1-C ,  3-C ) :   0.9529
B(  1-C , 11-H ) :   0.8694 B(  2-C , 12-H ) :   0.9461 B(  2-C , 13-H ) :   0.9448
B(  2-C , 14-H ) :   0.9489 B(  3-C ,  4-O ) :   2.1987 B(  3-C ,  5-C ) :   0.9529
B(  5-C ,  6-C ) :   1.0949 B(  5-C ,  7-C ) :   1.1323 B(  5-C , 15-H ) :   0.8693
B(  6-C , 16-H ) :   0.9370 B(  6-C , 17-H ) :   0.9487 B(  6-C , 18-H ) :   0.9497
B(  7-C , 19-H ) :   0.9447 B(  7-C , 20-H ) :   0.9490 B(  7-C , 21-H ) :   0.9461

Dispersion correction           -0.018987602
FINAL SINGLE POINT ENERGY      -349.569376665714

DIPOLE MOMENT
-------------

Method             : SCF
Type of density    : Electron Density
Multiplicity       :   1
Irrep              :   0
Energy             :  -349.6434795039145342 Eh
Relativity type    :
Basis              : AO
                                X                 Y                 Z
Electronic contribution:      0.000277328       0.013163302      -4.785079352
Nuclear contribution   :     -0.000426682      -0.015398537       5.786568240
                        -----------------------------------------
Total Dipole Moment    :     -0.000149353      -0.002235234       1.001488888
                        -----------------------------------------
Magnitude (a.u.)       :      1.001491394
Magnitude (Debye)      :      2.545588822

Rotational constants in cm-1:             0.100606             0.047740             0.038652
Rotational constants in MHz :          3016.089976          1431.216610          1158.757092

                             ****ORCA TERMINATED NORMALLY****
TOTAL RUN TIME: 0 days 0 hours 0 minutes 10 seconds 847 msec
