                         Program Version 6.0.0  -   RELEASE  -
|  1> ! pbe def2-sv(p) def2/J RI DEFGRID1 loosescf d4 GCP(DFT/SV(P)) printgap
|  2> %output
|  3>     printlevel normal
|  4> end
|  5> * xyz 0 1
|  6> C -2.8177401103 0.0407989283 0.5825554688
|  7> C -1.6815798695 0.7808598532 -0.1229686058
|  8> C -0.4955481099 -0.1293668157 -0.3164726064
|  9> O -0.5301426624 -1.2069021696 -0.8753185376
| 10> O 0.6104132542 0.385646118 0.2001693101
| 11> C 1.8299581793 -0.367814449 0.0815901208
| 12> C 2.989177241 0.5468654809 0.4269058385
| 13> H -3.0589231012 -0.8692707995 0.0386952037
| 14> H -2.526506829 -0.2288034425 1.594625832
| 15> H -3.7001477499 0.6714582751 0.6282214368
| 16> H -1.3626197376 1.6529223976 0.4456278584
| 17> H -2.0161397607 1.0963253081 -1.1128317956
| 18> H 1.7715313893 -1.2204569656 0.7657451231
| 19> H 1.9009910668 -0.7531942254 -0.9408187835
| 20> H 2.8712648841 0.9291320479 1.4364122751
| 21> H 3.9179599423 -0.0099190798 0.3598057345
| 22> H 3.0225559515 1.384751544 -0.2633127803
| 23> *
| 24>
| 25>                          ****END OF INPUT****

CARTESIAN COORDINATES (ANGSTROEM)
---------------------------------
  C     -2.817740    0.040799    0.582555
  C     -1.681580    0.780860   -0.122969
  C     -0.495548   -0.129367   -0.316473
  O     -0.530143   -1.206902   -0.875319
  O      0.610413    0.385646    0.200169
  C      1.829958   -0.367814    0.081590
  C      2.989177    0.546865    0.426906
  H     -3.058923   -0.869271    0.038695
  H     -2.526507   -0.228803    1.594626
  H     -3.700148    0.671458    0.628221
  H     -1.362620    1.652922    0.445628
  H     -2.016140    1.096325   -1.112832
  H      1.771531   -1.220457    0.765745
  H      1.900991   -0.753194   -0.940819
  H      2.871265    0.929132    1.436412
  H      3.917960   -0.009919    0.359806
  H      3.022556    1.384752   -0.263313

 Total Charge           Charge          ....    0
 Multiplicity           Mult            ....    1
 Number of Electrons    NEL             ....   56
 Basis Dimension        Dim             ....  118

ORBITAL ENERGIES
----------------

  NO   OCC          E(Eh)            E(eV)
   0   2.0000     -18.797757      -511.5130
   1   2.0000     -18.729304      -509.6503
   2   2.0000     -10.003172      -272.2002
   3   2.0000      -9.946667      -270.6626
   4   2.0000      -9.898126      -269.3417
   5   2.0000      -9.889655      -269.1112
   6   2.0000      -9.883167      -268.9346
   7   2.0000      -1.004109       -27.3232
   8   2.0000      -0.906500       -24.6671
   9   2.0000      -0.720138       -19.5959
  10   2.0000      -0.689837       -18.7714
  11   2.0000      -0.603947       -16.4342
  12   2.0000      -0.554978       -15.1017
  13   2.0000      -0.505911       -13.7666
  14   2.0000      -0.450646       -12.2627
  15   2.0000      -0.436837       -11.8869
  16   2.0000      -0.413611       -11.2549
  17   2.0000      -0.399397       -10.8681
  18   2.0000      -0.378414       -10.2972
  19   2.0000      -0.358608        -9.7582
  20   2.0000      -0.357921        -9.7395
  21   2.0000      -0.339178        -9.2295
  22   2.0000      -0.324972        -8.8429
  23   2.0000      -0.315110        -8.5746
  24   2.0000      -0.304605        -8.2887
  25   2.0000      -0.293604        -7.9894
  26   2.0000      -0.255677        -6.9573
  27   2.0000      -0.215423        -5.8620
  28   0.0000      -0.019054        -0.5185
  29   0.0000       0.041913         1.1405
  30   0.0000       0.056067         1.5256
  31   0.0000       0.083270         2.2659
  32   0.0000       0.086418         2.3516

MULLIKEN ATOMIC CHARGES
-----------------------
   0 C :   -0.296489
   1 C :   -0.150620
   2 C :    0.098749
   3 O :   -0.216220
   4 O :   -0.236280
   5 C :   -0.030854
   6 C :   -0.273478
   7 H :    0.124334
   8 H :    0.107952
   9 H :    0.109619
  10 H :    0.097194
  11 H :    0.114325
  12 H :    0.103689
  13 H :    0.108636
  14 H :    0.113934
  15 H :    0.110967
  16 H :    0.114544
Sum of atomic charges:   -0.0000000

LOEWDIN ATOMIC CHARGES
----------------------
   0 C :   -0.332923
   1 C :   -0.254032
   2 C :    0.034711
   3 O :   -0.173701
   4 O :   -0.069369
   5 C :   -0.109468
   6 C :   -0.350672
   7 H :    0.127870
   8 H :    0.121418
   9 H :    0.121924
  10 H :    0.127150
  11 H :    0.141472
  12 H :    0.115704
  13 H :    0.117368
  14 H :    0.126120
  15 H :    0.130080
  16 H :    0.126347

  Mayer bond orders larger than 0.100000
B(  0-C ,  1-C ) :   1.1430 B(  0-C ,  7-H ) :   0.9481 B(  0-C ,  8-H ) :   0.9580
B(  0-C ,  9-H ) :   0.9533 B(  1-C ,  2-C ) :   1.0277 B(  1-C , 10-H ) :   0.9152
B(  1-C , 11-H ) :   0.8992 B(  2-C ,  3-O ) :   2.0445 B(  2-C ,  4-O ) :   1.2221
B(  4-O ,  5-C ) :   0.9109 B(  5-C ,  6-C ) :   1.1521 B(  5-C , 12-H ) :   0.9352
B(  5-C , 13-H ) :   0.9253 B(  6-C , 14-H ) :   0.9488 B(  6-C , 15-H ) :   0.9448
B(  6-C , 16-H ) :   0.9513

Dispersion correction           -0.011545959
FINAL SINGLE POINT ENERGY      -346.244747527682

DIPOLE MOMENT
-------------

Method             : SCF
Type of density    : Electron Density
Multiplicity       :   1
Irrep              :   0
Energy             :  -346.3094207290874920 Eh
Relativity type    :
Basis              : AO
                                X                 Y                 Z
Electronic contribution:     -0.409458852      -1.927175753      -2.401519697
Nuclear contribution   :      0.770455364       2.476729972       2.759619297
                        -----------------------------------------
Total Dipole Moment    :      0.360996512       0.549554219       0.358099600
                        -----------------------------------------
Magnitude (a.u.)       :      0.748707983
Magnitude (Debye)      :      1.903064455

Rotational constants in cm-1:             0.219641             0.044107             0.039462
Rotational constants in MHz :          6584.657248          1322.289818          1183.034782

                             ****ORCA TERMINATED NORMALLY****
TOTAL RUN TIME: 0 days 0 hours 0 minutes 8 seconds 652 msec
