                         Program Version 6.0.0  -   RELEASE  -
|  1> ! pbe def2-sv(p) def2/J RI DEFGRID1 loosescf d4 GCP(DFT/SV(P)) printgap
|  2> %output
|  3>     printlevel normal
|  4> end
|  5> * xyz 0 1
|  6> C -2.272560058 -0.2355102088 0.1500091619
|  7> O -0.9733917237 -0.2130683435 -0.3993421435
|  8> C -0.0934381518 0.6456324274 0.2971452003
|  9> C 1.3028886049 0.5141222047 -0.301008156
| 10> O 1.9280727407 -0.6286365858 0.2428532548
| 11> H -2.254007519 -0.5951954618 1.1845456904
| 12> H -2.8512918343 -0.9175353867 -0.4673154828
| 13> H -2.7231086068 0.7631408109 0.1259239674
| 14> H -0.4425581344 1.6849116964 0.211093953
| 15> H -0.0544109486 0.3678266228 1.3595275827
| 16> H 1.8814067531 1.4143432097 -0.0563481739
| 17> H 1.2015323013 0.4255666082 -1.38823368
| 18> H 2.7565781179 -0.7957749758 -0.2266843285
| 19> *
| 20>
| 21>                          ****END OF INPUT****

CARTESIAN COORDINATES (ANGSTROEM)
---------------------------------
  C     -2.272560   -0.235510    0.150009
  O     -0.973392   -0.213068   -0.399342
  C     -0.093438    0.645632    0.297145
  C      1.302889    0.514122   -0.301008
  O      1.928073   -0.628637    0.242853
  H     -2.254008   -0.595195    1.184546
  H     -2.851292   -0.917535   -0.467315
  H     -2.723109    0.763141    0.125924
  H     -0.442558    1.684912    0.211094
  H     -0.054411    0.367827    1.359528
  H      1.881407    1.414343   -0.056348
  H      1.201532    0.425567   -1.388234
  H      2.756578   -0.795775   -0.226684

 Total Charge           Charge          ....    0
 Multiplicity           Mult            ....    1
 Number of Electrons    NEL             ....   42
 Basis Dimension        Dim             ....   86

ORBITAL ENERGIES
----------------

  NO   OCC          E(Eh)            E(eV)
   0   2.0000     -18.746815      -510.1268
   1   2.0000     -18.739426      -509.9257
   2   2.0000      -9.929182      -270.1868
   3   2.0000      -9.927424      -270.1389
   4   2.0000      -9.920981      -269.9636
   5   2.0000      -0.931367       -25.3438
   6   2.0000      -0.911899       -24.8140
   7   2.0000      -0.676168       -18.3995
   8   2.0000      -0.596344       -16.2274
   9   2.0000      -0.532873       -14.5002
  10   2.0000      -0.470045       -12.7906
  11   2.0000      -0.443082       -12.0569
  12   2.0000      -0.406087       -11.0502
  13   2.0000      -0.405370       -11.0307
  14   2.0000      -0.369709       -10.0603
  15   2.0000      -0.343239        -9.3400
  16   2.0000      -0.337414        -9.1815
  17   2.0000      -0.278990        -7.5917
  18   2.0000      -0.260934        -7.1004
  19   2.0000      -0.213357        -5.8057
  20   2.0000      -0.198641        -5.4053
  21   0.0000       0.030678         0.8348
  22   0.0000       0.047647         1.2965
  23   0.0000       0.077744         2.1155
  24   0.0000       0.094415         2.5692
  25   0.0000       0.105377         2.8675

MULLIKEN ATOMIC CHARGES
-----------------------
   0 C :   -0.099621
   1 O :   -0.343818
   2 C :   -0.003562
   3 C :    0.016621
   4 O :   -0.440840
   5 H :    0.087420
   6 H :    0.114753
   7 H :    0.080308
   8 H :    0.065401
   9 H :    0.078405
  10 H :    0.066215
  11 H :    0.080977
  12 H :    0.297742
Sum of atomic charges:   -0.0000000

LOEWDIN ATOMIC CHARGES
----------------------
   0 C :   -0.206562
   1 O :   -0.182781
   2 C :   -0.121757
   3 C :   -0.132088
   4 O :   -0.348536
   5 H :    0.097412
   6 H :    0.115420
   7 H :    0.093877
   8 H :    0.095737
   9 H :    0.104095
  10 H :    0.096122
  11 H :    0.104313
  12 H :    0.284748

  Mayer bond orders larger than 0.100000
B(  0-C ,  1-O ) :   1.0237 B(  0-C ,  5-H ) :   0.9429 B(  0-C ,  6-H ) :   0.9647
B(  0-C ,  7-H ) :   0.9413 B(  1-O ,  2-C ) :   1.0247 B(  2-C ,  3-C ) :   1.1097
B(  2-C ,  8-H ) :   0.9113 B(  2-C ,  9-H ) :   0.9066 B(  3-C ,  4-O ) :   1.0883
B(  3-C , 10-H ) :   0.9174 B(  3-C , 11-H ) :   0.9170 B(  4-O , 12-H ) :   0.8538

Dispersion correction           -0.007147576
FINAL SINGLE POINT ENERGY      -268.932374679907

DIPOLE MOMENT
-------------

Method             : SCF
Type of density    : Electron Density
Multiplicity       :   1
Irrep              :   0
Energy             :  -268.9924697216197842 Eh
Relativity type    :
Basis              : AO
                                X                 Y                 Z
Electronic contribution:      2.479762667      -1.735830286      -0.804681321
Nuclear contribution   :     -2.317975379       2.189645754       0.694276115
                        -----------------------------------------
Total Dipole Moment    :      0.161787288       0.453815468      -0.110405206
                        -----------------------------------------
Magnitude (a.u.)       :      0.494280199
Magnitude (Debye)      :      1.256360422

Rotational constants in cm-1:             0.481730             0.083354             0.078619
Rotational constants in MHz :         14441.908100          2498.896400          2356.946292

                             ****ORCA TERMINATED NORMALLY****
TOTAL RUN TIME: 0 days 0 hours 0 minutes 6 seconds 168 msec
