                         Program Version 6.0.0  -   RELEASE  -
|  1> ! r2scan-3c def2/J RI DEFGRID2 scfconv6 printgap
|  2> %output
|  3>     printlevel normal
|  4> end
|  5> * xyz 0 1
|  6> C 2.0605147722 -0.3115955401 -0.4559711158
|  7> O 1.2787419225 0.4983788768 0.4000447242
|  8> C -0.012703756 -0.0053578294 0.6742031742
|  9> C -0.9916472432 0.1294454895 -0.4990016537
| 10> N -2.3125880562 -0.3160131124 -0.0820237849
| 11> H 3.0575677353 0.1224027847 -0.4464887544
| 12> H 1.6725357277 -0.3106253575 -1.4783984623
| 13> H 2.1004491143 -1.3408251449 -0.085160674
| 14> H 0.0423358367 -1.0570186996 0.9839527804
| 15> H -0.3721925644 0.5909502878 1.5170748946
| 16> H -0.9626720682 1.1752527649 -0.850119363
| 17> H -0.6728333982 -0.5140132793 -1.3231467163
| 18> H -2.96212305 -0.2239465473 -0.8546159659
| 19> H -2.6498169815 0.2726723003 0.6723628425
| 20> *
| 21>
| 22>                          ****END OF INPUT****

CARTESIAN COORDINATES (ANGSTROEM)
---------------------------------
  C      2.060515   -0.311596   -0.455971
  O      1.278742    0.498379    0.400045
  C     -0.012704   -0.005358    0.674203
  C     -0.991647    0.129445   -0.499002
  N     -2.312588   -0.316013   -0.082024
  H      3.057568    0.122403   -0.446489
  H      1.672536   -0.310625   -1.478398
  H      2.100449   -1.340825   -0.085161
  H      0.042336   -1.057019    0.983953
  H     -0.372193    0.590950    1.517075
  H     -0.962672    1.175253   -0.850119
  H     -0.672833   -0.514013   -1.323147
  H     -2.962123   -0.223947   -0.854616
  H     -2.649817    0.272672    0.672363

 Total Charge           Charge          ....    0
 Multiplicity           Mult            ....    1
 Number of Electrons    NEL             ....   42
 Basis Dimension        Dim             ....  150

ORBITAL ENERGIES
----------------

  NO   OCC          E(Eh)            E(eV)
   0   2.0000     -18.949736      -515.6485
   1   2.0000     -14.142168      -384.8280
   2   2.0000     -10.072308      -274.0814
   3   2.0000     -10.069047      -273.9927
   4   2.0000     -10.052145      -273.5328
   5   2.0000      -0.994123       -27.0515
   6   2.0000      -0.851968       -23.1832
   7   2.0000      -0.701864       -19.0987
   8   2.0000      -0.637364       -17.3436
   9   2.0000      -0.561656       -15.2834
  10   2.0000      -0.470841       -12.8122
  11   2.0000      -0.457937       -12.4611
  12   2.0000      -0.435942       -11.8626
  13   2.0000      -0.411235       -11.1903
  14   2.0000      -0.398591       -10.8462
  15   2.0000      -0.368820       -10.0361
  16   2.0000      -0.345556        -9.4031
  17   2.0000      -0.327937        -8.9236
  18   2.0000      -0.276787        -7.5318
  19   2.0000      -0.220917        -6.0115
  20   2.0000      -0.210906        -5.7390
  21   0.0000       0.057893         1.5753
  22   0.0000       0.082589         2.2474
  23   0.0000       0.107808         2.9336
  24   0.0000       0.121957         3.3186
  25   0.0000       0.140930         3.8349

MULLIKEN ATOMIC CHARGES
-----------------------
   0 C :   -0.288512
   1 O :   -0.240191
   2 C :   -0.171936
   3 C :   -0.177913
   4 N :   -0.563527
   5 H :    0.147850
   6 H :    0.131902
   7 H :    0.133169
   8 H :    0.141235
   9 H :    0.135273
  10 H :    0.135270
  11 H :    0.133959
  12 H :    0.242259
  13 H :    0.241162
Sum of atomic charges:    0.0000000

LOEWDIN ATOMIC CHARGES
----------------------
   0 C :   -0.074949
   1 O :   -0.784844
   2 C :    0.029015
   3 C :   -0.057671
   4 N :   -0.739526
   5 H :    0.175106
   6 H :    0.152593
   7 H :    0.156768
   8 H :    0.167293
   9 H :    0.177961
  10 H :    0.153354
  11 H :    0.170867
  12 H :    0.237699
  13 H :    0.236334

  Mayer bond orders larger than 0.100000
B(  0-C ,  1-O ) :   0.8920 B(  0-C ,  5-H ) :   0.9743 B(  0-C ,  6-H ) :   0.9624
B(  0-C ,  7-H ) :   0.9683 B(  1-O ,  2-C ) :   0.9243 B(  2-C ,  3-C ) :   0.9151
B(  2-C ,  8-H ) :   0.9736 B(  2-C ,  9-H ) :   0.9669 B(  3-C ,  4-N ) :   0.9411
B(  3-C , 10-H ) :   0.9645 B(  3-C , 11-H ) :   0.9726 B(  4-N , 12-H ) :   0.9166
B(  4-N , 13-H ) :   0.9198

Dispersion correction           -0.002764114
FINAL SINGLE POINT ENERGY      -249.615228966663

DIPOLE MOMENT
-------------

Method             : SCF
Type of density    : Electron Density
Multiplicity       :   1
Irrep              :   0
Energy             :  -249.6250984772392769 Eh
Relativity type    :
Basis              : AO
                                X                 Y                 Z
Electronic contribution:      0.440637918       1.233205456       1.378383483
Nuclear contribution   :     -0.694296592      -1.200020289      -1.743760405
                        -----------------------------------------
Total Dipole Moment    :     -0.253658674       0.033185167      -0.365376922
                        -----------------------------------------
Magnitude (a.u.)       :      0.446031695
Magnitude (Debye)      :      1.133722470

Rotational constants in cm-1:             0.487440             0.080934             0.075588
Rotational constants in MHz :         14613.092676          2426.338529          2266.074241

                             ****ORCA TERMINATED NORMALLY****
TOTAL RUN TIME: 0 days 0 hours 0 minutes 16 seconds 18 msec
