                         Program Version 6.0.0  -   RELEASE  -
|  1> ! r2scan-3c def2/J RI DEFGRID2 scfconv6 printgap
|  2> %output
|  3>     printlevel normal
|  4> end
|  5> %cpcm
|  6>     smd true
|  7>     smdsolvent "water"
|  8> end
|  9> * xyz 0 1
| 10> C 2.0605147722 -0.3115955401 -0.4559711158
| 11> O 1.2787419225 0.4983788768 0.4000447242
| 12> C -0.012703756 -0.0053578294 0.6742031742
| 13> C -0.9916472432 0.1294454895 -0.4990016537
| 14> N -2.3125880562 -0.3160131124 -0.0820237849
| 15> H 3.0575677353 0.1224027847 -0.4464887544
| 16> H 1.6725357277 -0.3106253575 -1.4783984623
| 17> H 2.1004491143 -1.3408251449 -0.085160674
| 18> H 0.0423358367 -1.0570186996 0.9839527804
| 19> H -0.3721925644 0.5909502878 1.5170748946
| 20> H -0.9626720682 1.1752527649 -0.850119363
| 21> H -0.6728333982 -0.5140132793 -1.3231467163
| 22> H -2.96212305 -0.2239465473 -0.8546159659
| 23> H -2.6498169815 0.2726723003 0.6723628425
| 24> *
| 25>
| 26>                          ****END OF INPUT****

CARTESIAN COORDINATES (ANGSTROEM)
---------------------------------
  C      2.060515   -0.311596   -0.455971
  O      1.278742    0.498379    0.400045
  C     -0.012704   -0.005358    0.674203
  C     -0.991647    0.129445   -0.499002
  N     -2.312588   -0.316013   -0.082024
  H      3.057568    0.122403   -0.446489
  H      1.672536   -0.310625   -1.478398
  H      2.100449   -1.340825   -0.085161
  H      0.042336   -1.057019    0.983953
  H     -0.372193    0.590950    1.517075
  H     -0.962672    1.175253   -0.850119
  H     -0.672833   -0.514013   -1.323147
  H     -2.962123   -0.223947   -0.854616
  H     -2.649817    0.272672    0.672363

 Total Charge           Charge          ....    0
 Multiplicity           Mult            ....    1
 Number of Electrons    NEL             ....   42
 Basis Dimension        Dim             ....  150

ORBITAL ENERGIES
----------------

  NO   OCC          E(Eh)            E(eV)
   0   2.0000     -18.956939      -515.8445
   1   2.0000     -14.134833      -384.6284
   2   2.0000     -10.068357      -273.9739
   3   2.0000     -10.062293      -273.8089
   4   2.0000     -10.044614      -273.3278
   5   2.0000      -0.999557       -27.1993
   6   2.0000      -0.843934       -22.9646
   7   2.0000      -0.698419       -19.0049
   8   2.0000      -0.631923       -17.1955
   9   2.0000      -0.556143       -15.1334
  10   2.0000      -0.464709       -12.6454
  11   2.0000      -0.455409       -12.3923
  12   2.0000      -0.432696       -11.7743
  13   2.0000      -0.406923       -11.0729
  14   2.0000      -0.393077       -10.6962
  15   2.0000      -0.362552        -9.8655
  16   2.0000      -0.339446        -9.2368
  17   2.0000      -0.322292        -8.7700
  18   2.0000      -0.280538        -7.6338
  19   2.0000      -0.225355        -6.1322
  20   2.0000      -0.209588        -5.7032
  21   0.0000       0.063838         1.7371
  22   0.0000       0.091422         2.4877
  23   0.0000       0.118821         3.2333
  24   0.0000       0.133347         3.6285
  25   0.0000       0.147937         4.0256

MULLIKEN ATOMIC CHARGES
-----------------------
   0 C :   -0.305808
   1 O :   -0.313262
   2 C :   -0.174048
   3 C :   -0.199956
   4 N :   -0.649368
   5 H :    0.161912
   6 H :    0.153573
   7 H :    0.152989
   8 H :    0.149515
   9 H :    0.158384
  10 H :    0.137847
  11 H :    0.157319
  12 H :    0.285514
  13 H :    0.285389
Sum of atomic charges:    0.0000000

LOEWDIN ATOMIC CHARGES
----------------------
   0 C :   -0.075573
   1 O :   -0.825898
   2 C :    0.024567
   3 C :   -0.058312
   4 N :   -0.756703
   5 H :    0.179664
   6 H :    0.162460
   7 H :    0.165958
   8 H :    0.171208
   9 H :    0.185090
  10 H :    0.155637
  11 H :    0.177266
  12 H :    0.248061
  13 H :    0.246574

  Mayer bond orders larger than 0.100000
B(  0-C ,  1-O ) :   0.8826 B(  0-C ,  5-H ) :   0.9677 B(  0-C ,  6-H ) :   0.9564
B(  0-C ,  7-H ) :   0.9631 B(  1-O ,  2-C ) :   0.9152 B(  2-C ,  3-C ) :   0.9052
B(  2-C ,  8-H ) :   0.9649 B(  2-C ,  9-H ) :   0.9617 B(  3-C ,  4-N ) :   0.9595
B(  3-C , 10-H ) :   0.9666 B(  3-C , 11-H ) :   0.9715 B(  4-N , 12-H ) :   0.8994
B(  4-N , 13-H ) :   0.9027

Dispersion correction           -0.002764114
FINAL SINGLE POINT ENERGY      -249.625010994314

DIPOLE MOMENT
-------------

Method             : SCF
Type of density    : Electron Density
Multiplicity       :   1
Irrep              :   0
Energy             :  -249.6348805048903046 Eh
Relativity type    :
Basis              : AO
                                X                 Y                 Z
Electronic contribution:      0.334277303       1.206948248       1.229672671
Nuclear contribution   :     -0.694296592      -1.200020289      -1.743760405
                        -----------------------------------------
Total Dipole Moment    :     -0.360019289       0.006927959      -0.514087734
                        -----------------------------------------
Magnitude (a.u.)       :      0.627652836
Magnitude (Debye)      :      1.595366724

Rotational constants in cm-1:             0.487440             0.080934             0.075588
Rotational constants in MHz :         14613.092676          2426.338529          2266.074241

                             ****ORCA TERMINATED NORMALLY****
TOTAL RUN TIME: 0 days 0 hours 0 minutes 18 seconds 14 msec
