                         Program Version 6.0.0  -   RELEASE  -
|  1> ! r2scan-3c def2/J RI DEFGRID2 scfconv6 printgap
|  2> %output
|  3>     printlevel normal
|  4> end
|  5> * xyz 0 1
|  6> C -3.7513739714 0.8571889631 -1.2480776242
|  7> C -3.0271335162 0.1803821537 -0.1007094506
|  8> O -1.6154786144 0.266327412 -0.3473815502
|  9> C -0.8063125561 -0.2838699709 0.5521429279
| 10> O -1.2218476306 -0.8435688496 1.5533283212
| 11> C 0.6247002812 -0.1466964764 0.2139654452
| 12> C 1.0420035425 0.5042928284 -0.9459078789
| 13> C 2.3918349137 0.6099754676 -1.2241937833
| 14> C 3.3280780694 0.0713945223 -0.3544099365
| 15> C 2.9166069469 -0.5768546278 0.8002693574
| 16> C 1.5693003541 -0.6867208484 1.0857381047
| 17> H -4.8215673886 0.8019897926 -1.0783686497
| 18> H -3.4518564652 1.8989129101 -1.3140935694
| 19> H -3.5104642426 0.3619186842 -2.184058157
| 20> H -3.2992934637 -0.8770195446 -0.0136715693
| 21> H -3.2406294135 0.6645795026 0.8582971634
| 22> H 0.3051887746 0.9192763459 -1.6145878401
| 23> H 2.715910446 1.1136314894 -2.1213753533
| 24> H 4.3804831314 0.1567010785 -0.5766670816
| 25> H 3.6452221619 -0.9960507012 1.4764820552
| 26> H 1.2207548586 -1.1859253609 1.9775105104
| 27> *
| 28>
| 29>                          ****END OF INPUT****

CARTESIAN COORDINATES (ANGSTROEM)
---------------------------------
  C     -3.751374    0.857189   -1.248078
  C     -3.027134    0.180382   -0.100709
  O     -1.615479    0.266327   -0.347382
  C     -0.806313   -0.283870    0.552143
  O     -1.221848   -0.843569    1.553328
  C      0.624700   -0.146696    0.213965
  C      1.042004    0.504293   -0.945908
  C      2.391835    0.609975   -1.224194
  C      3.328078    0.071395   -0.354410
  C      2.916607   -0.576855    0.800269
  C      1.569300   -0.686721    1.085738
  H     -4.821567    0.801990   -1.078369
  H     -3.451856    1.898913   -1.314094
  H     -3.510464    0.361919   -2.184058
  H     -3.299293   -0.877020   -0.013672
  H     -3.240629    0.664580    0.858297
  H      0.305189    0.919276   -1.614588
  H      2.715910    1.113631   -2.121375
  H      4.380483    0.156701   -0.576667
  H      3.645222   -0.996051    1.476482
  H      1.220755   -1.185925    1.977511

 Total Charge           Charge          ....    0
 Multiplicity           Mult            ....    1
 Number of Electrons    NEL             ....   80
 Basis Dimension        Dim             ....  269

ORBITAL ENERGIES
----------------

  NO   OCC          E(Eh)            E(eV)
   0   2.0000     -18.998752      -516.9823
   1   2.0000     -18.928280      -515.0647
   2   2.0000     -10.155038      -276.3326
   3   2.0000     -10.093143      -274.6484
   4   2.0000     -10.054219      -273.5892
   5   2.0000     -10.047914      -273.4177
   6   2.0000     -10.047141      -273.3966
   7   2.0000     -10.045104      -273.3412
   8   2.0000     -10.044765      -273.3319
   9   2.0000     -10.044188      -273.3163
  10   2.0000     -10.033284      -273.0196
  11   2.0000      -1.073541       -29.2125
  12   2.0000      -0.974238       -26.5104
  13   2.0000      -0.838768       -22.8240
  14   2.0000      -0.759058       -20.6550
  15   2.0000      -0.729710       -19.8564
  16   2.0000      -0.726237       -19.7619
  17   2.0000      -0.637708       -17.3529
  18   2.0000      -0.591234       -16.0883
  19   2.0000      -0.579568       -15.7708
  20   2.0000      -0.538121       -14.6430
  21   2.0000      -0.511339       -13.9142
  22   2.0000      -0.464635       -12.6434
  23   2.0000      -0.460778       -12.5384
  24   2.0000      -0.439181       -11.9507
  25   2.0000      -0.422318       -11.4919
  26   2.0000      -0.413651       -11.2560
  27   2.0000      -0.400155       -10.8888
  28   2.0000      -0.399973       -10.8838
  29   2.0000      -0.375377       -10.2145
  30   2.0000      -0.370886       -10.0923
  31   2.0000      -0.354980        -9.6595
  32   2.0000      -0.332859        -9.0575
  33   2.0000      -0.330862        -9.0032
  34   2.0000      -0.325098        -8.8464
  35   2.0000      -0.313509        -8.5310
  36   2.0000      -0.273664        -7.4468
  37   2.0000      -0.248071        -6.7504
  38   2.0000      -0.246344        -6.7034
  39   2.0000      -0.238789        -6.4978
  40   0.0000      -0.075495        -2.0543
  41   0.0000      -0.040094        -1.0910
  42   0.0000       0.026805         0.7294
  43   0.0000       0.068678         1.8688
  44   0.0000       0.094761         2.5786

MULLIKEN ATOMIC CHARGES
-----------------------
   0 C :   -0.448558
   1 C :   -0.140715
   2 O :   -0.141650
   3 C :    0.341320
   4 O :   -0.428520
   5 C :    0.096447
   6 C :   -0.201930
   7 C :   -0.152441
   8 C :   -0.113805
   9 C :   -0.154000
  10 C :   -0.223096
  11 H :    0.148935
  12 H :    0.152731
  13 H :    0.152813
  14 H :    0.158129
  15 H :    0.157614
  16 H :    0.171385
  17 H :    0.147168
  18 H :    0.148577
  19 H :    0.147901
  20 H :    0.181696
Sum of atomic charges:    0.0000000

LOEWDIN ATOMIC CHARGES
----------------------
   0 C :   -0.386839
   1 C :    0.037793
   2 O :   -0.605031
   3 C :    0.385191
   4 O :   -0.434825
   5 C :   -0.033154
   6 C :   -0.114639
   7 C :   -0.162241
   8 C :   -0.145178
   9 C :   -0.159891
  10 C :   -0.105816
  11 H :    0.160238
  12 H :    0.159341
  13 H :    0.159375
  14 H :    0.180659
  15 H :    0.180384
  16 H :    0.187487
  17 H :    0.168758
  18 H :    0.168327
  19 H :    0.169641
  20 H :    0.190420

  Mayer bond orders larger than 0.100000
B(  0-C ,  1-C ) :   0.9423 B(  0-C , 11-H ) :   0.9681 B(  0-C , 12-H ) :   0.9729
B(  0-C , 13-H ) :   0.9731 B(  1-C ,  2-O ) :   0.7893 B(  1-C , 14-H ) :   0.9515
B(  1-C , 15-H ) :   0.9510 B(  2-O ,  3-C ) :   1.2038 B(  2-O ,  5-C ) :  -0.1349
B(  3-C ,  4-O ) :   1.8555 B(  3-C ,  5-C ) :   1.0091 B(  5-C ,  6-C ) :   1.3912
B(  5-C , 10-C ) :   1.4740 B(  6-C ,  7-C ) :   1.3825 B(  6-C , 16-H ) :   0.9519
B(  7-C ,  8-C ) :   1.4059 B(  7-C , 17-H ) :   0.9525 B(  8-C ,  9-C ) :   1.3990
B(  8-C , 18-H ) :   0.9456 B(  9-C , 10-C ) :   1.3752 B(  9-C , 19-H ) :   0.9552
B( 10-C , 20-H ) :   0.9420

Dispersion correction           -0.006839888
FINAL SINGLE POINT ENERGY      -499.330535665230

DIPOLE MOMENT
-------------

Method             : SCF
Type of density    : Electron Density
Multiplicity       :   1
Irrep              :   0
Energy             :  -499.3330850243817167 Eh
Relativity type    :
Basis              : AO
                                X                 Y                 Z
Electronic contribution:      5.824905595      -2.245071180       3.536742303
Nuclear contribution   :     -5.723827657       2.672752140      -4.288835218
                        -----------------------------------------
Total Dipole Moment    :      0.101077938       0.427680960      -0.752092915
                        -----------------------------------------
Magnitude (a.u.)       :      0.871074914
Magnitude (Debye)      :      2.214096475

Rotational constants in cm-1:             0.092587             0.020453             0.016858
Rotational constants in MHz :          2775.680357           613.162966           505.391534

                             ****ORCA TERMINATED NORMALLY****
TOTAL RUN TIME: 0 days 0 hours 0 minutes 42 seconds 193 msec
