                         Program Version 6.0.0  -   RELEASE  -
|  1> ! r2scan-3c def2/J RI DEFGRID2 scfconv6 printgap
|  2> %output
|  3>     printlevel normal
|  4> end
|  5> %cpcm
|  6>     smd true
|  7>     smdsolvent "water"
|  8> end
|  9> * xyz 0 1
| 10> C -3.7513739714 0.8571889631 -1.2480776242
| 11> C -3.0271335162 0.1803821537 -0.1007094506
| 12> O -1.6154786144 0.266327412 -0.3473815502
| 13> C -0.8063125561 -0.2838699709 0.5521429279
| 14> O -1.2218476306 -0.8435688496 1.5533283212
| 15> C 0.6247002812 -0.1466964764 0.2139654452
| 16> C 1.0420035425 0.5042928284 -0.9459078789
| 17> C 2.3918349137 0.6099754676 -1.2241937833
| 18> C 3.3280780694 0.0713945223 -0.3544099365
| 19> C 2.9166069469 -0.5768546278 0.8002693574
| 20> C 1.5693003541 -0.6867208484 1.0857381047
| 21> H -4.8215673886 0.8019897926 -1.0783686497
| 22> H -3.4518564652 1.8989129101 -1.3140935694
| 23> H -3.5104642426 0.3619186842 -2.184058157
| 24> H -3.2992934637 -0.8770195446 -0.0136715693
| 25> H -3.2406294135 0.6645795026 0.8582971634
| 26> H 0.3051887746 0.9192763459 -1.6145878401
| 27> H 2.715910446 1.1136314894 -2.1213753533
| 28> H 4.3804831314 0.1567010785 -0.5766670816
| 29> H 3.6452221619 -0.9960507012 1.4764820552
| 30> H 1.2207548586 -1.1859253609 1.9775105104
| 31> *
| 32>
| 33>                          ****END OF INPUT****

CARTESIAN COORDINATES (ANGSTROEM)
---------------------------------
  C     -3.751374    0.857189   -1.248078
  C     -3.027134    0.180382   -0.100709
  O     -1.615479    0.266327   -0.347382
  C     -0.806313   -0.283870    0.552143
  O     -1.221848   -0.843569    1.553328
  C      0.624700   -0.146696    0.213965
  C      1.042004    0.504293   -0.945908
  C      2.391835    0.609975   -1.224194
  C      3.328078    0.071395   -0.354410
  C      2.916607   -0.576855    0.800269
  C      1.569300   -0.686721    1.085738
  H     -4.821567    0.801990   -1.078369
  H     -3.451856    1.898913   -1.314094
  H     -3.510464    0.361919   -2.184058
  H     -3.299293   -0.877020   -0.013672
  H     -3.240629    0.664580    0.858297
  H      0.305189    0.919276   -1.614588
  H      2.715910    1.113631   -2.121375
  H      4.380483    0.156701   -0.576667
  H      3.645222   -0.996051    1.476482
  H      1.220755   -1.185925    1.977511

 Total Charge           Charge          ....    0
 Multiplicity           Mult            ....    1
 Number of Electrons    NEL             ....   80
 Basis Dimension        Dim             ....  269

ORBITAL ENERGIES
----------------

  NO   OCC          E(Eh)            E(eV)
   0   2.0000     -19.003963      -517.1241
   1   2.0000     -18.944721      -515.5121
   2   2.0000     -10.168119      -276.6886
   3   2.0000     -10.085874      -274.4506
   4   2.0000     -10.055955      -273.6365
   5   2.0000     -10.046176      -273.3703
   6   2.0000     -10.045620      -273.3552
   7   2.0000     -10.044689      -273.3299
   8   2.0000     -10.041438      -273.2414
   9   2.0000     -10.041321      -273.2382
  10   2.0000     -10.019151      -272.6350
  11   2.0000      -1.081514       -29.4295
  12   2.0000      -0.988842       -26.9078
  13   2.0000      -0.839241       -22.8369
  14   2.0000      -0.756578       -20.5875
  15   2.0000      -0.727191       -19.7879
  16   2.0000      -0.722957       -19.6726
  17   2.0000      -0.634218       -17.2580
  18   2.0000      -0.589028       -16.0283
  19   2.0000      -0.576005       -15.6739
  20   2.0000      -0.536402       -14.5962
  21   2.0000      -0.511050       -13.9064
  22   2.0000      -0.464429       -12.6378
  23   2.0000      -0.463368       -12.6089
  24   2.0000      -0.444968       -12.1082
  25   2.0000      -0.422349       -11.4927
  26   2.0000      -0.414994       -11.2926
  27   2.0000      -0.400457       -10.8970
  28   2.0000      -0.396847       -10.7987
  29   2.0000      -0.371951       -10.1213
  30   2.0000      -0.359931        -9.7942
  31   2.0000      -0.354146        -9.6368
  32   2.0000      -0.329543        -8.9673
  33   2.0000      -0.328295        -8.9334
  34   2.0000      -0.322588        -8.7781
  35   2.0000      -0.312546        -8.5048
  36   2.0000      -0.280138        -7.6230
  37   2.0000      -0.256936        -6.9916
  38   2.0000      -0.249584        -6.7915
  39   2.0000      -0.248417        -6.7598
  40   0.0000      -0.080809        -2.1989
  41   0.0000      -0.040456        -1.1009
  42   0.0000       0.021366         0.5814
  43   0.0000       0.070881         1.9288
  44   0.0000       0.103700         2.8218

MULLIKEN ATOMIC CHARGES
-----------------------
   0 C :   -0.494420
   1 C :   -0.144898
   2 O :   -0.149745
   3 C :    0.388495
   4 O :   -0.506196
   5 C :    0.099271
   6 C :   -0.213621
   7 C :   -0.191295
   8 C :   -0.131115
   9 C :   -0.198743
  10 C :   -0.245206
  11 H :    0.170412
  12 H :    0.165362
  13 H :    0.165443
  14 H :    0.172564
  15 H :    0.172747
  16 H :    0.195124
  17 H :    0.182696
  18 H :    0.185226
  19 H :    0.182655
  20 H :    0.195246
Sum of atomic charges:   -0.0000000

LOEWDIN ATOMIC CHARGES
----------------------
   0 C :   -0.389037
   1 C :    0.040261
   2 O :   -0.602218
   3 C :    0.391785
   4 O :   -0.494575
   5 C :   -0.045247
   6 C :   -0.116150
   7 C :   -0.162812
   8 C :   -0.142716
   9 C :   -0.162019
  10 C :   -0.116922
  11 H :    0.168799
  12 H :    0.162942
  13 H :    0.162949
  14 H :    0.185579
  15 H :    0.185504
  16 H :    0.195633
  17 H :    0.181730
  18 H :    0.181458
  19 H :    0.182034
  20 H :    0.193021

  Mayer bond orders larger than 0.100000
B(  0-C ,  1-C ) :   0.9438 B(  0-C , 11-H ) :   0.9617 B(  0-C , 12-H ) :   0.9704
B(  0-C , 13-H ) :   0.9707 B(  1-C ,  2-O ) :   0.7761 B(  1-C , 14-H ) :   0.9444
B(  1-C , 15-H ) :   0.9437 B(  2-O ,  3-C ) :   1.2227 B(  2-O ,  5-C ) :  -0.1210
B(  3-C ,  4-O ) :   1.7989 B(  3-C ,  5-C ) :   1.0118 B(  5-C ,  6-C ) :   1.3442
B(  5-C , 10-C ) :   1.4017 B(  6-C ,  7-C ) :   1.3703 B(  6-C , 16-H ) :   0.9599
B(  7-C ,  8-C ) :   1.3754 B(  7-C , 17-H ) :   0.9591 B(  8-C ,  9-C ) :   1.3741
B(  8-C , 18-H ) :   0.9483 B(  9-C , 10-C ) :   1.3738 B(  9-C , 19-H ) :   0.9601
B( 10-C , 20-H ) :   0.9512

Dispersion correction           -0.006839888
FINAL SINGLE POINT ENERGY      -499.336682535681

DIPOLE MOMENT
-------------

Method             : SCF
Type of density    : Electron Density
Multiplicity       :   1
Irrep              :   0
Energy             :  -499.3392318948327784 Eh
Relativity type    :
Basis              : AO
                                X                 Y                 Z
Electronic contribution:      6.007998548      -2.047406702       3.180432408
Nuclear contribution   :     -5.723827657       2.672752140      -4.288835218
                        -----------------------------------------
Total Dipole Moment    :      0.284170890       0.625345439      -1.108402810
                        -----------------------------------------
Magnitude (a.u.)       :      1.303981135
Magnitude (Debye)      :      3.314456641

Rotational constants in cm-1:             0.092587             0.020453             0.016858
Rotational constants in MHz :          2775.680357           613.162966           505.391534

                             ****ORCA TERMINATED NORMALLY****
TOTAL RUN TIME: 0 days 0 hours 0 minutes 48 seconds 270 msec
