                         Program Version 6.0.0  -   RELEASE  -
|  1> ! r2scan-3c def2/J RI DEFGRID2 scfconv6 printgap
|  2> %output
|  3>     printlevel normal
|  4> end
|  5> * xyz 0 1
|  6> C -1.0077243934 -0.5873439167 -0.1181962425
|  7> C 0.0418398475 0.2974085159 0.5665192277
|  8> C 1.4080788346 -0.3954205789 0.6104288104
|  9> O 1.7019415835 -0.9574838725 -0.6484294776
| 10> O 0.1690429891 1.5328591926 -0.1046472928
| 11> O -2.2524234238 0.0668369494 -0.2072824126
| 12> H -1.0894089689 -1.5420380977 0.4114207727
| 13> H -0.6875393043 -0.7795278494 -1.1440796615
| 14> H -0.2668385186 0.4953513009 1.6080730729
| 15> H 1.3804924371 -1.1775948395 1.3809981984
| 16> H 2.1511162726 0.361019416 0.8864339756
| 17> H 2.6232055376 -1.2503096288 -0.6587019263
| 18> H -0.6799471473 1.7302352772 -0.530696714
| 19> H -2.6456017809 0.1355781214 0.674471867
| 20> *
| 21>
| 22>                          ****END OF INPUT****

CARTESIAN COORDINATES (ANGSTROEM)
---------------------------------
  C     -1.007724   -0.587344   -0.118196
  C      0.041840    0.297409    0.566519
  C      1.408079   -0.395421    0.610429
  O      1.701942   -0.957484   -0.648429
  O      0.169043    1.532859   -0.104647
  O     -2.252423    0.066837   -0.207282
  H     -1.089409   -1.542038    0.411421
  H     -0.687539   -0.779528   -1.144080
  H     -0.266839    0.495351    1.608073
  H      1.380492   -1.177595    1.380998
  H      2.151116    0.361019    0.886434
  H      2.623206   -1.250310   -0.658702
  H     -0.679947    1.730235   -0.530697
  H     -2.645602    0.135578    0.674472

 Total Charge           Charge          ....    0
 Multiplicity           Mult            ....    1
 Number of Electrons    NEL             ....   50
 Basis Dimension        Dim             ....  169

ORBITAL ENERGIES
----------------

  NO   OCC          E(Eh)            E(eV)
   0   2.0000     -18.962486      -515.9955
   1   2.0000     -18.953770      -515.7583
   2   2.0000     -18.941356      -515.4205
   3   2.0000     -10.084347      -274.4090
   4   2.0000     -10.081509      -274.3318
   5   2.0000     -10.077866      -274.2327
   6   2.0000      -1.006345       -27.3840
   7   2.0000      -0.992124       -26.9971
   8   2.0000      -0.972764       -26.4703
   9   2.0000      -0.727013       -19.7830
  10   2.0000      -0.646594       -17.5947
  11   2.0000      -0.563925       -15.3452
  12   2.0000      -0.499590       -13.5945
  13   2.0000      -0.496031       -13.4977
  14   2.0000      -0.459363       -12.4999
  15   2.0000      -0.422059       -11.4848
  16   2.0000      -0.411709       -11.2032
  17   2.0000      -0.395466       -10.7612
  18   2.0000      -0.365946        -9.9579
  19   2.0000      -0.327362        -8.9080
  20   2.0000      -0.313271        -8.5245
  21   2.0000      -0.292988        -7.9726
  22   2.0000      -0.253963        -6.9107
  23   2.0000      -0.242457        -6.5976
  24   2.0000      -0.230482        -6.2717
  25   0.0000       0.048868         1.3298
  26   0.0000       0.053757         1.4628
  27   0.0000       0.100122         2.7245
  28   0.0000       0.100390         2.7318
  29   0.0000       0.130842         3.5604

MULLIKEN ATOMIC CHARGES
-----------------------
   0 C :   -0.243934
   1 C :    0.076677
   2 C :   -0.155080
   3 O :   -0.421025
   4 O :   -0.418181
   5 O :   -0.434100
   6 H :    0.132233
   7 H :    0.178701
   8 H :    0.119779
   9 H :    0.118600
  10 H :    0.133964
  11 H :    0.296387
  12 H :    0.315516
  13 H :    0.300463
Sum of atomic charges:   -0.0000000

LOEWDIN ATOMIC CHARGES
----------------------
   0 C :    0.025649
   1 C :    0.072550
   2 C :    0.030525
   3 O :   -0.618010
   4 O :   -0.583043
   5 O :   -0.610087
   6 H :    0.165482
   7 H :    0.199434
   8 H :    0.165830
   9 H :    0.159927
  10 H :    0.173511
  11 H :    0.269902
  12 H :    0.280195
  13 H :    0.268136

  Mayer bond orders larger than 0.100000
B(  0-C ,  1-C ) :   0.9213 B(  0-C ,  5-O ) :   0.9737 B(  0-C ,  6-H ) :   0.9706
B(  0-C ,  7-H ) :   0.9699 B(  1-C ,  2-C ) :   1.0030 B(  1-C ,  4-O ) :   0.8936
B(  1-C ,  8-H ) :   0.9266 B(  2-C ,  3-O ) :   0.9523 B(  2-C ,  9-H ) :   0.9514
B(  2-C , 10-H ) :   0.9608 B(  3-O , 11-H ) :   0.8987 B(  4-O , 12-H ) :   0.8679
B(  5-O , 13-H ) :   0.8951

Dispersion correction           -0.003010652
FINAL SINGLE POINT ENERGY      -344.722233081382

DIPOLE MOMENT
-------------

Method             : SCF
Type of density    : Electron Density
Multiplicity       :   1
Irrep              :   0
Energy             :  -344.7297954813973320 Eh
Relativity type    :
Basis              : AO
                                X                 Y                 Z
Electronic contribution:     -0.588516499       1.346342729      -1.575997306
Nuclear contribution   :      0.731250166      -1.892408324       2.451181574
                        -----------------------------------------
Total Dipole Moment    :      0.142733667      -0.546065594       0.875184268
                        -----------------------------------------
Magnitude (a.u.)       :      1.041397156
Magnitude (Debye)      :      2.647021207

Rotational constants in cm-1:             0.194106             0.078178             0.065624
Rotational constants in MHz :          5819.140080          2343.719097          1967.357397

                             ****ORCA TERMINATED NORMALLY****
TOTAL RUN TIME: 0 days 0 hours 0 minutes 20 seconds 727 msec
