                         Program Version 6.0.0  -   RELEASE  -
|  1> ! r2scan-3c def2/J RI DEFGRID2 scfconv6 printgap
|  2> %output
|  3>     printlevel normal
|  4> end
|  5> * xyz 0 1
|  6> C -2.5834448567 -1.7458363182 1.701386382
|  7> C -3.4042466097 -0.7832998332 0.8518571347
|  8> C -2.7741562819 -0.3863090007 -0.4920211218
|  9> H -3.3930503708 0.4201553874 -0.9043633995
| 10> C -2.745380163 -1.5131846289 -1.5159094497
| 11> N -1.4571600997 0.2529790444 -0.2866376237
| 12> C -0.2801873826 -0.4901556231 -0.2181654916
| 13> O -0.2560952739 -1.702941191 -0.2995606181
| 14> C 0.9258863873 0.3015647318 -0.0413460484
| 15> C 0.9161704472 1.6482777358 0.1007447317
| 16> N -0.3050364434 2.257321277 0.0633153167
| 17> C -1.502884036 1.6195226322 -0.1147251223
| 18> O -2.5409637523 2.2597005156 -0.1233209188
| 19> C 2.0925026702 2.5303559311 0.2971191094
| 20> Br 2.5269040513 -0.7234046914 0.0029445683
| 21> H -2.3326752987 -2.6454850558 1.1468854281
| 22> H -1.654537025 -1.2853775464 2.0333233119
| 23> H -3.1520648884 -2.0297215156 2.583102377
| 24> H -4.3716513415 -1.2340771206 0.6287963265
| 25> H -3.5858830535 0.1323038344 1.4206224142
| 26> H -2.237456354 -2.3943370794 -1.1398787027
| 27> H -3.7703584654 -1.772505734 -1.7646741554
| 28> H -2.2401132529 -1.1861000476 -2.4218669933
| 29> H -0.361516785 3.2643402088 0.1796425463
| 30> H 1.9986490299 3.0666623007 1.2391727236
| 31> H 2.1415317677 3.2627607346 -0.5059870603
| 32> H 3.0125779992 1.9547817739 0.3081191258
| 33> *
| 34>
| 35>                          ****END OF INPUT****

CARTESIAN COORDINATES (ANGSTROEM)
---------------------------------
  C     -2.583445   -1.745836    1.701386
  C     -3.404247   -0.783300    0.851857
  C     -2.774156   -0.386309   -0.492021
  H     -3.393050    0.420155   -0.904363
  C     -2.745380   -1.513185   -1.515909
  N     -1.457160    0.252979   -0.286638
  C     -0.280187   -0.490156   -0.218165
  O     -0.256095   -1.702941   -0.299561
  C      0.925886    0.301565   -0.041346
  C      0.916170    1.648278    0.100745
  N     -0.305036    2.257321    0.063315
  C     -1.502884    1.619523   -0.114725
  O     -2.540964    2.259701   -0.123321
  C      2.092503    2.530356    0.297119
  Br     2.526904   -0.723405    0.002945
  H     -2.332675   -2.645485    1.146885
  H     -1.654537   -1.285378    2.033323
  H     -3.152065   -2.029722    2.583102
  H     -4.371651   -1.234077    0.628796
  H     -3.585883    0.132304    1.420622
  H     -2.237456   -2.394337   -1.139879
  H     -3.770358   -1.772506   -1.764674
  H     -2.240113   -1.186100   -2.421867
  H     -0.361517    3.264340    0.179643
  H      1.998649    3.066662    1.239173
  H      2.141532    3.262761   -0.505987
  H      3.012578    1.954782    0.308119

 Total Charge           Charge          ....    0
 Multiplicity           Mult            ....    1
 Number of Electrons    NEL             ....  132
 Basis Dimension        Dim             ....  368

ORBITAL ENERGIES
----------------

  NO   OCC          E(Eh)            E(eV)
   0   2.0000    -482.234427    -13122.2659
   1   2.0000     -62.305633     -1695.4225
   2   2.0000     -56.086227     -1526.1838
   3   2.0000     -56.083396     -1526.1068
   4   2.0000     -56.083264     -1526.1032
   5   2.0000     -18.932721      -515.1855
   6   2.0000     -18.926447      -515.0148
   7   2.0000     -14.239425      -387.4744
   8   2.0000     -14.228785      -387.1849
   9   2.0000     -10.182078      -277.0684
  10   2.0000     -10.152873      -276.2737
  11   2.0000     -10.129502      -275.6378
  12   2.0000     -10.100510      -274.8489
  13   2.0000     -10.079077      -274.2656
  14   2.0000     -10.068529      -273.9786
  15   2.0000     -10.030032      -272.9310
  16   2.0000     -10.016867      -272.5728
  17   2.0000     -10.012123      -272.4437
  18   2.0000      -8.637471      -235.0375
  19   2.0000      -6.445719      -175.3969
  20   2.0000      -6.431152      -175.0005
  21   2.0000      -6.430452      -174.9815
  22   2.0000      -2.543129       -69.2020
  23   2.0000      -2.539520       -69.1038
  24   2.0000      -2.539039       -69.0908
  25   2.0000      -2.528207       -68.7960
  26   2.0000      -2.528200       -68.7958
  27   2.0000      -1.054068       -28.6826
  28   2.0000      -1.015866       -27.6431
  29   2.0000      -0.958195       -26.0738
  30   2.0000      -0.919401       -25.0182
  31   2.0000      -0.813403       -22.1338
  32   2.0000      -0.774301       -21.0698
  33   2.0000      -0.749806       -20.4033
  34   2.0000      -0.707263       -19.2456
  35   2.0000      -0.692547       -18.8452
  36   2.0000      -0.641898       -17.4669
  37   2.0000      -0.637624       -17.3506
  38   2.0000      -0.604621       -16.4526
  39   2.0000      -0.560878       -15.2623
  40   2.0000      -0.552545       -15.0355
  41   2.0000      -0.515624       -14.0308
  42   2.0000      -0.475959       -12.9515
  43   2.0000      -0.450368       -12.2551
  44   2.0000      -0.438933       -11.9440
  45   2.0000      -0.437663       -11.9094
  46   2.0000      -0.427646       -11.6368
  47   2.0000      -0.411239       -11.1904
  48   2.0000      -0.407619       -11.0919
  49   2.0000      -0.403887       -10.9903
  50   2.0000      -0.392263       -10.6740
  51   2.0000      -0.381102       -10.3703
  52   2.0000      -0.380017       -10.3408
  53   2.0000      -0.361369        -9.8334
  54   2.0000      -0.355618        -9.6769
  55   2.0000      -0.350297        -9.5321
  56   2.0000      -0.337291        -9.1782
  57   2.0000      -0.318377        -8.6635
  58   2.0000      -0.308563        -8.3964
  59   2.0000      -0.297906        -8.1064
  60   2.0000      -0.290599        -7.9076
  61   2.0000      -0.268785        -7.3140
  62   2.0000      -0.258805        -7.0424
  63   2.0000      -0.250124        -6.8062
  64   2.0000      -0.232422        -6.3245
  65   2.0000      -0.218982        -5.9588
  66   0.0000      -0.073326        -1.9953
  67   0.0000      -0.033320        -0.9067
  68   0.0000      -0.024712        -0.6724
  69   0.0000       0.038035         1.0350
  70   0.0000       0.064941         1.7671

MULLIKEN ATOMIC CHARGES
-----------------------
   0 C :   -0.470404
   1 C :   -0.325546
   2 C :   -0.064662
   3 H :    0.200976
   4 C :   -0.488693
   5 N :    0.180883
   6 C :    0.192215
   7 O :   -0.414725
   8 C :   -0.193280
   9 C :    0.216032
  10 N :   -0.032659
  11 C :    0.254375
  12 O :   -0.455730
  13 C :   -0.606112
  14 Br:   -0.081367
  15 H :    0.170034
  16 H :    0.141043
  17 H :    0.145755
  18 H :    0.149617
  19 H :    0.165938
  20 H :    0.196234
  21 H :    0.147876
  22 H :    0.149815
  23 H :    0.281775
  24 H :    0.176420
  25 H :    0.176446
  26 H :    0.187743
Sum of atomic charges:    0.0000000

LOEWDIN ATOMIC CHARGES
----------------------
   0 C :   -0.406875
   1 C :   -0.263372
   2 C :    0.042515
   3 H :    0.220737
   4 C :   -0.364179
   5 N :   -0.619716
   6 C :    0.353288
   7 O :   -0.473593
   8 C :   -0.191550
   9 C :    0.153128
  10 N :   -0.518308
  11 C :    0.458824
  12 O :   -0.424751
  13 C :   -0.351031
  14 Br:    0.258489
  15 H :    0.161858
  16 H :    0.156550
  17 H :    0.149268
  18 H :    0.161119
  19 H :    0.165748
  20 H :    0.181739
  21 H :    0.155900
  22 H :    0.163188
  23 H :    0.299298
  24 H :    0.175738
  25 H :    0.175743
  26 H :    0.180247

  Mayer bond orders larger than 0.100000
B(  0-C ,  1-C ) :   0.8803 B(  0-C , 15-H ) :   0.9885 B(  0-C , 16-H ) :   0.9687
B(  0-C , 17-H ) :   0.9633 B(  1-C ,  2-C ) :   0.9231 B(  1-C , 18-H ) :   0.9850
B(  1-C , 19-H ) :   0.9673 B(  2-C ,  3-H ) :   0.9511 B(  2-C ,  4-C ) :   0.8761
B(  2-C ,  5-N ) :   0.8250 B(  4-C , 20-H ) :   0.9712 B(  4-C , 21-H ) :   0.9637
B(  4-C , 22-H ) :   0.9769 B(  5-N ,  6-C ) :   1.1164 B(  5-N , 11-C ) :   1.1129
B(  6-C ,  7-O ) :   1.8976 B(  6-C ,  8-C ) :   0.9467 B(  6-C , 14-Br) :  -0.1254
B(  8-C ,  9-C ) :   1.4875 B(  8-C , 14-Br) :   1.2160 B(  9-C , 10-N ) :   1.1460
B(  9-C , 13-C ) :   0.8429 B( 10-N , 11-C ) :   1.0523 B( 10-N , 23-H ) :   0.9055
B( 11-C , 12-O ) :   1.9003 B( 13-C , 24-H ) :   0.9669 B( 13-C , 25-H ) :   0.9674
B( 13-C , 26-H ) :   0.9550

Dispersion correction           -0.011588108
FINAL SINGLE POINT ENERGY     -3184.782148230242

DIPOLE MOMENT
-------------

Method             : SCF
Type of density    : Electron Density
Multiplicity       :   1
Irrep              :   0
Energy             : -3184.7920153910640693 Eh
Relativity type    :
Basis              : AO
                                X                 Y                 Z
Electronic contribution:     42.734351018      -4.931797919      -2.421370390
Nuclear contribution   :    -42.226636381       6.319845514       2.594780595
                        -----------------------------------------
Total Dipole Moment    :      0.507714636       1.388047595       0.173410205
                        -----------------------------------------
Magnitude (a.u.)       :      1.488126801
Magnitude (Debye)      :      3.782517728

Rotational constants in cm-1:             0.026902             0.012394             0.009505
Rotational constants in MHz :           806.509626           371.558287           284.941916

                             ****ORCA TERMINATED NORMALLY****
TOTAL RUN TIME: 0 days 0 hours 1 minutes 24 seconds 193 msec
