                         Program Version 6.0.0  -   RELEASE  -
|  1> ! r2scan-3c def2/J RI DEFGRID2 scfconv6 printgap
|  2> %output
|  3>     printlevel normal
|  4> end
|  5> %cpcm
|  6>     smd true
|  7>     smdsolvent "water"
|  8> end
|  9> * xyz 0 1
| 10> C -2.5834448567 -1.7458363182 1.701386382
| 11> C -3.4042466097 -0.7832998332 0.8518571347
| 12> C -2.7741562819 -0.3863090007 -0.4920211218
| 13> H -3.3930503708 0.4201553874 -0.9043633995
| 14> C -2.745380163 -1.5131846289 -1.5159094497
| 15> N -1.4571600997 0.2529790444 -0.2866376237
| 16> C -0.2801873826 -0.4901556231 -0.2181654916
| 17> O -0.2560952739 -1.702941191 -0.2995606181
| 18> C 0.9258863873 0.3015647318 -0.0413460484
| 19> C 0.9161704472 1.6482777358 0.1007447317
| 20> N -0.3050364434 2.257321277 0.0633153167
| 21> C -1.502884036 1.6195226322 -0.1147251223
| 22> O -2.5409637523 2.2597005156 -0.1233209188
| 23> C 2.0925026702 2.5303559311 0.2971191094
| 24> Br 2.5269040513 -0.7234046914 0.0029445683
| 25> H -2.3326752987 -2.6454850558 1.1468854281
| 26> H -1.654537025 -1.2853775464 2.0333233119
| 27> H -3.1520648884 -2.0297215156 2.583102377
| 28> H -4.3716513415 -1.2340771206 0.6287963265
| 29> H -3.5858830535 0.1323038344 1.4206224142
| 30> H -2.237456354 -2.3943370794 -1.1398787027
| 31> H -3.7703584654 -1.772505734 -1.7646741554
| 32> H -2.2401132529 -1.1861000476 -2.4218669933
| 33> H -0.361516785 3.2643402088 0.1796425463
| 34> H 1.9986490299 3.0666623007 1.2391727236
| 35> H 2.1415317677 3.2627607346 -0.5059870603
| 36> H 3.0125779992 1.9547817739 0.3081191258
| 37> *
| 38>
| 39>                          ****END OF INPUT****

CARTESIAN COORDINATES (ANGSTROEM)
---------------------------------
  C     -2.583445   -1.745836    1.701386
  C     -3.404247   -0.783300    0.851857
  C     -2.774156   -0.386309   -0.492021
  H     -3.393050    0.420155   -0.904363
  C     -2.745380   -1.513185   -1.515909
  N     -1.457160    0.252979   -0.286638
  C     -0.280187   -0.490156   -0.218165
  O     -0.256095   -1.702941   -0.299561
  C      0.925886    0.301565   -0.041346
  C      0.916170    1.648278    0.100745
  N     -0.305036    2.257321    0.063315
  C     -1.502884    1.619523   -0.114725
  O     -2.540964    2.259701   -0.123321
  C      2.092503    2.530356    0.297119
  Br     2.526904   -0.723405    0.002945
  H     -2.332675   -2.645485    1.146885
  H     -1.654537   -1.285378    2.033323
  H     -3.152065   -2.029722    2.583102
  H     -4.371651   -1.234077    0.628796
  H     -3.585883    0.132304    1.420622
  H     -2.237456   -2.394337   -1.139879
  H     -3.770358   -1.772506   -1.764674
  H     -2.240113   -1.186100   -2.421867
  H     -0.361517    3.264340    0.179643
  H      1.998649    3.066662    1.239173
  H      2.141532    3.262761   -0.505987
  H      3.012578    1.954782    0.308119

 Total Charge           Charge          ....    0
 Multiplicity           Mult            ....    1
 Number of Electrons    NEL             ....  132
 Basis Dimension        Dim             ....  368

ORBITAL ENERGIES
----------------

  NO   OCC          E(Eh)            E(eV)
   0   2.0000    -482.233726    -13122.2468
   1   2.0000     -62.304987     -1695.4049
   2   2.0000     -56.085537     -1526.1650
   3   2.0000     -56.082764     -1526.0896
   4   2.0000     -56.082645     -1526.0864
   5   2.0000     -18.938704      -515.3483
   6   2.0000     -18.932075      -515.1680
   7   2.0000     -14.228276      -387.1711
   8   2.0000     -14.226775      -387.1302
   9   2.0000     -10.183259      -277.1006
  10   2.0000     -10.156225      -276.3649
  11   2.0000     -10.120192      -275.3844
  12   2.0000     -10.093688      -274.6632
  13   2.0000     -10.075653      -274.1725
  14   2.0000     -10.040071      -273.2042
  15   2.0000     -10.025226      -272.8003
  16   2.0000     -10.012848      -272.4635
  17   2.0000     -10.009859      -272.3821
  18   2.0000      -8.636884      -235.0216
  19   2.0000      -6.444903      -175.3747
  20   2.0000      -6.430686      -174.9879
  21   2.0000      -6.429986      -174.9688
  22   2.0000      -2.542385       -69.1818
  23   2.0000      -2.538860       -69.0859
  24   2.0000      -2.538380       -69.0728
  25   2.0000      -2.527803       -68.7850
  26   2.0000      -2.527795       -68.7848
  27   2.0000      -1.055093       -28.7105
  28   2.0000      -1.022226       -27.8162
  29   2.0000      -0.952058       -25.9068
  30   2.0000      -0.916878       -24.9495
  31   2.0000      -0.807148       -21.9636
  32   2.0000      -0.767927       -20.8964
  33   2.0000      -0.738775       -20.1031
  34   2.0000      -0.701242       -19.0818
  35   2.0000      -0.685330       -18.6488
  36   2.0000      -0.637358       -17.3434
  37   2.0000      -0.628026       -17.0895
  38   2.0000      -0.599367       -16.3096
  39   2.0000      -0.554843       -15.0980
  40   2.0000      -0.546838       -14.8802
  41   2.0000      -0.504067       -13.7164
  42   2.0000      -0.470088       -12.7918
  43   2.0000      -0.445267       -12.1163
  44   2.0000      -0.438248       -11.9253
  45   2.0000      -0.431018       -11.7286
  46   2.0000      -0.417150       -11.3512
  47   2.0000      -0.413751       -11.2587
  48   2.0000      -0.399518       -10.8714
  49   2.0000      -0.394822       -10.7437
  50   2.0000      -0.384871       -10.4729
  51   2.0000      -0.378328       -10.2948
  52   2.0000      -0.371865       -10.1190
  53   2.0000      -0.356934        -9.7127
  54   2.0000      -0.353522        -9.6198
  55   2.0000      -0.347808        -9.4643
  56   2.0000      -0.327020        -8.8987
  57   2.0000      -0.315534        -8.5861
  58   2.0000      -0.307381        -8.3643
  59   2.0000      -0.296009        -8.0548
  60   2.0000      -0.289990        -7.8910
  61   2.0000      -0.269527        -7.3342
  62   2.0000      -0.264354        -7.1934
  63   2.0000      -0.253111        -6.8875
  64   2.0000      -0.239263        -6.5107
  65   2.0000      -0.215377        -5.8607
  66   0.0000      -0.065897        -1.7931
  67   0.0000      -0.029783        -0.8104
  68   0.0000      -0.025059        -0.6819
  69   0.0000       0.055960         1.5227
  70   0.0000       0.077332         2.1043

MULLIKEN ATOMIC CHARGES
-----------------------
   0 C :   -0.533455
   1 C :   -0.302620
   2 C :   -0.058134
   3 H :    0.204960
   4 C :   -0.541037
   5 N :    0.204695
   6 C :    0.187290
   7 O :   -0.481912
   8 C :   -0.196128
   9 C :    0.241488
  10 N :   -0.033487
  11 C :    0.283949
  12 O :   -0.536141
  13 C :   -0.615565
  14 Br:   -0.112685
  15 H :    0.172142
  16 H :    0.157759
  17 H :    0.161098
  18 H :    0.170652
  19 H :    0.164712
  20 H :    0.187646
  21 H :    0.169497
  22 H :    0.170774
  23 H :    0.338085
  24 H :    0.207582
  25 H :    0.207513
  26 H :    0.181325
Sum of atomic charges:    0.0000000

LOEWDIN ATOMIC CHARGES
----------------------
   0 C :   -0.415868
   1 C :   -0.262491
   2 C :    0.045112
   3 H :    0.222019
   4 C :   -0.369386
   5 N :   -0.607646
   6 C :    0.355844
   7 O :   -0.534240
   8 C :   -0.201336
   9 C :    0.179018
  10 N :   -0.478921
  11 C :    0.466586
  12 O :   -0.482188
  13 C :   -0.344673
  14 Br:    0.238075
  15 H :    0.158753
  16 H :    0.158959
  17 H :    0.154049
  18 H :    0.167922
  19 H :    0.166042
  20 H :    0.176203
  21 H :    0.163567
  22 H :    0.167312
  23 H :    0.317825
  24 H :    0.191744
  25 H :    0.191747
  26 H :    0.175971

  Mayer bond orders larger than 0.100000
B(  0-C ,  1-C ) :   0.8578 B(  0-C , 15-H ) :   0.9897 B(  0-C , 16-H ) :   0.9703
B(  0-C , 17-H ) :   0.9592 B(  1-C ,  2-C ) :   0.9338 B(  1-C , 18-H ) :   0.9840
B(  1-C , 19-H ) :   0.9605 B(  2-C ,  3-H ) :   0.9465 B(  2-C ,  4-C ) :   0.8598
B(  2-C ,  5-N ) :   0.8148 B(  4-C , 20-H ) :   0.9733 B(  4-C , 21-H ) :   0.9594
B(  4-C , 22-H ) :   0.9780 B(  5-N ,  6-C ) :   1.1229 B(  5-N , 11-C ) :   1.1254
B(  6-C ,  7-O ) :   1.8572 B(  6-C ,  8-C ) :   0.9586 B(  8-C ,  9-C ) :   1.4663
B(  8-C , 14-Br) :   1.1424 B(  9-C , 10-N ) :   1.1521 B(  9-C , 13-C ) :   0.8566
B( 10-N , 11-C ) :   1.0784 B( 10-N , 23-H ) :   0.8806 B( 11-C , 12-O ) :   1.8327
B( 13-C , 24-H ) :   0.9467 B( 13-C , 25-H ) :   0.9470 B( 13-C , 26-H ) :   0.9666

Dispersion correction           -0.011588108
FINAL SINGLE POINT ENERGY     -3184.798982900661

DIPOLE MOMENT
-------------

Method             : SCF
Type of density    : Electron Density
Multiplicity       :   1
Irrep              :   0
Energy             : -3184.8088500614826444 Eh
Relativity type    :
Basis              : AO
                                X                 Y                 Z
Electronic contribution:     42.931613585      -4.106643543      -2.335589534
Nuclear contribution   :    -42.226636381       6.319845514       2.594780595
                        -----------------------------------------
Total Dipole Moment    :      0.704977203       2.213201970       0.259191061
                        -----------------------------------------
Magnitude (a.u.)       :      2.337185449
Magnitude (Debye)      :      5.940653300

Rotational constants in cm-1:             0.026902             0.012394             0.009505
Rotational constants in MHz :           806.509626           371.558287           284.941916

                             ****ORCA TERMINATED NORMALLY****
TOTAL RUN TIME: 0 days 0 hours 1 minutes 36 seconds 684 msec
