                         Program Version 6.0.0  -   RELEASE  -
|  1> ! r2scan-3c def2/J RI DEFGRID2 scfconv6 printgap
|  2> %output
|  3>     printlevel normal
|  4> end
|  5> * xyz 0 1
|  6> C -2.433657609 0.9053122091 -0.2410050057
|  7> C -1.1293990516 0.3021852652 0.2863921614
|  8> C -1.3629966041 -1.1633527164 0.6454895821
|  9> C -0.0350199926 0.5083139996 -0.77039078
| 10> C 1.4231223692 0.1710375357 -0.4047286921
| 11> C 1.811916774 0.6736504092 0.9839388506
| 12> C 1.7621989023 -1.3119119097 -0.5542541882
| 13> H -2.306212966 1.9596874603 -0.47583212
| 14> H -2.7508889388 0.3887526126 -1.144570448
| 15> H -3.2237416413 0.8143474147 0.5008525515
| 16> H -0.8525694182 0.8459954738 1.19466521
| 17> H -0.5367301449 -1.5679303355 1.2220847506
| 18> H -2.2649364023 -1.2593229437 1.2469738796
| 19> H -1.4868754468 -1.7615680373 -0.2543962365
| 20> H -0.0595469541 1.5669300144 -1.044346514
| 21> H -0.3049206624 -0.0597260335 -1.6643962709
| 22> H 2.0429984046 0.7081409856 -1.1345945382
| 23> H 1.3030452247 0.1072663316 1.7595899865
| 24> H 2.8837373549 0.5629073605 1.1334222536
| 25> H 1.5578303869 1.7252047216 1.0956106977
| 26> H 2.8357858014 -1.4564878094 -0.4501976065
| 27> H 1.2680957295 -1.9149287265 0.2003404174
| 28> H 1.4639590691 -1.6749993098 -1.5350452801
| 29> *
| 30>
| 31>                          ****END OF INPUT****

CARTESIAN COORDINATES (ANGSTROEM)
---------------------------------
  C     -2.433658    0.905312   -0.241005
  C     -1.129399    0.302185    0.286392
  C     -1.362997   -1.163353    0.645490
  C     -0.035020    0.508314   -0.770391
  C      1.423122    0.171038   -0.404729
  C      1.811917    0.673650    0.983939
  C      1.762199   -1.311912   -0.554254
  H     -2.306213    1.959687   -0.475832
  H     -2.750889    0.388753   -1.144570
  H     -3.223742    0.814347    0.500853
  H     -0.852569    0.845995    1.194665
  H     -0.536730   -1.567930    1.222085
  H     -2.264936   -1.259323    1.246974
  H     -1.486875   -1.761568   -0.254396
  H     -0.059547    1.566930   -1.044347
  H     -0.304921   -0.059726   -1.664396
  H      2.042998    0.708141   -1.134595
  H      1.303045    0.107266    1.759590
  H      2.883737    0.562907    1.133422
  H      1.557830    1.725205    1.095611
  H      2.835786   -1.456488   -0.450198
  H      1.268096   -1.914929    0.200340
  H      1.463959   -1.674999   -1.535045

 Total Charge           Charge          ....    0
 Multiplicity           Mult            ....    1
 Number of Electrons    NEL             ....   58
 Basis Dimension        Dim             ....  213

ORBITAL ENERGIES
----------------

  NO   OCC          E(Eh)            E(eV)
   0   2.0000     -10.030301      -272.9384
   1   2.0000     -10.029524      -272.9172
   2   2.0000     -10.017557      -272.5916
   3   2.0000     -10.013019      -272.4681
   4   2.0000     -10.012053      -272.4418
   5   2.0000     -10.011882      -272.4372
   6   2.0000     -10.010391      -272.3966
   7   2.0000      -0.784646       -21.3513
   8   2.0000      -0.741482       -20.1767
   9   2.0000      -0.650801       -17.7092
  10   2.0000      -0.646582       -17.5944
  11   2.0000      -0.639429       -17.3998
  12   2.0000      -0.546100       -14.8601
  13   2.0000      -0.503268       -13.6946
  14   2.0000      -0.434623       -11.8267
  15   2.0000      -0.430049       -11.7022
  16   2.0000      -0.407721       -11.0946
  17   2.0000      -0.386708       -10.5229
  18   2.0000      -0.382264       -10.4019
  19   2.0000      -0.362005        -9.8507
  20   2.0000      -0.353760        -9.6263
  21   2.0000      -0.346087        -9.4175
  22   2.0000      -0.329255        -8.9595
  23   2.0000      -0.323619        -8.8061
  24   2.0000      -0.305328        -8.3084
  25   2.0000      -0.300956        -8.1894
  26   2.0000      -0.283275        -7.7083
  27   2.0000      -0.277170        -7.5422
  28   2.0000      -0.266454        -7.2506
  29   0.0000       0.074929         2.0389
  30   0.0000       0.106685         2.9030
  31   0.0000       0.117317         3.1924
  32   0.0000       0.123418         3.3584
  33   0.0000       0.131522         3.5789

MULLIKEN ATOMIC CHARGES
-----------------------
   0 C :   -0.482176
   1 C :   -0.028011
   2 C :   -0.506890
   3 C :   -0.319731
   4 C :   -0.024356
   5 C :   -0.501489
   6 C :   -0.490399
   7 H :    0.143214
   8 H :    0.146310
   9 H :    0.146165
  10 H :    0.152985
  11 H :    0.143162
  12 H :    0.140512
  13 H :    0.158966
  14 H :    0.143120
  15 H :    0.147873
  16 H :    0.145156
  17 H :    0.152247
  18 H :    0.146784
  19 H :    0.151679
  20 H :    0.143615
  21 H :    0.144529
  22 H :    0.146735
Sum of atomic charges:   -0.0000000

LOEWDIN ATOMIC CHARGES
----------------------
   0 C :   -0.418029
   1 C :   -0.244950
   2 C :   -0.417307
   3 C :   -0.300494
   4 C :   -0.244694
   5 C :   -0.417891
   6 C :   -0.418057
   7 H :    0.151841
   8 H :    0.154059
   9 H :    0.151113
  10 H :    0.156629
  11 H :    0.149208
  12 H :    0.152559
  13 H :    0.154731
  14 H :    0.160149
  15 H :    0.159806
  16 H :    0.155466
  17 H :    0.152152
  18 H :    0.153075
  19 H :    0.154221
  20 H :    0.151771
  21 H :    0.151809
  22 H :    0.152831

  Mayer bond orders larger than 0.100000
B(  0-C ,  1-C ) :   0.9086 B(  0-C ,  7-H ) :   0.9772 B(  0-C ,  8-H ) :   0.9856
B(  0-C ,  9-H ) :   0.9770 B(  1-C ,  2-C ) :   0.8840 B(  1-C ,  3-C ) :   0.8933
B(  1-C , 10-H ) :   0.9553 B(  2-C , 11-H ) :   0.9716 B(  2-C , 12-H ) :   0.9712
B(  2-C , 13-H ) :   0.9879 B(  3-C ,  4-C ) :   0.8972 B(  3-C , 14-H ) :   0.9706
B(  3-C , 15-H ) :   0.9967 B(  4-C ,  5-C ) :   0.8801 B(  4-C ,  6-C ) :   0.9380
B(  4-C , 16-H ) :   0.9767 B(  5-C , 17-H ) :   0.9774 B(  5-C , 18-H ) :   0.9705
B(  5-C , 19-H ) :   0.9784 B(  6-C , 20-H ) :   0.9739 B(  6-C , 21-H ) :   0.9739
B(  6-C , 22-H ) :   0.9789

Dispersion correction           -0.006534743
FINAL SINGLE POINT ENERGY      -276.284652102938

DIPOLE MOMENT
-------------

Method             : SCF
Type of density    : Electron Density
Multiplicity       :   1
Irrep              :   0
Energy             :  -276.2893042538419195 Eh
Relativity type    :
Basis              : AO
                                X                 Y                 Z
Electronic contribution:      0.437256146       1.006685103      -0.615806486
Nuclear contribution   :     -0.404320000      -0.952919486       0.609955727
                        -----------------------------------------
Total Dipole Moment    :      0.032936146       0.053765617      -0.005850759
                        -----------------------------------------
Magnitude (a.u.)       :      0.063322687
Magnitude (Debye)      :      0.160953480

Rotational constants in cm-1:             0.128518             0.051801             0.047501
Rotational constants in MHz :          3852.865112          1552.956413          1424.032544

                             ****ORCA TERMINATED NORMALLY****
TOTAL RUN TIME: 0 days 0 hours 0 minutes 24 seconds 319 msec
