                         Program Version 6.0.0  -   RELEASE  -
|  1> ! r2scan-3c def2/J RI DEFGRID2 scfconv6 printgap
|  2> %output
|  3>     printlevel normal
|  4> end
|  5> %cpcm
|  6>     smd true
|  7>     smdsolvent "water"
|  8> end
|  9> * xyz 0 1
| 10> C -2.433657609 0.9053122091 -0.2410050057
| 11> C -1.1293990516 0.3021852652 0.2863921614
| 12> C -1.3629966041 -1.1633527164 0.6454895821
| 13> C -0.0350199926 0.5083139996 -0.77039078
| 14> C 1.4231223692 0.1710375357 -0.4047286921
| 15> C 1.811916774 0.6736504092 0.9839388506
| 16> C 1.7621989023 -1.3119119097 -0.5542541882
| 17> H -2.306212966 1.9596874603 -0.47583212
| 18> H -2.7508889388 0.3887526126 -1.144570448
| 19> H -3.2237416413 0.8143474147 0.5008525515
| 20> H -0.8525694182 0.8459954738 1.19466521
| 21> H -0.5367301449 -1.5679303355 1.2220847506
| 22> H -2.2649364023 -1.2593229437 1.2469738796
| 23> H -1.4868754468 -1.7615680373 -0.2543962365
| 24> H -0.0595469541 1.5669300144 -1.044346514
| 25> H -0.3049206624 -0.0597260335 -1.6643962709
| 26> H 2.0429984046 0.7081409856 -1.1345945382
| 27> H 1.3030452247 0.1072663316 1.7595899865
| 28> H 2.8837373549 0.5629073605 1.1334222536
| 29> H 1.5578303869 1.7252047216 1.0956106977
| 30> H 2.8357858014 -1.4564878094 -0.4501976065
| 31> H 1.2680957295 -1.9149287265 0.2003404174
| 32> H 1.4639590691 -1.6749993098 -1.5350452801
| 33> *
| 34>
| 35>                          ****END OF INPUT****

CARTESIAN COORDINATES (ANGSTROEM)
---------------------------------
  C     -2.433658    0.905312   -0.241005
  C     -1.129399    0.302185    0.286392
  C     -1.362997   -1.163353    0.645490
  C     -0.035020    0.508314   -0.770391
  C      1.423122    0.171038   -0.404729
  C      1.811917    0.673650    0.983939
  C      1.762199   -1.311912   -0.554254
  H     -2.306213    1.959687   -0.475832
  H     -2.750889    0.388753   -1.144570
  H     -3.223742    0.814347    0.500853
  H     -0.852569    0.845995    1.194665
  H     -0.536730   -1.567930    1.222085
  H     -2.264936   -1.259323    1.246974
  H     -1.486875   -1.761568   -0.254396
  H     -0.059547    1.566930   -1.044347
  H     -0.304921   -0.059726   -1.664396
  H      2.042998    0.708141   -1.134595
  H      1.303045    0.107266    1.759590
  H      2.883737    0.562907    1.133422
  H      1.557830    1.725205    1.095611
  H      2.835786   -1.456488   -0.450198
  H      1.268096   -1.914929    0.200340
  H      1.463959   -1.674999   -1.535045

 Total Charge           Charge          ....    0
 Multiplicity           Mult            ....    1
 Number of Electrons    NEL             ....   58
 Basis Dimension        Dim             ....  213

ORBITAL ENERGIES
----------------

  NO   OCC          E(Eh)            E(eV)
   0   2.0000     -10.022718      -272.7320
   1   2.0000     -10.021877      -272.7091
   2   2.0000     -10.009276      -272.3663
   3   2.0000     -10.004821      -272.2450
   4   2.0000     -10.004551      -272.2377
   5   2.0000     -10.003780      -272.2167
   6   2.0000     -10.002936      -272.1937
   7   2.0000      -0.776867       -21.1396
   8   2.0000      -0.733977       -19.9725
   9   2.0000      -0.643477       -17.5099
  10   2.0000      -0.639253       -17.3950
  11   2.0000      -0.632322       -17.2064
  12   2.0000      -0.538817       -14.6620
  13   2.0000      -0.495752       -13.4901
  14   2.0000      -0.426760       -11.6127
  15   2.0000      -0.422354       -11.4928
  16   2.0000      -0.400165       -10.8890
  17   2.0000      -0.379082       -10.3154
  18   2.0000      -0.374660       -10.1950
  19   2.0000      -0.354548        -9.6478
  20   2.0000      -0.346361        -9.4250
  21   2.0000      -0.338760        -9.2181
  22   2.0000      -0.321469        -8.7476
  23   2.0000      -0.315750        -8.5920
  24   2.0000      -0.297820        -8.1041
  25   2.0000      -0.293497        -7.9865
  26   2.0000      -0.275322        -7.4919
  27   2.0000      -0.269579        -7.3356
  28   2.0000      -0.258614        -7.0372
  29   0.0000       0.083639         2.2759
  30   0.0000       0.114262         3.1092
  31   0.0000       0.125582         3.4173
  32   0.0000       0.129333         3.5193
  33   0.0000       0.137519         3.7421

MULLIKEN ATOMIC CHARGES
-----------------------
   0 C :   -0.529283
   1 C :   -0.001069
   2 C :   -0.556000
   3 C :   -0.341855
   4 C :   -0.006316
   5 C :   -0.542907
   6 C :   -0.538702
   7 H :    0.154733
   8 H :    0.156867
   9 H :    0.157465
  10 H :    0.157493
  11 H :    0.160468
  12 H :    0.150587
  13 H :    0.167978
  14 H :    0.151409
  15 H :    0.157092
  16 H :    0.151026
  17 H :    0.164340
  18 H :    0.156935
  19 H :    0.160886
  20 H :    0.153779
  21 H :    0.157412
  22 H :    0.157660
Sum of atomic charges:    0.0000000

LOEWDIN ATOMIC CHARGES
----------------------
   0 C :   -0.427488
   1 C :   -0.242556
   2 C :   -0.426187
   3 C :   -0.303624
   4 C :   -0.242803
   5 C :   -0.426044
   6 C :   -0.427498
   7 H :    0.154060
   8 H :    0.155922
   9 H :    0.153541
  10 H :    0.158125
  11 H :    0.153651
  12 H :    0.154284
  13 H :    0.156315
  14 H :    0.161881
  15 H :    0.161866
  16 H :    0.157036
  17 H :    0.155233
  18 H :    0.154787
  19 H :    0.156379
  20 H :    0.153669
  21 H :    0.154536
  22 H :    0.154915

  Mayer bond orders larger than 0.100000
B(  0-C ,  1-C ) :   0.8954 B(  0-C ,  7-H ) :   0.9754 B(  0-C ,  8-H ) :   0.9847
B(  0-C ,  9-H ) :   0.9746 B(  1-C ,  2-C ) :   0.8720 B(  1-C ,  3-C ) :   0.8907
B(  1-C , 10-H ) :   0.9565 B(  2-C , 11-H ) :   0.9693 B(  2-C , 12-H ) :   0.9700
B(  2-C , 13-H ) :   0.9856 B(  3-C ,  4-C ) :   0.8971 B(  3-C , 14-H ) :   0.9700
B(  3-C , 15-H ) :   0.9958 B(  4-C ,  5-C ) :   0.8742 B(  4-C ,  6-C ) :   0.9246
B(  4-C , 16-H ) :   0.9785 B(  5-C , 17-H ) :   0.9754 B(  5-C , 18-H ) :   0.9694
B(  5-C , 19-H ) :   0.9753 B(  6-C , 20-H ) :   0.9723 B(  6-C , 21-H ) :   0.9737
B(  6-C , 22-H ) :   0.9764

Dispersion correction           -0.006534743
FINAL SINGLE POINT ENERGY      -276.281023725784

DIPOLE MOMENT
-------------

Method             : SCF
Type of density    : Electron Density
Multiplicity       :   1
Irrep              :   0
Energy             :  -276.2856758766874918 Eh
Relativity type    :
Basis              : AO
                                X                 Y                 Z
Electronic contribution:      0.448916450       1.018742876      -0.605500700
Nuclear contribution   :     -0.404320000      -0.952919486       0.609955727
                        -----------------------------------------
Total Dipole Moment    :      0.044596450       0.065823390       0.004455027
                        -----------------------------------------
Magnitude (a.u.)       :      0.079632966
Magnitude (Debye)      :      0.202410914

Rotational constants in cm-1:             0.128518             0.051801             0.047501
Rotational constants in MHz :          3852.865112          1552.956413          1424.032544

                             ****ORCA TERMINATED NORMALLY****
TOTAL RUN TIME: 0 days 0 hours 0 minutes 29 seconds 262 msec
