                         Program Version 6.0.0  -   RELEASE  -
|  1> ! pbe def2-sv(p) def2/J RI DEFGRID1 loosescf d4 GCP(DFT/SV(P)) printgap
|  2> %output
|  3>     printlevel normal
|  4> end
|  5> * xyz 0 1
|  6> C -1.178906924 0.1403438799 -0.4965225317
|  7> C -0.0507009974 0.4961392589 0.4887147606
|  8> C 0.9558736001 -0.6600939404 0.5913940143
|  9> O 1.6560418388 -0.8536564082 -0.6117230973
| 10> O 0.6748425029 1.6328458698 0.0689445889
| 11> O -2.0450402118 -0.8426475521 0.0145527536
| 12> H -0.7389765458 -0.2848844662 -1.4018914504
| 13> H -1.7364790316 1.0467250563 -0.7687050803
| 14> H -0.4800937735 0.6658854465 1.4884500695
| 15> H 0.4195655803 -1.5885845227 0.7947631786
| 16> H 1.6563078209 -0.4544645483 1.4115510196
| 17> H 2.0430412776 -0.0009156075 -0.863039902
| 18> H 0.084721408 2.3943874465 -0.0087599827
| 19> H -2.5235439856 -0.489506801 0.7782693142
| 20> *
| 21>
| 22>                          ****END OF INPUT****

CARTESIAN COORDINATES (ANGSTROEM)
---------------------------------
  C     -1.178907    0.140344   -0.496523
  C     -0.050701    0.496139    0.488715
  C      0.955874   -0.660094    0.591394
  O      1.656042   -0.853656   -0.611723
  O      0.674843    1.632846    0.068945
  O     -2.045040   -0.842648    0.014553
  H     -0.738977   -0.284884   -1.401891
  H     -1.736479    1.046725   -0.768705
  H     -0.480094    0.665885    1.488450
  H      0.419566   -1.588585    0.794763
  H      1.656308   -0.454465    1.411551
  H      2.043041   -0.000916   -0.863040
  H      0.084721    2.394387   -0.008760
  H     -2.523544   -0.489507    0.778269

 Total Charge           Charge          ....    0
 Multiplicity           Mult            ....    1
 Number of Electrons    NEL             ....   50
 Basis Dimension        Dim             ....  100

ORBITAL ENERGIES
----------------

  NO   OCC          E(Eh)            E(eV)
   0   2.0000     -18.763390      -510.5778
   1   2.0000     -18.752840      -510.2907
   2   2.0000     -18.737981      -509.8864
   3   2.0000      -9.941952      -270.5343
   4   2.0000      -9.931002      -270.2363
   5   2.0000      -9.924887      -270.0699
   6   2.0000      -0.944849       -25.7107
   7   2.0000      -0.925747       -25.1909
   8   2.0000      -0.909663       -24.7532
   9   2.0000      -0.678349       -18.4588
  10   2.0000      -0.605788       -16.4843
  11   2.0000      -0.547014       -14.8850
  12   2.0000      -0.485441       -13.2095
  13   2.0000      -0.463626       -12.6159
  14   2.0000      -0.436567       -11.8796
  15   2.0000      -0.424462       -11.5502
  16   2.0000      -0.369101       -10.0437
  17   2.0000      -0.360660        -9.8141
  18   2.0000      -0.355736        -9.6801
  19   2.0000      -0.317243        -8.6326
  20   2.0000      -0.284436        -7.7399
  21   2.0000      -0.270622        -7.3640
  22   2.0000      -0.243422        -6.6239
  23   2.0000      -0.219361        -5.9691
  24   2.0000      -0.207371        -5.6429
  25   0.0000       0.009386         0.2554
  26   0.0000       0.022647         0.6163
  27   0.0000       0.068891         1.8746
  28   0.0000       0.073003         1.9865
  29   0.0000       0.092908         2.5282

MULLIKEN ATOMIC CHARGES
-----------------------
   0 C :    0.031844
   1 C :   -0.053051
   2 C :    0.057352
   3 O :   -0.441394
   4 O :   -0.434022
   5 O :   -0.429182
   6 H :    0.094044
   7 H :    0.059273
   8 H :    0.045536
   9 H :    0.092744
  10 H :    0.077429
  11 H :    0.300594
  12 H :    0.304234
  13 H :    0.294599
Sum of atomic charges:   -0.0000000

LOEWDIN ATOMIC CHARGES
----------------------
   0 C :   -0.141717
   1 C :   -0.106126
   2 C :   -0.124310
   3 O :   -0.334513
   4 O :   -0.328059
   5 O :   -0.329398
   6 H :    0.119828
   7 H :    0.086843
   8 H :    0.090729
   9 H :    0.118772
  10 H :    0.098491
  11 H :    0.280703
  12 H :    0.287311
  13 H :    0.281448

  Mayer bond orders larger than 0.100000
B(  0-C ,  1-C ) :   1.0106 B(  0-C ,  5-O ) :   1.0583 B(  0-C ,  6-H ) :   0.9061
B(  0-C ,  7-H ) :   0.9260 B(  1-C ,  2-C ) :   1.0411 B(  1-C ,  4-O ) :   1.0386
B(  1-C ,  8-H ) :   0.9006 B(  2-C ,  3-O ) :   1.0639 B(  2-C ,  9-H ) :   0.9213
B(  2-C , 10-H ) :   0.9155 B(  3-O , 11-H ) :   0.8389 B(  4-O , 12-H ) :   0.8459
B(  5-O , 13-H ) :   0.8518

Dispersion correction           -0.009265222
FINAL SINGLE POINT ENERGY      -344.008961587047

DIPOLE MOMENT
-------------

Method             : SCF
Type of density    : Electron Density
Multiplicity       :   1
Irrep              :   0
Energy             :  -344.0826068260393527 Eh
Relativity type    :
Basis              : AO
                                X                 Y                 Z
Electronic contribution:      0.611954013      -0.032145107      -0.745538173
Nuclear contribution   :     -1.192354868       1.208027182       1.334340843
                        -----------------------------------------
Total Dipole Moment    :     -0.580400854       1.175882075       0.588802670
                        -----------------------------------------
Magnitude (a.u.)       :      1.437446482
Magnitude (Debye)      :      3.653698594

Rotational constants in cm-1:             0.156147             0.089211             0.067903
Rotational constants in MHz :          4681.162867          2674.478049          2035.683158

                             ****ORCA TERMINATED NORMALLY****
TOTAL RUN TIME: 0 days 0 hours 0 minutes 6 seconds 590 msec
