                         Program Version 6.0.0  -   RELEASE  -
|  1> ! pbe def2-sv(p) def2/J RI DEFGRID1 loosescf d4 GCP(DFT/SV(P)) printgap
|  2> %output
|  3>     printlevel normal
|  4> end
|  5> * xyz 0 1
|  6> C -1.1727063896 0.1672535021 -0.494368721
|  7> C -0.0332138017 0.5102311672 0.4867414076
|  8> C 0.931277629 -0.6760314572 0.6108390951
|  9> O 1.6144804993 -0.8013808742 -0.6207044534
| 10> O 0.6438011385 1.6770350375 0.0848288602
| 11> O -2.0488683008 -0.809438241 0.0145404131
| 12> H -0.7440744164 -0.2550777414 -1.4065071239
| 13> H -1.706762009 1.0908018734 -0.7490948839
| 14> H -0.4568399939 0.7332057911 1.4725192689
| 15> H 0.3477008069 -1.5759587513 0.8345140236
| 16> H 1.6415769952 -0.4846039578 1.4247802049
| 17> H 2.1905163531 -1.5756445608 -0.5900875461
| 18> H 1.2233003318 1.4383167639 -0.6555195699
| 19> H -2.546839236 -0.4394251336 0.7567960946
| 20> *
| 21>
| 22>                          ****END OF INPUT****

CARTESIAN COORDINATES (ANGSTROEM)
---------------------------------
  C     -1.172706    0.167254   -0.494369
  C     -0.033214    0.510231    0.486741
  C      0.931278   -0.676031    0.610839
  O      1.614480   -0.801381   -0.620704
  O      0.643801    1.677035    0.084829
  O     -2.048868   -0.809438    0.014540
  H     -0.744074   -0.255078   -1.406507
  H     -1.706762    1.090802   -0.749095
  H     -0.456840    0.733206    1.472519
  H      0.347701   -1.575959    0.834514
  H      1.641577   -0.484604    1.424780
  H      2.190516   -1.575645   -0.590088
  H      1.223300    1.438317   -0.655520
  H     -2.546839   -0.439425    0.756796

 Total Charge           Charge          ....    0
 Multiplicity           Mult            ....    1
 Number of Electrons    NEL             ....   50
 Basis Dimension        Dim             ....  100

ORBITAL ENERGIES
----------------

  NO   OCC          E(Eh)            E(eV)
   0   2.0000     -18.759504      -510.4721
   1   2.0000     -18.746165      -510.1091
   2   2.0000     -18.739541      -509.9288
   3   2.0000      -9.934633      -270.3351
   4   2.0000      -9.931487      -270.2495
   5   2.0000      -9.920421      -269.9484
   6   2.0000      -0.940365       -25.5886
   7   2.0000      -0.921051       -25.0631
   8   2.0000      -0.909675       -24.7535
   9   2.0000      -0.674418       -18.3519
  10   2.0000      -0.603357       -16.4182
  11   2.0000      -0.545210       -14.8359
  12   2.0000      -0.478057       -13.0086
  13   2.0000      -0.450282       -12.2528
  14   2.0000      -0.444869       -12.1055
  15   2.0000      -0.406965       -11.0741
  16   2.0000      -0.399002       -10.8574
  17   2.0000      -0.355645        -9.6776
  18   2.0000      -0.339122        -9.2280
  19   2.0000      -0.305055        -8.3010
  20   2.0000      -0.294033        -8.0010
  21   2.0000      -0.265049        -7.2124
  22   2.0000      -0.237047        -6.4504
  23   2.0000      -0.226795        -6.1714
  24   2.0000      -0.197927        -5.3859
  25   0.0000       0.015573         0.4238
  26   0.0000       0.026979         0.7341
  27   0.0000       0.074548         2.0286
  28   0.0000       0.076093         2.0706
  29   0.0000       0.098641         2.6842

MULLIKEN ATOMIC CHARGES
-----------------------
   0 C :    0.018531
   1 C :    0.002208
   2 C :    0.006966
   3 O :   -0.451786
   4 O :   -0.436066
   5 O :   -0.435781
   6 H :    0.084999
   7 H :    0.082058
   8 H :    0.059194
   9 H :    0.079955
  10 H :    0.080171
  11 H :    0.310007
  12 H :    0.303923
  13 H :    0.295621
Sum of atomic charges:   -0.0000000

LOEWDIN ATOMIC CHARGES
----------------------
   0 C :   -0.143934
   1 C :   -0.090537
   2 C :   -0.139037
   3 O :   -0.346960
   4 O :   -0.322881
   5 O :   -0.336079
   6 H :    0.113530
   7 H :    0.098055
   8 H :    0.107202
   9 H :    0.103655
  10 H :    0.099089
  11 H :    0.293020
  12 H :    0.282383
  13 H :    0.282494

  Mayer bond orders larger than 0.100000
B(  0-C ,  1-C ) :   1.0191 B(  0-C ,  5-O ) :   1.0507 B(  0-C ,  6-H ) :   0.9141
B(  0-C ,  7-H ) :   0.9263 B(  1-C ,  2-C ) :   1.0605 B(  1-C ,  4-O ) :   1.0456
B(  1-C ,  8-H ) :   0.9044 B(  2-C ,  3-O ) :   1.0488 B(  2-C ,  9-H ) :   0.9086
B(  2-C , 10-H ) :   0.9156 B(  3-O , 11-H ) :   0.8475 B(  4-O , 12-H ) :   0.8383
B(  5-O , 13-H ) :   0.8534

Dispersion correction           -0.009253151
FINAL SINGLE POINT ENERGY      -344.009080869506

DIPOLE MOMENT
-------------

Method             : SCF
Type of density    : Electron Density
Multiplicity       :   1
Irrep              :   0
Energy             :  -344.0828336780339782 Eh
Relativity type    :
Basis              : AO
                                X                 Y                 Z
Electronic contribution:      0.345034340       0.526257045      -0.648777444
Nuclear contribution   :     -0.045131904      -1.001347640       1.012427646
                        -----------------------------------------
Total Dipole Moment    :      0.299902436      -0.475090595       0.363650202
                        -----------------------------------------
Magnitude (a.u.)       :      0.669248843
Magnitude (Debye)      :      1.701095370

Rotational constants in cm-1:             0.155526             0.089771             0.068406
Rotational constants in MHz :          4662.539467          2691.281816          2050.765202

                             ****ORCA TERMINATED NORMALLY****
TOTAL RUN TIME: 0 days 0 hours 0 minutes 6 seconds 662 msec
