                         Program Version 6.0.0  -   RELEASE  -
|  1> ! r2scan-3c def2/J RI DEFGRID2 scfconv6 printgap
|  2> %output
|  3>     printlevel normal
|  4> end
|  5> * xyz 0 1
|  6> C -2.0442973848 1.1928677127 0.7474547581
|  7> C -1.9466755888 -0.0200847289 -0.1670583752
|  8> C -0.5443726712 -0.5309834238 -0.3805363953
|  9> O -0.2722696647 -1.4256716283 -1.1603066251
| 10> O 0.3531925379 0.085054388 0.368202294
| 11> C 1.7350598739 -0.2957759884 0.2638499
| 12> C 2.5958190297 0.9544649991 0.3063540461
| 13> H -3.0836709119 1.4927868629 0.8446174569
| 14> H -1.6520982745 0.9610629181 1.733407636
| 15> H -1.47662504 2.024978451 0.34091395
| 16> H -2.3588264332 0.1976049023 -1.1545673639
| 17> H -2.5236380687 -0.8552334362 0.2375771928
| 18> H 1.9541014734 -0.9528484209 1.1105875747
| 19> H 1.8729565634 -0.8550667497 -0.6670039851
| 20> H 3.6420058794 0.6694658327 0.2678196066
| 21> H 2.3710119027 1.5971741548 -0.5402427872
| 22> H 2.406814472 1.5032913308 1.2240096087
| 23> *
| 24>
| 25>                          ****END OF INPUT****

CARTESIAN COORDINATES (ANGSTROEM)
---------------------------------
  C     -2.044297    1.192868    0.747455
  C     -1.946676   -0.020085   -0.167058
  C     -0.544373   -0.530983   -0.380536
  O     -0.272270   -1.425672   -1.160307
  O      0.353193    0.085054    0.368202
  C      1.735060   -0.295776    0.263850
  C      2.595819    0.954465    0.306354
  H     -3.083671    1.492787    0.844617
  H     -1.652098    0.961063    1.733408
  H     -1.476625    2.024978    0.340914
  H     -2.358826    0.197605   -1.154567
  H     -2.523638   -0.855233    0.237577
  H      1.954101   -0.952848    1.110588
  H      1.872957   -0.855067   -0.667004
  H      3.642006    0.669466    0.267820
  H      2.371012    1.597174   -0.540243
  H      2.406814    1.503291    1.224010

 Total Charge           Charge          ....    0
 Multiplicity           Mult            ....    1
 Number of Electrons    NEL             ....   56
 Basis Dimension        Dim             ....  193

ORBITAL ENERGIES
----------------

  NO   OCC          E(Eh)            E(eV)
   0   2.0000     -18.998657      -516.9797
   1   2.0000     -18.922948      -514.9196
   2   2.0000     -10.151575      -276.2384
   3   2.0000     -10.091365      -274.6000
   4   2.0000     -10.044775      -273.3322
   5   2.0000     -10.032882      -273.0086
   6   2.0000     -10.024797      -272.7886
   7   2.0000      -1.072743       -29.1908
   8   2.0000      -0.971700       -26.4413
   9   2.0000      -0.767280       -20.8787
  10   2.0000      -0.731719       -19.9111
  11   2.0000      -0.636432       -17.3182
  12   2.0000      -0.602237       -16.3877
  13   2.0000      -0.532963       -14.5027
  14   2.0000      -0.470841       -12.8122
  15   2.0000      -0.456733       -12.4283
  16   2.0000      -0.431797       -11.7498
  17   2.0000      -0.427391       -11.6299
  18   2.0000      -0.389493       -10.5987
  19   2.0000      -0.379037       -10.3141
  20   2.0000      -0.367262        -9.9937
  21   2.0000      -0.354969        -9.6592
  22   2.0000      -0.344998        -9.3879
  23   2.0000      -0.333823        -9.0838
  24   2.0000      -0.317048        -8.6273
  25   2.0000      -0.308301        -8.3893
  26   2.0000      -0.268586        -7.3086
  27   2.0000      -0.231421        -6.2973
  28   0.0000      -0.011704        -0.3185
  29   0.0000       0.071733         1.9520
  30   0.0000       0.094530         2.5723
  31   0.0000       0.116937         3.1820
  32   0.0000       0.120109         3.2683

MULLIKEN ATOMIC CHARGES
-----------------------
   0 C :   -0.466497
   1 C :   -0.294680
   2 C :    0.370792
   3 O :   -0.430649
   4 O :   -0.141855
   5 C :   -0.162159
   6 C :   -0.443935
   7 H :    0.145928
   8 H :    0.155380
   9 H :    0.152532
  10 H :    0.166538
  11 H :    0.167769
  12 H :    0.143180
  13 H :    0.185400
  14 H :    0.147276
  15 H :    0.152157
  16 H :    0.152824
Sum of atomic charges:    0.0000000

LOEWDIN ATOMIC CHARGES
----------------------
   0 C :   -0.401930
   1 C :   -0.236303
   2 C :    0.362625
   3 O :   -0.446114
   4 O :   -0.603145
   5 C :    0.034347
   6 C :   -0.386858
   7 H :    0.150049
   8 H :    0.160478
   9 H :    0.158253
  10 H :    0.180943
  11 H :    0.181668
  12 H :    0.175156
  13 H :    0.194771
  14 H :    0.159565
  15 H :    0.158327
  16 H :    0.158169

  Mayer bond orders larger than 0.100000
B(  0-C ,  1-C ) :   0.9076 B(  0-C ,  7-H ) :   0.9669 B(  0-C ,  8-H ) :   0.9768
B(  0-C ,  9-H ) :   0.9787 B(  1-C ,  2-C ) :   1.0122 B(  1-C , 10-H ) :   0.9476
B(  1-C , 11-H ) :   0.9405 B(  2-C ,  3-O ) :   1.8451 B(  2-C ,  4-O ) :   1.1069
B(  4-O ,  5-C ) :   0.7772 B(  5-C ,  6-C ) :   0.9512 B(  5-C , 12-H ) :   0.9465
B(  5-C , 13-H ) :   0.9672 B(  6-C , 14-H ) :   0.9670 B(  6-C , 15-H ) :   0.9738
B(  6-C , 16-H ) :   0.9699

Dispersion correction           -0.003959254
FINAL SINGLE POINT ENERGY      -346.934424559386

DIPOLE MOMENT
-------------

Method             : SCF
Type of density    : Electron Density
Multiplicity       :   1
Irrep              :   0
Energy             :  -346.9409864294991053 Eh
Relativity type    :
Basis              : AO
                                X                 Y                 Z
Electronic contribution:     -0.882296798      -4.742191041      -2.586222623
Nuclear contribution   :      1.081998002       5.405747224       3.175321659
                        -----------------------------------------
Total Dipole Moment    :      0.199701204       0.663556183       0.589099035
                        -----------------------------------------
Magnitude (a.u.)       :      0.909519133
Magnitude (Debye)      :      2.311813912

Rotational constants in cm-1:             0.137227             0.058044             0.043187
Rotational constants in MHz :          4113.951007          1740.100448          1294.708311

                             ****ORCA TERMINATED NORMALLY****
TOTAL RUN TIME: 0 days 0 hours 0 minutes 22 seconds 718 msec
