                         Program Version 6.0.0  -   RELEASE  -
|  1> ! pbe def2-sv(p) def2/J RI DEFGRID1 loosescf d4 GCP(DFT/SV(P)) printgap
|  2> %output
|  3>     printlevel normal
|  4> end
|  5> * xyz 0 1
|  6> C 2.1548840631 1.3092930411 -0.0326997736
|  7> C 1.2412369075 0.2674276074 0.6048033599
|  8> C 0.3442435116 -0.4468042022 -0.4255449609
|  9> H 0.6509847298 -0.1142046064 -1.4243920272
| 10> C 0.5621007671 -1.9601728106 -0.3725081724
| 11> C -1.1540590737 -0.0966429254 -0.3020815135
| 12> C -1.778225776 -0.5203092513 1.0265749932
| 13> C -1.3943413385 1.3933410781 -0.5449355134
| 14> H 1.5722632081 2.0792087461 -0.5326127528
| 15> H 2.7738711121 1.7857541976 0.7246645328
| 16> H 2.8102732204 0.8445543307 -0.7662227921
| 17> H 0.632983778 0.7548324078 1.3663212009
| 18> H 1.8604089685 -0.470972411 1.1172593665
| 19> H -0.0906698546 -2.4674002218 -1.0799916937
| 20> H 1.5922621591 -2.1973728957 -0.6287919897
| 21> H 0.3624160819 -2.348993457 0.6226717353
| 22> H -1.6694364223 -0.6480713355 -1.098526045
| 23> H -1.706816361 -1.5949580403 1.1665135469
| 24> H -2.8311635874 -0.2475421237 1.040102952
| 25> H -1.2930261243 -0.0297204507 1.8663804417
| 26> H -0.9735622441 1.698021049 -1.5006736395
| 27> H -0.9415143894 1.9943280781 0.2392916062
| 28> H -2.4613518243 1.6044675767 -0.5591526187
| 29> *
| 30>
| 31>                          ****END OF INPUT****

CARTESIAN COORDINATES (ANGSTROEM)
---------------------------------
  C      2.154884    1.309293   -0.032700
  C      1.241237    0.267428    0.604803
  C      0.344244   -0.446804   -0.425545
  H      0.650985   -0.114205   -1.424392
  C      0.562101   -1.960173   -0.372508
  C     -1.154059   -0.096643   -0.302082
  C     -1.778226   -0.520309    1.026575
  C     -1.394341    1.393341   -0.544936
  H      1.572263    2.079209   -0.532613
  H      2.773871    1.785754    0.724665
  H      2.810273    0.844554   -0.766223
  H      0.632984    0.754832    1.366321
  H      1.860409   -0.470972    1.117259
  H     -0.090670   -2.467400   -1.079992
  H      1.592262   -2.197373   -0.628792
  H      0.362416   -2.348993    0.622672
  H     -1.669436   -0.648071   -1.098526
  H     -1.706816   -1.594958    1.166514
  H     -2.831164   -0.247542    1.040103
  H     -1.293026   -0.029720    1.866380
  H     -0.973562    1.698021   -1.500674
  H     -0.941514    1.994328    0.239292
  H     -2.461352    1.604468   -0.559153

 Total Charge           Charge          ....    0
 Multiplicity           Mult            ....    1
 Number of Electrons    NEL             ....   58
 Basis Dimension        Dim             ....  130

ORBITAL ENERGIES
----------------

  NO   OCC          E(Eh)            E(eV)
   0   2.0000      -9.888989      -269.0931
   1   2.0000      -9.886339      -269.0210
   2   2.0000      -9.876731      -268.7595
   3   2.0000      -9.869513      -268.5631
   4   2.0000      -9.868155      -268.5262
   5   2.0000      -9.867952      -268.5206
   6   2.0000      -9.867903      -268.5193
   7   2.0000      -0.740763       -20.1572
   8   2.0000      -0.681369       -18.5410
   9   2.0000      -0.643997       -17.5240
  10   2.0000      -0.606704       -16.5092
  11   2.0000      -0.559623       -15.2281
  12   2.0000      -0.533760       -14.5243
  13   2.0000      -0.473332       -12.8800
  14   2.0000      -0.424654       -11.5554
  15   2.0000      -0.397013       -10.8033
  16   2.0000      -0.394713       -10.7407
  17   2.0000      -0.371443       -10.1075
  18   2.0000      -0.364957        -9.9310
  19   2.0000      -0.351688        -9.5699
  20   2.0000      -0.338344        -9.2068
  21   2.0000      -0.331906        -9.0316
  22   2.0000      -0.320433        -8.7194
  23   2.0000      -0.305501        -8.3131
  24   2.0000      -0.299553        -8.1513
  25   2.0000      -0.289599        -7.8804
  26   2.0000      -0.268254        -7.2996
  27   2.0000      -0.263831        -7.1792
  28   2.0000      -0.259628        -7.0648
  29   0.0000       0.032765         0.8916
  30   0.0000       0.056977         1.5504
  31   0.0000       0.064155         1.7457
  32   0.0000       0.066157         1.8002
  33   0.0000       0.090910         2.4738

MULLIKEN ATOMIC CHARGES
-----------------------
   0 C :   -0.292358
   1 C :   -0.160462
   2 C :   -0.122576
   3 H :    0.066020
   4 C :   -0.249632
   5 C :   -0.171368
   6 C :   -0.253549
   7 C :   -0.237301
   8 H :    0.103585
   9 H :    0.097952
  10 H :    0.101078
  11 H :    0.094077
  12 H :    0.078688
  13 H :    0.091893
  14 H :    0.098803
  15 H :    0.104146
  16 H :    0.064021
  17 H :    0.102655
  18 H :    0.095964
  19 H :    0.097744
  20 H :    0.096588
  21 H :    0.097740
  22 H :    0.096291
Sum of atomic charges:    0.0000000

LOEWDIN ATOMIC CHARGES
----------------------
   0 C :   -0.339053
   1 C :   -0.226651
   2 C :   -0.142511
   3 H :    0.112154
   4 C :   -0.330370
   5 C :   -0.148839
   6 C :   -0.332277
   7 C :   -0.330330
   8 H :    0.115725
   9 H :    0.116552
  10 H :    0.115802
  11 H :    0.113642
  12 H :    0.115425
  13 H :    0.114533
  14 H :    0.117212
  15 H :    0.115953
  16 H :    0.112469
  17 H :    0.117297
  18 H :    0.118486
  19 H :    0.115978
  20 H :    0.115590
  21 H :    0.116109
  22 H :    0.117105

  Mayer bond orders larger than 0.100000
B(  0-C ,  1-C ) :   1.1571 B(  0-C ,  8-H ) :   0.9514 B(  0-C ,  9-H ) :   0.9505
B(  0-C , 10-H ) :   0.9532 B(  1-C ,  2-C ) :   1.0273 B(  1-C , 11-H ) :   0.9179
B(  1-C , 12-H ) :   0.9275 B(  2-C ,  3-H ) :   0.9062 B(  2-C ,  4-C ) :   1.1266
B(  2-C ,  5-C ) :   1.0582 B(  4-C , 13-H ) :   0.9474 B(  4-C , 14-H ) :   0.9468
B(  4-C , 15-H ) :   0.9397 B(  5-C ,  6-C ) :   1.1073 B(  5-C ,  7-C ) :   1.1185
B(  5-C , 16-H ) :   0.8973 B(  6-C , 17-H ) :   0.9457 B(  6-C , 18-H ) :   0.9486
B(  6-C , 19-H ) :   0.9424 B(  7-C , 20-H ) :   0.9455 B(  7-C , 21-H ) :   0.9415
B(  7-C , 22-H ) :   0.9482

Dispersion correction           -0.019277458
FINAL SINGLE POINT ENERGY      -275.657462307545

DIPOLE MOMENT
-------------

Method             : SCF
Type of density    : Electron Density
Multiplicity       :   1
Irrep              :   0
Energy             :  -275.7347277437994535 Eh
Relativity type    :
Basis              : AO
                                X                 Y                 Z
Electronic contribution:     -0.286314430      -0.612228819      -0.533856033
Nuclear contribution   :      0.270117740       0.602234762       0.518654879
                        -----------------------------------------
Total Dipole Moment    :     -0.016196690      -0.009994057      -0.015201154
                        -----------------------------------------
Magnitude (a.u.)       :      0.024357525
Magnitude (Debye)      :      0.061911909

Rotational constants in cm-1:             0.096096             0.066779             0.049450
Rotational constants in MHz :          2880.898920          2001.992282          1482.483789

                             ****ORCA TERMINATED NORMALLY****
TOTAL RUN TIME: 0 days 0 hours 0 minutes 10 seconds 311 msec
