                         Program Version 6.0.0  -   RELEASE  -
|  1> ! r2scan-3c def2/J RI DEFGRID2 scfconv6 printgap
|  2> %output
|  3>     printlevel normal
|  4> end
|  5> * xyz 0 1
|  6> C -2.1213882681 0.2215953601 1.3126854407
|  7> C -1.7651394105 -0.5720964495 0.0582862918
|  8> C -2.9068051502 -0.5373849413 -0.9538579046
|  9> C -0.4951630038 -0.0154087191 -0.5813092641
| 10> O 0.6057736088 -0.2303902555 0.3117186149
| 11> C 1.7884273281 0.2566093005 -0.0401349751
| 12> O 1.9697067161 0.8763005068 -1.0693368873
| 13> C 2.8483588677 -0.0609831719 0.9709151196
| 14> H -1.2922303911 0.2073107637 2.0149314934
| 15> H -2.9940114624 -0.2091677139 1.7955189991
| 16> H -2.3419039093 1.2552508282 1.055682428
| 17> H -1.5633280974 -1.6095237717 0.3420149852
| 18> H -3.8120191714 -0.9380008936 -0.5069699874
| 19> H -2.6630380702 -1.1290626622 -1.8323402782
| 20> H -3.1002122227 0.4849933591 -1.2695740208
| 21> H -0.2735366954 -0.515225706 -1.5304053791
| 22> H -0.5835648195 1.0587570568 -0.7772918425
| 23> H 3.4520360132 0.8237154232 1.1506413975
| 24> H 3.4965661137 -0.8323249841 0.5609365562
| 25> H 2.3921238872 -0.4167124379 1.8880044284
| 26> *
| 27>
| 28>                          ****END OF INPUT****

CARTESIAN COORDINATES (ANGSTROEM)
---------------------------------
  C     -2.121388    0.221595    1.312685
  C     -1.765139   -0.572096    0.058286
  C     -2.906805   -0.537385   -0.953858
  C     -0.495163   -0.015409   -0.581309
  O      0.605774   -0.230390    0.311719
  C      1.788427    0.256609   -0.040135
  O      1.969707    0.876301   -1.069337
  C      2.848359   -0.060983    0.970915
  H     -1.292230    0.207311    2.014931
  H     -2.994011   -0.209168    1.795519
  H     -2.341904    1.255251    1.055682
  H     -1.563328   -1.609524    0.342015
  H     -3.812019   -0.938001   -0.506970
  H     -2.663038   -1.129063   -1.832340
  H     -3.100212    0.484993   -1.269574
  H     -0.273537   -0.515226   -1.530405
  H     -0.583565    1.058757   -0.777292
  H      3.452036    0.823715    1.150641
  H      3.496566   -0.832325    0.560937
  H      2.392124   -0.416712    1.888004

 Total Charge           Charge          ....    0
 Multiplicity           Mult            ....    1
 Number of Electrons    NEL             ....   64
 Basis Dimension        Dim             ....  222

ORBITAL ENERGIES
----------------

  NO   OCC          E(Eh)            E(eV)
   0   2.0000     -18.998273      -516.9693
   1   2.0000     -18.926520      -515.0168
   2   2.0000     -10.154620      -276.3213
   3   2.0000     -10.086948      -274.4798
   4   2.0000     -10.045609      -273.3549
   5   2.0000     -10.039250      -273.1819
   6   2.0000     -10.026665      -272.8394
   7   2.0000     -10.020865      -272.6816
   8   2.0000      -1.073260       -29.2049
   9   2.0000      -0.974120       -26.5072
  10   2.0000      -0.786423       -21.3997
  11   2.0000      -0.727753       -19.8032
  12   2.0000      -0.662235       -18.0203
  13   2.0000      -0.659198       -17.9377
  14   2.0000      -0.551344       -15.0028
  15   2.0000      -0.534828       -14.5534
  16   2.0000      -0.467119       -12.7110
  17   2.0000      -0.455273       -12.3886
  18   2.0000      -0.442847       -12.0505
  19   2.0000      -0.426746       -11.6124
  20   2.0000      -0.403304       -10.9745
  21   2.0000      -0.398110       -10.8331
  22   2.0000      -0.379672       -10.3314
  23   2.0000      -0.369416       -10.0523
  24   2.0000      -0.359760        -9.7896
  25   2.0000      -0.337694        -9.1891
  26   2.0000      -0.333857        -9.0847
  27   2.0000      -0.316031        -8.5996
  28   2.0000      -0.307087        -8.3563
  29   2.0000      -0.300799        -8.1852
  30   2.0000      -0.271589        -7.3903
  31   2.0000      -0.235037        -6.3957
  32   0.0000      -0.013979        -0.3804
  33   0.0000       0.070098         1.9075
  34   0.0000       0.080009         2.1772
  35   0.0000       0.119119         3.2414
  36   0.0000       0.125149         3.4055

MULLIKEN ATOMIC CHARGES
-----------------------
   0 C :   -0.493933
   1 C :    0.013701
   2 C :   -0.482065
   3 C :   -0.225145
   4 O :   -0.164409
   5 C :    0.408326
   6 O :   -0.419365
   7 C :   -0.525941
   8 H :    0.161364
   9 H :    0.148856
  10 H :    0.147148
  11 H :    0.144197
  12 H :    0.152300
  13 H :    0.147970
  14 H :    0.149074
  15 H :    0.151853
  16 H :    0.168364
  17 H :    0.173699
  18 H :    0.174306
  19 H :    0.169699
Sum of atomic charges:   -0.0000000

LOEWDIN ATOMIC CHARGES
----------------------
   0 C :   -0.408498
   1 C :   -0.219465
   2 C :   -0.409306
   3 C :    0.046179
   4 O :   -0.605573
   5 C :    0.352398
   6 O :   -0.428294
   7 C :   -0.336946
   8 H :    0.163038
   9 H :    0.154117
  10 H :    0.155170
  11 H :    0.164465
  12 H :    0.157218
  13 H :    0.155414
  14 H :    0.156404
  15 H :    0.184007
  16 H :    0.186940
  17 H :    0.178276
  18 H :    0.181099
  19 H :    0.173357

  Mayer bond orders larger than 0.100000
B(  0-C ,  1-C ) :   0.9206 B(  0-C ,  8-H ) :   0.9696 B(  0-C ,  9-H ) :   0.9741
B(  0-C , 10-H ) :   0.9811 B(  1-C ,  2-C ) :   0.9055 B(  1-C ,  3-C ) :   0.9243
B(  1-C , 11-H ) :   0.9460 B(  2-C , 12-H ) :   0.9716 B(  2-C , 13-H ) :   0.9728
B(  2-C , 14-H ) :   0.9797 B(  3-C ,  4-O ) :   0.8168 B(  3-C , 15-H ) :   0.9502
B(  3-C , 16-H ) :   0.9659 B(  4-O ,  5-C ) :   1.0623 B(  5-C ,  6-O ) :   1.8194
B(  5-C ,  7-C ) :   0.9378 B(  7-C , 17-H ) :   0.9648 B(  7-C , 18-H ) :   0.9436
B(  7-C , 19-H ) :   0.9866

Dispersion correction           -0.005082673
FINAL SINGLE POINT ENERGY      -386.238411012775

DIPOLE MOMENT
-------------

Method             : SCF
Type of density    : Electron Density
Multiplicity       :   1
Irrep              :   0
Energy             :  -386.2452004528025782 Eh
Relativity type    :
Basis              : AO
                                X                 Y                 Z
Electronic contribution:      8.195871684       1.210790481      -2.098046442
Nuclear contribution   :     -8.670923291      -1.697877038       2.701145417
                        -----------------------------------------
Total Dipole Moment    :     -0.475051607      -0.487086557       0.603098974
                        -----------------------------------------
Magnitude (a.u.)       :      0.909206091
Magnitude (Debye)      :      2.311018224

Rotational constants in cm-1:             0.149437             0.032939             0.029193
Rotational constants in MHz :          4480.022988           987.476209           875.177727

                             ****ORCA TERMINATED NORMALLY****
TOTAL RUN TIME: 0 days 0 hours 0 minutes 33 seconds 797 msec
