                         Program Version 6.0.0  -   RELEASE  -
|  1> ! r2scan-3c def2/J RI DEFGRID2 scfconv6 printgap
|  2> %output
|  3>     printlevel normal
|  4> end
|  5> %cpcm
|  6>     smd true
|  7>     smdsolvent "water"
|  8> end
|  9> * xyz 0 1
| 10> C -2.1213882681 0.2215953601 1.3126854407
| 11> C -1.7651394105 -0.5720964495 0.0582862918
| 12> C -2.9068051502 -0.5373849413 -0.9538579046
| 13> C -0.4951630038 -0.0154087191 -0.5813092641
| 14> O 0.6057736088 -0.2303902555 0.3117186149
| 15> C 1.7884273281 0.2566093005 -0.0401349751
| 16> O 1.9697067161 0.8763005068 -1.0693368873
| 17> C 2.8483588677 -0.0609831719 0.9709151196
| 18> H -1.2922303911 0.2073107637 2.0149314934
| 19> H -2.9940114624 -0.2091677139 1.7955189991
| 20> H -2.3419039093 1.2552508282 1.055682428
| 21> H -1.5633280974 -1.6095237717 0.3420149852
| 22> H -3.8120191714 -0.9380008936 -0.5069699874
| 23> H -2.6630380702 -1.1290626622 -1.8323402782
| 24> H -3.1002122227 0.4849933591 -1.2695740208
| 25> H -0.2735366954 -0.515225706 -1.5304053791
| 26> H -0.5835648195 1.0587570568 -0.7772918425
| 27> H 3.4520360132 0.8237154232 1.1506413975
| 28> H 3.4965661137 -0.8323249841 0.5609365562
| 29> H 2.3921238872 -0.4167124379 1.8880044284
| 30> *
| 31>
| 32>                          ****END OF INPUT****

CARTESIAN COORDINATES (ANGSTROEM)
---------------------------------
  C     -2.121388    0.221595    1.312685
  C     -1.765139   -0.572096    0.058286
  C     -2.906805   -0.537385   -0.953858
  C     -0.495163   -0.015409   -0.581309
  O      0.605774   -0.230390    0.311719
  C      1.788427    0.256609   -0.040135
  O      1.969707    0.876301   -1.069337
  C      2.848359   -0.060983    0.970915
  H     -1.292230    0.207311    2.014931
  H     -2.994011   -0.209168    1.795519
  H     -2.341904    1.255251    1.055682
  H     -1.563328   -1.609524    0.342015
  H     -3.812019   -0.938001   -0.506970
  H     -2.663038   -1.129063   -1.832340
  H     -3.100212    0.484993   -1.269574
  H     -0.273537   -0.515226   -1.530405
  H     -0.583565    1.058757   -0.777292
  H      3.452036    0.823715    1.150641
  H      3.496566   -0.832325    0.560937
  H      2.392124   -0.416712    1.888004

 Total Charge           Charge          ....    0
 Multiplicity           Mult            ....    1
 Number of Electrons    NEL             ....   64
 Basis Dimension        Dim             ....  222

ORBITAL ENERGIES
----------------

  NO   OCC          E(Eh)            E(eV)
   0   2.0000     -19.003565      -517.1133
   1   2.0000     -18.943010      -515.4655
   2   2.0000     -10.165263      -276.6109
   3   2.0000     -10.079658      -274.2814
   4   2.0000     -10.034715      -273.0585
   5   2.0000     -10.030370      -272.9402
   6   2.0000     -10.012161      -272.4448
   7   2.0000     -10.009382      -272.3691
   8   2.0000      -1.080363       -29.3982
   9   2.0000      -0.988389       -26.8954
  10   2.0000      -0.777218       -21.1492
  11   2.0000      -0.722548       -19.6615
  12   2.0000      -0.655239       -17.8300
  13   2.0000      -0.647251       -17.6126
  14   2.0000      -0.544989       -14.8299
  15   2.0000      -0.529956       -14.4208
  16   2.0000      -0.464882       -12.6501
  17   2.0000      -0.462315       -12.5802
  18   2.0000      -0.447646       -12.1811
  19   2.0000      -0.420026       -11.4295
  20   2.0000      -0.398156       -10.8344
  21   2.0000      -0.389508       -10.5990
  22   2.0000      -0.373280       -10.1575
  23   2.0000      -0.359692        -9.7877
  24   2.0000      -0.347803        -9.4642
  25   2.0000      -0.335266        -9.1230
  26   2.0000      -0.334663        -9.1066
  27   2.0000      -0.305484        -8.3126
  28   2.0000      -0.299970        -8.1626
  29   2.0000      -0.292141        -7.9496
  30   2.0000      -0.276854        -7.5336
  31   2.0000      -0.252822        -6.8796
  32   0.0000      -0.021667        -0.5896
  33   0.0000       0.074835         2.0364
  34   0.0000       0.092276         2.5109
  35   0.0000       0.125095         3.4040
  36   0.0000       0.134231         3.6526

MULLIKEN ATOMIC CHARGES
-----------------------
   0 C :   -0.533974
   1 C :    0.022489
   2 C :   -0.529983
   3 C :   -0.239541
   4 O :   -0.177827
   5 C :    0.461998
   6 O :   -0.510650
   7 C :   -0.562058
   8 H :    0.161351
   9 H :    0.164043
  10 H :    0.162823
  11 H :    0.156303
  12 H :    0.165823
  13 H :    0.161076
  14 H :    0.162737
  15 H :    0.170438
  16 H :    0.180635
  17 H :    0.192610
  18 H :    0.203596
  19 H :    0.188111
Sum of atomic charges:   -0.0000000

LOEWDIN ATOMIC CHARGES
----------------------
   0 C :   -0.415744
   1 C :   -0.214724
   2 C :   -0.414884
   3 C :    0.046161
   4 O :   -0.604746
   5 C :    0.364080
   6 O :   -0.493723
   7 C :   -0.334679
   8 H :    0.161392
   9 H :    0.158370
  10 H :    0.159355
  11 H :    0.167872
  12 H :    0.160770
  13 H :    0.159037
  14 H :    0.159896
  15 H :    0.189885
  16 H :    0.191217
  17 H :    0.185797
  18 H :    0.192489
  19 H :    0.182182

  Mayer bond orders larger than 0.100000
B(  0-C ,  1-C ) :   0.9118 B(  0-C ,  8-H ) :   0.9682 B(  0-C ,  9-H ) :   0.9718
B(  0-C , 10-H ) :   0.9789 B(  1-C ,  2-C ) :   0.8980 B(  1-C ,  3-C ) :   0.9373
B(  1-C , 11-H ) :   0.9486 B(  2-C , 12-H ) :   0.9687 B(  2-C , 13-H ) :   0.9698
B(  2-C , 14-H ) :   0.9787 B(  3-C ,  4-O ) :   0.8018 B(  3-C , 15-H ) :   0.9410
B(  3-C , 16-H ) :   0.9571 B(  4-O ,  5-C ) :   1.0937 B(  5-C ,  6-O ) :   1.7435
B(  5-C ,  7-C ) :   0.9378 B(  7-C , 17-H ) :   0.9557 B(  7-C , 18-H ) :   0.9314
B(  7-C , 19-H ) :   0.9758

Dispersion correction           -0.005082673
FINAL SINGLE POINT ENERGY      -386.243802622470

DIPOLE MOMENT
-------------

Method             : SCF
Type of density    : Electron Density
Multiplicity       :   1
Irrep              :   0
Energy             :  -386.2505920624973328 Eh
Relativity type    :
Basis              : AO
                                X                 Y                 Z
Electronic contribution:      8.056845375       1.025339490      -1.873563134
Nuclear contribution   :     -8.670923291      -1.697877038       2.701145417
                        -----------------------------------------
Total Dipole Moment    :     -0.614077916      -0.672537548       0.827582282
                        -----------------------------------------
Magnitude (a.u.)       :      1.230565266
Magnitude (Debye)      :      3.127848333

Rotational constants in cm-1:             0.149437             0.032939             0.029193
Rotational constants in MHz :          4480.022988           987.476209           875.177727

                             ****ORCA TERMINATED NORMALLY****
TOTAL RUN TIME: 0 days 0 hours 0 minutes 37 seconds 105 msec
