                         Program Version 6.0.0  -   RELEASE  -
|  1> ! pbe def2-sv(p) def2/J RI DEFGRID1 loosescf d4 GCP(DFT/SV(P)) printgap
|  2> %output
|  3>     printlevel normal
|  4> end
|  5> * xyz 0 1
|  6> C -2.753686288 -0.4707066612 1.4360882096
|  7> C -2.0677958427 -0.290204632 0.0834185002
|  8> C -3.1110457104 -0.0600931242 -1.007838361
|  9> C -1.0580953049 0.8828373578 0.1203226729
| 10> C 0.3592252082 0.4224492125 0.0018652201
| 11> C 0.9416623504 -0.4566128993 0.9196876804
| 12> N 2.1896879592 -0.8768337844 0.8035261165
| 13> C 2.8847696822 -0.4246890855 -0.234339454
| 14> C 2.3208323211 0.4510661134 -1.1490551184
| 15> N 1.0685431477 0.8698375797 -1.0314397468
| 16> H -3.330939625 0.41652653 1.6864435604
| 17> H -2.0250100914 -0.6433770155 2.2243930639
| 18> H -3.4298292941 -1.3218798752 1.4059624785
| 19> H -1.5247342878 -1.2124245198 -0.1539568276
| 20> H -2.6334360903 0.0349543163 -1.9798111109
| 21> H -3.8063922742 -0.8952678357 -1.0480009467
| 22> H -3.6748693487 0.8476054945 -0.8060534582
| 23> H -1.171116669 1.4307251605 1.0573575966
| 24> H -1.2486859361 1.5729018727 -0.7009668697
| 25> H 0.3927897704 -0.8324970419 1.7713642749
| 26> H 3.9026599474 -0.7748177907 -0.3203077833
| 27> H 2.873269458 0.8307145622 -1.9967732135
| 28> *
| 29>
| 30>                          ****END OF INPUT****

CARTESIAN COORDINATES (ANGSTROEM)
---------------------------------
  C     -2.753686   -0.470707    1.436088
  C     -2.067796   -0.290205    0.083419
  C     -3.111046   -0.060093   -1.007838
  C     -1.058095    0.882837    0.120323
  C      0.359225    0.422449    0.001865
  C      0.941662   -0.456613    0.919688
  N      2.189688   -0.876834    0.803526
  C      2.884770   -0.424689   -0.234339
  C      2.320832    0.451066   -1.149055
  N      1.068543    0.869838   -1.031440
  H     -3.330940    0.416527    1.686444
  H     -2.025010   -0.643377    2.224393
  H     -3.429829   -1.321880    1.405962
  H     -1.524734   -1.212425   -0.153957
  H     -2.633436    0.034954   -1.979811
  H     -3.806392   -0.895268   -1.048001
  H     -3.674869    0.847605   -0.806053
  H     -1.171117    1.430725    1.057358
  H     -1.248686    1.572902   -0.700967
  H      0.392790   -0.832497    1.771364
  H      3.902660   -0.774818   -0.320308
  H      2.873269    0.830715   -1.996773

 Total Charge           Charge          ....    0
 Multiplicity           Mult            ....    1
 Number of Electrons    NEL             ....   74
 Basis Dimension        Dim             ....  164

ORBITAL ENERGIES
----------------

  NO   OCC          E(Eh)            E(eV)
   0   2.0000     -13.998897      -380.9294
   1   2.0000     -13.997825      -380.9002
   2   2.0000      -9.942467      -270.5483
   3   2.0000      -9.930835      -270.2317
   4   2.0000      -9.930545      -270.2239
   5   2.0000      -9.928253      -270.1615
   6   2.0000      -9.905554      -269.5438
   7   2.0000      -9.891477      -269.1608
   8   2.0000      -9.880853      -268.8717
   9   2.0000      -9.878192      -268.7993
  10   2.0000      -0.897068       -24.4105
  11   2.0000      -0.822594       -22.3839
  12   2.0000      -0.745501       -20.2861
  13   2.0000      -0.702413       -19.1136
  14   2.0000      -0.636104       -17.3093
  15   2.0000      -0.617548       -16.8043
  16   2.0000      -0.592753       -16.1296
  17   2.0000      -0.563298       -15.3281
  18   2.0000      -0.510969       -13.9042
  19   2.0000      -0.473504       -12.8847
  20   2.0000      -0.466684       -12.6991
  21   2.0000      -0.432329       -11.7643
  22   2.0000      -0.408896       -11.1266
  23   2.0000      -0.405409       -11.0317
  24   2.0000      -0.387509       -10.5447
  25   2.0000      -0.382791       -10.4163
  26   2.0000      -0.369912       -10.0658
  27   2.0000      -0.349834        -9.5195
  28   2.0000      -0.345041        -9.3890
  29   2.0000      -0.325629        -8.8608
  30   2.0000      -0.306205        -8.3323
  31   2.0000      -0.295028        -8.0281
  32   2.0000      -0.293891        -7.9972
  33   2.0000      -0.290154        -7.8955
  34   2.0000      -0.248344        -6.7578
  35   2.0000      -0.242047        -6.5864
  36   2.0000      -0.197492        -5.3740
  37   0.0000      -0.075643        -2.0583
  38   0.0000      -0.056544        -1.5386
  39   0.0000       0.034075         0.9272
  40   0.0000       0.062294         1.6951
  41   0.0000       0.066914         1.8208

MULLIKEN ATOMIC CHARGES
-----------------------
   0 C :   -0.261197
   1 C :   -0.197190
   2 C :   -0.253698
   3 C :   -0.014871
   4 C :   -0.114223
   5 C :   -0.075913
   6 N :   -0.039976
   7 C :   -0.061214
   8 C :   -0.047472
   9 N :   -0.045841
  10 H :    0.099639
  11 H :    0.107467
  12 H :    0.101947
  13 H :    0.094394
  14 H :    0.110535
  15 H :    0.100130
  16 H :    0.099176
  17 H :    0.096805
  18 H :    0.083694
  19 H :    0.067881
  20 H :    0.075502
  21 H :    0.074425
Sum of atomic charges:    0.0000000

LOEWDIN ATOMIC CHARGES
----------------------
   0 C :   -0.330520
   1 C :   -0.150831
   2 C :   -0.328029
   3 C :   -0.210760
   4 C :   -0.021506
   5 C :   -0.095378
   6 N :   -0.050253
   7 C :   -0.105227
   8 C :   -0.096046
   9 N :   -0.056131
  10 H :    0.118122
  11 H :    0.114471
  12 H :    0.119146
  13 H :    0.116669
  14 H :    0.121046
  15 H :    0.117951
  16 H :    0.117745
  17 H :    0.133404
  18 H :    0.129985
  19 H :    0.117486
  20 H :    0.119331
  21 H :    0.119323

  Mayer bond orders larger than 0.100000
B(  0-C ,  1-C ) :   1.1066 B(  0-C , 10-H ) :   0.9470 B(  0-C , 11-H ) :   0.9469
B(  0-C , 12-H ) :   0.9479 B(  1-C ,  2-C ) :   1.1226 B(  1-C ,  3-C ) :   1.0095
B(  1-C , 13-H ) :   0.9180 B(  2-C , 14-H ) :   0.9480 B(  2-C , 15-H ) :   0.9510
B(  2-C , 16-H ) :   0.9490 B(  3-C ,  4-C ) :   1.0703 B(  3-C , 17-H ) :   0.8965
B(  3-C , 18-H ) :   0.8945 B(  4-C ,  5-C ) :   1.3199 B(  4-C ,  7-C ) :   0.1030
B(  4-C ,  9-N ) :   1.5750 B(  5-C ,  6-N ) :   1.5724 B(  5-C , 19-H ) :   0.9435
B(  6-N ,  7-C ) :   1.5295 B(  7-C ,  8-C ) :   1.3680 B(  7-C , 20-H ) :   0.9475
B(  8-C ,  9-N ) :   1.5228 B(  8-C , 21-H ) :   0.9457

Dispersion correction           -0.021800475
FINAL SINGLE POINT ENERGY      -420.620397633669

DIPOLE MOMENT
-------------

Method             : SCF
Type of density    : Electron Density
Multiplicity       :   1
Irrep              :   0
Energy             :  -420.6884930532020803 Eh
Relativity type    :
Basis              : AO
                                X                 Y                 Z
Electronic contribution:     14.389121959       0.542269608      -1.085843583
Nuclear contribution   :    -14.689138960      -0.513062600       1.067934656
                        -----------------------------------------
Total Dipole Moment    :     -0.300017001       0.029207008      -0.017908926
                        -----------------------------------------
Magnitude (a.u.)       :      0.301966852
Magnitude (Debye)      :      0.767538741

Rotational constants in cm-1:             0.102579             0.025610             0.022162
Rotational constants in MHz :          3075.244624           767.772701           664.408966

                             ****ORCA TERMINATED NORMALLY****
TOTAL RUN TIME: 0 days 0 hours 0 minutes 11 seconds 427 msec
