                         Program Version 6.0.0  -   RELEASE  -
|  1> ! r2scan-3c def2/J RI DEFGRID2 scfconv6 printgap
|  2> %output
|  3>     printlevel normal
|  4> end
|  5> * xyz 0 1
|  6> C 1.8694679995 -1.0179449157 -0.5202022188
|  7> C 1.236081244 -0.0080950166 0.4349490314
|  8> H 1.0419433852 -0.4892320617 1.4007939798
|  9> C -0.0679886519 0.6163446919 -0.0916434093
| 10> C -1.3495603341 -0.1899734303 0.1644348443
| 11> C -2.5519540743 0.7560480761 0.1795516812
| 12> C -1.5803725516 -1.2779833396 -0.8821629742
| 13> O 2.1709240979 1.0168367067 0.7508455929
| 14> H 1.9668133341 -0.5917557408 -1.516476092
| 15> H 2.8582231765 -1.2861851124 -0.1541026096
| 16> H 1.2708748394 -1.9198880214 -0.5811805263
| 17> H -0.1676234135 1.5769333421 0.4210174339
| 18> H 0.0273526406 0.8176517412 -1.1610169542
| 19> H -1.2720967496 -0.6616172364 1.1505300211
| 20> H -3.4702552572 0.201382755 0.3572114876
| 21> H -2.6404047785 1.2686907015 -0.7757207219
| 22> H -2.4468758553 1.5023294252 0.9634259741
| 23> H -1.6226477226 -0.8417427296 -1.8775745489
| 24> H -0.7908274734 -2.0221187648 -0.8634829158
| 25> H -2.5239208203 -1.7843642272 -0.6909988743
| 26> H 2.4368928523 1.4546481927 -0.0699220614
| 27> *
| 28>
| 29>                          ****END OF INPUT****

CARTESIAN COORDINATES (ANGSTROEM)
---------------------------------
  C      1.869468   -1.017945   -0.520202
  C      1.236081   -0.008095    0.434949
  H      1.041943   -0.489232    1.400794
  C     -0.067989    0.616345   -0.091643
  C     -1.349560   -0.189973    0.164435
  C     -2.551954    0.756048    0.179552
  C     -1.580373   -1.277983   -0.882163
  O      2.170924    1.016837    0.750846
  H      1.966813   -0.591756   -1.516476
  H      2.858223   -1.286185   -0.154103
  H      1.270875   -1.919888   -0.581181
  H     -0.167623    1.576933    0.421017
  H      0.027353    0.817652   -1.161017
  H     -1.272097   -0.661617    1.150530
  H     -3.470255    0.201383    0.357211
  H     -2.640405    1.268691   -0.775721
  H     -2.446876    1.502329    0.963426
  H     -1.622648   -0.841743   -1.877575
  H     -0.790827   -2.022119   -0.863483
  H     -2.523921   -1.784364   -0.690999
  H      2.436893    1.454648   -0.069922

 Total Charge           Charge          ....    0
 Multiplicity           Mult            ....    1
 Number of Electrons    NEL             ....   58
 Basis Dimension        Dim             ....  208

ORBITAL ENERGIES
----------------

  NO   OCC          E(Eh)            E(eV)
   0   2.0000     -18.941265      -515.4180
   1   2.0000     -10.079673      -274.2818
   2   2.0000     -10.036757      -273.1140
   3   2.0000     -10.021581      -272.7011
   4   2.0000     -10.019374      -272.6410
   5   2.0000     -10.017034      -272.5774
   6   2.0000     -10.016110      -272.5522
   7   2.0000      -0.979865       -26.6635
   8   2.0000      -0.779381       -21.2080
   9   2.0000      -0.718403       -19.5487
  10   2.0000      -0.656058       -17.8522
  11   2.0000      -0.647819       -17.6280
  12   2.0000      -0.571100       -15.5404
  13   2.0000      -0.533083       -14.5059
  14   2.0000      -0.453734       -12.3467
  15   2.0000      -0.435453       -11.8493
  16   2.0000      -0.429929       -11.6990
  17   2.0000      -0.396903       -10.8003
  18   2.0000      -0.394077       -10.7234
  19   2.0000      -0.373816       -10.1720
  20   2.0000      -0.358845        -9.7647
  21   2.0000      -0.353974        -9.6321
  22   2.0000      -0.344554        -9.3758
  23   2.0000      -0.320967        -8.7339
  24   2.0000      -0.306873        -8.3504
  25   2.0000      -0.295445        -8.0395
  26   2.0000      -0.289943        -7.8898
  27   2.0000      -0.282225        -7.6797
  28   2.0000      -0.230462        -6.2712
  29   0.0000       0.065455         1.7811
  30   0.0000       0.080405         2.1879
  31   0.0000       0.105321         2.8659
  32   0.0000       0.112062         3.0494
  33   0.0000       0.120185         3.2704

MULLIKEN ATOMIC CHARGES
-----------------------
   0 C :   -0.500287
   1 C :   -0.012290
   2 H :    0.138220
   3 C :   -0.238039
   4 C :   -0.050864
   5 C :   -0.473640
   6 C :   -0.500397
   7 O :   -0.414749
   8 H :    0.144229
   9 H :    0.165556
  10 H :    0.139470
  11 H :    0.163723
  12 H :    0.132197
  13 H :    0.144539
  14 H :    0.144968
  15 H :    0.146054
  16 H :    0.148994
  17 H :    0.153551
  18 H :    0.135685
  19 H :    0.144326
  20 H :    0.288751
Sum of atomic charges:    0.0000000

LOEWDIN ATOMIC CHARGES
----------------------
   0 C :   -0.399006
   1 C :    0.047256
   2 H :    0.179007
   3 C :   -0.281305
   4 C :   -0.241941
   5 C :   -0.416619
   6 C :   -0.415058
   7 O :   -0.615087
   8 H :    0.153027
   9 H :    0.163292
  10 H :    0.155223
  11 H :    0.175114
  12 H :    0.158697
  13 H :    0.155403
  14 H :    0.151912
  15 H :    0.154371
  16 H :    0.152953
  17 H :    0.153539
  18 H :    0.149874
  19 H :    0.153055
  20 H :    0.266292

  Mayer bond orders larger than 0.100000
B(  0-C ,  1-C ) :   0.9341 B(  0-C ,  8-H ) :   0.9770 B(  0-C ,  9-H ) :   0.9733
B(  0-C , 10-H ) :   0.9675 B(  1-C ,  2-H ) :   0.9766 B(  1-C ,  3-C ) :   0.8906
B(  1-C ,  7-O ) :   0.9441 B(  3-C ,  4-C ) :   0.8706 B(  3-C , 11-H ) :   0.9798
B(  3-C , 12-H ) :   0.9436 B(  4-C ,  5-C ) :   0.9016 B(  4-C ,  6-C ) :   0.9078
B(  4-C , 13-H ) :   0.9735 B(  5-C , 14-H ) :   0.9769 B(  5-C , 15-H ) :   0.9817
B(  5-C , 16-H ) :   0.9778 B(  6-C , 17-H ) :   0.9901 B(  6-C , 18-H ) :   0.9670
B(  6-C , 19-H ) :   0.9742 B(  7-O , 20-H ) :   0.8983

Dispersion correction           -0.005552913
FINAL SINGLE POINT ENERGY      -312.198677867551

DIPOLE MOMENT
-------------

Method             : SCF
Type of density    : Electron Density
Multiplicity       :   1
Irrep              :   0
Energy             :  -312.2043548718851866 Eh
Relativity type    :
Basis              : AO
                                X                 Y                 Z
Electronic contribution:      4.716692565       2.418403297       2.657851584
Nuclear contribution   :     -4.970587558      -2.588564380      -3.176264152
                        -----------------------------------------
Total Dipole Moment    :     -0.253894992      -0.170161083      -0.518412568
                        -----------------------------------------
Magnitude (a.u.)       :      0.601804829
Magnitude (Debye)      :      1.529666310

Rotational constants in cm-1:             0.141774             0.049141             0.039168
Rotational constants in MHz :          4250.270489          1473.216579          1174.228795

                             ****ORCA TERMINATED NORMALLY****
TOTAL RUN TIME: 0 days 0 hours 0 minutes 28 seconds 971 msec
