                         Program Version 6.0.0  -   RELEASE  -
|  1> ! r2scan-3c def2/J RI DEFGRID2 scfconv6 printgap
|  2> %output
|  3>     printlevel normal
|  4> end
|  5> %cpcm
|  6>     smd true
|  7>     smdsolvent "water"
|  8> end
|  9> * xyz 0 1
| 10> C 1.8694679995 -1.0179449157 -0.5202022188
| 11> C 1.236081244 -0.0080950166 0.4349490314
| 12> H 1.0419433852 -0.4892320617 1.4007939798
| 13> C -0.0679886519 0.6163446919 -0.0916434093
| 14> C -1.3495603341 -0.1899734303 0.1644348443
| 15> C -2.5519540743 0.7560480761 0.1795516812
| 16> C -1.5803725516 -1.2779833396 -0.8821629742
| 17> O 2.1709240979 1.0168367067 0.7508455929
| 18> H 1.9668133341 -0.5917557408 -1.516476092
| 19> H 2.8582231765 -1.2861851124 -0.1541026096
| 20> H 1.2708748394 -1.9198880214 -0.5811805263
| 21> H -0.1676234135 1.5769333421 0.4210174339
| 22> H 0.0273526406 0.8176517412 -1.1610169542
| 23> H -1.2720967496 -0.6616172364 1.1505300211
| 24> H -3.4702552572 0.201382755 0.3572114876
| 25> H -2.6404047785 1.2686907015 -0.7757207219
| 26> H -2.4468758553 1.5023294252 0.9634259741
| 27> H -1.6226477226 -0.8417427296 -1.8775745489
| 28> H -0.7908274734 -2.0221187648 -0.8634829158
| 29> H -2.5239208203 -1.7843642272 -0.6909988743
| 30> H 2.4368928523 1.4546481927 -0.0699220614
| 31> *
| 32>
| 33>                          ****END OF INPUT****

CARTESIAN COORDINATES (ANGSTROEM)
---------------------------------
  C      1.869468   -1.017945   -0.520202
  C      1.236081   -0.008095    0.434949
  H      1.041943   -0.489232    1.400794
  C     -0.067989    0.616345   -0.091643
  C     -1.349560   -0.189973    0.164435
  C     -2.551954    0.756048    0.179552
  C     -1.580373   -1.277983   -0.882163
  O      2.170924    1.016837    0.750846
  H      1.966813   -0.591756   -1.516476
  H      2.858223   -1.286185   -0.154103
  H      1.270875   -1.919888   -0.581181
  H     -0.167623    1.576933    0.421017
  H      0.027353    0.817652   -1.161017
  H     -1.272097   -0.661617    1.150530
  H     -3.470255    0.201383    0.357211
  H     -2.640405    1.268691   -0.775721
  H     -2.446876    1.502329    0.963426
  H     -1.622648   -0.841743   -1.877575
  H     -0.790827   -2.022119   -0.863483
  H     -2.523921   -1.784364   -0.690999
  H      2.436893    1.454648   -0.069922

 Total Charge           Charge          ....    0
 Multiplicity           Mult            ....    1
 Number of Electrons    NEL             ....   58
 Basis Dimension        Dim             ....  208

ORBITAL ENERGIES
----------------

  NO   OCC          E(Eh)            E(eV)
   0   2.0000     -18.945756      -515.5402
   1   2.0000     -10.074164      -274.1319
   2   2.0000     -10.026364      -272.8312
   3   2.0000     -10.012383      -272.4508
   4   2.0000     -10.008759      -272.3522
   5   2.0000     -10.006103      -272.2799
   6   2.0000     -10.005252      -272.2568
   7   2.0000      -0.983012       -26.7491
   8   2.0000      -0.769543       -20.9403
   9   2.0000      -0.710386       -19.3306
  10   2.0000      -0.646195       -17.5839
  11   2.0000      -0.638237       -17.3673
  12   2.0000      -0.565845       -15.3974
  13   2.0000      -0.523070       -14.2335
  14   2.0000      -0.448596       -12.2069
  15   2.0000      -0.427919       -11.6443
  16   2.0000      -0.421868       -11.4796
  17   2.0000      -0.388261       -10.5651
  18   2.0000      -0.387265       -10.5380
  19   2.0000      -0.364549        -9.9199
  20   2.0000      -0.350170        -9.5286
  21   2.0000      -0.343859        -9.3569
  22   2.0000      -0.339413        -9.2359
  23   2.0000      -0.312082        -8.4922
  24   2.0000      -0.297858        -8.1051
  25   2.0000      -0.284888        -7.7522
  26   2.0000      -0.281190        -7.6516
  27   2.0000      -0.280379        -7.6295
  28   2.0000      -0.234511        -6.3814
  29   0.0000       0.080509         2.1908
  30   0.0000       0.091367         2.4862
  31   0.0000       0.116949         3.1824
  32   0.0000       0.121783         3.3139
  33   0.0000       0.128733         3.5030

MULLIKEN ATOMIC CHARGES
-----------------------
   0 C :   -0.549123
   1 C :    0.020322
   2 H :    0.149367
   3 C :   -0.262777
   4 C :   -0.024643
   5 C :   -0.519636
   6 C :   -0.551845
   7 O :   -0.509946
   8 H :    0.167790
   9 H :    0.162580
  10 H :    0.161714
  11 H :    0.157101
  12 H :    0.154824
  13 H :    0.153512
  14 H :    0.156574
  15 H :    0.157650
  16 H :    0.158138
  17 H :    0.165742
  18 H :    0.152452
  19 H :    0.154687
  20 H :    0.345517
Sum of atomic charges:    0.0000000

LOEWDIN ATOMIC CHARGES
----------------------
   0 C :   -0.403107
   1 C :    0.047779
   2 H :    0.182204
   3 C :   -0.280297
   4 C :   -0.238679
   5 C :   -0.425634
   6 C :   -0.423700
   7 O :   -0.655470
   8 H :    0.160724
   9 H :    0.161629
  10 H :    0.162228
  11 H :    0.172584
  12 H :    0.165896
  13 H :    0.158278
  14 H :    0.154413
  15 H :    0.156730
  16 H :    0.154467
  17 H :    0.156271
  18 H :    0.154223
  19 H :    0.154961
  20 H :    0.284502

  Mayer bond orders larger than 0.100000
B(  0-C ,  1-C ) :   0.9162 B(  0-C ,  8-H ) :   0.9747 B(  0-C ,  9-H ) :   0.9709
B(  0-C , 10-H ) :   0.9642 B(  1-C ,  2-H ) :   0.9778 B(  1-C ,  3-C ) :   0.8966
B(  1-C ,  7-O ) :   0.9277 B(  3-C ,  4-C ) :   0.8675 B(  3-C , 11-H ) :   0.9795
B(  3-C , 12-H ) :   0.9461 B(  4-C ,  5-C ) :   0.8892 B(  4-C ,  6-C ) :   0.8968
B(  4-C , 13-H ) :   0.9735 B(  5-C , 14-H ) :   0.9750 B(  5-C , 15-H ) :   0.9806
B(  5-C , 16-H ) :   0.9756 B(  6-C , 17-H ) :   0.9871 B(  6-C , 18-H ) :   0.9657
B(  6-C , 19-H ) :   0.9729 B(  7-O , 20-H ) :   0.8707

Dispersion correction           -0.005552913
FINAL SINGLE POINT ENERGY      -312.204659361201

DIPOLE MOMENT
-------------

Method             : SCF
Type of density    : Electron Density
Multiplicity       :   1
Irrep              :   0
Energy             :  -312.2103363655351131 Eh
Relativity type    :
Basis              : AO
                                X                 Y                 Z
Electronic contribution:      4.638652959       2.340068429       2.408106478
Nuclear contribution   :     -4.970587558      -2.588564380      -3.176264152
                        -----------------------------------------
Total Dipole Moment    :     -0.331934599      -0.248495952      -0.768157674
                        -----------------------------------------
Magnitude (a.u.)       :      0.872924411
Magnitude (Debye)      :      2.218797523

Rotational constants in cm-1:             0.141774             0.049141             0.039168
Rotational constants in MHz :          4250.270489          1473.216579          1174.228795

                             ****ORCA TERMINATED NORMALLY****
TOTAL RUN TIME: 0 days 0 hours 0 minutes 34 seconds 436 msec
