                         Program Version 6.0.0  -   RELEASE  -
|  1> ! pbe def2-sv(p) def2/J RI DEFGRID1 loosescf d4 GCP(DFT/SV(P)) printgap
|  2> %output
|  3>     printlevel normal
|  4> end
|  5> * xyz 0 1
|  6> C -1.4443701951 0.0801491713 0.6277790492
|  7> C 0.0611949289 0.3495354354 0.5136588543
|  8> C 0.7969872219 -0.8835221785 -0.0256095262
|  9> O 2.1928830166 -0.717356057 0.003948559
| 10> O 0.3645194952 1.4129965834 -0.3641306306
| 11> O -1.9459789113 -0.3441636665 -0.6195628543
| 12> H -1.9480658688 1.0015566246 0.9514271194
| 13> H -1.595061963 -0.6916380145 1.3929006883
| 14> H 0.444953571 0.5786897526 1.5211206832
| 15> H 0.4463571906 -1.0712786969 -1.0474461483
| 16> H 0.576910309 -1.7508986267 0.5982889256
| 17> H 2.4046441681 0.0894229203 -0.4885295421
| 18> H -0.1563796618 2.1930701153 -0.1307573598
| 19> H -2.8936207904 -0.5200624919 -0.5414989348
| 20> *
| 21>
| 22>                          ****END OF INPUT****

CARTESIAN COORDINATES (ANGSTROEM)
---------------------------------
  C     -1.444370    0.080149    0.627779
  C      0.061195    0.349535    0.513659
  C      0.796987   -0.883522   -0.025610
  O      2.192883   -0.717356    0.003949
  O      0.364519    1.412997   -0.364131
  O     -1.945979   -0.344164   -0.619563
  H     -1.948066    1.001557    0.951427
  H     -1.595062   -0.691638    1.392901
  H      0.444954    0.578690    1.521121
  H      0.446357   -1.071279   -1.047446
  H      0.576910   -1.750899    0.598289
  H      2.404644    0.089423   -0.488530
  H     -0.156380    2.193070   -0.130757
  H     -2.893621   -0.520062   -0.541499

 Total Charge           Charge          ....    0
 Multiplicity           Mult            ....    1
 Number of Electrons    NEL             ....   50
 Basis Dimension        Dim             ....  100

ORBITAL ENERGIES
----------------

  NO   OCC          E(Eh)            E(eV)
   0   2.0000     -18.752374      -510.2780
   1   2.0000     -18.750572      -510.2290
   2   2.0000     -18.728846      -509.6378
   3   2.0000      -9.939496      -270.4674
   4   2.0000      -9.937402      -270.4105
   5   2.0000      -9.917817      -269.8775
   6   2.0000      -0.938695       -25.5432
   7   2.0000      -0.920907       -25.0591
   8   2.0000      -0.901133       -24.5211
   9   2.0000      -0.682036       -18.5591
  10   2.0000      -0.600447       -16.3390
  11   2.0000      -0.537150       -14.6166
  12   2.0000      -0.490698       -13.3526
  13   2.0000      -0.448942       -12.2163
  14   2.0000      -0.438736       -11.9386
  15   2.0000      -0.414152       -11.2696
  16   2.0000      -0.377946       -10.2844
  17   2.0000      -0.358706        -9.7609
  18   2.0000      -0.351363        -9.5611
  19   2.0000      -0.312363        -8.4998
  20   2.0000      -0.283553        -7.7159
  21   2.0000      -0.262818        -7.1516
  22   2.0000      -0.226628        -6.1669
  23   2.0000      -0.220429        -5.9982
  24   2.0000      -0.198762        -5.4086
  25   0.0000       0.010604         0.2885
  26   0.0000       0.036141         0.9834
  27   0.0000       0.062876         1.7109
  28   0.0000       0.073151         1.9905
  29   0.0000       0.093610         2.5473

MULLIKEN ATOMIC CHARGES
-----------------------
   0 C :   -0.003523
   1 C :   -0.002552
   2 C :    0.045731
   3 O :   -0.442937
   4 O :   -0.434756
   5 O :   -0.428033
   6 H :    0.062258
   7 H :    0.072849
   8 H :    0.062431
   9 H :    0.089835
  10 H :    0.077156
  11 H :    0.298945
  12 H :    0.300491
  13 H :    0.302106
Sum of atomic charges:    0.0000000

LOEWDIN ATOMIC CHARGES
----------------------
   0 C :   -0.135996
   1 C :   -0.090703
   2 C :   -0.126637
   3 O :   -0.342039
   4 O :   -0.329758
   5 O :   -0.340692
   6 H :    0.089588
   7 H :    0.100233
   8 H :    0.100475
   9 H :    0.107020
  10 H :    0.112684
  11 H :    0.281877
  12 H :    0.286105
  13 H :    0.287841

  Mayer bond orders larger than 0.100000
B(  0-C ,  1-C ) :   1.0476 B(  0-C ,  5-O ) :   1.0882 B(  0-C ,  6-H ) :   0.9125
B(  0-C ,  7-H ) :   0.9085 B(  1-C ,  2-C ) :   1.0534 B(  1-C ,  4-O ) :   1.0443
B(  1-C ,  8-H ) :   0.8922 B(  2-C ,  3-O ) :   1.0738 B(  2-C ,  9-H ) :   0.9064
B(  2-C , 10-H ) :   0.9270 B(  3-O , 11-H ) :   0.8454 B(  4-O , 12-H ) :   0.8490
B(  5-O , 13-H ) :   0.8507

Dispersion correction           -0.009167164
FINAL SINGLE POINT ENERGY      -344.005738139397

DIPOLE MOMENT
-------------

Method             : SCF
Type of density    : Electron Density
Multiplicity       :   1
Irrep              :   0
Energy             :  -344.0787191771987068 Eh
Relativity type    :
Basis              : AO
                                X                 Y                 Z
Electronic contribution:      1.308348814       0.740444817      -1.608181957
Nuclear contribution   :     -2.542997909      -0.155337607       2.101504627
                        -----------------------------------------
Total Dipole Moment    :     -1.234649095       0.585107211       0.493322670
                        -----------------------------------------
Magnitude (a.u.)       :      1.452610097
Magnitude (Debye)      :      3.692241438

Rotational constants in cm-1:             0.197279             0.076886             0.065321
Rotational constants in MHz :          5914.271184          2304.984784          1958.283026

                             ****ORCA TERMINATED NORMALLY****
TOTAL RUN TIME: 0 days 0 hours 0 minutes 6 seconds 757 msec
