                         Program Version 6.0.0  -   RELEASE  -
|  1> ! pbe def2-sv(p) def2/J RI DEFGRID1 loosescf d4 GCP(DFT/SV(P)) printgap
|  2> %output
|  3>     printlevel normal
|  4> end
|  5> * xyz 0 1
|  6> C 2.2281777958 -0.245198948 -0.1522361295
|  7> O 0.9080541837 -0.2481511877 0.3424112024
|  8> C 0.0738206563 0.7019890233 -0.2966325813
|  9> C -1.3338698102 0.5647596324 0.2725750076
| 10> N -1.9314219579 -0.6801487567 -0.1906365352
| 11> H 2.7661752398 -1.005807475 0.4079737131
| 12> H 2.6999523318 0.7318740461 0.0003273411
| 13> H 2.2455705748 -0.4874130723 -1.2204546048
| 14> H 0.4595341191 1.71576766 -0.1170018642
| 15> H 0.0541701362 0.5146715281 -1.3785335839
| 16> H -1.26144337 0.6325852453 1.37002468
| 17> H -1.9466200651 1.3936497567 -0.0897298466
| 18> H -2.8148945917 -0.83217008 0.2827452897
| 19> H -1.3129177543 -1.4454775423 0.0593218896
| 20> *
| 21>
| 22>                          ****END OF INPUT****

CARTESIAN COORDINATES (ANGSTROEM)
---------------------------------
  C      2.228178   -0.245199   -0.152236
  O      0.908054   -0.248151    0.342411
  C      0.073821    0.701989   -0.296633
  C     -1.333870    0.564760    0.272575
  N     -1.931422   -0.680149   -0.190637
  H      2.766175   -1.005807    0.407974
  H      2.699952    0.731874    0.000327
  H      2.245571   -0.487413   -1.220455
  H      0.459534    1.715768   -0.117002
  H      0.054170    0.514672   -1.378534
  H     -1.261443    0.632585    1.370025
  H     -1.946620    1.393650   -0.089730
  H     -2.814895   -0.832170    0.282745
  H     -1.312918   -1.445478    0.059322

 Total Charge           Charge          ....    0
 Multiplicity           Mult            ....    1
 Number of Electrons    NEL             ....   42
 Basis Dimension        Dim             ....   88

ORBITAL ENERGIES
----------------

  NO   OCC          E(Eh)            E(eV)
   0   2.0000     -18.751329      -510.2496
   1   2.0000     -13.955301      -379.7430
   2   2.0000      -9.925624      -270.0900
   3   2.0000      -9.924226      -270.0519
   4   2.0000      -9.904545      -269.5164
   5   2.0000      -0.932149       -25.3651
   6   2.0000      -0.788962       -21.4687
   7   2.0000      -0.662555       -18.0290
   8   2.0000      -0.592003       -16.1092
   9   2.0000      -0.525948       -14.3118
  10   2.0000      -0.449936       -12.2434
  11   2.0000      -0.438257       -11.9256
  12   2.0000      -0.421326       -11.4649
  13   2.0000      -0.391417       -10.6510
  14   2.0000      -0.383207       -10.4276
  15   2.0000      -0.341340        -9.2883
  16   2.0000      -0.331451        -9.0192
  17   2.0000      -0.308628        -8.3982
  18   2.0000      -0.268071        -7.2946
  19   2.0000      -0.206154        -5.6097
  20   2.0000      -0.179242        -4.8774
  21   0.0000       0.038122         1.0373
  22   0.0000       0.054926         1.4946
  23   0.0000       0.075740         2.0610
  24   0.0000       0.091116         2.4794
  25   0.0000       0.105539         2.8719

MULLIKEN ATOMIC CHARGES
-----------------------
   0 C :   -0.099112
   1 O :   -0.352481
   2 C :   -0.018055
   3 C :   -0.047878
   4 N :   -0.474627
   5 H :    0.114261
   6 H :    0.084341
   7 H :    0.087623
   8 H :    0.069906
   9 H :    0.075111
  10 H :    0.072195
  11 H :    0.081409
  12 H :    0.200760
  13 H :    0.206547
Sum of atomic charges:   -0.0000000

LOEWDIN ATOMIC CHARGES
----------------------
   0 C :   -0.206795
   1 O :   -0.188098
   2 C :   -0.119128
   3 C :   -0.185272
   4 N :   -0.422314
   5 H :    0.114950
   6 H :    0.096144
   7 H :    0.097723
   8 H :    0.095738
   9 H :    0.100079
  10 H :    0.096612
  11 H :    0.114925
  12 H :    0.203018
  13 H :    0.202418

  Mayer bond orders larger than 0.100000
B(  0-C ,  1-O ) :   1.0207 B(  0-C ,  5-H ) :   0.9644 B(  0-C ,  6-H ) :   0.9425
B(  0-C ,  7-H ) :   0.9431 B(  1-O ,  2-C ) :   1.0102 B(  2-C ,  3-C ) :   1.1226
B(  2-C ,  8-H ) :   0.9151 B(  2-C ,  9-H ) :   0.9061 B(  3-C ,  4-N ) :   1.1044
B(  3-C , 10-H ) :   0.9098 B(  3-C , 11-H ) :   0.9226 B(  4-N , 12-H ) :   0.9058
B(  4-N , 13-H ) :   0.8980

Dispersion correction           -0.008151640
FINAL SINGLE POINT ENERGY      -249.094989560332

DIPOLE MOMENT
-------------

Method             : SCF
Type of density    : Electron Density
Multiplicity       :   1
Irrep              :   0
Energy             :  -249.1563260287666424 Eh
Relativity type    :
Basis              : AO
                                X                 Y                 Z
Electronic contribution:     -0.644374563      -0.993444801       0.843166451
Nuclear contribution   :      0.837397986       1.134956288      -0.638911542
                        -----------------------------------------
Total Dipole Moment    :      0.193023423       0.141511487       0.204254909
                        -----------------------------------------
Magnitude (a.u.)       :      0.314648392
Magnitude (Debye)      :      0.799772653

Rotational constants in cm-1:             0.440328             0.087702             0.080198
Rotational constants in MHz :         13200.703555          2629.225167          2404.281305

                             ****ORCA TERMINATED NORMALLY****
TOTAL RUN TIME: 0 days 0 hours 0 minutes 5 seconds 975 msec
