                         Program Version 6.0.0  -   RELEASE  -
|  1> ! r2scan-3c def2/J RI DEFGRID2 scfconv6 printgap
|  2> %output
|  3>     printlevel normal
|  4> end
|  5> * xyz 0 1
|  6> C -1.3543853786 -1.2798470184 0.6666594731
|  7> C -1.080624714 -0.3285577534 -0.4966734511
|  8> C -2.3866456268 0.3757643767 -0.8787168731
|  9> C 0.0393839379 0.7118666635 -0.2661873484
| 10> C -0.2858846343 1.6974320658 0.8577378491
| 11> C 1.4768202106 0.1551620522 -0.1038846408
| 12> C 1.8298848363 -0.3738224277 1.2865522645
| 13> C 1.8121047008 -0.8983553859 -1.159808116
| 14> H -0.5343695462 -1.9760892359 0.8132580926
| 15> H -1.5235501697 -0.7359326509 1.5915966518
| 16> H -2.2477440129 -1.8635126704 0.4519230301
| 17> H -0.7816960847 -0.9330239075 -1.3591813056
| 18> H -2.2157658582 1.1203401894 -1.65317825
| 19> H -2.8306703894 0.8659033889 -0.0163201331
| 20> H -3.1031730224 -0.3498559823 -1.2577732128
| 21> H 0.0711343783 1.2951231565 -1.1973098352
| 22> H -1.1655250254 2.2842917622 0.6091225016
| 23> H 0.5456810469 2.3851084363 0.9973923747
| 24> H -0.4688024387 1.1858995548 1.797804697
| 25> H 2.1373653182 1.0142240707 -0.2842224431
| 26> H 2.8772650728 -0.6701598183 1.2987955338
| 27> H 1.6907572393 0.3904863098 2.0449583514
| 28> H 1.2342323573 -1.2396037708 1.5541511748
| 29> H 1.5416313047 -0.5488862639 -2.1538178995
| 30> H 1.2893026786 -1.830585943 -0.9624049325
| 31> H 2.8802986474 -1.1044786248 -1.1507864165
| 32> *
| 33>
| 34>                          ****END OF INPUT****

CARTESIAN COORDINATES (ANGSTROEM)
---------------------------------
  C     -1.354385   -1.279847    0.666659
  C     -1.080625   -0.328558   -0.496673
  C     -2.386646    0.375764   -0.878717
  C      0.039384    0.711867   -0.266187
  C     -0.285885    1.697432    0.857738
  C      1.476820    0.155162   -0.103885
  C      1.829885   -0.373822    1.286552
  C      1.812105   -0.898355   -1.159808
  H     -0.534370   -1.976089    0.813258
  H     -1.523550   -0.735933    1.591597
  H     -2.247744   -1.863513    0.451923
  H     -0.781696   -0.933024   -1.359181
  H     -2.215766    1.120340   -1.653178
  H     -2.830670    0.865903   -0.016320
  H     -3.103173   -0.349856   -1.257773
  H      0.071134    1.295123   -1.197310
  H     -1.165525    2.284292    0.609123
  H      0.545681    2.385108    0.997392
  H     -0.468802    1.185900    1.797805
  H      2.137365    1.014224   -0.284222
  H      2.877265   -0.670160    1.298796
  H      1.690757    0.390486    2.044958
  H      1.234232   -1.239604    1.554151
  H      1.541631   -0.548886   -2.153818
  H      1.289303   -1.830586   -0.962405
  H      2.880299   -1.104479   -1.150786

 Total Charge           Charge          ....    0
 Multiplicity           Mult            ....    1
 Number of Electrons    NEL             ....   66
 Basis Dimension        Dim             ....  242

ORBITAL ENERGIES
----------------

  NO   OCC          E(Eh)            E(eV)
   0   2.0000     -10.029543      -272.9177
   1   2.0000     -10.028844      -272.8987
   2   2.0000     -10.027457      -272.8610
   3   2.0000     -10.012444      -272.4524
   4   2.0000     -10.012124      -272.4437
   5   2.0000     -10.011898      -272.4376
   6   2.0000     -10.011444      -272.4252
   7   2.0000     -10.009842      -272.3816
   8   2.0000      -0.792383       -21.5618
   9   2.0000      -0.741310       -20.1721
  10   2.0000      -0.690103       -18.7787
  11   2.0000      -0.649816       -17.6824
  12   2.0000      -0.643662       -17.5149
  13   2.0000      -0.599687       -16.3183
  14   2.0000      -0.546656       -14.8753
  15   2.0000      -0.486311       -13.2332
  16   2.0000      -0.439488       -11.9591
  17   2.0000      -0.434471       -11.8226
  18   2.0000      -0.414398       -11.2763
  19   2.0000      -0.391779       -10.6608
  20   2.0000      -0.382811       -10.4168
  21   2.0000      -0.365349        -9.9416
  22   2.0000      -0.359153        -9.7731
  23   2.0000      -0.352522        -9.5926
  24   2.0000      -0.347968        -9.4687
  25   2.0000      -0.335474        -9.1287
  26   2.0000      -0.327665        -8.9162
  27   2.0000      -0.315369        -8.5816
  28   2.0000      -0.302821        -8.2402
  29   2.0000      -0.299824        -8.1586
  30   2.0000      -0.274277        -7.4635
  31   2.0000      -0.270689        -7.3658
  32   2.0000      -0.262254        -7.1363
  33   0.0000       0.073449         1.9986
  34   0.0000       0.104903         2.8545
  35   0.0000       0.107791         2.9331
  36   0.0000       0.116735         3.1765
  37   0.0000       0.123432         3.3587

MULLIKEN ATOMIC CHARGES
-----------------------
   0 C :   -0.521166
   1 C :   -0.029032
   2 C :   -0.527522
   3 C :   -0.037272
   4 C :   -0.575367
   5 C :   -0.065274
   6 C :   -0.498125
   7 C :   -0.517129
   8 H :    0.142103
   9 H :    0.162871
  10 H :    0.142301
  11 H :    0.162649
  12 H :    0.147929
  13 H :    0.159545
  14 H :    0.149332
  15 H :    0.161608
  16 H :    0.158812
  17 H :    0.153559
  18 H :    0.167387
  19 H :    0.154494
  20 H :    0.142044
  21 H :    0.156058
  22 H :    0.152374
  23 H :    0.152898
  24 H :    0.156154
  25 H :    0.148768
Sum of atomic charges:    0.0000000

LOEWDIN ATOMIC CHARGES
----------------------
   0 C :   -0.415371
   1 C :   -0.237660
   2 C :   -0.416820
   3 C :   -0.227793
   4 C :   -0.415375
   5 C :   -0.238241
   6 C :   -0.415206
   7 C :   -0.417942
   8 H :    0.149347
   9 H :    0.154166
  10 H :    0.154172
  11 H :    0.160392
  12 H :    0.153398
  13 H :    0.153814
  14 H :    0.152120
  15 H :    0.162483
  16 H :    0.155365
  17 H :    0.156261
  18 H :    0.153711
  19 H :    0.157571
  20 H :    0.153146
  21 H :    0.155648
  22 H :    0.153192
  23 H :    0.154082
  24 H :    0.152673
  25 H :    0.152865

  Mayer bond orders larger than 0.100000
B(  0-C ,  1-C ) :   0.8770 B(  0-C ,  8-H ) :   0.9719 B(  0-C ,  9-H ) :   0.9899
B(  0-C , 10-H ) :   0.9684 B(  1-C ,  2-C ) :   0.8892 B(  1-C ,  3-C ) :   0.8564
B(  1-C , 11-H ) :   0.9642 B(  2-C , 12-H ) :   0.9778 B(  2-C , 13-H ) :   0.9859
B(  2-C , 14-H ) :   0.9733 B(  3-C ,  4-C ) :   0.8589 B(  3-C ,  5-C ) :   0.8914
B(  3-C , 15-H ) :   0.9883 B(  4-C , 16-H ) :   0.9717 B(  4-C , 17-H ) :   0.9742
B(  4-C , 18-H ) :   0.9847 B(  5-C ,  6-C ) :   0.9142 B(  5-C ,  7-C ) :   0.8762
B(  5-C , 19-H ) :   0.9770 B(  6-C , 20-H ) :   0.9725 B(  6-C , 21-H ) :   0.9699
B(  6-C , 22-H ) :   0.9800 B(  7-C , 23-H ) :   0.9799 B(  7-C , 24-H ) :   0.9807
B(  7-C , 25-H ) :   0.9717

Dispersion correction           -0.008256886
FINAL SINGLE POINT ENERGY      -315.581973196210

DIPOLE MOMENT
-------------

Method             : SCF
Type of density    : Electron Density
Multiplicity       :   1
Irrep              :   0
Energy             :  -315.5867794425429906 Eh
Relativity type    :
Basis              : AO
                                X                 Y                 Z
Electronic contribution:      0.597385602       0.692071211      -1.120078260
Nuclear contribution   :     -0.566301103      -0.666800257       1.054501162
                        -----------------------------------------
Total Dipole Moment    :      0.031084499       0.025270954      -0.065577099
                        -----------------------------------------
Magnitude (a.u.)       :      0.076845449
Magnitude (Debye)      :      0.195325609

Rotational constants in cm-1:             0.085398             0.046581             0.042742
Rotational constants in MHz :          2560.158653          1396.466554          1281.386401

                             ****ORCA TERMINATED NORMALLY****
TOTAL RUN TIME: 0 days 0 hours 0 minutes 27 seconds 882 msec
