                         Program Version 6.0.0  -   RELEASE  -
|  1> ! r2scan-3c def2/J RI DEFGRID2 scfconv6 printgap
|  2> %output
|  3>     printlevel normal
|  4> end
|  5> %cpcm
|  6>     smd true
|  7>     smdsolvent "water"
|  8> end
|  9> * xyz 0 1
| 10> C -1.3543853786 -1.2798470184 0.6666594731
| 11> C -1.080624714 -0.3285577534 -0.4966734511
| 12> C -2.3866456268 0.3757643767 -0.8787168731
| 13> C 0.0393839379 0.7118666635 -0.2661873484
| 14> C -0.2858846343 1.6974320658 0.8577378491
| 15> C 1.4768202106 0.1551620522 -0.1038846408
| 16> C 1.8298848363 -0.3738224277 1.2865522645
| 17> C 1.8121047008 -0.8983553859 -1.159808116
| 18> H -0.5343695462 -1.9760892359 0.8132580926
| 19> H -1.5235501697 -0.7359326509 1.5915966518
| 20> H -2.2477440129 -1.8635126704 0.4519230301
| 21> H -0.7816960847 -0.9330239075 -1.3591813056
| 22> H -2.2157658582 1.1203401894 -1.65317825
| 23> H -2.8306703894 0.8659033889 -0.0163201331
| 24> H -3.1031730224 -0.3498559823 -1.2577732128
| 25> H 0.0711343783 1.2951231565 -1.1973098352
| 26> H -1.1655250254 2.2842917622 0.6091225016
| 27> H 0.5456810469 2.3851084363 0.9973923747
| 28> H -0.4688024387 1.1858995548 1.797804697
| 29> H 2.1373653182 1.0142240707 -0.2842224431
| 30> H 2.8772650728 -0.6701598183 1.2987955338
| 31> H 1.6907572393 0.3904863098 2.0449583514
| 32> H 1.2342323573 -1.2396037708 1.5541511748
| 33> H 1.5416313047 -0.5488862639 -2.1538178995
| 34> H 1.2893026786 -1.830585943 -0.9624049325
| 35> H 2.8802986474 -1.1044786248 -1.1507864165
| 36> *
| 37>
| 38>                          ****END OF INPUT****

CARTESIAN COORDINATES (ANGSTROEM)
---------------------------------
  C     -1.354385   -1.279847    0.666659
  C     -1.080625   -0.328558   -0.496673
  C     -2.386646    0.375764   -0.878717
  C      0.039384    0.711867   -0.266187
  C     -0.285885    1.697432    0.857738
  C      1.476820    0.155162   -0.103885
  C      1.829885   -0.373822    1.286552
  C      1.812105   -0.898355   -1.159808
  H     -0.534370   -1.976089    0.813258
  H     -1.523550   -0.735933    1.591597
  H     -2.247744   -1.863513    0.451923
  H     -0.781696   -0.933024   -1.359181
  H     -2.215766    1.120340   -1.653178
  H     -2.830670    0.865903   -0.016320
  H     -3.103173   -0.349856   -1.257773
  H      0.071134    1.295123   -1.197310
  H     -1.165525    2.284292    0.609123
  H      0.545681    2.385108    0.997392
  H     -0.468802    1.185900    1.797805
  H      2.137365    1.014224   -0.284222
  H      2.877265   -0.670160    1.298796
  H      1.690757    0.390486    2.044958
  H      1.234232   -1.239604    1.554151
  H      1.541631   -0.548886   -2.153818
  H      1.289303   -1.830586   -0.962405
  H      2.880299   -1.104479   -1.150786

 Total Charge           Charge          ....    0
 Multiplicity           Mult            ....    1
 Number of Electrons    NEL             ....   66
 Basis Dimension        Dim             ....  242

ORBITAL ENERGIES
----------------

  NO   OCC          E(Eh)            E(eV)
   0   2.0000     -10.021581      -272.7011
   1   2.0000     -10.020744      -272.6783
   2   2.0000     -10.018972      -272.6301
   3   2.0000     -10.004186      -272.2277
   4   2.0000     -10.003912      -272.2203
   5   2.0000     -10.003406      -272.2065
   6   2.0000     -10.002962      -272.1944
   7   2.0000     -10.002293      -272.1762
   8   2.0000      -0.784168       -21.3383
   9   2.0000      -0.733441       -19.9579
  10   2.0000      -0.682133       -18.5618
  11   2.0000      -0.642337       -17.4789
  12   2.0000      -0.636218       -17.3124
  13   2.0000      -0.591832       -16.1046
  14   2.0000      -0.538965       -14.6660
  15   2.0000      -0.478370       -13.0171
  16   2.0000      -0.431301       -11.7363
  17   2.0000      -0.426310       -11.6005
  18   2.0000      -0.406570       -11.0633
  19   2.0000      -0.383745       -10.4422
  20   2.0000      -0.374990       -10.2040
  21   2.0000      -0.357173        -9.7192
  22   2.0000      -0.351336        -9.5603
  23   2.0000      -0.344475        -9.3736
  24   2.0000      -0.340243        -9.2585
  25   2.0000      -0.327533        -8.9126
  26   2.0000      -0.319740        -8.7006
  27   2.0000      -0.307043        -8.3551
  28   2.0000      -0.294986        -8.0270
  29   2.0000      -0.291901        -7.9430
  30   2.0000      -0.266145        -7.2422
  31   2.0000      -0.262544        -7.1442
  32   2.0000      -0.254023        -6.9123
  33   0.0000       0.082392         2.2420
  34   0.0000       0.112555         3.0628
  35   0.0000       0.116065         3.1583
  36   0.0000       0.124778         3.3954
  37   0.0000       0.130982         3.5642

MULLIKEN ATOMIC CHARGES
-----------------------
   0 C :   -0.569470
   1 C :   -0.011695
   2 C :   -0.565325
   3 C :   -0.037043
   4 C :   -0.607045
   5 C :   -0.046428
   6 C :   -0.543952
   7 C :   -0.558203
   8 H :    0.158017
   9 H :    0.174112
  10 H :    0.151531
  11 H :    0.166518
  12 H :    0.157806
  13 H :    0.167839
  14 H :    0.159697
  15 H :    0.168101
  16 H :    0.166208
  17 H :    0.162365
  18 H :    0.177787
  19 H :    0.160607
  20 H :    0.152453
  21 H :    0.164015
  22 H :    0.163690
  23 H :    0.161944
  24 H :    0.167355
  25 H :    0.159116
Sum of atomic charges:   -0.0000000

LOEWDIN ATOMIC CHARGES
----------------------
   0 C :   -0.424190
   1 C :   -0.235767
   2 C :   -0.425168
   3 C :   -0.226835
   4 C :   -0.422682
   5 C :   -0.236293
   6 C :   -0.423919
   7 C :   -0.426179
   8 H :    0.153322
   9 H :    0.156569
  10 H :    0.155557
  11 H :    0.161588
  12 H :    0.155535
  13 H :    0.155712
  14 H :    0.153977
  15 H :    0.164517
  16 H :    0.156558
  17 H :    0.158031
  18 H :    0.156558
  19 H :    0.159325
  20 H :    0.154975
  21 H :    0.157063
  22 H :    0.155580
  23 H :    0.156160
  24 H :    0.155446
  25 H :    0.154560

  Mayer bond orders larger than 0.100000
B(  0-C ,  1-C ) :   0.8663 B(  0-C ,  8-H ) :   0.9702 B(  0-C ,  9-H ) :   0.9863
B(  0-C , 10-H ) :   0.9675 B(  1-C ,  2-C ) :   0.8816 B(  1-C ,  3-C ) :   0.8592
B(  1-C , 11-H ) :   0.9660 B(  2-C , 12-H ) :   0.9759 B(  2-C , 13-H ) :   0.9831
B(  2-C , 14-H ) :   0.9719 B(  3-C ,  4-C ) :   0.8590 B(  3-C ,  5-C ) :   0.8943
B(  3-C , 15-H ) :   0.9874 B(  4-C , 16-H ) :   0.9700 B(  4-C , 17-H ) :   0.9723
B(  4-C , 18-H ) :   0.9802 B(  5-C ,  6-C ) :   0.9035 B(  5-C ,  7-C ) :   0.8688
B(  5-C , 19-H ) :   0.9783 B(  6-C , 20-H ) :   0.9716 B(  6-C , 21-H ) :   0.9683
B(  6-C , 22-H ) :   0.9790 B(  7-C , 23-H ) :   0.9769 B(  7-C , 24-H ) :   0.9786
B(  7-C , 25-H ) :   0.9707

Dispersion correction           -0.008256886
FINAL SINGLE POINT ENERGY      -315.577879868603

DIPOLE MOMENT
-------------

Method             : SCF
Type of density    : Electron Density
Multiplicity       :   1
Irrep              :   0
Energy             :  -315.5826861149355977 Eh
Relativity type    :
Basis              : AO
                                X                 Y                 Z
Electronic contribution:      0.612170648       0.693870000      -1.137514495
Nuclear contribution   :     -0.566301103      -0.666800257       1.054501162
                        -----------------------------------------
Total Dipole Moment    :      0.045869545       0.027069743      -0.083013334
                        -----------------------------------------
Magnitude (a.u.)       :      0.098630622
Magnitude (Debye)      :      0.250699119

Rotational constants in cm-1:             0.085398             0.046581             0.042742
Rotational constants in MHz :          2560.158653          1396.466554          1281.386401

                             ****ORCA TERMINATED NORMALLY****
TOTAL RUN TIME: 0 days 0 hours 0 minutes 33 seconds 705 msec
