                         Program Version 6.0.0  -   RELEASE  -
|  1> ! r2scan-3c def2/J RI DEFGRID2 scfconv6 printgap
|  2> %output
|  3>     printlevel normal
|  4> end
|  5> * xyz 0 1
|  6> C 2.2099291613 -0.658564753 -1.3689782698
|  7> C 2.3101999467 -0.1223378309 0.0563755713
|  8> C 2.2859705198 1.4036343918 0.0510398233
|  9> C 1.2031452779 -0.7041755761 0.9604725683
| 10> C -0.1842226169 -0.3458258378 0.5123626767
| 11> C -0.8038302493 0.810897126 0.9714310147
| 12> C -2.0714174028 1.1572121811 0.5378638178
| 13> C -2.7441819996 0.3473241146 -0.3611964501
| 14> C -2.1436713471 -0.8146703679 -0.8150782855
| 15> C -0.8759067175 -1.1576456515 -0.3793856925
| 16> H 2.2439471966 -1.7456170256 -1.3753554269
| 17> H 3.0378670668 -0.2874042727 -1.9686746322
| 18> H 1.2799212077 -0.3368482921 -1.8324324794
| 19> H 3.2677637099 -0.4486749249 0.4790758024
| 20> H 2.3748622901 1.7942813907 1.0621621022
| 21> H 3.1142803138 1.790033955 -0.5384376801
| 22> H 1.3574478366 1.7683531854 -0.382533429
| 23> H 1.3612370764 -0.3347282189 1.9758634217
| 24> H 1.3085759222 -1.7910058187 0.9740637382
| 25> H -0.2906762658 1.4448653034 1.6798719937
| 26> H -2.536802697 2.0606760347 0.9042547485
| 27> H -3.733313855 0.6166161961 -0.700859521
| 28> H -2.6657039252 -1.4569738004 -1.5093507726
| 29> H -0.4192580748 -2.0707439474 -0.7328182843
| 30> *
| 31>
| 32>                          ****END OF INPUT****

CARTESIAN COORDINATES (ANGSTROEM)
---------------------------------
  C      2.209929   -0.658565   -1.368978
  C      2.310200   -0.122338    0.056376
  C      2.285971    1.403634    0.051040
  C      1.203145   -0.704176    0.960473
  C     -0.184223   -0.345826    0.512363
  C     -0.803830    0.810897    0.971431
  C     -2.071417    1.157212    0.537864
  C     -2.744182    0.347324   -0.361196
  C     -2.143671   -0.814670   -0.815078
  C     -0.875907   -1.157646   -0.379386
  H      2.243947   -1.745617   -1.375355
  H      3.037867   -0.287404   -1.968675
  H      1.279921   -0.336848   -1.832432
  H      3.267764   -0.448675    0.479076
  H      2.374862    1.794281    1.062162
  H      3.114280    1.790034   -0.538438
  H      1.357448    1.768353   -0.382533
  H      1.361237   -0.334728    1.975863
  H      1.308576   -1.791006    0.974064
  H     -0.290676    1.444865    1.679872
  H     -2.536803    2.060676    0.904255
  H     -3.733314    0.616616   -0.700860
  H     -2.665704   -1.456974   -1.509351
  H     -0.419258   -2.070744   -0.732818

 Total Charge           Charge          ....    0
 Multiplicity           Mult            ....    1
 Number of Electrons    NEL             ....   74
 Basis Dimension        Dim             ....  260

ORBITAL ENERGIES
----------------

  NO   OCC          E(Eh)            E(eV)
   0   2.0000     -10.039289      -273.1829
   1   2.0000     -10.036953      -273.1194
   2   2.0000     -10.031642      -272.9749
   3   2.0000     -10.031590      -272.9734
   4   2.0000     -10.029816      -272.9252
   5   2.0000     -10.029751      -272.9234
   6   2.0000     -10.029713      -272.9224
   7   2.0000     -10.029683      -272.9215
   8   2.0000     -10.012948      -272.4662
   9   2.0000     -10.012938      -272.4659
  10   2.0000      -0.828439       -22.5430
  11   2.0000      -0.777791       -21.1648
  12   2.0000      -0.721055       -19.6209
  13   2.0000      -0.713585       -19.4176
  14   2.0000      -0.648904       -17.6576
  15   2.0000      -0.647838       -17.6286
  16   2.0000      -0.572922       -15.5900
  17   2.0000      -0.562135       -15.2965
  18   2.0000      -0.521844       -14.2001
  19   2.0000      -0.474613       -12.9149
  20   2.0000      -0.438369       -11.9286
  21   2.0000      -0.433895       -11.8069
  22   2.0000      -0.421220       -11.4620
  23   2.0000      -0.399691       -10.8762
  24   2.0000      -0.390488       -10.6257
  25   2.0000      -0.384400       -10.4601
  26   2.0000      -0.370271       -10.0756
  27   2.0000      -0.349313        -9.5053
  28   2.0000      -0.342068        -9.3081
  29   2.0000      -0.334575        -9.1042
  30   2.0000      -0.320869        -8.7313
  31   2.0000      -0.304852        -8.2955
  32   2.0000      -0.301503        -8.2043
  33   2.0000      -0.295804        -8.0492
  34   2.0000      -0.283642        -7.7183
  35   2.0000      -0.234202        -6.3729
  36   2.0000      -0.224412        -6.1066
  37   0.0000      -0.029090        -0.7916
  38   0.0000      -0.028483        -0.7751
  39   0.0000       0.074750         2.0340
  40   0.0000       0.095130         2.5886
  41   0.0000       0.110747         3.0136

MULLIKEN ATOMIC CHARGES
-----------------------
   0 C :   -0.555977
   1 C :    0.102506
   2 C :   -0.556023
   3 C :   -0.395589
   4 C :    0.146753
   5 C :   -0.208321
   6 C :   -0.161594
   7 C :   -0.150227
   8 C :   -0.161653
   9 C :   -0.208469
  10 H :    0.147685
  11 H :    0.144013
  12 H :    0.176384
  13 H :    0.146246
  14 H :    0.147700
  15 H :    0.144040
  16 H :    0.176345
  17 H :    0.164586
  18 H :    0.164520
  19 H :    0.150511
  20 H :    0.145091
  21 H :    0.145932
  22 H :    0.145079
  23 H :    0.150463
Sum of atomic charges:    0.0000000

LOEWDIN ATOMIC CHARGES
----------------------
   0 C :   -0.415621
   1 C :   -0.230628
   2 C :   -0.415665
   3 C :   -0.275200
   4 C :   -0.096120
   5 C :   -0.164626
   6 C :   -0.164351
   7 C :   -0.172987
   8 C :   -0.164351
   9 C :   -0.164603
  10 H :    0.152301
  11 H :    0.153413
  12 H :    0.162756
  13 H :    0.154993
  14 H :    0.152296
  15 H :    0.153429
  16 H :    0.162747
  17 H :    0.167010
  18 H :    0.166996
  19 H :    0.169616
  20 H :    0.166379
  21 H :    0.166233
  22 H :    0.166379
  23 H :    0.169603

  Mayer bond orders larger than 0.100000
B(  0-C ,  1-C ) :   0.9013 B(  0-C , 10-H ) :   0.9738 B(  0-C , 11-H ) :   0.9666
B(  0-C , 12-H ) :   0.9787 B(  1-C ,  2-C ) :   0.9014 B(  1-C ,  3-C ) :   0.8905
B(  1-C , 13-H ) :   0.9424 B(  2-C , 14-H ) :   0.9737 B(  2-C , 15-H ) :   0.9667
B(  2-C , 16-H ) :   0.9787 B(  3-C ,  4-C ) :   0.7572 B(  3-C , 17-H ) :   1.0009
B(  3-C , 18-H ) :   1.0008 B(  4-C ,  5-C ) :   1.3991 B(  4-C ,  9-C ) :   1.3991
B(  5-C ,  6-C ) :   1.4444 B(  5-C , 19-H ) :   0.9436 B(  6-C ,  7-C ) :   1.4243
B(  6-C , 20-H ) :   0.9475 B(  7-C ,  8-C ) :   1.4244 B(  7-C , 21-H ) :   0.9491
B(  8-C ,  9-C ) :   1.4444 B(  8-C , 22-H ) :   0.9475 B(  9-C , 23-H ) :   0.9436

Dispersion correction           -0.008600110
FINAL SINGLE POINT ENERGY      -389.380922503052

DIPOLE MOMENT
-------------

Method             : SCF
Type of density    : Electron Density
Multiplicity       :   1
Irrep              :   0
Energy             :  -389.3805721260794144 Eh
Relativity type    :
Basis              : AO
                                X                 Y                 Z
Electronic contribution:     -8.932106662      -0.949620626       1.847489838
Nuclear contribution   :      9.100354981       0.940821421      -1.843657311
                        -----------------------------------------
Total Dipole Moment    :      0.168248319      -0.008799204       0.003832528
                        -----------------------------------------
Magnitude (a.u.)       :      0.168521842
Magnitude (Debye)      :      0.428348480

Rotational constants in cm-1:             0.083828             0.030512             0.026525
Rotational constants in MHz :          2513.098450           914.733263           795.201162

                             ****ORCA TERMINATED NORMALLY****
TOTAL RUN TIME: 0 days 0 hours 0 minutes 32 seconds 306 msec
