                         Program Version 6.0.0  -   RELEASE  -
|  1> ! r2scan-3c def2/J RI DEFGRID2 scfconv6 printgap
|  2> %output
|  3>     printlevel normal
|  4> end
|  5> %cpcm
|  6>     smd true
|  7>     smdsolvent "water"
|  8> end
|  9> * xyz 0 1
| 10> C 2.2099291613 -0.658564753 -1.3689782698
| 11> C 2.3101999467 -0.1223378309 0.0563755713
| 12> C 2.2859705198 1.4036343918 0.0510398233
| 13> C 1.2031452779 -0.7041755761 0.9604725683
| 14> C -0.1842226169 -0.3458258378 0.5123626767
| 15> C -0.8038302493 0.810897126 0.9714310147
| 16> C -2.0714174028 1.1572121811 0.5378638178
| 17> C -2.7441819996 0.3473241146 -0.3611964501
| 18> C -2.1436713471 -0.8146703679 -0.8150782855
| 19> C -0.8759067175 -1.1576456515 -0.3793856925
| 20> H 2.2439471966 -1.7456170256 -1.3753554269
| 21> H 3.0378670668 -0.2874042727 -1.9686746322
| 22> H 1.2799212077 -0.3368482921 -1.8324324794
| 23> H 3.2677637099 -0.4486749249 0.4790758024
| 24> H 2.3748622901 1.7942813907 1.0621621022
| 25> H 3.1142803138 1.790033955 -0.5384376801
| 26> H 1.3574478366 1.7683531854 -0.382533429
| 27> H 1.3612370764 -0.3347282189 1.9758634217
| 28> H 1.3085759222 -1.7910058187 0.9740637382
| 29> H -0.2906762658 1.4448653034 1.6798719937
| 30> H -2.536802697 2.0606760347 0.9042547485
| 31> H -3.733313855 0.6166161961 -0.700859521
| 32> H -2.6657039252 -1.4569738004 -1.5093507726
| 33> H -0.4192580748 -2.0707439474 -0.7328182843
| 34> *
| 35>
| 36>                          ****END OF INPUT****

CARTESIAN COORDINATES (ANGSTROEM)
---------------------------------
  C      2.209929   -0.658565   -1.368978
  C      2.310200   -0.122338    0.056376
  C      2.285971    1.403634    0.051040
  C      1.203145   -0.704176    0.960473
  C     -0.184223   -0.345826    0.512363
  C     -0.803830    0.810897    0.971431
  C     -2.071417    1.157212    0.537864
  C     -2.744182    0.347324   -0.361196
  C     -2.143671   -0.814670   -0.815078
  C     -0.875907   -1.157646   -0.379386
  H      2.243947   -1.745617   -1.375355
  H      3.037867   -0.287404   -1.968675
  H      1.279921   -0.336848   -1.832432
  H      3.267764   -0.448675    0.479076
  H      2.374862    1.794281    1.062162
  H      3.114280    1.790034   -0.538438
  H      1.357448    1.768353   -0.382533
  H      1.361237   -0.334728    1.975863
  H      1.308576   -1.791006    0.974064
  H     -0.290676    1.444865    1.679872
  H     -2.536803    2.060676    0.904255
  H     -3.733314    0.616616   -0.700860
  H     -2.665704   -1.456974   -1.509351
  H     -0.419258   -2.070744   -0.732818

 Total Charge           Charge          ....    0
 Multiplicity           Mult            ....    1
 Number of Electrons    NEL             ....   74
 Basis Dimension        Dim             ....  260

ORBITAL ENERGIES
----------------

  NO   OCC          E(Eh)            E(eV)
   0   2.0000     -10.037797      -273.1423
   1   2.0000     -10.029758      -272.9236
   2   2.0000     -10.029701      -272.9220
   3   2.0000     -10.029700      -272.9220
   4   2.0000     -10.028016      -272.8762
   5   2.0000     -10.027401      -272.8595
   6   2.0000     -10.027383      -272.8590
   7   2.0000     -10.021502      -272.6989
   8   2.0000     -10.005706      -272.2691
   9   2.0000     -10.005690      -272.2687
  10   2.0000      -0.827808       -22.5258
  11   2.0000      -0.771942       -21.0056
  12   2.0000      -0.717969       -19.5369
  13   2.0000      -0.712411       -19.3857
  14   2.0000      -0.642531       -17.4842
  15   2.0000      -0.642153       -17.4739
  16   2.0000      -0.570120       -15.5138
  17   2.0000      -0.558400       -15.1948
  18   2.0000      -0.516213       -14.0469
  19   2.0000      -0.470066       -12.7911
  20   2.0000      -0.431882       -11.7521
  21   2.0000      -0.430030       -11.7017
  22   2.0000      -0.415582       -11.3086
  23   2.0000      -0.392943       -10.6925
  24   2.0000      -0.385743       -10.4966
  25   2.0000      -0.379154       -10.3173
  26   2.0000      -0.365436        -9.9440
  27   2.0000      -0.343614        -9.3502
  28   2.0000      -0.343312        -9.3420
  29   2.0000      -0.326905        -8.8955
  30   2.0000      -0.315876        -8.5954
  31   2.0000      -0.299920        -8.1612
  32   2.0000      -0.295718        -8.0469
  33   2.0000      -0.288121        -7.8402
  34   2.0000      -0.277389        -7.5481
  35   2.0000      -0.236303        -6.4301
  36   2.0000      -0.225209        -6.1282
  37   0.0000      -0.030065        -0.8181
  38   0.0000      -0.029221        -0.7951
  39   0.0000       0.084279         2.2933
  40   0.0000       0.102988         2.8024
  41   0.0000       0.113501         3.0885

MULLIKEN ATOMIC CHARGES
-----------------------
   0 C :   -0.584790
   1 C :    0.098397
   2 C :   -0.584636
   3 C :   -0.360103
   4 C :    0.096911
   5 C :   -0.228714
   6 C :   -0.201092
   7 C :   -0.186931
   8 C :   -0.201036
   9 C :   -0.228981
  10 H :    0.162335
  11 H :    0.156622
  12 H :    0.172419
  13 H :    0.157389
  14 H :    0.162345
  15 H :    0.156611
  16 H :    0.172360
  17 H :    0.176080
  18 H :    0.176050
  19 H :    0.179577
  20 H :    0.176099
  21 H :    0.177522
  22 H :    0.176145
  23 H :    0.179419
Sum of atomic charges:    0.0000000

LOEWDIN ATOMIC CHARGES
----------------------
   0 C :   -0.422142
   1 C :   -0.227020
   2 C :   -0.422133
   3 C :   -0.276189
   4 C :   -0.102293
   5 C :   -0.172614
   6 C :   -0.177498
   7 C :   -0.187648
   8 C :   -0.177475
   9 C :   -0.172602
  10 H :    0.156956
  11 H :    0.156035
  12 H :    0.160247
  13 H :    0.159360
  14 H :    0.156966
  15 H :    0.156030
  16 H :    0.160238
  17 H :    0.172087
  18 H :    0.172041
  19 H :    0.179512
  20 H :    0.176350
  21 H :    0.175950
  22 H :    0.176373
  23 H :    0.179468

  Mayer bond orders larger than 0.100000
B(  0-C ,  1-C ) :   0.9008 B(  0-C , 10-H ) :   0.9691 B(  0-C , 11-H ) :   0.9661
B(  0-C , 12-H ) :   0.9784 B(  1-C ,  2-C ) :   0.9011 B(  1-C ,  3-C ) :   0.8961
B(  1-C , 13-H ) :   0.9425 B(  2-C , 14-H ) :   0.9691 B(  2-C , 15-H ) :   0.9662
B(  2-C , 16-H ) :   0.9784 B(  3-C ,  4-C ) :   0.7714 B(  3-C , 17-H ) :   0.9926
B(  3-C , 18-H ) :   0.9927 B(  4-C ,  5-C ) :   1.3719 B(  4-C ,  9-C ) :   1.3715
B(  5-C ,  6-C ) :   1.4093 B(  5-C , 19-H ) :   0.9512 B(  6-C ,  7-C ) :   1.3841
B(  6-C , 20-H ) :   0.9576 B(  7-C ,  8-C ) :   1.3842 B(  7-C , 21-H ) :   0.9566
B(  8-C ,  9-C ) :   1.4095 B(  8-C , 22-H ) :   0.9576 B(  9-C , 23-H ) :   0.9513

Dispersion correction           -0.008600110
FINAL SINGLE POINT ENERGY      -389.381388319888

DIPOLE MOMENT
-------------

Method             : SCF
Type of density    : Electron Density
Multiplicity       :   1
Irrep              :   0
Energy             :  -389.3810379429157251 Eh
Relativity type    :
Basis              : AO
                                X                 Y                 Z
Electronic contribution:     -8.786694019      -0.984090258       1.890605526
Nuclear contribution   :      9.100354981       0.940821421      -1.843657311
                        -----------------------------------------
Total Dipole Moment    :      0.313660962      -0.043268837       0.046948215
                        -----------------------------------------
Magnitude (a.u.)       :      0.320092996
Magnitude (Debye)      :      0.813611737

Rotational constants in cm-1:             0.083828             0.030512             0.026525
Rotational constants in MHz :          2513.098450           914.733263           795.201162

                             ****ORCA TERMINATED NORMALLY****
TOTAL RUN TIME: 0 days 0 hours 0 minutes 39 seconds 840 msec
