                         Program Version 6.0.0  -   RELEASE  -
|  1> ! r2scan-3c def2/J RI DEFGRID2 scfconv6 printgap
|  2> %output
|  3>     printlevel normal
|  4> end
|  5> * xyz 0 1
|  6> C 1.4809656239 -0.5465183814 -1.152244216
|  7> C 1.092097298 -0.1083704432 0.2621366549
|  8> C 2.2237545767 0.7012353371 0.8959313441
|  9> O -0.0467034583 0.7490886724 0.299838691
| 10> C -1.3630375197 0.2271114525 0.1309524348
| 11> C -1.753940543 0.0395349912 -1.3392785975
| 12> C -1.6510317261 -1.0386854836 0.9383069639
| 13> H 1.4949795766 0.3167993292 -1.8124486467
| 14> H 2.4721958478 -0.9904138937 -1.1302243933
| 15> H 0.7862007342 -1.2809647413 -1.5482702363
| 16> H 0.9060308599 -0.9979475003 0.8801929607
| 17> H 1.9236238752 1.0434565019 1.8824107018
| 18> H 2.4374656005 1.5708617641 0.2807994145
| 19> H 3.1176208454 0.0916570975 0.9835743788
| 20> H -1.9713356127 1.0460721412 0.5388805489
| 21> H -1.404266154 0.8868013038 -1.9230356162
| 22> H -1.3303881074 -0.8717627234 -1.751273138
| 23> H -2.8359268153 -0.0178902966 -1.4173459642
| 24> H -2.7212589792 -1.2220219669 0.9303706737
| 25> H -1.3254299627 -0.914723499 1.9685388932
| 26> H -1.1514385776 -1.9029797304 0.5065713558
| 27> *
| 28>
| 29>                          ****END OF INPUT****

CARTESIAN COORDINATES (ANGSTROEM)
---------------------------------
  C      1.480966   -0.546518   -1.152244
  C      1.092097   -0.108370    0.262137
  C      2.223755    0.701235    0.895931
  O     -0.046703    0.749089    0.299839
  C     -1.363038    0.227111    0.130952
  C     -1.753941    0.039535   -1.339279
  C     -1.651032   -1.038685    0.938307
  H      1.494980    0.316799   -1.812449
  H      2.472196   -0.990414   -1.130224
  H      0.786201   -1.280965   -1.548270
  H      0.906031   -0.997948    0.880193
  H      1.923624    1.043457    1.882411
  H      2.437466    1.570862    0.280799
  H      3.117621    0.091657    0.983574
  H     -1.971336    1.046072    0.538881
  H     -1.404266    0.886801   -1.923036
  H     -1.330388   -0.871763   -1.751273
  H     -2.835927   -0.017890   -1.417346
  H     -2.721259   -1.222022    0.930371
  H     -1.325430   -0.914723    1.968539
  H     -1.151439   -1.902980    0.506571

 Total Charge           Charge          ....    0
 Multiplicity           Mult            ....    1
 Number of Electrons    NEL             ....   58
 Basis Dimension        Dim             ....  208

ORBITAL ENERGIES
----------------

  NO   OCC          E(Eh)            E(eV)
   0   2.0000     -18.938089      -515.3316
   1   2.0000     -10.080081      -274.2929
   2   2.0000     -10.077939      -274.2347
   3   2.0000     -10.020472      -272.6709
   4   2.0000     -10.014559      -272.5100
   5   2.0000     -10.014369      -272.5048
   6   2.0000     -10.011927      -272.4384
   7   2.0000      -0.982367       -26.7316
   8   2.0000      -0.759398       -20.6643
   9   2.0000      -0.717986       -19.5374
  10   2.0000      -0.657103       -17.8807
  11   2.0000      -0.649311       -17.6686
  12   2.0000      -0.580810       -15.8046
  13   2.0000      -0.514001       -13.9867
  14   2.0000      -0.461139       -12.5482
  15   2.0000      -0.434512       -11.8237
  16   2.0000      -0.418409       -11.3855
  17   2.0000      -0.388856       -10.5813
  18   2.0000      -0.386546       -10.5185
  19   2.0000      -0.371059       -10.0970
  20   2.0000      -0.359673        -9.7872
  21   2.0000      -0.355316        -9.6686
  22   2.0000      -0.348001        -9.4696
  23   2.0000      -0.331397        -9.0178
  24   2.0000      -0.325070        -8.8456
  25   2.0000      -0.307458        -8.3664
  26   2.0000      -0.296043        -8.0557
  27   2.0000      -0.258638        -7.0379
  28   2.0000      -0.213069        -5.7979
  29   0.0000       0.078176         2.1273
  30   0.0000       0.097150         2.6436
  31   0.0000       0.115603         3.1457
  32   0.0000       0.121119         3.2958
  33   0.0000       0.131096         3.5673

MULLIKEN ATOMIC CHARGES
-----------------------
   0 C :   -0.448025
   1 C :   -0.019544
   2 C :   -0.464415
   3 O :   -0.198996
   4 C :    0.007775
   5 C :   -0.461125
   6 C :   -0.492006
   7 H :    0.166640
   8 H :    0.141222
   9 H :    0.135999
  10 H :    0.140305
  11 H :    0.154375
  12 H :    0.150357
  13 H :    0.137905
  14 H :    0.146155
  15 H :    0.160240
  16 H :    0.138252
  17 H :    0.141717
  18 H :    0.148576
  19 H :    0.161333
  20 H :    0.153259
Sum of atomic charges:   -0.0000000

LOEWDIN ATOMIC CHARGES
----------------------
   0 C :   -0.400121
   1 C :    0.057234
   2 C :   -0.380420
   3 O :   -0.768121
   4 C :    0.052573
   5 C :   -0.400564
   6 C :   -0.402559
   7 H :    0.163322
   8 H :    0.157005
   9 H :    0.151057
  10 H :    0.165100
  11 H :    0.161953
  12 H :    0.161016
  13 H :    0.153615
  14 H :    0.182327
  15 H :    0.163655
  16 H :    0.151087
  17 H :    0.156006
  18 H :    0.160727
  19 H :    0.161205
  20 H :    0.153902

  Mayer bond orders larger than 0.100000
B(  0-C ,  1-C ) :   0.8744 B(  0-C ,  7-H ) :   0.9833 B(  0-C ,  8-H ) :   0.9669
B(  0-C ,  9-H ) :   0.9656 B(  1-C ,  2-C ) :   0.9539 B(  1-C ,  3-O ) :   0.8443
B(  1-C , 10-H ) :   0.9562 B(  2-C , 11-H ) :   0.9728 B(  2-C , 12-H ) :   0.9794
B(  2-C , 13-H ) :   0.9723 B(  3-O ,  4-C ) :   0.9404 B(  4-C ,  5-C ) :   0.9368
B(  4-C ,  6-C ) :   0.9064 B(  4-C , 14-H ) :   0.9547 B(  5-C , 15-H ) :   0.9716
B(  5-C , 16-H ) :   0.9747 B(  5-C , 17-H ) :   0.9630 B(  6-C , 18-H ) :   0.9610
B(  6-C , 19-H ) :   0.9706 B(  6-C , 20-H ) :   0.9747

Dispersion correction           -0.005574509
FINAL SINGLE POINT ENERGY      -312.189916078753

DIPOLE MOMENT
-------------

Method             : SCF
Type of density    : Electron Density
Multiplicity       :   1
Irrep              :   0
Energy             :  -312.1966140361944326 Eh
Relativity type    :
Basis              : AO
                                X                 Y                 Z
Electronic contribution:     -0.474799350       2.583516288       1.464487528
Nuclear contribution   :      0.372764585      -3.031400066      -1.507174684
                        -----------------------------------------
Total Dipole Moment    :     -0.102034765      -0.447883778      -0.042687156
                        -----------------------------------------
Magnitude (a.u.)       :      0.461338449
Magnitude (Debye)      :      1.172629148

Rotational constants in cm-1:             0.131199             0.056628             0.049656
Rotational constants in MHz :          3933.244976          1697.662951          1488.641795

                             ****ORCA TERMINATED NORMALLY****
TOTAL RUN TIME: 0 days 0 hours 0 minutes 23 seconds 538 msec
