                         Program Version 6.0.0  -   RELEASE  -
|  1> ! r2scan-3c def2/J RI DEFGRID2 scfconv6 printgap
|  2> %output
|  3>     printlevel normal
|  4> end
|  5> %cpcm
|  6>     smd true
|  7>     smdsolvent "water"
|  8> end
|  9> * xyz 0 1
| 10> C 1.4809656239 -0.5465183814 -1.152244216
| 11> C 1.092097298 -0.1083704432 0.2621366549
| 12> C 2.2237545767 0.7012353371 0.8959313441
| 13> O -0.0467034583 0.7490886724 0.299838691
| 14> C -1.3630375197 0.2271114525 0.1309524348
| 15> C -1.753940543 0.0395349912 -1.3392785975
| 16> C -1.6510317261 -1.0386854836 0.9383069639
| 17> H 1.4949795766 0.3167993292 -1.8124486467
| 18> H 2.4721958478 -0.9904138937 -1.1302243933
| 19> H 0.7862007342 -1.2809647413 -1.5482702363
| 20> H 0.9060308599 -0.9979475003 0.8801929607
| 21> H 1.9236238752 1.0434565019 1.8824107018
| 22> H 2.4374656005 1.5708617641 0.2807994145
| 23> H 3.1176208454 0.0916570975 0.9835743788
| 24> H -1.9713356127 1.0460721412 0.5388805489
| 25> H -1.404266154 0.8868013038 -1.9230356162
| 26> H -1.3303881074 -0.8717627234 -1.751273138
| 27> H -2.8359268153 -0.0178902966 -1.4173459642
| 28> H -2.7212589792 -1.2220219669 0.9303706737
| 29> H -1.3254299627 -0.914723499 1.9685388932
| 30> H -1.1514385776 -1.9029797304 0.5065713558
| 31> *
| 32>
| 33>                          ****END OF INPUT****

CARTESIAN COORDINATES (ANGSTROEM)
---------------------------------
  C      1.480966   -0.546518   -1.152244
  C      1.092097   -0.108370    0.262137
  C      2.223755    0.701235    0.895931
  O     -0.046703    0.749089    0.299839
  C     -1.363038    0.227111    0.130952
  C     -1.753941    0.039535   -1.339279
  C     -1.651032   -1.038685    0.938307
  H      1.494980    0.316799   -1.812449
  H      2.472196   -0.990414   -1.130224
  H      0.786201   -1.280965   -1.548270
  H      0.906031   -0.997948    0.880193
  H      1.923624    1.043457    1.882411
  H      2.437466    1.570862    0.280799
  H      3.117621    0.091657    0.983574
  H     -1.971336    1.046072    0.538881
  H     -1.404266    0.886801   -1.923036
  H     -1.330388   -0.871763   -1.751273
  H     -2.835927   -0.017890   -1.417346
  H     -2.721259   -1.222022    0.930371
  H     -1.325430   -0.914723    1.968539
  H     -1.151439   -1.902980    0.506571

 Total Charge           Charge          ....    0
 Multiplicity           Mult            ....    1
 Number of Electrons    NEL             ....   58
 Basis Dimension        Dim             ....  208

ORBITAL ENERGIES
----------------

  NO   OCC          E(Eh)            E(eV)
   0   2.0000     -18.946118      -515.5501
   1   2.0000     -10.076889      -274.2061
   2   2.0000     -10.075261      -274.1618
   3   2.0000     -10.011000      -272.4132
   4   2.0000     -10.009215      -272.3646
   5   2.0000     -10.007720      -272.3239
   6   2.0000     -10.007451      -272.3166
   7   2.0000      -0.988845       -26.9078
   8   2.0000      -0.756081       -20.5740
   9   2.0000      -0.713239       -19.4082
  10   2.0000      -0.650717       -17.7069
  11   2.0000      -0.644671       -17.5424
  12   2.0000      -0.579217       -15.7613
  13   2.0000      -0.510350       -13.8873
  14   2.0000      -0.457852       -12.4588
  15   2.0000      -0.431158       -11.7324
  16   2.0000      -0.416449       -11.3321
  17   2.0000      -0.383604       -10.4384
  18   2.0000      -0.381253       -10.3744
  19   2.0000      -0.365564        -9.9475
  20   2.0000      -0.352679        -9.5969
  21   2.0000      -0.351664        -9.5693
  22   2.0000      -0.342343        -9.3156
  23   2.0000      -0.327424        -8.9097
  24   2.0000      -0.320738        -8.7277
  25   2.0000      -0.302671        -8.2361
  26   2.0000      -0.290954        -7.9173
  27   2.0000      -0.262808        -7.1514
  28   2.0000      -0.218844        -5.9550
  29   0.0000       0.084506         2.2995
  30   0.0000       0.101286         2.7561
  31   0.0000       0.122591         3.3359
  32   0.0000       0.128650         3.5007
  33   0.0000       0.136090         3.7032

MULLIKEN ATOMIC CHARGES
-----------------------
   0 C :   -0.497801
   1 C :    0.010156
   2 C :   -0.511490
   3 O :   -0.275692
   4 C :    0.030515
   5 C :   -0.509749
   6 C :   -0.523871
   7 H :    0.170989
   8 H :    0.160126
   9 H :    0.159877
  10 H :    0.158447
  11 H :    0.160338
  12 H :    0.160395
  13 H :    0.161967
  14 H :    0.155742
  15 H :    0.161022
  16 H :    0.162502
  17 H :    0.161341
  18 H :    0.167407
  19 H :    0.166109
  20 H :    0.171670
Sum of atomic charges:   -0.0000000

LOEWDIN ATOMIC CHARGES
----------------------
   0 C :   -0.405115
   1 C :    0.059005
   2 C :   -0.389533
   3 O :   -0.808821
   4 C :    0.053290
   5 C :   -0.406342
   6 C :   -0.405256
   7 H :    0.163039
   8 H :    0.163514
   9 H :    0.158181
  10 H :    0.173779
  11 H :    0.161323
  12 H :    0.161591
  13 H :    0.162890
  14 H :    0.185529
  15 H :    0.162196
  16 H :    0.157951
  17 H :    0.162800
  18 H :    0.167021
  19 H :    0.162559
  20 H :    0.160399

  Mayer bond orders larger than 0.100000
B(  0-C ,  1-C ) :   0.8702 B(  0-C ,  7-H ) :   0.9793 B(  0-C ,  8-H ) :   0.9628
B(  0-C ,  9-H ) :   0.9635 B(  1-C ,  2-C ) :   0.9398 B(  1-C ,  3-O ) :   0.8369
B(  1-C , 10-H ) :   0.9526 B(  2-C , 11-H ) :   0.9725 B(  2-C , 12-H ) :   0.9764
B(  2-C , 13-H ) :   0.9664 B(  3-O ,  4-C ) :   0.9292 B(  4-C ,  5-C ) :   0.9273
B(  4-C ,  6-C ) :   0.9082 B(  4-C , 14-H ) :   0.9520 B(  5-C , 15-H ) :   0.9685
B(  5-C , 16-H ) :   0.9737 B(  5-C , 17-H ) :   0.9588 B(  6-C , 18-H ) :   0.9573
B(  6-C , 19-H ) :   0.9656 B(  6-C , 20-H ) :   0.9698

Dispersion correction           -0.005574509
FINAL SINGLE POINT ENERGY      -312.192112174689

DIPOLE MOMENT
-------------

Method             : SCF
Type of density    : Electron Density
Multiplicity       :   1
Irrep              :   0
Energy             :  -312.1988101321302338 Eh
Relativity type    :
Basis              : AO
                                X                 Y                 Z
Electronic contribution:     -0.502270169       2.259014984       1.422415305
Nuclear contribution   :      0.372764585      -3.031400066      -1.507174684
                        -----------------------------------------
Total Dipole Moment    :     -0.129505584      -0.772385082      -0.084759379
                        -----------------------------------------
Magnitude (a.u.)       :      0.787740162
Magnitude (Debye)      :      2.002276369

Rotational constants in cm-1:             0.131199             0.056628             0.049656
Rotational constants in MHz :          3933.244976          1697.662951          1488.641795

                             ****ORCA TERMINATED NORMALLY****
TOTAL RUN TIME: 0 days 0 hours 0 minutes 28 seconds 450 msec
