                         Program Version 6.0.0  -   RELEASE  -
|  1> ! pbe def2-sv(p) def2/J RI DEFGRID1 loosescf d4 GCP(DFT/SV(P)) printgap
|  2> %output
|  3>     printlevel normal
|  4> end
|  5> * xyz 0 1
|  6> C -1.4432292907 0.3911326284 -0.2042119347
|  7> C 0.0142741708 0.3711435632 0.2773312605
|  8> C 0.8069107453 -0.7258231002 -0.437803711
|  9> O 2.0747218809 -0.8241689192 0.1790736982
| 10> O 0.5537891266 1.6505722843 0.032385016
| 11> O -2.1376916806 -0.7925157991 0.0955035724
| 12> H -1.4562764246 0.4887621176 -1.2920581454
| 13> H -1.9355329129 1.2706494163 0.2258410561
| 14> H 0.0437730641 0.1590419757 1.3588543963
| 15> H 0.9080649048 -0.4560061219 -1.4967061175
| 16> H 0.249961803 -1.6661703773 -0.3571229774
| 17> H 2.5822277645 -1.5316810007 -0.2396185402
| 18> H 1.5032564979 1.616772701 0.2222511519
| 19> H -2.2740747814 -0.8536573548 1.051657092
| 20> *
| 21>
| 22>                          ****END OF INPUT****

CARTESIAN COORDINATES (ANGSTROEM)
---------------------------------
  C     -1.443229    0.391133   -0.204212
  C      0.014274    0.371144    0.277331
  C      0.806911   -0.725823   -0.437804
  O      2.074722   -0.824169    0.179074
  O      0.553789    1.650572    0.032385
  O     -2.137692   -0.792516    0.095504
  H     -1.456276    0.488762   -1.292058
  H     -1.935533    1.270649    0.225841
  H      0.043773    0.159042    1.358854
  H      0.908065   -0.456006   -1.496706
  H      0.249962   -1.666170   -0.357123
  H      2.582228   -1.531681   -0.239619
  H      1.503256    1.616773    0.222251
  H     -2.274075   -0.853657    1.051657

 Total Charge           Charge          ....    0
 Multiplicity           Mult            ....    1
 Number of Electrons    NEL             ....   50
 Basis Dimension        Dim             ....  100

ORBITAL ENERGIES
----------------

  NO   OCC          E(Eh)            E(eV)
   0   2.0000     -18.752294      -510.2759
   1   2.0000     -18.750422      -510.2249
   2   2.0000     -18.742545      -510.0106
   3   2.0000      -9.934220      -270.3239
   4   2.0000      -9.928391      -270.1653
   5   2.0000      -9.927440      -270.1394
   6   2.0000      -0.935560       -25.4579
   7   2.0000      -0.924754       -25.1638
   8   2.0000      -0.911017       -24.7900
   9   2.0000      -0.678320       -18.4580
  10   2.0000      -0.605219       -16.4688
  11   2.0000      -0.536699       -14.6043
  12   2.0000      -0.477200       -12.9853
  13   2.0000      -0.461183       -12.5494
  14   2.0000      -0.442495       -12.0409
  15   2.0000      -0.409003       -11.1295
  16   2.0000      -0.388257       -10.5650
  17   2.0000      -0.367944       -10.0123
  18   2.0000      -0.342519        -9.3204
  19   2.0000      -0.304359        -8.2820
  20   2.0000      -0.283985        -7.7276
  21   2.0000      -0.275046        -7.4844
  22   2.0000      -0.225039        -6.1236
  23   2.0000      -0.217834        -5.9276
  24   2.0000      -0.213412        -5.8072
  25   0.0000       0.016837         0.4582
  26   0.0000       0.028505         0.7757
  27   0.0000       0.058270         1.5856
  28   0.0000       0.072432         1.9710
  29   0.0000       0.103923         2.8279

MULLIKEN ATOMIC CHARGES
-----------------------
   0 C :    0.033871
   1 C :   -0.007875
   2 C :    0.003214
   3 O :   -0.443449
   4 O :   -0.432993
   5 O :   -0.430878
   6 H :    0.085902
   7 H :    0.089449
   8 H :    0.051707
   9 H :    0.068679
  10 H :    0.075389
  11 H :    0.304450
  12 H :    0.304750
  13 H :    0.297783
Sum of atomic charges:   -0.0000000

LOEWDIN ATOMIC CHARGES
----------------------
   0 C :   -0.125453
   1 C :   -0.088124
   2 C :   -0.143695
   3 O :   -0.353041
   4 O :   -0.330381
   5 O :   -0.331609
   6 H :    0.115582
   7 H :    0.103629
   8 H :    0.094035
   9 H :    0.098105
  10 H :    0.100959
  11 H :    0.288826
  12 H :    0.286476
  13 H :    0.284693

  Mayer bond orders larger than 0.100000
B(  0-C ,  1-C ) :   1.0254 B(  0-C ,  5-O ) :   1.0640 B(  0-C ,  6-H ) :   0.9173
B(  0-C ,  7-H ) :   0.9248 B(  1-C ,  2-C ) :   1.0641 B(  1-C ,  4-O ) :   1.0631
B(  1-C ,  8-H ) :   0.8959 B(  2-C ,  3-O ) :   1.0770 B(  2-C ,  9-H ) :   0.9077
B(  2-C , 10-H ) :   0.9058 B(  3-O , 11-H ) :   0.8508 B(  4-O , 12-H ) :   0.8413
B(  5-O , 13-H ) :   0.8516

Dispersion correction           -0.008989407
FINAL SINGLE POINT ENERGY      -344.008742769706

DIPOLE MOMENT
-------------

Method             : SCF
Type of density    : Electron Density
Multiplicity       :   1
Irrep              :   0
Energy             :  -344.0818855728368817 Eh
Relativity type    :
Basis              : AO
                                X                 Y                 Z
Electronic contribution:      0.770378036       0.419250253       0.700550366
Nuclear contribution   :     -0.347903198      -0.911672044      -0.489766708
                        -----------------------------------------
Total Dipole Moment    :      0.422474838      -0.492421791       0.210783658
                        -----------------------------------------
Magnitude (a.u.)       :      0.682197889
Magnitude (Debye)      :      1.734009229

Rotational constants in cm-1:             0.174711             0.079384             0.058988
Rotational constants in MHz :          5237.717140          2379.867140          1768.403256

                             ****ORCA TERMINATED NORMALLY****
TOTAL RUN TIME: 0 days 0 hours 0 minutes 6 seconds 756 msec
