                         Program Version 6.0.0  -   RELEASE  -
|  1> ! pbe def2-sv(p) def2/J RI DEFGRID1 loosescf d4 GCP(DFT/SV(P)) printgap
|  2> %output
|  3>     printlevel normal
|  4> end
|  5> * xyz 0 1
|  6> C -3.2280305127 0.4787680425 0.0772107097
|  7> C -1.893587167 -0.2387299639 0.2317107207
|  8> C -0.7322547456 0.6276177997 -0.265703878
|  9> C 0.5644833252 -0.1365803534 -0.2319650196
| 10> O 0.7276577915 -1.2464942226 -0.6948837612
| 11> O 1.521998941 0.5586831232 0.3700263959
| 12> C 2.8308642842 -0.0102069794 0.4836835824
| 13> H -4.0350364459 -0.1462365194 0.4494134473
| 14> H -3.2259150731 1.4100967707 0.6376263352
| 15> H -3.421170324 0.7046834825 -0.9682781591
| 16> H -1.8997728869 -1.171382244 -0.3355665103
| 17> H -1.7300482032 -0.4895752033 1.2815875558
| 18> H -0.6250305329 1.530089987 0.3347627703
| 19> H -0.9189349656 0.9108631029 -1.3039188865
| 20> H 3.5384905409 0.751507744 0.1651277502
| 21> H 2.904116645 -0.8980446583 -0.1452936274
| 22> H 3.0001487889 -0.2741794596 1.5266121978
| 23> *
| 24>
| 25>                          ****END OF INPUT****

CARTESIAN COORDINATES (ANGSTROEM)
---------------------------------
  C     -3.228031    0.478768    0.077211
  C     -1.893587   -0.238730    0.231711
  C     -0.732255    0.627618   -0.265704
  C      0.564483   -0.136580   -0.231965
  O      0.727658   -1.246494   -0.694884
  O      1.521999    0.558683    0.370026
  C      2.830864   -0.010207    0.483684
  H     -4.035036   -0.146237    0.449413
  H     -3.225915    1.410097    0.637626
  H     -3.421170    0.704683   -0.968278
  H     -1.899773   -1.171382   -0.335567
  H     -1.730048   -0.489575    1.281588
  H     -0.625031    1.530090    0.334763
  H     -0.918935    0.910863   -1.303919
  H      3.538491    0.751508    0.165128
  H      2.904117   -0.898045   -0.145294
  H      3.000149   -0.274179    1.526612

 Total Charge           Charge          ....    0
 Multiplicity           Mult            ....    1
 Number of Electrons    NEL             ....   56
 Basis Dimension        Dim             ....  118

ORBITAL ENERGIES
----------------

  NO   OCC          E(Eh)            E(eV)
   0   2.0000     -18.799311      -511.5553
   1   2.0000     -18.730882      -509.6932
   2   2.0000     -10.004870      -272.2463
   3   2.0000      -9.939554      -270.4690
   4   2.0000      -9.896546      -269.2987
   5   2.0000      -9.890650      -269.1383
   6   2.0000      -9.878272      -268.8014
   7   2.0000      -1.003984       -27.3198
   8   2.0000      -0.908289       -24.7158
   9   2.0000      -0.724284       -19.7088
  10   2.0000      -0.673928       -18.3385
  11   2.0000      -0.620384       -16.8815
  12   2.0000      -0.536047       -14.5866
  13   2.0000      -0.502801       -13.6819
  14   2.0000      -0.448609       -12.2073
  15   2.0000      -0.437809       -11.9134
  16   2.0000      -0.423611       -11.5270
  17   2.0000      -0.404465       -11.0061
  18   2.0000      -0.381260       -10.3746
  19   2.0000      -0.372965       -10.1489
  20   2.0000      -0.355693        -9.6789
  21   2.0000      -0.333590        -9.0775
  22   2.0000      -0.317565        -8.6414
  23   2.0000      -0.300912        -8.1882
  24   2.0000      -0.294784        -8.0215
  25   2.0000      -0.290780        -7.9125
  26   2.0000      -0.254988        -6.9386
  27   2.0000      -0.219109        -5.9623
  28   0.0000      -0.018330        -0.4988
  29   0.0000       0.041899         1.1401
  30   0.0000       0.059045         1.6067
  31   0.0000       0.078344         2.1319
  32   0.0000       0.083592         2.2747

MULLIKEN ATOMIC CHARGES
-----------------------
   0 C :   -0.252363
   1 C :   -0.223444
   2 C :   -0.149655
   3 C :    0.111739
   4 O :   -0.206154
   5 O :   -0.237495
   6 C :   -0.130764
   7 H :    0.106545
   8 H :    0.097776
   9 H :    0.098847
  10 H :    0.110515
  11 H :    0.093363
  12 H :    0.094392
  13 H :    0.109672
  14 H :    0.122256
  15 H :    0.133009
  16 H :    0.121761
Sum of atomic charges:    0.0000000

LOEWDIN ATOMIC CHARGES
----------------------
   0 C :   -0.339670
   1 C :   -0.227730
   2 C :   -0.246423
   3 C :    0.036996
   4 O :   -0.172413
   5 O :   -0.073858
   6 C :   -0.209516
   7 H :    0.121633
   8 H :    0.117082
   9 H :    0.118094
  10 H :    0.124571
  11 H :    0.118315
  12 H :    0.127284
  13 H :    0.140782
  14 H :    0.120667
  15 H :    0.124131
  16 H :    0.120054

  Mayer bond orders larger than 0.100000
B(  0-C ,  1-C ) :   1.1593 B(  0-C ,  7-H ) :   0.9529 B(  0-C ,  8-H ) :   0.9527
B(  0-C ,  9-H ) :   0.9543 B(  1-C ,  2-C ) :   1.1263 B(  1-C , 10-H ) :   0.9199
B(  1-C , 11-H ) :   0.9322 B(  2-C ,  3-C ) :   1.0146 B(  2-C , 12-H ) :   0.9104
B(  2-C , 13-H ) :   0.8916 B(  3-C ,  4-O ) :   2.0627 B(  3-C ,  5-O ) :   1.2238
B(  5-O ,  6-C ) :   0.9358 B(  6-C , 14-H ) :   0.9611 B(  6-C , 15-H ) :   0.9295
B(  6-C , 16-H ) :   0.9605

Dispersion correction           -0.011698162
FINAL SINGLE POINT ENERGY      -346.239298821482

DIPOLE MOMENT
-------------

Method             : SCF
Type of density    : Electron Density
Multiplicity       :   1
Irrep              :   0
Energy             :  -346.3042182869797330 Eh
Relativity type    :
Basis              : AO
                                X                 Y                 Z
Electronic contribution:      6.167640544      -1.620481354      -1.198769831
Nuclear contribution   :     -5.983255530       2.173689597       1.535722526
                        -----------------------------------------
Total Dipole Moment    :      0.184385015       0.553208242       0.336952695
                        -----------------------------------------
Magnitude (a.u.)       :      0.673479259
Magnitude (Debye)      :      1.711848233

Rotational constants in cm-1:             0.251221             0.040725             0.037280
Rotational constants in MHz :          7531.415581          1220.909316          1117.633293

                             ****ORCA TERMINATED NORMALLY****
TOTAL RUN TIME: 0 days 0 hours 0 minutes 9 seconds 578 msec
