                         Program Version 6.0.0  -   RELEASE  -
|  1> ! r2scan-3c def2/J RI DEFGRID2 scfconv6 printgap
|  2> %output
|  3>     printlevel normal
|  4> end
|  5> * xyz 0 1
|  6> C 1.6977001022 1.2750255708 -0.1235331288
|  7> C 1.4434144679 -0.2106327681 0.1236315154
|  8> C 1.4510306081 -0.9975302153 -1.1854180877
|  9> C 0.1619587014 -0.450023328 0.9323882673
| 10> C -1.1620707804 -0.0381475748 0.3432052841
| 11> O -2.2107073261 -0.2134897558 0.935877168
| 12> O -1.1288905157 0.5248396037 -0.8492030462
| 13> H 2.6676883773 1.411802645 -0.5944636924
| 14> H 1.6914579589 1.8252213777 0.8145330825
| 15> H 0.93787127 1.6922312607 -0.777061466
| 16> H 2.2615464511 -0.5905605963 0.7469477611
| 17> H 1.2690241393 -2.053366 -0.9979007966
| 18> H 0.6868693162 -0.6271110226 -1.8620267935
| 19> H 2.4176911132 -0.8977621174 -1.6723246994
| 20> H 0.2309908179 0.0659289266 1.8941058645
| 21> H 0.0646168578 -1.5142712972 1.1639818342
| 22> H -2.0207395795 0.7661916334 -1.1674362573
| 23> *
| 24>
| 25>                          ****END OF INPUT****

CARTESIAN COORDINATES (ANGSTROEM)
---------------------------------
  C      1.697700    1.275026   -0.123533
  C      1.443414   -0.210633    0.123632
  C      1.451031   -0.997530   -1.185418
  C      0.161959   -0.450023    0.932388
  C     -1.162071   -0.038148    0.343205
  O     -2.210707   -0.213490    0.935877
  O     -1.128891    0.524840   -0.849203
  H      2.667688    1.411803   -0.594464
  H      1.691458    1.825221    0.814533
  H      0.937871    1.692231   -0.777061
  H      2.261546   -0.590561    0.746948
  H      1.269024   -2.053366   -0.997901
  H      0.686869   -0.627111   -1.862027
  H      2.417691   -0.897762   -1.672325
  H      0.230991    0.065929    1.894106
  H      0.064617   -1.514271    1.163982
  H     -2.020740    0.766192   -1.167436

 Total Charge           Charge          ....    0
 Multiplicity           Mult            ....    1
 Number of Electrons    NEL             ....   56
 Basis Dimension        Dim             ....  193

ORBITAL ENERGIES
----------------

  NO   OCC          E(Eh)            E(eV)
   0   2.0000     -19.007671      -517.2250
   1   2.0000     -18.931290      -515.1466
   2   2.0000     -10.163875      -276.5731
   3   2.0000     -10.048250      -273.4268
   4   2.0000     -10.045529      -273.3527
   5   2.0000     -10.017284      -272.5841
   6   2.0000     -10.017184      -272.5814
   7   2.0000      -1.082981       -29.4694
   8   2.0000      -0.976918       -26.5833
   9   2.0000      -0.787240       -21.4219
  10   2.0000      -0.696733       -18.9591
  11   2.0000      -0.654403       -17.8072
  12   2.0000      -0.607344       -16.5267
  13   2.0000      -0.543292       -14.7837
  14   2.0000      -0.459350       -12.4996
  15   2.0000      -0.448126       -12.1941
  16   2.0000      -0.443503       -12.0683
  17   2.0000      -0.419445       -11.4137
  18   2.0000      -0.396429       -10.7874
  19   2.0000      -0.394963       -10.7475
  20   2.0000      -0.364326        -9.9138
  21   2.0000      -0.352937        -9.6039
  22   2.0000      -0.341850        -9.3022
  23   2.0000      -0.310136        -8.4392
  24   2.0000      -0.308422        -8.3926
  25   2.0000      -0.298016        -8.1094
  26   2.0000      -0.286459        -7.7950
  27   2.0000      -0.238509        -6.4902
  28   0.0000      -0.022164        -0.6031
  29   0.0000       0.048638         1.3235
  30   0.0000       0.086950         2.3660
  31   0.0000       0.121504         3.3063
  32   0.0000       0.131618         3.5815

MULLIKEN ATOMIC CHARGES
-----------------------
   0 C :   -0.535439
   1 C :    0.075579
   2 C :   -0.535698
   3 C :   -0.341034
   4 C :    0.295021
   5 O :   -0.392132
   6 O :   -0.331508
   7 H :    0.144917
   8 H :    0.145129
   9 H :    0.174592
  10 H :    0.149920
  11 H :    0.145365
  12 H :    0.174470
  13 H :    0.145024
  14 H :    0.175474
  15 H :    0.175494
  16 H :    0.334826
Sum of atomic charges:    0.0000000

LOEWDIN ATOMIC CHARGES
----------------------
   0 C :   -0.410850
   1 C :   -0.237348
   2 C :   -0.410825
   3 C :   -0.232503
   4 C :    0.344483
   5 O :   -0.429186
   6 O :   -0.416718
   7 H :    0.153861
   8 H :    0.153900
   9 H :    0.168550
  10 H :    0.158294
  11 H :    0.154003
  12 H :    0.168495
  13 H :    0.153903
  14 H :    0.190310
  15 H :    0.190259
  16 H :    0.301371

  Mayer bond orders larger than 0.100000
B(  0-C ,  1-C ) :   0.8956 B(  0-C ,  7-H ) :   0.9705 B(  0-C ,  8-H ) :   0.9720
B(  0-C ,  9-H ) :   0.9783 B(  1-C ,  2-C ) :   0.8954 B(  1-C ,  3-C ) :   0.8974
B(  1-C , 10-H ) :   0.9540 B(  2-C , 11-H ) :   0.9721 B(  2-C , 12-H ) :   0.9781
B(  2-C , 13-H ) :   0.9704 B(  3-C ,  4-C ) :   0.9998 B(  3-C , 14-H ) :   0.9379
B(  3-C , 15-H ) :   0.9386 B(  4-C ,  5-O ) :   1.9362 B(  4-C ,  6-O ) :   1.0607
B(  6-O , 16-H ) :   0.8554

Dispersion correction           -0.004491449
FINAL SINGLE POINT ENERGY      -346.944458185138

DIPOLE MOMENT
-------------

Method             : SCF
Type of density    : Electron Density
Multiplicity       :   1
Irrep              :   0
Energy             :  -346.9495088362552906 Eh
Relativity type    :
Basis              : AO
                                X                 Y                 Z
Electronic contribution:     -8.900534285       0.091630587       1.809128050
Nuclear contribution   :      9.526374912       0.078079126      -2.298768038
                        -----------------------------------------
Total Dipole Moment    :      0.625840628       0.169709713      -0.489639987
                        -----------------------------------------
Magnitude (a.u.)       :      0.812542427
Magnitude (Debye)      :      2.065318715

Rotational constants in cm-1:             0.146322             0.056980             0.056241
Rotational constants in MHz :          4386.608538          1708.229764          1686.050018

                             ****ORCA TERMINATED NORMALLY****
TOTAL RUN TIME: 0 days 0 hours 0 minutes 24 seconds 954 msec
