                         Program Version 6.0.0  -   RELEASE  -
|  1> ! r2scan-3c def2/J RI DEFGRID2 scfconv6 printgap
|  2> %output
|  3>     printlevel normal
|  4> end
|  5> %cpcm
|  6>     smd true
|  7>     smdsolvent "water"
|  8> end
|  9> * xyz 0 1
| 10> C 1.6977001022 1.2750255708 -0.1235331288
| 11> C 1.4434144679 -0.2106327681 0.1236315154
| 12> C 1.4510306081 -0.9975302153 -1.1854180877
| 13> C 0.1619587014 -0.450023328 0.9323882673
| 14> C -1.1620707804 -0.0381475748 0.3432052841
| 15> O -2.2107073261 -0.2134897558 0.935877168
| 16> O -1.1288905157 0.5248396037 -0.8492030462
| 17> H 2.6676883773 1.411802645 -0.5944636924
| 18> H 1.6914579589 1.8252213777 0.8145330825
| 19> H 0.93787127 1.6922312607 -0.777061466
| 20> H 2.2615464511 -0.5905605963 0.7469477611
| 21> H 1.2690241393 -2.053366 -0.9979007966
| 22> H 0.6868693162 -0.6271110226 -1.8620267935
| 23> H 2.4176911132 -0.8977621174 -1.6723246994
| 24> H 0.2309908179 0.0659289266 1.8941058645
| 25> H 0.0646168578 -1.5142712972 1.1639818342
| 26> H -2.0207395795 0.7661916334 -1.1674362573
| 27> *
| 28>
| 29>                          ****END OF INPUT****

CARTESIAN COORDINATES (ANGSTROEM)
---------------------------------
  C      1.697700    1.275026   -0.123533
  C      1.443414   -0.210633    0.123632
  C      1.451031   -0.997530   -1.185418
  C      0.161959   -0.450023    0.932388
  C     -1.162071   -0.038148    0.343205
  O     -2.210707   -0.213490    0.935877
  O     -1.128891    0.524840   -0.849203
  H      2.667688    1.411803   -0.594464
  H      1.691458    1.825221    0.814533
  H      0.937871    1.692231   -0.777061
  H      2.261546   -0.590561    0.746948
  H      1.269024   -2.053366   -0.997901
  H      0.686869   -0.627111   -1.862027
  H      2.417691   -0.897762   -1.672325
  H      0.230991    0.065929    1.894106
  H      0.064617   -1.514271    1.163982
  H     -2.020740    0.766192   -1.167436

 Total Charge           Charge          ....    0
 Multiplicity           Mult            ....    1
 Number of Electrons    NEL             ....   56
 Basis Dimension        Dim             ....  193

ORBITAL ENERGIES
----------------

  NO   OCC          E(Eh)            E(eV)
   0   2.0000     -19.001750      -517.0639
   1   2.0000     -18.940233      -515.3899
   2   2.0000     -10.168213      -276.6911
   3   2.0000     -10.037388      -273.1312
   4   2.0000     -10.033890      -273.0360
   5   2.0000     -10.006402      -272.2880
   6   2.0000     -10.006281      -272.2847
   7   2.0000      -1.080203       -29.3938
   8   2.0000      -0.983371       -26.7589
   9   2.0000      -0.776444       -21.1281
  10   2.0000      -0.688232       -18.7277
  11   2.0000      -0.643760       -17.5176
  12   2.0000      -0.596341       -16.2273
  13   2.0000      -0.533945       -14.5294
  14   2.0000      -0.463546       -12.6137
  15   2.0000      -0.443363       -12.0645
  16   2.0000      -0.439566       -11.9612
  17   2.0000      -0.412818       -11.2334
  18   2.0000      -0.388210       -10.5637
  19   2.0000      -0.385735       -10.4964
  20   2.0000      -0.362689        -9.8693
  21   2.0000      -0.344111        -9.3637
  22   2.0000      -0.330618        -8.9966
  23   2.0000      -0.300784        -8.1848
  24   2.0000      -0.300365        -8.1733
  25   2.0000      -0.288212        -7.8426
  26   2.0000      -0.288053        -7.8383
  27   2.0000      -0.248981        -6.7751
  28   0.0000      -0.023544        -0.6407
  29   0.0000       0.067757         1.8438
  30   0.0000       0.108734         2.9588
  31   0.0000       0.131520         3.5789
  32   0.0000       0.140011         3.8099

MULLIKEN ATOMIC CHARGES
-----------------------
   0 C :   -0.575929
   1 C :    0.089384
   2 C :   -0.575860
   3 C :   -0.346815
   4 C :    0.326924
   5 O :   -0.488583
   6 O :   -0.347799
   7 H :    0.157609
   8 H :    0.159963
   9 H :    0.172569
  10 H :    0.163558
  11 H :    0.160064
  12 H :    0.172375
  13 H :    0.157737
  14 H :    0.196491
  15 H :    0.196023
  16 H :    0.382290
Sum of atomic charges:    0.0000000

LOEWDIN ATOMIC CHARGES
----------------------
   0 C :   -0.418049
   1 C :   -0.231316
   2 C :   -0.418005
   3 C :   -0.232318
   4 C :    0.356197
   5 O :   -0.500749
   6 O :   -0.399979
   7 H :    0.156553
   8 H :    0.158137
   9 H :    0.166206
  10 H :    0.164304
  11 H :    0.158200
  12 H :    0.166125
  13 H :    0.156610
  14 H :    0.198628
  15 H :    0.198367
  16 H :    0.321089

  Mayer bond orders larger than 0.100000
B(  0-C ,  1-C ) :   0.8909 B(  0-C ,  7-H ) :   0.9699 B(  0-C ,  8-H ) :   0.9695
B(  0-C ,  9-H ) :   0.9778 B(  1-C ,  2-C ) :   0.8908 B(  1-C ,  3-C ) :   0.9015
B(  1-C , 10-H ) :   0.9505 B(  2-C , 11-H ) :   0.9696 B(  2-C , 12-H ) :   0.9776
B(  2-C , 13-H ) :   0.9698 B(  3-C ,  4-C ) :   0.9993 B(  3-C , 14-H ) :   0.9278
B(  3-C , 15-H ) :   0.9286 B(  4-C ,  5-O ) :   1.8565 B(  4-C ,  6-O ) :   1.1096
B(  6-O , 16-H ) :   0.8314

Dispersion correction           -0.004491449
FINAL SINGLE POINT ENERGY      -346.953850427716

DIPOLE MOMENT
-------------

Method             : SCF
Type of density    : Electron Density
Multiplicity       :   1
Irrep              :   0
Energy             :  -346.9589010788336054 Eh
Relativity type    :
Basis              : AO
                                X                 Y                 Z
Electronic contribution:     -8.649653306       0.139586223       1.656733116
Nuclear contribution   :      9.526374912       0.078079126      -2.298768038
                        -----------------------------------------
Total Dipole Moment    :      0.876721606       0.217665349      -0.642034922
                        -----------------------------------------
Magnitude (a.u.)       :      1.108254402
Magnitude (Debye)      :      2.816958823

Rotational constants in cm-1:             0.146322             0.056980             0.056241
Rotational constants in MHz :          4386.608538          1708.229764          1686.050018

                             ****ORCA TERMINATED NORMALLY****
TOTAL RUN TIME: 0 days 0 hours 0 minutes 29 seconds 135 msec
