                         Program Version 6.0.0  -   RELEASE  -
|  1> ! r2scan-3c def2/J RI DEFGRID2 scfconv6 printgap
|  2> %output
|  3>     printlevel normal
|  4> end
|  5> * xyz 0 1
|  6> C -2.5215131576 0.54462682 -0.8132223276
|  7> C -1.8822814266 -0.4985065722 0.0958868633
|  8> C -0.8356281929 0.1183368452 1.0202362127
|  9> O 0.2628012487 0.6634345234 0.2756494024
| 10> C 1.2810243336 -0.1332927257 -0.0270018116
| 11> O 1.3489440878 -1.2961250909 0.3167198185
| 12> C 2.3206340556 0.583606172 -0.8353454423
| 13> H -3.0500737455 1.2879258349 -0.2219490833
| 14> H -1.7602279774 1.050532882 -1.4019713835
| 15> H -3.2277293387 0.0722203665 -1.4901578774
| 16> H -1.4019593501 -1.276390731 -0.5021011001
| 17> H -2.6425312138 -0.9719424356 0.7173889643
| 18> H -1.2479825189 0.9651694446 1.570140473
| 19> H -0.4475832457 -0.634796308 1.7130506161
| 20> H 2.1517174927 1.6538913097 -0.7908935515
| 21> H 2.2505850427 0.2441714079 -1.8664995006
| 22> H 3.3079504723 0.3264129096 -0.4634299558
| 23> *
| 24>
| 25>                          ****END OF INPUT****

CARTESIAN COORDINATES (ANGSTROEM)
---------------------------------
  C     -2.521513    0.544627   -0.813222
  C     -1.882281   -0.498507    0.095887
  C     -0.835628    0.118337    1.020236
  O      0.262801    0.663435    0.275649
  C      1.281024   -0.133293   -0.027002
  O      1.348944   -1.296125    0.316720
  C      2.320634    0.583606   -0.835345
  H     -3.050074    1.287926   -0.221949
  H     -1.760228    1.050533   -1.401971
  H     -3.227729    0.072220   -1.490158
  H     -1.401959   -1.276391   -0.502101
  H     -2.642531   -0.971942    0.717389
  H     -1.247983    0.965169    1.570140
  H     -0.447583   -0.634796    1.713051
  H      2.151717    1.653891   -0.790894
  H      2.250585    0.244171   -1.866500
  H      3.307950    0.326413   -0.463430

 Total Charge           Charge          ....    0
 Multiplicity           Mult            ....    1
 Number of Electrons    NEL             ....   56
 Basis Dimension        Dim             ....  193

ORBITAL ENERGIES
----------------

  NO   OCC          E(Eh)            E(eV)
   0   2.0000     -18.997462      -516.9472
   1   2.0000     -18.927787      -515.0513
   2   2.0000     -10.156036      -276.3598
   3   2.0000     -10.088004      -274.5086
   4   2.0000     -10.039096      -273.1777
   5   2.0000     -10.035729      -273.0861
   6   2.0000     -10.021743      -272.7055
   7   2.0000      -1.072551       -29.1856
   8   2.0000      -0.975618       -26.5479
   9   2.0000      -0.767134       -20.8748
  10   2.0000      -0.721399       -19.6303
  11   2.0000      -0.661107       -17.9896
  12   2.0000      -0.589238       -16.0340
  13   2.0000      -0.515827       -14.0364
  14   2.0000      -0.469020       -12.7627
  15   2.0000      -0.456169       -12.4130
  16   2.0000      -0.442967       -12.0537
  17   2.0000      -0.414939       -11.2911
  18   2.0000      -0.409628       -11.1465
  19   2.0000      -0.383537       -10.4366
  20   2.0000      -0.372113       -10.1257
  21   2.0000      -0.357176        -9.7192
  22   2.0000      -0.346499        -9.4287
  23   2.0000      -0.322600        -8.7784
  24   2.0000      -0.315092        -8.5741
  25   2.0000      -0.302369        -8.2279
  26   2.0000      -0.269598        -7.3361
  27   2.0000      -0.236760        -6.4426
  28   0.0000      -0.014789        -0.4024
  29   0.0000       0.073831         2.0091
  30   0.0000       0.089481         2.4349
  31   0.0000       0.114001         3.1021
  32   0.0000       0.120836         3.2881

MULLIKEN ATOMIC CHARGES
-----------------------
   0 C :   -0.485597
   1 C :   -0.232528
   2 C :   -0.150669
   3 O :   -0.182339
   4 C :    0.414342
   5 O :   -0.426608
   6 C :   -0.519452
   7 H :    0.140770
   8 H :    0.157529
   9 H :    0.148207
  10 H :    0.160815
  11 H :    0.140648
  12 H :    0.146099
  13 H :    0.170746
  14 H :    0.171090
  15 H :    0.173407
  16 H :    0.173540
Sum of atomic charges:    0.0000000

LOEWDIN ATOMIC CHARGES
----------------------
   0 C :   -0.420100
   1 C :   -0.286406
   2 C :    0.032591
   3 O :   -0.602124
   4 C :    0.354348
   5 O :   -0.436518
   6 C :   -0.335562
   7 H :    0.150645
   8 H :    0.157195
   9 H :    0.151895
  10 H :    0.167093
  11 H :    0.160126
  12 H :    0.180626
  13 H :    0.192889
  14 H :    0.174259
  15 H :    0.180768
  16 H :    0.178277

  Mayer bond orders larger than 0.100000
B(  0-C ,  1-C ) :   0.9169 B(  0-C ,  7-H ) :   0.9771 B(  0-C ,  8-H ) :   0.9832
B(  0-C ,  9-H ) :   0.9704 B(  1-C ,  2-C ) :   0.9525 B(  1-C , 10-H ) :   0.9688
B(  1-C , 11-H ) :   0.9558 B(  2-C ,  3-O ) :   0.8245 B(  2-C , 12-H ) :   0.9625
B(  2-C , 13-H ) :   0.9575 B(  3-O ,  4-C ) :   1.0549 B(  4-C ,  5-O ) :   1.8436
B(  4-C ,  6-C ) :   0.9484 B(  6-C , 14-H ) :   0.9835 B(  6-C , 15-H ) :   0.9389
B(  6-C , 16-H ) :   0.9660

Dispersion correction           -0.004047414
FINAL SINGLE POINT ENERGY      -346.936717653090

DIPOLE MOMENT
-------------

Method             : SCF
Type of density    : Electron Density
Multiplicity       :   1
Irrep              :   0
Energy             :  -346.9431558407233638 Eh
Relativity type    :
Basis              : AO
                                X                 Y                 Z
Electronic contribution:      5.296269420      -1.861518203       2.398710502
Nuclear contribution   :     -5.668747212       2.539802560      -2.558439185
                        -----------------------------------------
Total Dipole Moment    :     -0.372477792       0.678284357      -0.159728683
                        -----------------------------------------
Magnitude (a.u.)       :      0.790140891
Magnitude (Debye)      :      2.008378535

Rotational constants in cm-1:             0.168288             0.051153             0.046095
Rotational constants in MHz :          5045.143610          1533.532967          1381.893752

                             ****ORCA TERMINATED NORMALLY****
TOTAL RUN TIME: 0 days 0 hours 0 minutes 22 seconds 271 msec
