                         Program Version 6.0.0  -   RELEASE  -
|  1> ! r2scan-3c def2/J RI DEFGRID2 scfconv6 printgap
|  2> %output
|  3>     printlevel normal
|  4> end
|  5> %cpcm
|  6>     smd true
|  7>     smdsolvent "water"
|  8> end
|  9> * xyz 0 1
| 10> C -2.5215131576 0.54462682 -0.8132223276
| 11> C -1.8822814266 -0.4985065722 0.0958868633
| 12> C -0.8356281929 0.1183368452 1.0202362127
| 13> O 0.2628012487 0.6634345234 0.2756494024
| 14> C 1.2810243336 -0.1332927257 -0.0270018116
| 15> O 1.3489440878 -1.2961250909 0.3167198185
| 16> C 2.3206340556 0.583606172 -0.8353454423
| 17> H -3.0500737455 1.2879258349 -0.2219490833
| 18> H -1.7602279774 1.050532882 -1.4019713835
| 19> H -3.2277293387 0.0722203665 -1.4901578774
| 20> H -1.4019593501 -1.276390731 -0.5021011001
| 21> H -2.6425312138 -0.9719424356 0.7173889643
| 22> H -1.2479825189 0.9651694446 1.570140473
| 23> H -0.4475832457 -0.634796308 1.7130506161
| 24> H 2.1517174927 1.6538913097 -0.7908935515
| 25> H 2.2505850427 0.2441714079 -1.8664995006
| 26> H 3.3079504723 0.3264129096 -0.4634299558
| 27> *
| 28>
| 29>                          ****END OF INPUT****

CARTESIAN COORDINATES (ANGSTROEM)
---------------------------------
  C     -2.521513    0.544627   -0.813222
  C     -1.882281   -0.498507    0.095887
  C     -0.835628    0.118337    1.020236
  O      0.262801    0.663435    0.275649
  C      1.281024   -0.133293   -0.027002
  O      1.348944   -1.296125    0.316720
  C      2.320634    0.583606   -0.835345
  H     -3.050074    1.287926   -0.221949
  H     -1.760228    1.050533   -1.401971
  H     -3.227729    0.072220   -1.490158
  H     -1.401959   -1.276391   -0.502101
  H     -2.642531   -0.971942    0.717389
  H     -1.247983    0.965169    1.570140
  H     -0.447583   -0.634796    1.713051
  H      2.151717    1.653891   -0.790894
  H      2.250585    0.244171   -1.866500
  H      3.307950    0.326413   -0.463430

 Total Charge           Charge          ....    0
 Multiplicity           Mult            ....    1
 Number of Electrons    NEL             ....   56
 Basis Dimension        Dim             ....  193

ORBITAL ENERGIES
----------------

  NO   OCC          E(Eh)            E(eV)
   0   2.0000     -19.002597      -517.0870
   1   2.0000     -18.942728      -515.4578
   2   2.0000     -10.165541      -276.6184
   3   2.0000     -10.080217      -274.2966
   4   2.0000     -10.030087      -272.9325
   5   2.0000     -10.026047      -272.8226
   6   2.0000     -10.011010      -272.4134
   7   2.0000      -1.079082       -29.3633
   8   2.0000      -0.988669       -26.9030
   9   2.0000      -0.760524       -20.6949
  10   2.0000      -0.714985       -19.4557
  11   2.0000      -0.653855       -17.7923
  12   2.0000      -0.583104       -15.8671
  13   2.0000      -0.511951       -13.9309
  14   2.0000      -0.467782       -12.7290
  15   2.0000      -0.462262       -12.5788
  16   2.0000      -0.446725       -12.1560
  17   2.0000      -0.409714       -11.1489
  18   2.0000      -0.403913       -10.9910
  19   2.0000      -0.379738       -10.3332
  20   2.0000      -0.363485        -9.8909
  21   2.0000      -0.351412        -9.5624
  22   2.0000      -0.344010        -9.3610
  23   2.0000      -0.321448        -8.7470
  24   2.0000      -0.305750        -8.3199
  25   2.0000      -0.298626        -8.1260
  26   2.0000      -0.274378        -7.4662
  27   2.0000      -0.252698        -6.8763
  28   0.0000      -0.021564        -0.5868
  29   0.0000       0.078360         2.1323
  30   0.0000       0.098048         2.6680
  31   0.0000       0.123644         3.3645
  32   0.0000       0.129886         3.5344

MULLIKEN ATOMIC CHARGES
-----------------------
   0 C :   -0.525549
   1 C :   -0.229790
   2 C :   -0.162668
   3 O :   -0.199854
   4 C :    0.461825
   5 O :   -0.514118
   6 C :   -0.556412
   7 H :    0.157983
   8 H :    0.160817
   9 H :    0.160142
  10 H :    0.157248
  11 H :    0.160856
  12 H :    0.173318
  13 H :    0.173037
  14 H :    0.187905
  15 H :    0.203516
  16 H :    0.191744
Sum of atomic charges:    0.0000000

LOEWDIN ATOMIC CHARGES
----------------------
   0 C :   -0.426365
   1 C :   -0.285642
   2 C :    0.036279
   3 O :   -0.603788
   4 C :    0.365748
   5 O :   -0.498848
   6 C :   -0.333839
   7 H :    0.155777
   8 H :    0.156746
   9 H :    0.155423
  10 H :    0.165105
  11 H :    0.167599
  12 H :    0.191929
  13 H :    0.193483
  14 H :    0.182408
  15 H :    0.192559
  16 H :    0.185425

  Mayer bond orders larger than 0.100000
B(  0-C ,  1-C ) :   0.9099 B(  0-C ,  7-H ) :   0.9742 B(  0-C ,  8-H ) :   0.9826
B(  0-C ,  9-H ) :   0.9673 B(  1-C ,  2-C ) :   0.9507 B(  1-C , 10-H ) :   0.9679
B(  1-C , 11-H ) :   0.9530 B(  2-C ,  3-O ) :   0.8051 B(  2-C , 12-H ) :   0.9542
B(  2-C , 13-H ) :   0.9543 B(  3-O ,  4-C ) :   1.0817 B(  4-C ,  5-O ) :   1.7707
B(  4-C ,  6-C ) :   0.9495 B(  6-C , 14-H ) :   0.9731 B(  6-C , 15-H ) :   0.9269
B(  6-C , 16-H ) :   0.9572

Dispersion correction           -0.004047414
FINAL SINGLE POINT ENERGY      -346.942034837421

DIPOLE MOMENT
-------------

Method             : SCF
Type of density    : Electron Density
Multiplicity       :   1
Irrep              :   0
Energy             :  -346.9484730250546249 Eh
Relativity type    :
Basis              : AO
                                X                 Y                 Z
Electronic contribution:      5.163861881      -1.562205244       2.350943768
Nuclear contribution   :     -5.668747212       2.539802560      -2.558439185
                        -----------------------------------------
Total Dipole Moment    :     -0.504885331       0.977597316      -0.207495417
                        -----------------------------------------
Magnitude (a.u.)       :      1.119669620
Magnitude (Debye)      :      2.845974001

Rotational constants in cm-1:             0.168288             0.051153             0.046095
Rotational constants in MHz :          5045.143610          1533.532967          1381.893752

                             ****ORCA TERMINATED NORMALLY****
TOTAL RUN TIME: 0 days 0 hours 0 minutes 28 seconds 873 msec
