                         Program Version 6.0.0  -   RELEASE  -
|  1> ! r2scan-3c def2/J RI DEFGRID2 scfconv6 printgap
|  2> %output
|  3>     printlevel normal
|  4> end
|  5> * xyz 0 1
|  6> C -2.3857411572 0.7503536178 0.0751240549
|  7> C -0.8797219761 0.8486279455 -0.1430236477
|  8> C -0.1094034571 -0.3240498104 0.4793132306
|  9> H -0.4996709132 -0.4987118607 1.4876320024
| 10> C -0.2578806803 -1.6017520767 -0.3433687425
| 11> C 1.3810899024 0.0199277782 0.6407050099
| 12> O 2.055229653 0.2493702577 -0.5776249593
| 13> H -2.8836379188 1.6163744737 -0.3542187682
| 14> H -2.7926329117 -0.1412726729 -0.3941183051
| 15> H -2.614820016 0.7140941144 1.1377815786
| 16> H -0.5271951448 1.7813026408 0.3055786162
| 17> H -0.678346635 0.8867485051 -1.2155144827
| 18> H 0.2297091166 -1.4801714326 -1.3082166243
| 19> H -1.3043901441 -1.8417229208 -0.505936151
| 20> H 0.210672598 -2.4373819867 0.1709470554
| 21> H 1.9037805295 -0.8229190228 1.100099196
| 22> H 1.4892969365 0.8920325809 1.3010052055
| 23> H 1.6752068613 1.030319776 -1.0018945059
| 24> *
| 25>
| 26>                          ****END OF INPUT****

CARTESIAN COORDINATES (ANGSTROEM)
---------------------------------
  C     -2.385741    0.750354    0.075124
  C     -0.879722    0.848628   -0.143024
  C     -0.109403   -0.324050    0.479313
  H     -0.499671   -0.498712    1.487632
  C     -0.257881   -1.601752   -0.343369
  C      1.381090    0.019928    0.640705
  O      2.055230    0.249370   -0.577625
  H     -2.883638    1.616374   -0.354219
  H     -2.792633   -0.141273   -0.394118
  H     -2.614820    0.714094    1.137782
  H     -0.527195    1.781303    0.305579
  H     -0.678347    0.886749   -1.215514
  H      0.229709   -1.480171   -1.308217
  H     -1.304390   -1.841723   -0.505936
  H      0.210673   -2.437382    0.170947
  H      1.903781   -0.822919    1.100099
  H      1.489297    0.892033    1.301005
  H      1.675207    1.030320   -1.001895

 Total Charge           Charge          ....    0
 Multiplicity           Mult            ....    1
 Number of Electrons    NEL             ....   50
 Basis Dimension        Dim             ....  179

ORBITAL ENERGIES
----------------

  NO   OCC          E(Eh)            E(eV)
   0   2.0000     -18.946669      -515.5651
   1   2.0000     -10.070645      -274.0362
   2   2.0000     -10.033354      -273.0214
   3   2.0000     -10.030922      -272.9553
   4   2.0000     -10.021142      -272.6891
   5   2.0000     -10.012574      -272.4560
   6   2.0000      -0.984004       -26.7761
   7   2.0000      -0.775657       -21.1067
   8   2.0000      -0.701312       -19.0837
   9   2.0000      -0.642090       -17.4722
  10   2.0000      -0.598968       -16.2987
  11   2.0000      -0.530406       -14.4331
  12   2.0000      -0.464459       -12.6386
  13   2.0000      -0.437359       -11.9011
  14   2.0000      -0.426555       -11.6072
  15   2.0000      -0.413684       -11.2569
  16   2.0000      -0.376469       -10.2442
  17   2.0000      -0.354860        -9.6562
  18   2.0000      -0.343844        -9.3565
  19   2.0000      -0.336529        -9.1574
  20   2.0000      -0.325856        -8.8670
  21   2.0000      -0.301390        -8.2012
  22   2.0000      -0.294444        -8.0122
  23   2.0000      -0.279231        -7.5983
  24   2.0000      -0.233442        -6.3523
  25   0.0000       0.054765         1.4902
  26   0.0000       0.091084         2.4785
  27   0.0000       0.112524         3.0619
  28   0.0000       0.118141         3.2148
  29   0.0000       0.134142         3.6502

MULLIKEN ATOMIC CHARGES
-----------------------
   0 C :   -0.497329
   1 C :   -0.293622
   2 C :    0.032124
   3 H :    0.142661
   4 C :   -0.529125
   5 C :   -0.192679
   6 O :   -0.431762
   7 H :    0.147870
   8 H :    0.143868
   9 H :    0.147647
  10 H :    0.147917
  11 H :    0.141168
  12 H :    0.173941
  13 H :    0.140179
  14 H :    0.144379
  15 H :    0.142974
  16 H :    0.135809
  17 H :    0.303978
Sum of atomic charges:   -0.0000000

LOEWDIN ATOMIC CHARGES
----------------------
   0 C :   -0.418937
   1 C :   -0.316120
   2 C :   -0.234870
   3 H :    0.161731
   4 C :   -0.411062
   5 C :    0.004679
   6 O :   -0.619594
   7 H :    0.151024
   8 H :    0.150500
   9 H :    0.150925
  10 H :    0.154979
  11 H :    0.154474
  12 H :    0.163913
  13 H :    0.150859
  14 H :    0.155703
  15 H :    0.178358
  16 H :    0.157768
  17 H :    0.265671

  Mayer bond orders larger than 0.100000
B(  0-C ,  1-C ) :   0.9174 B(  0-C ,  7-H ) :   0.9738 B(  0-C ,  8-H ) :   0.9790
B(  0-C ,  9-H ) :   0.9909 B(  1-C ,  2-C ) :   0.8574 B(  1-C , 10-H ) :   0.9728
B(  1-C , 11-H ) :   0.9591 B(  2-C ,  3-H ) :   0.9581 B(  2-C ,  4-C ) :   0.8964
B(  2-C ,  5-C ) :   0.9067 B(  4-C , 12-H ) :   0.9830 B(  4-C , 13-H ) :   0.9759
B(  4-C , 14-H ) :   0.9703 B(  5-C ,  6-O ) :   0.9463 B(  5-C , 15-H ) :   0.9826
B(  5-C , 16-H ) :   0.9843 B(  6-O , 17-H ) :   0.8922

Dispersion correction           -0.004406483
FINAL SINGLE POINT ENERGY      -272.898070971287

DIPOLE MOMENT
-------------

Method             : SCF
Type of density    : Electron Density
Multiplicity       :   1
Irrep              :   0
Energy             :  -272.9035829362812819 Eh
Relativity type    :
Basis              : AO
                                X                 Y                 Z
Electronic contribution:      4.882276692       0.610829355      -0.476521951
Nuclear contribution   :     -5.403369131      -0.278975257       0.669855950
                        -----------------------------------------
Total Dipole Moment    :     -0.521092438       0.331854098       0.193333999
                        -----------------------------------------
Magnitude (a.u.)       :      0.647334926
Magnitude (Debye)      :      1.645394621

Rotational constants in cm-1:             0.181868             0.072343             0.061491
Rotational constants in MHz :          5452.263322          2168.781379          1843.460329

                             ****ORCA TERMINATED NORMALLY****
TOTAL RUN TIME: 0 days 0 hours 0 minutes 23 seconds 717 msec
