                         Program Version 6.0.0  -   RELEASE  -
|  1> ! r2scan-3c def2/J RI DEFGRID2 scfconv6 printgap
|  2> %output
|  3>     printlevel normal
|  4> end
|  5> %cpcm
|  6>     smd true
|  7>     smdsolvent "water"
|  8> end
|  9> * xyz 0 1
| 10> C -2.3857411572 0.7503536178 0.0751240549
| 11> C -0.8797219761 0.8486279455 -0.1430236477
| 12> C -0.1094034571 -0.3240498104 0.4793132306
| 13> H -0.4996709132 -0.4987118607 1.4876320024
| 14> C -0.2578806803 -1.6017520767 -0.3433687425
| 15> C 1.3810899024 0.0199277782 0.6407050099
| 16> O 2.055229653 0.2493702577 -0.5776249593
| 17> H -2.8836379188 1.6163744737 -0.3542187682
| 18> H -2.7926329117 -0.1412726729 -0.3941183051
| 19> H -2.614820016 0.7140941144 1.1377815786
| 20> H -0.5271951448 1.7813026408 0.3055786162
| 21> H -0.678346635 0.8867485051 -1.2155144827
| 22> H 0.2297091166 -1.4801714326 -1.3082166243
| 23> H -1.3043901441 -1.8417229208 -0.505936151
| 24> H 0.210672598 -2.4373819867 0.1709470554
| 25> H 1.9037805295 -0.8229190228 1.100099196
| 26> H 1.4892969365 0.8920325809 1.3010052055
| 27> H 1.6752068613 1.030319776 -1.0018945059
| 28> *
| 29>
| 30>                          ****END OF INPUT****

CARTESIAN COORDINATES (ANGSTROEM)
---------------------------------
  C     -2.385741    0.750354    0.075124
  C     -0.879722    0.848628   -0.143024
  C     -0.109403   -0.324050    0.479313
  H     -0.499671   -0.498712    1.487632
  C     -0.257881   -1.601752   -0.343369
  C      1.381090    0.019928    0.640705
  O      2.055230    0.249370   -0.577625
  H     -2.883638    1.616374   -0.354219
  H     -2.792633   -0.141273   -0.394118
  H     -2.614820    0.714094    1.137782
  H     -0.527195    1.781303    0.305579
  H     -0.678347    0.886749   -1.215514
  H      0.229709   -1.480171   -1.308217
  H     -1.304390   -1.841723   -0.505936
  H      0.210673   -2.437382    0.170947
  H      1.903781   -0.822919    1.100099
  H      1.489297    0.892033    1.301005
  H      1.675207    1.030320   -1.001895

 Total Charge           Charge          ....    0
 Multiplicity           Mult            ....    1
 Number of Electrons    NEL             ....   50
 Basis Dimension        Dim             ....  179

ORBITAL ENERGIES
----------------

  NO   OCC          E(Eh)            E(eV)
   0   2.0000     -18.950123      -515.6591
   1   2.0000     -10.064413      -273.8666
   2   2.0000     -10.023814      -272.7618
   3   2.0000     -10.016524      -272.5635
   4   2.0000     -10.008158      -272.3358
   5   2.0000     -10.006073      -272.2791
   6   2.0000      -0.986315       -26.8390
   7   2.0000      -0.765384       -20.8272
   8   2.0000      -0.691089       -18.8055
   9   2.0000      -0.636505       -17.3202
  10   2.0000      -0.588781       -16.0215
  11   2.0000      -0.521474       -14.1900
  12   2.0000      -0.459878       -12.5139
  13   2.0000      -0.429727       -11.6935
  14   2.0000      -0.418152       -11.3785
  15   2.0000      -0.405021       -11.0212
  16   2.0000      -0.370284       -10.0759
  17   2.0000      -0.346383        -9.4256
  18   2.0000      -0.336731        -9.1629
  19   2.0000      -0.329515        -8.9666
  20   2.0000      -0.319461        -8.6930
  21   2.0000      -0.289453        -7.8764
  22   2.0000      -0.286496        -7.7959
  23   2.0000      -0.273414        -7.4400
  24   2.0000      -0.235979        -6.4213
  25   0.0000       0.069317         1.8862
  26   0.0000       0.103682         2.8213
  27   0.0000       0.123457         3.3594
  28   0.0000       0.129064         3.5120
  29   0.0000       0.145505         3.9594

MULLIKEN ATOMIC CHARGES
-----------------------
   0 C :   -0.538061
   1 C :   -0.283170
   2 C :    0.029862
   3 H :    0.156560
   4 C :   -0.578726
   5 C :   -0.191153
   6 O :   -0.519632
   7 H :    0.157311
   8 H :    0.155321
   9 H :    0.158192
  10 H :    0.158423
  11 H :    0.151140
  12 H :    0.167004
  13 H :    0.157803
  14 H :    0.159049
  15 H :    0.154675
  16 H :    0.147718
  17 H :    0.357683
Sum of atomic charges:   -0.0000000

LOEWDIN ATOMIC CHARGES
----------------------
   0 C :   -0.428488
   1 C :   -0.313476
   2 C :   -0.230773
   3 H :    0.167395
   4 C :   -0.420920
   5 C :    0.003231
   6 O :   -0.657350
   7 H :    0.152904
   8 H :    0.152602
   9 H :    0.153085
  10 H :    0.159905
  11 H :    0.158663
  12 H :    0.159340
  13 H :    0.156289
  14 H :    0.157867
  15 H :    0.180871
  16 H :    0.165538
  17 H :    0.283317

  Mayer bond orders larger than 0.100000
B(  0-C ,  1-C ) :   0.9019 B(  0-C ,  7-H ) :   0.9719 B(  0-C ,  8-H ) :   0.9771
B(  0-C ,  9-H ) :   0.9877 B(  1-C ,  2-C ) :   0.8719 B(  1-C , 10-H ) :   0.9692
B(  1-C , 11-H ) :   0.9571 B(  2-C ,  3-H ) :   0.9554 B(  2-C ,  4-C ) :   0.8819
B(  2-C ,  5-C ) :   0.9183 B(  4-C , 12-H ) :   0.9860 B(  4-C , 13-H ) :   0.9714
B(  4-C , 14-H ) :   0.9702 B(  5-C ,  6-O ) :   0.9319 B(  5-C , 15-H ) :   0.9806
B(  5-C , 16-H ) :   0.9737 B(  6-O , 17-H ) :   0.8647

Dispersion correction           -0.004406483
FINAL SINGLE POINT ENERGY      -272.903736341340

DIPOLE MOMENT
-------------

Method             : SCF
Type of density    : Electron Density
Multiplicity       :   1
Irrep              :   0
Energy             :  -272.9092483063340069 Eh
Relativity type    :
Basis              : AO
                                X                 Y                 Z
Electronic contribution:      4.702987431       0.778301306      -0.373377012
Nuclear contribution   :     -5.403369131      -0.278975257       0.669855950
                        -----------------------------------------
Total Dipole Moment    :     -0.700381699       0.499326049       0.296478939
                        -----------------------------------------
Magnitude (a.u.)       :      0.909813601
Magnitude (Debye)      :      2.312562392

Rotational constants in cm-1:             0.181868             0.072343             0.061491
Rotational constants in MHz :          5452.263322          2168.781379          1843.460329

                             ****ORCA TERMINATED NORMALLY****
TOTAL RUN TIME: 0 days 0 hours 0 minutes 27 seconds 829 msec
