                         Program Version 6.0.0  -   RELEASE  -
|  1> ! pbe def2-sv(p) def2/J RI DEFGRID1 loosescf d4 GCP(DFT/SV(P)) printgap
|  2> %output
|  3>     printlevel normal
|  4> end
|  5> * xyz 0 1
|  6> C 2.0091325602 -2.4483209268 0.5999514685
|  7> O 0.8899786714 -1.841437827 -0.0429049597
|  8> C 0.6701221679 -0.5090500542 -0.0027895715
|  9> C 1.6397855633 0.4972934818 0.05368515
| 10> C 1.2770228969 1.8357030121 0.0801462092
| 11> C -0.0485377826 2.2137888262 0.0277609464
| 12> C -1.0260994162 1.2351864488 -0.0414046785
| 13> C -0.6903208066 -0.1194020643 -0.0531681334
| 14> C -1.777238664 -1.1494325861 -0.0578528725
| 15> O -2.8051573115 -0.9984634696 0.5662924983
| 16> O -1.6003836161 -2.2409819321 -0.7830076571
| 17> Cl -2.6787465506 1.7270975723 -0.1486157025
| 18> Cl 3.3468807891 0.1626174106 0.0245948446
| 19> H 1.6854511609 -3.4643653855 0.8187908143
| 20> H 2.2605887629 -1.937461768 1.5279037423
| 21> H 2.873790014 -2.4747387531 -0.063051051
| 22> H 2.0502938952 2.5852510109 0.1247547489
| 23> H -0.3290326338 3.2523849448 0.0324821639
| 24> H -0.7124049758 -2.3179400117 -1.1827538502
| 25> *
| 26>
| 27>                          ****END OF INPUT****

CARTESIAN COORDINATES (ANGSTROEM)
---------------------------------
  C      2.009133   -2.448321    0.599951
  O      0.889979   -1.841438   -0.042905
  C      0.670122   -0.509050   -0.002790
  C      1.639786    0.497293    0.053685
  C      1.277023    1.835703    0.080146
  C     -0.048538    2.213789    0.027761
  C     -1.026099    1.235186   -0.041405
  C     -0.690321   -0.119402   -0.053168
  C     -1.777239   -1.149433   -0.057853
  O     -2.805157   -0.998463    0.566292
  O     -1.600384   -2.240982   -0.783008
  Cl    -2.678747    1.727098   -0.148616
  Cl     3.346881    0.162617    0.024595
  H      1.685451   -3.464365    0.818791
  H      2.260589   -1.937462    1.527904
  H      2.873790   -2.474739   -0.063051
  H      2.050294    2.585251    0.124755
  H     -0.329033    3.252385    0.032482
  H     -0.712405   -2.317940   -1.182754

 Total Charge           Charge          ....    0
 Multiplicity           Mult            ....    1
 Number of Electrons    NEL             ....  112
 Basis Dimension        Dim             ....  202

ORBITAL ENERGIES
----------------

  NO   OCC          E(Eh)            E(eV)
   0   2.0000    -100.663190     -2739.1847
   1   2.0000    -100.643505     -2738.6490
   2   2.0000     -18.824768      -512.2480
   3   2.0000     -18.797754      -511.5129
   4   2.0000     -18.729427      -509.6536
   5   2.0000     -10.015643      -272.5395
   6   2.0000      -9.994693      -271.9694
   7   2.0000      -9.972019      -271.3524
   8   2.0000      -9.971351      -271.3343
   9   2.0000      -9.961582      -271.0684
  10   2.0000      -9.931430      -270.2479
  11   2.0000      -9.928255      -270.1615
  12   2.0000      -9.920128      -269.9404
  13   2.0000      -9.198680      -250.3088
  14   2.0000      -9.179335      -249.7824
  15   2.0000      -7.030183      -191.3010
  16   2.0000      -7.018497      -190.9830
  17   2.0000      -7.018103      -190.9723
  18   2.0000      -7.010955      -190.7778
  19   2.0000      -6.999528      -190.4668
  20   2.0000      -6.998191      -190.4305
  21   2.0000      -1.012245       -27.5446
  22   2.0000      -0.996417       -27.1139
  23   2.0000      -0.911896       -24.8139
  24   2.0000      -0.838125       -22.8065
  25   2.0000      -0.813067       -22.1247
  26   2.0000      -0.763481       -20.7754
  27   2.0000      -0.721840       -19.6423
  28   2.0000      -0.675123       -18.3710
  29   2.0000      -0.649464       -17.6728
  30   2.0000      -0.600719       -16.3464
  31   2.0000      -0.571491       -15.5511
  32   2.0000      -0.552880       -15.0446
  33   2.0000      -0.506450       -13.7812
  34   2.0000      -0.492522       -13.4022
  35   2.0000      -0.481130       -13.0922
  36   2.0000      -0.451897       -12.2968
  37   2.0000      -0.443747       -12.0750
  38   2.0000      -0.418049       -11.3757
  39   2.0000      -0.414903       -11.2901
  40   2.0000      -0.400942       -10.9102
  41   2.0000      -0.382748       -10.4151
  42   2.0000      -0.376302       -10.2397
  43   2.0000      -0.371812       -10.1175
  44   2.0000      -0.359387        -9.7794
  45   2.0000      -0.349438        -9.5087
  46   2.0000      -0.338841        -9.2203
  47   2.0000      -0.318387        -8.6637
  48   2.0000      -0.309747        -8.4286
  49   2.0000      -0.286014        -7.7828
  50   2.0000      -0.280882        -7.6432
  51   2.0000      -0.276350        -7.5199
  52   2.0000      -0.259930        -7.0730
  53   2.0000      -0.236552        -6.4369
  54   2.0000      -0.218621        -5.9490
  55   2.0000      -0.214474        -5.8361
  56   0.0000      -0.082943        -2.2570
  57   0.0000      -0.057910        -1.5758
  58   0.0000      -0.020218        -0.5502
  59   0.0000      -0.000423        -0.0115
  60   0.0000       0.016763         0.4562

MULLIKEN ATOMIC CHARGES
-----------------------
   0 C :   -0.114744
   1 O :   -0.299526
   2 C :    0.142229
   3 C :    0.034592
   4 C :   -0.086713
   5 C :   -0.090308
   6 C :    0.077596
   7 C :   -0.109938
   8 C :    0.149265
   9 O :   -0.160459
  10 O :   -0.275607
  11 Cl:   -0.031660
  12 Cl:   -0.065203
  13 H :    0.132233
  14 H :    0.128812
  15 H :    0.128442
  16 H :    0.061345
  17 H :    0.056258
  18 H :    0.323386
Sum of atomic charges:   -0.0000000

LOEWDIN ATOMIC CHARGES
----------------------
   0 C :   -0.208643
   1 O :   -0.093011
   2 C :    0.018897
   3 C :   -0.170130
   4 C :   -0.121660
   5 C :   -0.145755
   6 C :   -0.108524
   7 C :   -0.118479
   8 C :    0.025123
   9 O :   -0.135925
  10 O :   -0.189148
  11 Cl:    0.173571
  12 Cl:    0.152911
  13 H :    0.124742
  14 H :    0.119076
  15 H :    0.111855
  16 H :    0.137426
  17 H :    0.136952
  18 H :    0.290725

  Mayer bond orders larger than 0.100000
B(  0-C ,  1-O ) :   0.9277 B(  0-C , 13-H ) :   0.9522 B(  0-C , 14-H ) :   0.9480
B(  0-C , 15-H ) :   0.9464 B(  1-O ,  2-C ) :   1.1701 B(  2-C ,  3-C ) :   1.3434
B(  2-C ,  7-C ) :   1.3317 B(  3-C ,  4-C ) :   1.3671 B(  3-C , 12-Cl) :   0.9917
B(  4-C ,  5-C ) :   1.3292 B(  4-C , 16-H ) :   0.9612 B(  5-C ,  6-C ) :   1.3553
B(  5-C , 17-H ) :   0.9693 B(  6-C ,  7-C ) :   1.4393 B(  6-C , 11-Cl) :   1.0551
B(  7-C ,  8-C ) :   0.8666 B(  8-C ,  9-O ) :   2.1278 B(  8-C , 10-O ) :   1.2607
B( 10-O , 18-H ) :   0.8007

Dispersion correction           -0.027115449
FINAL SINGLE POINT ENERGY     -1452.779221922222

DIPOLE MOMENT
-------------

Method             : SCF
Type of density    : Electron Density
Multiplicity       :   1
Irrep              :   0
Energy             : -1452.8354913238363224 Eh
Relativity type    :
Basis              : AO
                                X                 Y                 Z
Electronic contribution:     -4.391631705       6.723419964      -1.573044772
Nuclear contribution   :      6.395891736      -6.699066458       1.342963689
                        -----------------------------------------
Total Dipole Moment    :      2.004260031       0.024353506      -0.230081083
                        -----------------------------------------
Magnitude (a.u.)       :      2.017569991
Magnitude (Debye)      :      5.128255368

Rotational constants in cm-1:             0.032456             0.015947             0.011021
Rotational constants in MHz :           973.008038           478.078466           330.408365

                             ****ORCA TERMINATED NORMALLY****
TOTAL RUN TIME: 0 days 0 hours 0 minutes 15 seconds 192 msec
