                         Program Version 6.0.0  -   RELEASE  -
|  1> ! pbe def2-sv(p) def2/J RI DEFGRID1 loosescf d4 GCP(DFT/SV(P)) printgap
|  2> %output
|  3>     printlevel normal
|  4> end
|  5> * xyz 0 1
|  6> C 1.3945234115 1.4983871642 0.8402625086
|  7> C 1.4348201906 0.1697474505 0.0937883706
|  8> C 0.0847560872 -0.5361654061 -0.1463231845
|  9> C 0.3800311992 -1.7654812036 -1.0199296923
| 10> C -0.5055186066 -1.029487873 1.1763511797
| 11> C -0.9082324775 0.359183622 -0.9218121179
| 12> C -1.8363620849 1.2432956563 -0.0920017542
| 13> H 0.9040269793 1.396157844 1.8045129597
| 14> H 0.8798683368 2.258800891 0.2598089501
| 15> H 2.4113704554 1.8439473908 1.0163379334
| 16> H 1.908312744 0.3376601758 -0.8772922099
| 17> H 2.0757966513 -0.518715648 0.6507962906
| 18> H 1.1400678342 -2.3912413851 -0.5571010461
| 19> H 0.7393152597 -1.4607928843 -2.0006637756
| 20> H -0.5180727002 -2.3642105182 -1.1543434076
| 21> H -1.447232462 -1.5444481916 1.0006431792
| 22> H 0.1810640495 -1.7287922631 1.6491140629
| 23> H -0.6845405087 -0.2103831741 1.8655719896
| 24> H -0.3364225687 0.9882567953 -1.6081133753
| 25> H -1.5409854498 -0.2875608304 -1.5348936256
| 26> H -2.5250453945 0.6410699854 0.4940127928
| 27> H -1.2873546482 1.8922071105 0.5821779259
| 28> H -2.4247214397 1.869259905 -0.7603845068
| 29> *
| 30>
| 31>                          ****END OF INPUT****

CARTESIAN COORDINATES (ANGSTROEM)
---------------------------------
  C      1.394523    1.498387    0.840263
  C      1.434820    0.169747    0.093788
  C      0.084756   -0.536165   -0.146323
  C      0.380031   -1.765481   -1.019930
  C     -0.505519   -1.029488    1.176351
  C     -0.908232    0.359184   -0.921812
  C     -1.836362    1.243296   -0.092002
  H      0.904027    1.396158    1.804513
  H      0.879868    2.258801    0.259809
  H      2.411370    1.843947    1.016338
  H      1.908313    0.337660   -0.877292
  H      2.075797   -0.518716    0.650796
  H      1.140068   -2.391241   -0.557101
  H      0.739315   -1.460793   -2.000664
  H     -0.518073   -2.364211   -1.154343
  H     -1.447232   -1.544448    1.000643
  H      0.181064   -1.728792    1.649114
  H     -0.684541   -0.210383    1.865572
  H     -0.336423    0.988257   -1.608113
  H     -1.540985   -0.287561   -1.534894
  H     -2.525045    0.641070    0.494013
  H     -1.287355    1.892207    0.582178
  H     -2.424721    1.869260   -0.760385

 Total Charge           Charge          ....    0
 Multiplicity           Mult            ....    1
 Number of Electrons    NEL             ....   58
 Basis Dimension        Dim             ....  130

ORBITAL ENERGIES
----------------

  NO   OCC          E(Eh)            E(eV)
   0   2.0000      -9.899472      -269.3783
   1   2.0000      -9.877982      -268.7935
   2   2.0000      -9.877913      -268.7917
   3   2.0000      -9.869822      -268.5715
   4   2.0000      -9.868197      -268.5273
   5   2.0000      -9.867506      -268.5085
   6   2.0000      -9.866386      -268.4780
   7   2.0000      -0.745650       -20.2902
   8   2.0000      -0.667657       -18.1679
   9   2.0000      -0.651186       -17.7197
  10   2.0000      -0.609164       -16.5762
  11   2.0000      -0.559263       -15.2183
  12   2.0000      -0.541876       -14.7452
  13   2.0000      -0.462544       -12.5865
  14   2.0000      -0.417585       -11.3631
  15   2.0000      -0.409429       -11.1411
  16   2.0000      -0.394424       -10.7328
  17   2.0000      -0.372892       -10.1469
  18   2.0000      -0.358128        -9.7452
  19   2.0000      -0.353967        -9.6319
  20   2.0000      -0.335651        -9.1335
  21   2.0000      -0.331067        -9.0088
  22   2.0000      -0.316760        -8.6195
  23   2.0000      -0.313499        -8.5307
  24   2.0000      -0.299990        -8.1631
  25   2.0000      -0.292554        -7.9608
  26   2.0000      -0.268248        -7.2994
  27   2.0000      -0.264830        -7.2064
  28   2.0000      -0.258284        -7.0283
  29   0.0000       0.030070         0.8182
  30   0.0000       0.060094         1.6352
  31   0.0000       0.068746         1.8707
  32   0.0000       0.070173         1.9095
  33   0.0000       0.088950         2.4204

MULLIKEN ATOMIC CHARGES
-----------------------
   0 C :   -0.267273
   1 C :   -0.141391
   2 C :   -0.241319
   3 C :   -0.204478
   4 C :   -0.221597
   5 C :   -0.135205
   6 C :   -0.271193
   7 H :    0.102428
   8 H :    0.109766
   9 H :    0.098640
  10 H :    0.076190
  11 H :    0.074396
  12 H :    0.088982
  13 H :    0.092123
  14 H :    0.092472
  15 H :    0.094665
  16 H :    0.091195
  17 H :    0.107084
  18 H :    0.077938
  19 H :    0.074618
  20 H :    0.100594
  21 H :    0.102487
  22 H :    0.098878
Sum of atomic charges:    0.0000000

LOEWDIN ATOMIC CHARGES
----------------------
   0 C :   -0.343319
   1 C :   -0.213581
   2 C :   -0.101846
   3 C :   -0.315503
   4 C :   -0.318542
   5 C :   -0.215590
   6 C :   -0.343648
   7 H :    0.116176
   8 H :    0.117681
   9 H :    0.120399
  10 H :    0.112321
  11 H :    0.111857
  12 H :    0.113466
  13 H :    0.114608
  14 H :    0.113131
  15 H :    0.116841
  16 H :    0.116658
  17 H :    0.115844
  18 H :    0.114206
  19 H :    0.115637
  20 H :    0.117202
  21 H :    0.116141
  22 H :    0.119862

  Mayer bond orders larger than 0.100000
B(  0-C ,  1-C ) :   1.1706 B(  0-C ,  7-H ) :   0.9450 B(  0-C ,  8-H ) :   0.9395
B(  0-C ,  9-H ) :   0.9452 B(  1-C ,  2-C ) :   1.0549 B(  1-C , 10-H ) :   0.9168
B(  1-C , 11-H ) :   0.9204 B(  2-C ,  3-C ) :   1.0803 B(  2-C ,  4-C ) :   1.0952
B(  2-C ,  5-C ) :   1.0301 B(  3-C , 12-H ) :   0.9462 B(  3-C , 13-H ) :   0.9458
B(  3-C , 14-H ) :   0.9438 B(  4-C , 15-H ) :   0.9445 B(  4-C , 16-H ) :   0.9451
B(  4-C , 17-H ) :   0.9293 B(  5-C ,  6-C ) :   1.1789 B(  5-C , 18-H ) :   0.9210
B(  5-C , 19-H ) :   0.9178 B(  6-C , 20-H ) :   0.9397 B(  6-C , 21-H ) :   0.9433
B(  6-C , 22-H ) :   0.9475

Dispersion correction           -0.020064213
FINAL SINGLE POINT ENERGY      -275.657438892134

DIPOLE MOMENT
-------------

Method             : SCF
Type of density    : Electron Density
Multiplicity       :   1
Irrep              :   0
Energy             :  -275.7343255748467072 Eh
Relativity type    :
Basis              : AO
                                X                 Y                 Z
Electronic contribution:      0.498821884      -0.650420634      -0.777336309
Nuclear contribution   :     -0.492115266       0.676616291       0.778846743
                        -----------------------------------------
Total Dipole Moment    :      0.006706618       0.026195657       0.001510433
                        -----------------------------------------
Magnitude (a.u.)       :      0.027082699
Magnitude (Debye)      :      0.068838750

Rotational constants in cm-1:             0.082257             0.080936             0.057696
Rotational constants in MHz :          2465.996362          2426.406063          1729.675258

                             ****ORCA TERMINATED NORMALLY****
TOTAL RUN TIME: 0 days 0 hours 0 minutes 10 seconds 121 msec
