                         Program Version 6.0.0  -   RELEASE  -
|  1> ! pbe def2-sv(p) def2/J RI DEFGRID1 loosescf d4 GCP(DFT/SV(P)) printgap
|  2> %output
|  3>     printlevel normal
|  4> end
|  5> * xyz 0 1
|  6> C 2.1678144096 1.3236095672 -0.5152976195
|  7> C 1.5862629457 0.281711655 0.4343422543
|  8> C 0.4032888633 -0.4992678115 -0.157576535
|  9> H 0.6758311704 -0.7781138443 -1.1828014711
| 10> C 0.1941959474 -1.7893349184 0.6363337738
| 11> C -0.876894421 0.3580054547 -0.249115323
| 12> C -1.8606834714 -0.2263785114 -1.2633716305
| 13> C -1.5763459858 0.5502415839 1.0956750002
| 14> H 1.4399068299 2.095326425 -0.7524331396
| 15> H 3.0316088368 1.8036144933 -0.0612735319
| 16> H 2.4847710034 0.8552818618 -1.4447159743
| 17> H 1.2790297587 0.7673912454 1.3622748953
| 18> H 2.3750532582 -0.4309208844 0.686412962
| 19> H 1.0618788971 -2.436416377 0.5269075543
| 20> H 0.0637180455 -1.5750805356 1.6937716357
| 21> H -0.6766850179 -2.3322813664 0.2794786898
| 22> H -0.5804999374 1.3462323302 -0.6164452224
| 23> H -2.7288253271 0.4216758922 -1.360743438
| 24> H -2.2064942706 -1.2083158575 -0.9497022308
| 25> H -1.3939291847 -0.3221744342 -2.2411901874
| 26> H -2.3784097706 1.2780173379 0.9925977912
| 27> H -0.8850172195 0.9157182692 1.8505852456
| 28> H -2.0104671592 -0.3831162696 1.4438168196
| 29> *
| 30>
| 31>                          ****END OF INPUT****

CARTESIAN COORDINATES (ANGSTROEM)
---------------------------------
  C      2.167814    1.323610   -0.515298
  C      1.586263    0.281712    0.434342
  C      0.403289   -0.499268   -0.157577
  H      0.675831   -0.778114   -1.182801
  C      0.194196   -1.789335    0.636334
  C     -0.876894    0.358005   -0.249115
  C     -1.860683   -0.226379   -1.263372
  C     -1.576346    0.550242    1.095675
  H      1.439907    2.095326   -0.752433
  H      3.031609    1.803614   -0.061274
  H      2.484771    0.855282   -1.444716
  H      1.279030    0.767391    1.362275
  H      2.375053   -0.430921    0.686413
  H      1.061879   -2.436416    0.526908
  H      0.063718   -1.575081    1.693772
  H     -0.676685   -2.332281    0.279479
  H     -0.580500    1.346232   -0.616445
  H     -2.728825    0.421676   -1.360743
  H     -2.206494   -1.208316   -0.949702
  H     -1.393929   -0.322174   -2.241190
  H     -2.378410    1.278017    0.992598
  H     -0.885017    0.915718    1.850585
  H     -2.010467   -0.383116    1.443817

 Total Charge           Charge          ....    0
 Multiplicity           Mult            ....    1
 Number of Electrons    NEL             ....   58
 Basis Dimension        Dim             ....  130

ORBITAL ENERGIES
----------------

  NO   OCC          E(Eh)            E(eV)
   0   2.0000      -9.888341      -269.0754
   1   2.0000      -9.886540      -269.0264
   2   2.0000      -9.877518      -268.7809
   3   2.0000      -9.869439      -268.5611
   4   2.0000      -9.868273      -268.5294
   5   2.0000      -9.867837      -268.5175
   6   2.0000      -9.867448      -268.5069
   7   2.0000      -0.741222       -20.1697
   8   2.0000      -0.682409       -18.5693
   9   2.0000      -0.641694       -17.4614
  10   2.0000      -0.606893       -16.5144
  11   2.0000      -0.564025       -15.3479
  12   2.0000      -0.529872       -14.4185
  13   2.0000      -0.472704       -12.8629
  14   2.0000      -0.423820       -11.5327
  15   2.0000      -0.407070       -11.0770
  16   2.0000      -0.386230       -10.5098
  17   2.0000      -0.371528       -10.1098
  18   2.0000      -0.368468       -10.0265
  19   2.0000      -0.350724        -9.5437
  20   2.0000      -0.337974        -9.1967
  21   2.0000      -0.328601        -8.9417
  22   2.0000      -0.319514        -8.6944
  23   2.0000      -0.301242        -8.1972
  24   2.0000      -0.299282        -8.1439
  25   2.0000      -0.298136        -8.1127
  26   2.0000      -0.269884        -7.3439
  27   2.0000      -0.262075        -7.1314
  28   2.0000      -0.260314        -7.0835
  29   0.0000       0.031863         0.8670
  30   0.0000       0.055471         1.5094
  31   0.0000       0.063462         1.7269
  32   0.0000       0.067210         1.8289
  33   0.0000       0.091723         2.4959

MULLIKEN ATOMIC CHARGES
-----------------------
   0 C :   -0.271939
   1 C :   -0.152081
   2 C :   -0.140211
   3 H :    0.058538
   4 C :   -0.247590
   5 C :   -0.162566
   6 C :   -0.237439
   7 C :   -0.258148
   8 H :    0.105582
   9 H :    0.099942
  10 H :    0.095981
  11 H :    0.080767
  12 H :    0.077917
  13 H :    0.096819
  14 H :    0.099434
  15 H :    0.099759
  16 H :    0.070217
  17 H :    0.094845
  18 H :    0.095849
  19 H :    0.095328
  20 H :    0.097335
  21 H :    0.102656
  22 H :    0.099005
Sum of atomic charges:   -0.0000000

LOEWDIN ATOMIC CHARGES
----------------------
   0 C :   -0.341008
   1 C :   -0.225690
   2 C :   -0.143405
   3 H :    0.110534
   4 C :   -0.330285
   5 C :   -0.150870
   6 C :   -0.328312
   7 C :   -0.330447
   8 H :    0.115222
   9 H :    0.119110
  10 H :    0.116218
  11 H :    0.113554
  12 H :    0.114057
  13 H :    0.117966
  14 H :    0.117738
  15 H :    0.115051
  16 H :    0.112866
  17 H :    0.116718
  18 H :    0.114597
  19 H :    0.115644
  20 H :    0.118621
  21 H :    0.115076
  22 H :    0.117045

  Mayer bond orders larger than 0.100000
B(  0-C ,  1-C ) :   1.1615 B(  0-C ,  8-H ) :   0.9452 B(  0-C ,  9-H ) :   0.9499
B(  0-C , 10-H ) :   0.9527 B(  1-C ,  2-C ) :   1.0788 B(  1-C , 11-H ) :   0.9123
B(  1-C , 12-H ) :   0.9236 B(  2-C ,  3-H ) :   0.9018 B(  2-C ,  4-C ) :   1.1107
B(  2-C ,  5-C ) :   1.0332 B(  4-C , 13-H ) :   0.9442 B(  4-C , 14-H ) :   0.9409
B(  4-C , 15-H ) :   0.9468 B(  5-C ,  6-C ) :   1.1118 B(  5-C ,  7-C ) :   1.1101
B(  5-C , 16-H ) :   0.8975 B(  6-C , 17-H ) :   0.9497 B(  6-C , 18-H ) :   0.9445
B(  6-C , 19-H ) :   0.9479 B(  7-C , 20-H ) :   0.9480 B(  7-C , 21-H ) :   0.9450
B(  7-C , 22-H ) :   0.9414

Dispersion correction           -0.019139248
FINAL SINGLE POINT ENERGY      -275.660349224597

DIPOLE MOMENT
-------------

Method             : SCF
Type of density    : Electron Density
Multiplicity       :   1
Irrep              :   0
Energy             :  -275.7377445813420991 Eh
Relativity type    :
Basis              : AO
                                X                 Y                 Z
Electronic contribution:      0.446328062       0.010815787      -0.219510626
Nuclear contribution   :     -0.420793631       0.015797031       0.212531465
                        -----------------------------------------
Total Dipole Moment    :      0.025534431       0.026612818      -0.006979161
                        -----------------------------------------
Magnitude (a.u.)       :      0.037536088
Magnitude (Debye)      :      0.095409154

Rotational constants in cm-1:             0.104623             0.057695             0.051395
Rotational constants in MHz :          3136.533621          1729.656742          1540.782658

                             ****ORCA TERMINATED NORMALLY****
TOTAL RUN TIME: 0 days 0 hours 0 minutes 9 seconds 682 msec
