                         Program Version 6.0.0  -   RELEASE  -
|  1> ! pbe def2-sv(p) def2/J RI DEFGRID1 loosescf d4 GCP(DFT/SV(P)) printgap
|  2> %output
|  3>     printlevel normal
|  4> end
|  5> * xyz 0 1
|  6> C 2.6161601769 -0.838604961 -0.1015103796
|  7> C 1.9940532466 0.5515181918 -0.1718182755
|  8> C 0.5690940455 0.6049593875 0.3830979308
|  9> C -0.4177513006 -0.1607244428 -0.4830026605
| 10> S -2.1243484931 -0.0795379522 0.1757985657
| 11> H 2.5852412637 -1.2179714185 0.9174288253
| 12> H 3.654430118 -0.8007142894 -0.4215770099
| 13> H 2.0902297937 -1.5381095939 -0.7461005026
| 14> H 1.9901921633 0.89736683 -1.2077436507
| 15> H 2.60930888 1.2432089296 0.4068506602
| 16> H 0.2522426014 1.6490843926 0.4418041202
| 17> H 0.552209929 0.1940684681 1.3949272383
| 18> H -0.4381013405 0.2196155897 -1.5039588581
| 19> H -0.1925792097 -1.225934332 -0.5014889323
| 20> H -2.2622699053 1.2370652502 0.0748145911
| 21> *
| 22>
| 23>                          ****END OF INPUT****

CARTESIAN COORDINATES (ANGSTROEM)
---------------------------------
  C      2.616160   -0.838605   -0.101510
  C      1.994053    0.551518   -0.171818
  C      0.569094    0.604959    0.383098
  C     -0.417751   -0.160724   -0.483003
  S     -2.124348   -0.079538    0.175799
  H      2.585241   -1.217971    0.917429
  H      3.654430   -0.800714   -0.421577
  H      2.090230   -1.538110   -0.746101
  H      1.990192    0.897367   -1.207744
  H      2.609309    1.243209    0.406851
  H      0.252243    1.649084    0.441804
  H      0.552210    0.194068    1.394927
  H     -0.438101    0.219616   -1.503959
  H     -0.192579   -1.225934   -0.501489
  H     -2.262270    1.237065    0.074815

 Total Charge           Charge          ....    0
 Multiplicity           Mult            ....    1
 Number of Electrons    NEL             ....   50
 Basis Dimension        Dim             ....   94

ORBITAL ENERGIES
----------------

  NO   OCC          E(Eh)            E(eV)
   0   2.0000     -88.010895     -2394.8982
   1   2.0000      -9.915904      -269.8255
   2   2.0000      -9.889816      -269.1156
   3   2.0000      -9.888670      -269.0844
   4   2.0000      -9.877234      -268.7732
   5   2.0000      -7.657472      -208.3704
   6   2.0000      -5.685979      -154.7234
   7   2.0000      -5.681918      -154.6129
   8   2.0000      -5.673576      -154.3859
   9   2.0000      -0.738613       -20.0987
  10   2.0000      -0.688734       -18.7414
  11   2.0000      -0.619375       -16.8541
  12   2.0000      -0.560531       -15.2528
  13   2.0000      -0.512651       -13.9500
  14   2.0000      -0.431869       -11.7518
  15   2.0000      -0.409529       -11.1439
  16   2.0000      -0.390690       -10.6312
  17   2.0000      -0.364312        -9.9134
  18   2.0000      -0.342746        -9.3266
  19   2.0000      -0.334071        -9.0905
  20   2.0000      -0.314855        -8.5676
  21   2.0000      -0.295049        -8.0287
  22   2.0000      -0.291406        -7.9296
  23   2.0000      -0.272312        -7.4100
  24   2.0000      -0.191547        -5.2123
  25   0.0000       0.004919         0.1339
  26   0.0000       0.035645         0.9700
  27   0.0000       0.057154         1.5552
  28   0.0000       0.062933         1.7125
  29   0.0000       0.068983         1.8771

MULLIKEN ATOMIC CHARGES
-----------------------
   0 C :   -0.293854
   1 C :   -0.177395
   2 C :   -0.126831
   3 C :   -0.311737
   4 S :   -0.169916
   5 H :    0.101889
   6 H :    0.106321
   7 H :    0.107995
   8 H :    0.084777
   9 H :    0.090805
  10 H :    0.083029
  11 H :    0.092856
  12 H :    0.129379
  13 H :    0.142754
  14 H :    0.139929
Sum of atomic charges:   -0.0000000

LOEWDIN ATOMIC CHARGES
----------------------
   0 C :   -0.343314
   1 C :   -0.235212
   2 C :   -0.247580
   3 C :   -0.333785
   4 S :    0.015312
   5 H :    0.118877
   6 H :    0.121510
   7 H :    0.116562
   8 H :    0.114340
   9 H :    0.118561
  10 H :    0.113911
  11 H :    0.118478
  12 H :    0.121015
  13 H :    0.126767
  14 H :    0.074556

  Mayer bond orders larger than 0.100000
B(  0-C ,  1-C ) :   1.1505 B(  0-C ,  5-H ) :   0.9548 B(  0-C ,  6-H ) :   0.9517
B(  0-C ,  7-H ) :   0.9526 B(  1-C ,  2-C ) :   1.1064 B(  1-C ,  8-H ) :   0.9267
B(  1-C ,  9-H ) :   0.9263 B(  2-C ,  3-C ) :   1.0811 B(  2-C , 10-H ) :   0.9243
B(  2-C , 11-H ) :   0.9213 B(  3-C ,  4-S ) :   1.0707 B(  3-C , 12-H ) :   0.9260
B(  3-C , 13-H ) :   0.9198 B(  4-S , 14-H ) :   0.9077

Dispersion correction           -0.010915993
FINAL SINGLE POINT ENERGY      -555.912156253822

DIPOLE MOMENT
-------------

Method             : SCF
Type of density    : Electron Density
Multiplicity       :   1
Irrep              :   0
Energy             :  -555.9642425778429242 Eh
Relativity type    :
Basis              : AO
                                X                 Y                 Z
Electronic contribution:     -9.673221093      -0.296813727       0.872905404
Nuclear contribution   :     10.230927310       0.619274432      -1.079237522
                        -----------------------------------------
Total Dipole Moment    :      0.557706217       0.322460705      -0.206332118
                        -----------------------------------------
Magnitude (a.u.)       :      0.676454044
Magnitude (Debye)      :      1.719409537

Rotational constants in cm-1:             0.394513             0.050286             0.047724
Rotational constants in MHz :         11827.197800          1507.535235          1430.715989

                             ****ORCA TERMINATED NORMALLY****
TOTAL RUN TIME: 0 days 0 hours 0 minutes 5 seconds 530 msec
