                         Program Version 6.0.0  -   RELEASE  -
|  1> ! pbe def2-sv(p) def2/J RI DEFGRID1 loosescf d4 GCP(DFT/SV(P)) printgap
|  2> %output
|  3>     printlevel normal
|  4> end
|  5> * xyz 0 1
|  6> C -2.5935389903 0.6901079121 -0.5988082902
|  7> C -1.739271159 0.3555565049 0.6254982863
|  8> C -0.5080802805 -0.4042618721 0.2013934773
|  9> O -0.5180454988 -1.504061682 -0.3134883528
| 10> O 0.5974745525 0.284168883 0.4415285633
| 11> C 1.8671202633 -0.2770372268 0.0640002827
| 12> C 2.7944413952 0.8526945755 -0.3452632105
| 13> H -3.5175329965 1.1665677975 -0.2858617492
| 14> H -2.0588332623 1.363939203 -1.263432921
| 15> H -2.8311172524 -0.2200270546 -1.1443738625
| 16> H -2.3099146646 -0.282288092 1.30157638
| 17> H -1.4305518406 1.2612652493 1.1447828944
| 18> H 2.2593398476 -0.8171591128 0.930915324
| 19> H 1.7029678833 -0.9893402444 -0.7508452346
| 20> H 2.3940227365 1.3747354828 -1.2097343961
| 21> H 2.8995911228 1.5588827203 0.4729511176
| 22> H 3.768207285 0.4444682673 -0.5947553243
| 23> *
| 24>
| 25>                          ****END OF INPUT****

CARTESIAN COORDINATES (ANGSTROEM)
---------------------------------
  C     -2.593539    0.690108   -0.598808
  C     -1.739271    0.355557    0.625498
  C     -0.508080   -0.404262    0.201393
  O     -0.518045   -1.504062   -0.313488
  O      0.597475    0.284169    0.441529
  C      1.867120   -0.277037    0.064000
  C      2.794441    0.852695   -0.345263
  H     -3.517533    1.166568   -0.285862
  H     -2.058833    1.363939   -1.263433
  H     -2.831117   -0.220027   -1.144374
  H     -2.309915   -0.282288    1.301576
  H     -1.430552    1.261265    1.144783
  H      2.259340   -0.817159    0.930915
  H      1.702968   -0.989340   -0.750845
  H      2.394023    1.374735   -1.209734
  H      2.899591    1.558883    0.472951
  H      3.768207    0.444468   -0.594755

 Total Charge           Charge          ....    0
 Multiplicity           Mult            ....    1
 Number of Electrons    NEL             ....   56
 Basis Dimension        Dim             ....  118

ORBITAL ENERGIES
----------------

  NO   OCC          E(Eh)            E(eV)
   0   2.0000     -18.797682      -511.5109
   1   2.0000     -18.728848      -509.6379
   2   2.0000     -10.003485      -272.2087
   3   2.0000      -9.945734      -270.6372
   4   2.0000      -9.897832      -269.3337
   5   2.0000      -9.889739      -269.1135
   6   2.0000      -9.884907      -268.9820
   7   2.0000      -1.003567       -27.3084
   8   2.0000      -0.906597       -24.6698
   9   2.0000      -0.720560       -19.6074
  10   2.0000      -0.689740       -18.7688
  11   2.0000      -0.604473       -16.4485
  12   2.0000      -0.557208       -15.1624
  13   2.0000      -0.504405       -13.7256
  14   2.0000      -0.444236       -12.0883
  15   2.0000      -0.442424       -12.0390
  16   2.0000      -0.418447       -11.3865
  17   2.0000      -0.390365       -10.6224
  18   2.0000      -0.377490       -10.2720
  19   2.0000      -0.368851       -10.0369
  20   2.0000      -0.358267        -9.7489
  21   2.0000      -0.335036        -9.1168
  22   2.0000      -0.325723        -8.8634
  23   2.0000      -0.317468        -8.6387
  24   2.0000      -0.306479        -8.3397
  25   2.0000      -0.290667        -7.9095
  26   2.0000      -0.254150        -6.9158
  27   2.0000      -0.215593        -5.8666
  28   0.0000      -0.018614        -0.5065
  29   0.0000       0.040736         1.1085
  30   0.0000       0.058247         1.5850
  31   0.0000       0.080065         2.1787
  32   0.0000       0.090829         2.4716

MULLIKEN ATOMIC CHARGES
-----------------------
   0 C :   -0.299435
   1 C :   -0.146478
   2 C :    0.098383
   3 O :   -0.213610
   4 O :   -0.237954
   5 C :   -0.029844
   6 C :   -0.280844
   7 H :    0.112104
   8 H :    0.107865
   9 H :    0.123376
  10 H :    0.112535
  11 H :    0.096824
  12 H :    0.103843
  13 H :    0.114611
  14 H :    0.113063
  15 H :    0.114161
  16 H :    0.111401
Sum of atomic charges:    0.0000000

LOEWDIN ATOMIC CHARGES
----------------------
   0 C :   -0.331257
   1 C :   -0.252261
   2 C :    0.035333
   3 O :   -0.174655
   4 O :   -0.068639
   5 C :   -0.112110
   6 C :   -0.350900
   7 H :    0.122556
   8 H :    0.121094
   9 H :    0.127450
  10 H :    0.139580
  11 H :    0.126874
  12 H :    0.116371
  13 H :    0.119316
  14 H :    0.125637
  15 H :    0.125674
  16 H :    0.129938

  Mayer bond orders larger than 0.100000
B(  0-C ,  1-C ) :   1.1416 B(  0-C ,  7-H ) :   0.9533 B(  0-C ,  8-H ) :   0.9565
B(  0-C ,  9-H ) :   0.9499 B(  1-C ,  2-C ) :   1.0207 B(  1-C , 10-H ) :   0.9042
B(  1-C , 11-H ) :   0.9138 B(  2-C ,  3-O ) :   2.0526 B(  2-C ,  4-O ) :   1.2171
B(  4-O ,  5-C ) :   0.9121 B(  5-C ,  6-C ) :   1.1584 B(  5-C , 12-H ) :   0.9360
B(  5-C , 13-H ) :   0.9144 B(  6-C , 14-H ) :   0.9524 B(  6-C , 15-H ) :   0.9488
B(  6-C , 16-H ) :   0.9449

Dispersion correction           -0.011599603
FINAL SINGLE POINT ENERGY      -346.244005461974

DIPOLE MOMENT
-------------

Method             : SCF
Type of density    : Electron Density
Multiplicity       :   1
Irrep              :   0
Energy             :  -346.3086568542790360 Eh
Relativity type    :
Basis              : AO
                                X                 Y                 Z
Electronic contribution:     -0.475936908      -3.893737740       1.505258831
Nuclear contribution   :      0.823179895       4.542385927      -1.310389083
                        -----------------------------------------
Total Dipole Moment    :      0.347242987       0.648648187       0.194869747
                        -----------------------------------------
Magnitude (a.u.)       :      0.761115222
Magnitude (Debye)      :      1.934601148

Rotational constants in cm-1:             0.182458             0.046783             0.041899
Rotational constants in MHz :          5469.947919          1402.513260          1256.109234

                             ****ORCA TERMINATED NORMALLY****
TOTAL RUN TIME: 0 days 0 hours 0 minutes 8 seconds 298 msec
