                         Program Version 6.0.0  -   RELEASE  -
|  1> ! r2scan-3c def2/J RI DEFGRID2 scfconv6 printgap
|  2> %output
|  3>     printlevel normal
|  4> end
|  5> %cpcm
|  6>     smd true
|  7>     smdsolvent "water"
|  8> end
|  9> * xyz 0 1
| 10> C 1.4921871771 -0.943272844 0.7523112206
| 11> C 1.0848342113 -0.2471090187 -0.54335126
| 12> C 2.2948084948 0.4141321954 -1.1988012303
| 13> C 0.0008196996 0.812365436 -0.2698667915
| 14> C -1.2525581417 0.2213759592 0.3254519759
| 15> O -1.576213666 0.4300810634 1.4797323947
| 16> C -2.0744234093 -0.6371062627 -0.5903862187
| 17> H 2.2370449989 -1.7101891949 0.5546725829
| 18> H 1.9148818988 -0.2243102374 1.4507974868
| 19> H 0.6333910057 -1.4101242078 1.2307745039
| 20> H 0.6827221235 -0.9931444575 -1.2352583172
| 21> H 2.7124246112 1.1759166783 -0.5445895068
| 22> H 2.0163357078 0.8819150979 -2.1396809859
| 23> H 3.0652461883 -0.3265667178 -1.3972502011
| 24> H -0.2551019431 1.3058756777 -1.2078444493
| 25> H 0.3964662308 1.5536981166 0.4271742385
| 26> H -2.3037833222 -0.0940436039 -1.502749443
| 27> H -1.5051077342 -1.5231379648 -0.8610587223
| 28> H -2.9932158684 -0.9391819629 -0.095308412
| 29> *
| 30>
| 31>                          ****END OF INPUT****

CARTESIAN COORDINATES (ANGSTROEM)
---------------------------------
  C      1.492187   -0.943273    0.752311
  C      1.084834   -0.247109   -0.543351
  C      2.294808    0.414132   -1.198801
  C      0.000820    0.812365   -0.269867
  C     -1.252558    0.221376    0.325452
  O     -1.576214    0.430081    1.479732
  C     -2.074423   -0.637106   -0.590386
  H      2.237045   -1.710189    0.554673
  H      1.914882   -0.224310    1.450797
  H      0.633391   -1.410124    1.230775
  H      0.682722   -0.993144   -1.235258
  H      2.712425    1.175917   -0.544590
  H      2.016336    0.881915   -2.139681
  H      3.065246   -0.326567   -1.397250
  H     -0.255102    1.305876   -1.207844
  H      0.396466    1.553698    0.427174
  H     -2.303783   -0.094044   -1.502749
  H     -1.505108   -1.523138   -0.861059
  H     -2.993216   -0.939182   -0.095308

 Total Charge           Charge          ....    0
 Multiplicity           Mult            ....    1
 Number of Electrons    NEL             ....   56
 Basis Dimension        Dim             ....  198

ORBITAL ENERGIES
----------------

  NO   OCC          E(Eh)            E(eV)
   0   2.0000     -18.945847      -515.5427
   1   2.0000     -10.123875      -275.4846
   2   2.0000     -10.037432      -273.1324
   3   2.0000     -10.025692      -272.8129
   4   2.0000     -10.021885      -272.7094
   5   2.0000     -10.009930      -272.3840
   6   2.0000     -10.009788      -272.3802
   7   2.0000      -1.013756       -27.5857
   8   2.0000      -0.779540       -21.2124
   9   2.0000      -0.715693       -19.4750
  10   2.0000      -0.658287       -17.9129
  11   2.0000      -0.645999       -17.5785
  12   2.0000      -0.537858       -14.6359
  13   2.0000      -0.496083       -13.4991
  14   2.0000      -0.441137       -12.0040
  15   2.0000      -0.432612       -11.7720
  16   2.0000      -0.420848       -11.4518
  17   2.0000      -0.404089       -10.9958
  18   2.0000      -0.383561       -10.4372
  19   2.0000      -0.370847       -10.0913
  20   2.0000      -0.349846        -9.5198
  21   2.0000      -0.338953        -9.2234
  22   2.0000      -0.335354        -9.1254
  23   2.0000      -0.334826        -9.1111
  24   2.0000      -0.305313        -8.3080
  25   2.0000      -0.294632        -8.0174
  26   2.0000      -0.289748        -7.8845
  27   2.0000      -0.221470        -6.0265
  28   0.0000      -0.049090        -1.3358
  29   0.0000       0.085464         2.3256
  30   0.0000       0.111445         3.0326
  31   0.0000       0.128750         3.5035
  32   0.0000       0.137415         3.7392

MULLIKEN ATOMIC CHARGES
-----------------------
   0 C :   -0.540168
   1 C :   -0.028605
   2 C :   -0.524169
   3 C :   -0.293024
   4 C :    0.296092
   5 O :   -0.450208
   6 C :   -0.533934
   7 H :    0.163042
   8 H :    0.169413
   9 H :    0.160856
  10 H :    0.169673
  11 H :    0.164157
  12 H :    0.159512
  13 H :    0.162290
  14 H :    0.181605
  15 H :    0.173761
  16 H :    0.191292
  17 H :    0.200250
  18 H :    0.178165
Sum of atomic charges:    0.0000000

LOEWDIN ATOMIC CHARGES
----------------------
   0 C :   -0.416902
   1 C :   -0.224267
   2 C :   -0.418220
   3 C :   -0.272112
   4 C :    0.227686
   5 O :   -0.543210
   6 C :   -0.384682
   7 H :    0.158933
   8 H :    0.159849
   9 H :    0.159860
  10 H :    0.163680
  11 H :    0.158243
  12 H :    0.157448
  13 H :    0.158261
  14 H :    0.185612
  15 H :    0.180974
  16 H :    0.185634
  17 H :    0.188747
  18 H :    0.174464

  Mayer bond orders larger than 0.100000
B(  0-C ,  1-C ) :   0.8811 B(  0-C ,  7-H ) :   0.9664 B(  0-C ,  8-H ) :   0.9818
B(  0-C ,  9-H ) :   0.9639 B(  1-C ,  2-C ) :   0.8922 B(  1-C ,  3-C ) :   0.8868
B(  1-C , 10-H ) :   0.9536 B(  2-C , 11-H ) :   0.9864 B(  2-C , 12-H ) :   0.9731
B(  2-C , 13-H ) :   0.9711 B(  3-C ,  4-C ) :   0.9182 B(  3-C , 14-H ) :   0.9372
B(  3-C , 15-H ) :   0.9784 B(  4-C ,  5-O ) :   1.9014 B(  4-C ,  6-C ) :   0.9416
B(  6-C , 16-H ) :   0.9340 B(  6-C , 17-H ) :   0.9309 B(  6-C , 18-H ) :   0.9727

Dispersion correction           -0.005111817
FINAL SINGLE POINT ENERGY      -311.011264870216

DIPOLE MOMENT
-------------

Method             : SCF
Type of density    : Electron Density
Multiplicity       :   1
Irrep              :   0
Energy             :  -311.0150228853884187 Eh
Relativity type    :
Basis              : AO
                                X                 Y                 Z
Electronic contribution:     -5.594678162       1.770224180       3.268031784
Nuclear contribution   :      6.169731284      -2.154489081      -4.969389202
                        -----------------------------------------
Total Dipole Moment    :      0.575053122      -0.384264901      -1.701357419
                        -----------------------------------------
Magnitude (a.u.)       :      1.836562733
Magnitude (Debye)      :      4.668171482

Rotational constants in cm-1:             0.145492             0.052282             0.048362
Rotational constants in MHz :          4361.755225          1567.378220          1449.867216

                             ****ORCA TERMINATED NORMALLY****
TOTAL RUN TIME: 0 days 0 hours 0 minutes 31 seconds 735 msec
