                         Program Version 6.0.0  -   RELEASE  -
|  1> ! r2scan-3c def2/J RI DEFGRID2 scfconv6 printgap
|  2> %output
|  3>     printlevel normal
|  4> end
|  5> %cpcm
|  6>     smd true
|  7>     smdsolvent "water"
|  8> end
|  9> * xyz 0 1
| 10> C -2.7159688893 0.0790640448 0.0216648942
| 11> C -1.389305764 -0.6546826131 0.018788418
| 12> S -3.40607e-05 0.5421763395 -0.0027845341
| 13> C 1.3894346158 -0.6546457511 -0.0081060289
| 14> C 2.7159171603 0.0792177927 -0.0263054125
| 15> H -2.805052684 0.7015199985 -0.8653047372
| 16> H -3.5327029432 -0.63834623 0.0338827005
| 17> H -2.7925295017 0.7172998907 0.8985392749
| 18> H -1.2867695625 -1.2816237402 -0.8677036965
| 19> H -1.2736005898 -1.2650307089 0.9151911278
| 20> H 1.289209155 -1.2671864766 0.8886707347
| 21> H 1.2716562273 -1.2794547319 -0.8942254317
| 22> H 3.532794054 -0.6381277591 -0.0299130951
| 23> H 2.7896241883 0.703796301 -0.9132108697
| 24> H 2.8075361966 0.7153454368 0.850660462
| 25> *
| 26>
| 27>                          ****END OF INPUT****

CARTESIAN COORDINATES (ANGSTROEM)
---------------------------------
  C     -2.715969    0.079064    0.021665
  C     -1.389306   -0.654683    0.018788
  S     -0.000034    0.542176   -0.002785
  C      1.389435   -0.654646   -0.008106
  C      2.715917    0.079218   -0.026305
  H     -2.805053    0.701520   -0.865305
  H     -3.532703   -0.638346    0.033883
  H     -2.792530    0.717300    0.898539
  H     -1.286770   -1.281624   -0.867704
  H     -1.273601   -1.265031    0.915191
  H      1.289209   -1.267186    0.888671
  H      1.271656   -1.279455   -0.894225
  H      3.532794   -0.638128   -0.029913
  H      2.789624    0.703796   -0.913211
  H      2.807536    0.715345    0.850660

 Total Charge           Charge          ....    0
 Multiplicity           Mult            ....    1
 Number of Electrons    NEL             ....   50
 Basis Dimension        Dim             ....  153

ORBITAL ENERGIES
----------------

  NO   OCC          E(Eh)            E(eV)
   0   2.0000     -88.539245     -2409.2754
   1   2.0000     -10.050210      -273.4801
   2   2.0000     -10.050205      -273.4800
   3   2.0000     -10.017868      -272.6000
   4   2.0000     -10.017865      -272.6000
   5   2.0000      -7.833308      -213.1552
   6   2.0000      -5.780399      -157.2927
   7   2.0000      -5.777028      -157.2009
   8   2.0000      -5.770434      -157.0215
   9   2.0000      -0.770939       -20.9783
  10   2.0000      -0.726892       -19.7797
  11   2.0000      -0.648404       -17.6440
  12   2.0000      -0.571272       -15.5451
  13   2.0000      -0.535012       -14.5584
  14   2.0000      -0.427386       -11.6298
  15   2.0000      -0.415142       -11.2966
  16   2.0000      -0.409687       -11.1481
  17   2.0000      -0.373598       -10.1661
  18   2.0000      -0.358340        -9.7509
  19   2.0000      -0.332070        -9.0361
  20   2.0000      -0.327916        -8.9230
  21   2.0000      -0.311048        -8.4641
  22   2.0000      -0.296511        -8.0685
  23   2.0000      -0.274469        -7.4687
  24   2.0000      -0.188740        -5.1359
  25   0.0000       0.013616         0.3705
  26   0.0000       0.071793         1.9536
  27   0.0000       0.102097         2.7782
  28   0.0000       0.119929         3.2634
  29   0.0000       0.141708         3.8561

MULLIKEN ATOMIC CHARGES
-----------------------
   0 C :   -0.493718
   1 C :   -0.229051
   2 S :   -0.201012
   3 C :   -0.229059
   4 C :   -0.493721
   5 H :    0.161955
   6 H :    0.165142
   7 H :    0.161909
   8 H :    0.167106
   9 H :    0.167162
  10 H :    0.167137
  11 H :    0.167139
  12 H :    0.165142
  13 H :    0.161912
  14 H :    0.161956
Sum of atomic charges:   -0.0000000

LOEWDIN ATOMIC CHARGES
----------------------
   0 C :   -0.433376
   1 C :   -0.347207
   2 S :   -0.037008
   3 C :   -0.347206
   4 C :   -0.433379
   5 H :    0.156722
   6 H :    0.161076
   7 H :    0.156711
   8 H :    0.162324
   9 H :    0.162252
  10 H :    0.162296
  11 H :    0.162282
  12 H :    0.161075
  13 H :    0.156716
  14 H :    0.156721

  Mayer bond orders larger than 0.100000
B(  0-C ,  1-C ) :   0.9157 B(  0-C ,  5-H ) :   0.9729 B(  0-C ,  6-H ) :   0.9583
B(  0-C ,  7-H ) :   0.9728 B(  1-C ,  2-S ) :   0.9896 B(  1-C ,  8-H ) :   0.9495
B(  1-C ,  9-H ) :   0.9495 B(  2-S ,  3-C ) :   0.9896 B(  3-C ,  4-C ) :   0.9157
B(  3-C , 10-H ) :   0.9495 B(  3-C , 11-H ) :   0.9495 B(  4-C , 12-H ) :   0.9583
B(  4-C , 13-H ) :   0.9728 B(  4-C , 14-H ) :   0.9729

Dispersion correction           -0.003410271
FINAL SINGLE POINT ENERGY      -556.556033292378

DIPOLE MOMENT
-------------

Method             : SCF
Type of density    : Electron Density
Multiplicity       :   1
Irrep              :   0
Energy             :  -556.5631800305845900 Eh
Relativity type    :
Basis              : AO
                                X                 Y                 Z
Electronic contribution:     -0.000086485       2.346485737      -0.009369379
Nuclear contribution   :      0.000155334      -3.328832182       0.015639995
                        -----------------------------------------
Total Dipole Moment    :      0.000068849      -0.982346445       0.006270616
                        -----------------------------------------
Magnitude (a.u.)       :      0.982366461
Magnitude (Debye)      :      2.496977105

Rotational constants in cm-1:             0.473514             0.057480             0.053313
Rotational constants in MHz :         14195.598274          1723.193811          1598.294470

                             ****ORCA TERMINATED NORMALLY****
TOTAL RUN TIME: 0 days 0 hours 0 minutes 16 seconds 716 msec
