                         Program Version 6.0.0  -   RELEASE  -
|  1> ! pbe def2-sv(p) def2/J RI DEFGRID1 loosescf d4 GCP(DFT/SV(P)) printgap
|  2> %output
|  3>     printlevel normal
|  4> end
|  5> * xyz 0 1
|  6> C -3.6683088152 -0.3894970355 -0.9043631529
|  7> C -3.0079469407 -0.4309592877 0.4656108192
|  8> O -1.5890185453 -0.6141206429 0.3519620494
|  9> C -0.8270276366 0.4662379813 0.1962309063
| 10> O -1.2747172571 1.5995378013 0.1701689848
| 11> C 0.6099580008 0.1447352494 0.0730866602
| 12> C 1.5160498539 1.1940136757 -0.0740795283
| 13> C 2.8671190939 0.9302806078 -0.1921505123
| 14> C 3.3207105251 -0.3797354477 -0.1647673957
| 15> C 2.4227567203 -1.4265692689 -0.0194380794
| 16> C 1.069581886 -1.1710306598 0.0996571762
| 17> H -3.4269039358 -1.2893230127 -1.4637490237
| 18> H -4.7442240478 -0.3192624153 -0.7824813247
| 19> H -3.3180866377 0.4776841327 -1.4600163365
| 20> H -3.3494597919 -1.2894945323 1.044949086
| 21> H -3.1985317582 0.4975577921 1.0127827548
| 22> H 1.1356076962 2.2043620993 -0.0921820483
| 23> H 3.5657896346 1.7443567347 -0.3054354797
| 24> H 4.3759685719 -0.5850910549 -0.257123235
| 25> H 2.7795401473 -2.444459488 0.001105328
| 26> H 0.3622730644 -1.9768891365 0.2131497406
| 27> *
| 28>
| 29>                          ****END OF INPUT****

CARTESIAN COORDINATES (ANGSTROEM)
---------------------------------
  C     -3.668309   -0.389497   -0.904363
  C     -3.007947   -0.430959    0.465611
  O     -1.589019   -0.614121    0.351962
  C     -0.827028    0.466238    0.196231
  O     -1.274717    1.599538    0.170169
  C      0.609958    0.144735    0.073087
  C      1.516050    1.194014   -0.074080
  C      2.867119    0.930281   -0.192151
  C      3.320711   -0.379735   -0.164767
  C      2.422757   -1.426569   -0.019438
  C      1.069582   -1.171031    0.099657
  H     -3.426904   -1.289323   -1.463749
  H     -4.744224   -0.319262   -0.782481
  H     -3.318087    0.477684   -1.460016
  H     -3.349460   -1.289495    1.044949
  H     -3.198532    0.497558    1.012783
  H      1.135608    2.204362   -0.092182
  H      3.565790    1.744357   -0.305435
  H      4.375969   -0.585091   -0.257123
  H      2.779540   -2.444459    0.001105
  H      0.362273   -1.976889    0.213150

 Total Charge           Charge          ....    0
 Multiplicity           Mult            ....    1
 Number of Electrons    NEL             ....   80
 Basis Dimension        Dim             ....  174

ORBITAL ENERGIES
----------------

  NO   OCC          E(Eh)            E(eV)
   0   2.0000     -18.799437      -511.5587
   1   2.0000     -18.733889      -509.7750
   2   2.0000     -10.006749      -272.2975
   3   2.0000      -9.946539      -270.6591
   4   2.0000      -9.908382      -269.6208
   5   2.0000      -9.903936      -269.4998
   6   2.0000      -9.901764      -269.4407
   7   2.0000      -9.900738      -269.4128
   8   2.0000      -9.900512      -269.4066
   9   2.0000      -9.900091      -269.3952
  10   2.0000      -9.886093      -269.0143
  11   2.0000      -1.005078       -27.3496
  12   2.0000      -0.909079       -24.7373
  13   2.0000      -0.785870       -21.3846
  14   2.0000      -0.712068       -19.3763
  15   2.0000      -0.680888       -18.5279
  16   2.0000      -0.677548       -18.4370
  17   2.0000      -0.606221       -16.4961
  18   2.0000      -0.558335       -15.1931
  19   2.0000      -0.545560       -14.8454
  20   2.0000      -0.501567       -13.6483
  21   2.0000      -0.487748       -13.2723
  22   2.0000      -0.440682       -11.9916
  23   2.0000      -0.430702       -11.7200
  24   2.0000      -0.417432       -11.3589
  25   2.0000      -0.405302       -11.0288
  26   2.0000      -0.389524       -10.5995
  27   2.0000      -0.388163       -10.5625
  28   2.0000      -0.382673       -10.4131
  29   2.0000      -0.364287        -9.9128
  30   2.0000      -0.349689        -9.5155
  31   2.0000      -0.334469        -9.1014
  32   2.0000      -0.328353        -8.9349
  33   2.0000      -0.316220        -8.6048
  34   2.0000      -0.308512        -8.3950
  35   2.0000      -0.291650        -7.9362
  36   2.0000      -0.257413        -7.0046
  37   2.0000      -0.238555        -6.4914
  38   2.0000      -0.236789        -6.4434
  39   2.0000      -0.222438        -6.0528
  40   0.0000      -0.075204        -2.0464
  41   0.0000      -0.041533        -1.1302
  42   0.0000       0.021048         0.5728
  43   0.0000       0.041466         1.1284
  44   0.0000       0.051584         1.4037

MULLIKEN ATOMIC CHARGES
-----------------------
   0 C :   -0.302013
   1 C :   -0.009797
   2 O :   -0.243620
   3 C :    0.164832
   4 O :   -0.199990
   5 C :    0.024423
   6 C :   -0.088420
   7 C :   -0.042967
   8 C :   -0.039943
   9 C :   -0.043618
  10 C :   -0.080223
  11 H :    0.112703
  12 H :    0.112186
  13 H :    0.127251
  14 H :    0.101124
  15 H :    0.108540
  16 H :    0.065210
  17 H :    0.059057
  18 H :    0.060154
  19 H :    0.057023
  20 H :    0.058089
Sum of atomic charges:   -0.0000000

LOEWDIN ATOMIC CHARGES
----------------------
   0 C :   -0.355898
   1 C :   -0.111632
   2 O :   -0.063508
   3 C :    0.048554
   4 O :   -0.169730
   5 C :   -0.076648
   6 C :   -0.088376
   7 C :   -0.120466
   8 C :   -0.108344
   9 C :   -0.121706
  10 C :   -0.099381
  11 H :    0.124230
  12 H :    0.130190
  13 H :    0.131005
  14 H :    0.116625
  15 H :    0.120285
  16 H :    0.135445
  17 H :    0.126973
  18 H :    0.126103
  19 H :    0.125835
  20 H :    0.130445

  Mayer bond orders larger than 0.100000
B(  0-C ,  1-C ) :   1.1754 B(  0-C , 11-H ) :   0.9490 B(  0-C , 12-H ) :   0.9442
B(  0-C , 13-H ) :   0.9457 B(  1-C ,  2-O ) :   0.9216 B(  1-C , 14-H ) :   0.9372
B(  1-C , 15-H ) :   0.9116 B(  2-O ,  3-C ) :   1.2376 B(  3-C ,  4-O ) :   2.0440
B(  3-C ,  5-C ) :   0.9408 B(  5-C ,  6-C ) :   1.3895 B(  5-C , 10-C ) :   1.3652
B(  6-C ,  7-C ) :   1.3576 B(  6-C , 16-H ) :   0.9572 B(  7-C ,  8-C ) :   1.3664
B(  7-C , 17-H ) :   0.9669 B(  8-C ,  9-C ) :   1.3747 B(  8-C , 18-H ) :   0.9644
B(  9-C , 10-C ) :   1.3594 B(  9-C , 19-H ) :   0.9648 B( 10-C , 20-H ) :   0.9584

Dispersion correction           -0.021264987
FINAL SINGLE POINT ENERGY      -498.381246687608

DIPOLE MOMENT
-------------

Method             : SCF
Type of density    : Electron Density
Multiplicity       :   1
Irrep              :   0
Energy             :  -498.4479142895083896 Eh
Relativity type    :
Basis              : AO
                                X                 Y                 Z
Electronic contribution:      5.574553980       2.063556572       1.915990527
Nuclear contribution   :     -5.500723742      -2.781673041      -1.952102908
                        -----------------------------------------
Total Dipole Moment    :      0.073830238      -0.718116469      -0.036112380
                        -----------------------------------------
Magnitude (a.u.)       :      0.722804448
Magnitude (Debye)      :      1.837222901

Rotational constants in cm-1:             0.099228             0.020443             0.017797
Rotational constants in MHz :          2974.772443           612.861313           533.526247

                             ****ORCA TERMINATED NORMALLY****
TOTAL RUN TIME: 0 days 0 hours 0 minutes 17 seconds 384 msec
