                         Program Version 6.0.0  -   RELEASE  -
|  1> ! r2scan-3c def2/J RI DEFGRID2 scfconv6 printgap
|  2> %output
|  3>     printlevel normal
|  4> end
|  5> %cpcm
|  6>     smd true
|  7>     smdsolvent "water"
|  8> end
|  9> * xyz 0 1
| 10> C -2.0798436713 -0.5485945727 -0.0147316093
| 11> O -1.2821552139 0.5906449427 -0.279481339
| 12> C -0.0149163987 0.5810262791 0.3372584026
| 13> C 0.9822933385 -0.3873468746 -0.3113365031
| 14> O 2.2466954977 -0.1417522 0.2641013541
| 15> H -1.6830290254 -1.4414627594 -0.5054595495
| 16> H -3.0637767901 -0.3207028283 -0.4174492866
| 17> H -2.1532072926 -0.7282615978 1.0624582859
| 18> H 0.3725237117 1.5969162976 0.232153674
| 19> H -0.1034996437 0.3468341779 1.4068576781
| 20> H 0.9969271299 -0.2028379328 -1.3934507056
| 21> H 0.6753705634 -1.4252725665 -0.1291718906
| 22> H 2.9044768963 -0.7214389873 -0.1451509534
| 23> *
| 24>
| 25>                          ****END OF INPUT****

CARTESIAN COORDINATES (ANGSTROEM)
---------------------------------
  C     -2.079844   -0.548595   -0.014732
  O     -1.282155    0.590645   -0.279481
  C     -0.014916    0.581026    0.337258
  C      0.982293   -0.387347   -0.311337
  O      2.246695   -0.141752    0.264101
  H     -1.683029   -1.441463   -0.505460
  H     -3.063777   -0.320703   -0.417449
  H     -2.153207   -0.728262    1.062458
  H      0.372524    1.596916    0.232154
  H     -0.103500    0.346834    1.406858
  H      0.996927   -0.202838   -1.393451
  H      0.675371   -1.425273   -0.129172
  H      2.904477   -0.721439   -0.145151

 Total Charge           Charge          ....    0
 Multiplicity           Mult            ....    1
 Number of Electrons    NEL             ....   42
 Basis Dimension        Dim             ....  145

ORBITAL ENERGIES
----------------

  NO   OCC          E(Eh)            E(eV)
   0   2.0000     -18.960522      -515.9420
   1   2.0000     -18.954827      -515.7871
   2   2.0000     -10.071824      -274.0683
   3   2.0000     -10.070731      -274.0385
   4   2.0000     -10.063579      -273.8439
   5   2.0000      -1.004414       -27.3315
   6   2.0000      -0.988310       -26.8933
   7   2.0000      -0.712882       -19.3985
   8   2.0000      -0.644241       -17.5307
   9   2.0000      -0.561092       -15.2681
  10   2.0000      -0.489632       -13.3236
  11   2.0000      -0.457651       -12.4533
  12   2.0000      -0.430612       -11.7176
  13   2.0000      -0.422638       -11.5006
  14   2.0000      -0.399548       -10.8723
  15   2.0000      -0.366545        -9.9742
  16   2.0000      -0.332881        -9.0581
  17   2.0000      -0.315159        -8.5759
  18   2.0000      -0.285064        -7.7570
  19   2.0000      -0.243998        -6.6395
  20   2.0000      -0.226526        -6.1641
  21   0.0000       0.050392         1.3712
  22   0.0000       0.094465         2.5705
  23   0.0000       0.116857         3.1798
  24   0.0000       0.135630         3.6907
  25   0.0000       0.147651         4.0178

MULLIKEN ATOMIC CHARGES
-----------------------
   0 C :   -0.304883
   1 O :   -0.315023
   2 C :   -0.168166
   3 C :   -0.125221
   4 O :   -0.511014
   5 H :    0.155077
   6 H :    0.162806
   7 H :    0.154253
   8 H :    0.161673
   9 H :    0.150377
  10 H :    0.144258
  11 H :    0.145055
  12 H :    0.350808
Sum of atomic charges:    0.0000000

LOEWDIN ATOMIC CHARGES
----------------------
   0 C :   -0.073433
   1 O :   -0.817672
   2 C :    0.026544
   3 C :    0.025412
   4 O :   -0.653230
   5 H :    0.163213
   6 H :    0.180122
   7 H :    0.166879
   8 H :    0.188443
   9 H :    0.172991
  10 H :    0.166023
  11 H :    0.165862
  12 H :    0.288845

  Mayer bond orders larger than 0.100000
B(  0-C ,  1-O ) :   0.8808 B(  0-C ,  5-H ) :   0.9557 B(  0-C ,  6-H ) :   0.9676
B(  0-C ,  7-H ) :   0.9625 B(  1-O ,  2-C ) :   0.9149 B(  2-C ,  3-C ) :   0.9211
B(  2-C ,  8-H ) :   0.9617 B(  2-C ,  9-H ) :   0.9605 B(  3-C ,  4-O ) :   0.9298
B(  3-C , 10-H ) :   0.9611 B(  3-C , 11-H ) :   0.9564 B(  4-O , 12-H ) :   0.8705

Dispersion correction           -0.002437339
FINAL SINGLE POINT ENERGY      -269.498568257286

DIPOLE MOMENT
-------------

Method             : SCF
Type of density    : Electron Density
Multiplicity       :   1
Irrep              :   0
Energy             :  -269.5065187466591397 Eh
Relativity type    :
Basis              : AO
                                X                 Y                 Z
Electronic contribution:      2.001928406       1.560502431      -0.291731972
Nuclear contribution   :     -1.912870860      -2.710488033       0.103708969
                        -----------------------------------------
Total Dipole Moment    :      0.089057547      -1.149985602      -0.188023003
                        -----------------------------------------
Magnitude (a.u.)       :      1.168653405
Magnitude (Debye)      :      2.970480888

Rotational constants in cm-1:             0.507256             0.081061             0.075907
Rotational constants in MHz :         15207.156306          2430.133989          2275.620779

                             ****ORCA TERMINATED NORMALLY****
TOTAL RUN TIME: 0 days 0 hours 0 minutes 18 seconds 647 msec
