                         Program Version 6.0.0  -   RELEASE  -
|  1> ! r2scan-3c def2/J RI DEFGRID2 scfconv6 printgap
|  2> %output
|  3>     printlevel normal
|  4> end
|  5> * xyz 0 1
|  6> C -3.3616956254 -0.2472023551 -0.6253095037
|  7> C -2.1647224607 -0.473978601 0.2909203042
|  8> C -0.976374751 0.3990060862 -0.1078517998
|  9> C 0.2526520415 0.1691162419 0.7780936067
| 10> C 0.9961994571 -1.1277757315 0.4179836402
| 11> C 2.1354231986 -0.7304466139 -0.5413382432
| 12> C 2.0605670438 0.7946959459 -0.6836724732
| 13> C 1.3174741026 1.2504623568 0.5685372423
| 14> H -4.2010706088 -0.867006774 -0.3194320657
| 15> H -3.6737126592 0.7944426853 -0.5938323481
| 16> H -3.1068396679 -0.49654391 -1.6530043394
| 17> H -2.4478538564 -0.2460482175 1.3213064328
| 18> H -1.8792707838 -1.5271772372 0.2549848244
| 19> H -0.7186475208 0.2003653443 -1.1493498864
| 20> H -1.2775832739 1.4470028111 -0.0339873567
| 21> H -0.0795413168 0.1521513538 1.8203315874
| 22> H 1.4060853799 -1.5837554252 1.3193494836
| 23> H 0.3257242674 -1.8527954154 -0.0399844428
| 24> H 3.0982293594 -1.0226212845 -0.1221085947
| 25> H 2.0356413206 -1.2222756578 -1.5080783592
| 26> H 3.0474306695 1.2478037797 -0.7665326222
| 27> H 1.4897364321 1.0678620604 -1.5714963176
| 28> H 2.0006973607 1.2591318626 1.4195714163
| 29> H 0.8882763846 2.245752742 0.4620043557
| 30> *
| 31>
| 32>                          ****END OF INPUT****

CARTESIAN COORDINATES (ANGSTROEM)
---------------------------------
  C     -3.361696   -0.247202   -0.625310
  C     -2.164722   -0.473979    0.290920
  C     -0.976375    0.399006   -0.107852
  C      0.252652    0.169116    0.778094
  C      0.996199   -1.127776    0.417984
  C      2.135423   -0.730447   -0.541338
  C      2.060567    0.794696   -0.683672
  C      1.317474    1.250462    0.568537
  H     -4.201071   -0.867007   -0.319432
  H     -3.673713    0.794443   -0.593832
  H     -3.106840   -0.496544   -1.653004
  H     -2.447854   -0.246048    1.321306
  H     -1.879271   -1.527177    0.254985
  H     -0.718648    0.200365   -1.149350
  H     -1.277583    1.447003   -0.033987
  H     -0.079541    0.152151    1.820332
  H      1.406085   -1.583755    1.319349
  H      0.325724   -1.852795   -0.039984
  H      3.098229   -1.022621   -0.122109
  H      2.035641   -1.222276   -1.508078
  H      3.047431    1.247804   -0.766533
  H      1.489736    1.067862   -1.571496
  H      2.000697    1.259132    1.419571
  H      0.888276    2.245753    0.462004

 Total Charge           Charge          ....    0
 Multiplicity           Mult            ....    1
 Number of Electrons    NEL             ....   64
 Basis Dimension        Dim             ....  232

ORBITAL ENERGIES
----------------

  NO   OCC          E(Eh)            E(eV)
   0   2.0000     -10.024062      -272.7686
   1   2.0000     -10.021152      -272.6894
   2   2.0000     -10.017842      -272.5993
   3   2.0000     -10.017789      -272.5979
   4   2.0000     -10.017268      -272.5837
   5   2.0000     -10.016485      -272.5624
   6   2.0000     -10.016270      -272.5566
   7   2.0000     -10.013465      -272.4802
   8   2.0000      -0.805598       -21.9214
   9   2.0000      -0.748244       -20.3607
  10   2.0000      -0.685566       -18.6552
  11   2.0000      -0.671095       -18.2614
  12   2.0000      -0.623034       -16.9536
  13   2.0000      -0.553308       -15.0563
  14   2.0000      -0.527394       -14.3511
  15   2.0000      -0.508163       -13.8278
  16   2.0000      -0.452426       -12.3111
  17   2.0000      -0.440172       -11.9777
  18   2.0000      -0.426006       -11.5922
  19   2.0000      -0.391063       -10.6414
  20   2.0000      -0.386274       -10.5111
  21   2.0000      -0.362510        -9.8644
  22   2.0000      -0.351496        -9.5647
  23   2.0000      -0.336757        -9.1636
  24   2.0000      -0.313036        -8.5181
  25   2.0000      -0.305003        -8.2996
  26   2.0000      -0.301686        -8.2093
  27   2.0000      -0.299186        -8.1413
  28   2.0000      -0.286139        -7.7862
  29   2.0000      -0.281597        -7.6626
  30   2.0000      -0.273531        -7.4431
  31   2.0000      -0.268852        -7.3158
  32   0.0000       0.076824         2.0905
  33   0.0000       0.098965         2.6930
  34   0.0000       0.103217         2.8087
  35   0.0000       0.117210         3.1894
  36   0.0000       0.123340         3.3562

MULLIKEN ATOMIC CHARGES
-----------------------
   0 C :   -0.473401
   1 C :   -0.232665
   2 C :   -0.378134
   3 C :    0.091639
   4 C :   -0.410933
   5 C :   -0.321857
   6 C :   -0.324328
   7 C :   -0.326879
   8 H :    0.145913
   9 H :    0.141362
  10 H :    0.142730
  11 H :    0.139021
  12 H :    0.132368
  13 H :    0.145914
  14 H :    0.142081
  15 H :    0.151179
  16 H :    0.158821
  17 H :    0.150076
  18 H :    0.151911
  19 H :    0.154932
  20 H :    0.151527
  21 H :    0.160536
  22 H :    0.157751
  23 H :    0.150438
Sum of atomic charges:   -0.0000000

LOEWDIN ATOMIC CHARGES
----------------------
   0 C :   -0.425221
   1 C :   -0.314117
   2 C :   -0.298180
   3 C :   -0.228126
   4 C :   -0.300355
   5 C :   -0.307343
   6 C :   -0.306365
   7 C :   -0.296966
   8 H :    0.149428
   9 H :    0.149495
  10 H :    0.149183
  11 H :    0.150996
  12 H :    0.150695
  13 H :    0.157557
  14 H :    0.157184
  15 H :    0.160157
  16 H :    0.158012
  17 H :    0.157891
  18 H :    0.155942
  19 H :    0.155632
  20 H :    0.155162
  21 H :    0.153729
  22 H :    0.157537
  23 H :    0.158072

  Mayer bond orders larger than 0.100000
B(  0-C ,  1-C ) :   0.8978 B(  0-C ,  8-H ) :   0.9750 B(  0-C ,  9-H ) :   0.9843
B(  0-C , 10-H ) :   0.9858 B(  1-C ,  2-C ) :   0.9354 B(  1-C , 11-H ) :   0.9770
B(  1-C , 12-H ) :   0.9658 B(  2-C ,  3-C ) :   0.9055 B(  2-C , 13-H ) :   0.9774
B(  2-C , 14-H ) :   0.9811 B(  3-C ,  4-C ) :   0.8769 B(  3-C ,  7-C ) :   0.8799
B(  3-C , 15-H ) :   0.9442 B(  4-C ,  5-C ) :   0.9240 B(  4-C , 16-H ) :   0.9702
B(  4-C , 17-H ) :   0.9834 B(  5-C ,  6-C ) :   0.9173 B(  5-C , 18-H ) :   0.9857
B(  5-C , 19-H ) :   0.9806 B(  6-C ,  7-C ) :   0.8773 B(  6-C , 20-H ) :   0.9521
B(  6-C , 21-H ) :   0.9994 B(  7-C , 22-H ) :   0.9890 B(  7-C , 23-H ) :   0.9736

Dispersion correction           -0.006978603
FINAL SINGLE POINT ENERGY      -314.381236856387

DIPOLE MOMENT
-------------

Method             : SCF
Type of density    : Electron Density
Multiplicity       :   1
Irrep              :   0
Energy             :  -314.3844891003977864 Eh
Relativity type    :
Basis              : AO
                                X                 Y                 Z
Electronic contribution:      2.902354836       0.374610895       1.127678708
Nuclear contribution   :     -2.901455438      -0.378747004      -1.088511390
                        -----------------------------------------
Total Dipole Moment    :      0.000899398      -0.004136109       0.039167318
                        -----------------------------------------
Magnitude (a.u.)       :      0.039395369
Magnitude (Debye)      :      0.100135071

Rotational constants in cm-1:             0.137646             0.035272             0.033301
Rotational constants in MHz :          4126.509224          1057.442814           998.334712

                             ****ORCA TERMINATED NORMALLY****
TOTAL RUN TIME: 0 days 0 hours 0 minutes 25 seconds 475 msec
