                         Program Version 6.0.0  -   RELEASE  -
|  1> ! r2scan-3c def2/J RI DEFGRID2 scfconv6 printgap
|  2> %output
|  3>     printlevel normal
|  4> end
|  5> %cpcm
|  6>     smd true
|  7>     smdsolvent "water"
|  8> end
|  9> * xyz 0 1
| 10> C -3.3616956254 -0.2472023551 -0.6253095037
| 11> C -2.1647224607 -0.473978601 0.2909203042
| 12> C -0.976374751 0.3990060862 -0.1078517998
| 13> C 0.2526520415 0.1691162419 0.7780936067
| 14> C 0.9961994571 -1.1277757315 0.4179836402
| 15> C 2.1354231986 -0.7304466139 -0.5413382432
| 16> C 2.0605670438 0.7946959459 -0.6836724732
| 17> C 1.3174741026 1.2504623568 0.5685372423
| 18> H -4.2010706088 -0.867006774 -0.3194320657
| 19> H -3.6737126592 0.7944426853 -0.5938323481
| 20> H -3.1068396679 -0.49654391 -1.6530043394
| 21> H -2.4478538564 -0.2460482175 1.3213064328
| 22> H -1.8792707838 -1.5271772372 0.2549848244
| 23> H -0.7186475208 0.2003653443 -1.1493498864
| 24> H -1.2775832739 1.4470028111 -0.0339873567
| 25> H -0.0795413168 0.1521513538 1.8203315874
| 26> H 1.4060853799 -1.5837554252 1.3193494836
| 27> H 0.3257242674 -1.8527954154 -0.0399844428
| 28> H 3.0982293594 -1.0226212845 -0.1221085947
| 29> H 2.0356413206 -1.2222756578 -1.5080783592
| 30> H 3.0474306695 1.2478037797 -0.7665326222
| 31> H 1.4897364321 1.0678620604 -1.5714963176
| 32> H 2.0006973607 1.2591318626 1.4195714163
| 33> H 0.8882763846 2.245752742 0.4620043557
| 34> *
| 35>
| 36>                          ****END OF INPUT****

CARTESIAN COORDINATES (ANGSTROEM)
---------------------------------
  C     -3.361696   -0.247202   -0.625310
  C     -2.164722   -0.473979    0.290920
  C     -0.976375    0.399006   -0.107852
  C      0.252652    0.169116    0.778094
  C      0.996199   -1.127776    0.417984
  C      2.135423   -0.730447   -0.541338
  C      2.060567    0.794696   -0.683672
  C      1.317474    1.250462    0.568537
  H     -4.201071   -0.867007   -0.319432
  H     -3.673713    0.794443   -0.593832
  H     -3.106840   -0.496544   -1.653004
  H     -2.447854   -0.246048    1.321306
  H     -1.879271   -1.527177    0.254985
  H     -0.718648    0.200365   -1.149350
  H     -1.277583    1.447003   -0.033987
  H     -0.079541    0.152151    1.820332
  H      1.406085   -1.583755    1.319349
  H      0.325724   -1.852795   -0.039984
  H      3.098229   -1.022621   -0.122109
  H      2.035641   -1.222276   -1.508078
  H      3.047431    1.247804   -0.766533
  H      1.489736    1.067862   -1.571496
  H      2.000697    1.259132    1.419571
  H      0.888276    2.245753    0.462004

 Total Charge           Charge          ....    0
 Multiplicity           Mult            ....    1
 Number of Electrons    NEL             ....   64
 Basis Dimension        Dim             ....  232

ORBITAL ENERGIES
----------------

  NO   OCC          E(Eh)            E(eV)
   0   2.0000     -10.017147      -272.5804
   1   2.0000     -10.013746      -272.4879
   2   2.0000     -10.011167      -272.4177
   3   2.0000     -10.010840      -272.4088
   4   2.0000     -10.009768      -272.3796
   5   2.0000     -10.009564      -272.3741
   6   2.0000     -10.009364      -272.3686
   7   2.0000     -10.006670      -272.2953
   8   2.0000      -0.798824       -21.7371
   9   2.0000      -0.741262       -20.1708
  10   2.0000      -0.679045       -18.4778
  11   2.0000      -0.664728       -18.0882
  12   2.0000      -0.616399       -16.7731
  13   2.0000      -0.546495       -14.8709
  14   2.0000      -0.521187       -14.1822
  15   2.0000      -0.501408       -13.6440
  16   2.0000      -0.445614       -12.1258
  17   2.0000      -0.433449       -11.7947
  18   2.0000      -0.418711       -11.3937
  19   2.0000      -0.384277       -10.4567
  20   2.0000      -0.379343       -10.3224
  21   2.0000      -0.355681        -9.6786
  22   2.0000      -0.344359        -9.3705
  23   2.0000      -0.329897        -8.9769
  24   2.0000      -0.306274        -8.3342
  25   2.0000      -0.298178        -8.1138
  26   2.0000      -0.295166        -8.0319
  27   2.0000      -0.292819        -7.9680
  28   2.0000      -0.278935        -7.5902
  29   2.0000      -0.274592        -7.4720
  30   2.0000      -0.266346        -7.2476
  31   2.0000      -0.261761        -7.1229
  32   0.0000       0.085191         2.3182
  33   0.0000       0.106702         2.9035
  34   0.0000       0.110078         2.9954
  35   0.0000       0.122122         3.3231
  36   0.0000       0.129008         3.5105

MULLIKEN ATOMIC CHARGES
-----------------------
   0 C :   -0.516125
   1 C :   -0.246881
   2 C :   -0.383184
   3 C :    0.082641
   4 C :   -0.429562
   5 C :   -0.337627
   6 C :   -0.342254
   7 C :   -0.350538
   8 H :    0.155403
   9 H :    0.152438
  10 H :    0.154362
  11 H :    0.147476
  12 H :    0.142670
  13 H :    0.156119
  14 H :    0.151019
  15 H :    0.158917
  16 H :    0.166227
  17 H :    0.161805
  18 H :    0.160519
  19 H :    0.162662
  20 H :    0.159117
  21 H :    0.168841
  22 H :    0.166381
  23 H :    0.159572
Sum of atomic charges:   -0.0000000

LOEWDIN ATOMIC CHARGES
----------------------
   0 C :   -0.434169
   1 C :   -0.316976
   2 C :   -0.300662
   3 C :   -0.228479
   4 C :   -0.304669
   5 C :   -0.311464
   6 C :   -0.310748
   7 C :   -0.301549
   8 H :    0.151483
   9 H :    0.151746
  10 H :    0.151690
  11 H :    0.152579
  12 H :    0.152973
  13 H :    0.160270
  14 H :    0.159067
  15 H :    0.161634
  16 H :    0.159454
  17 H :    0.160788
  18 H :    0.157791
  19 H :    0.157412
  20 H :    0.156585
  21 H :    0.155760
  22 H :    0.159479
  23 H :    0.160006

  Mayer bond orders larger than 0.100000
B(  0-C ,  1-C ) :   0.8883 B(  0-C ,  8-H ) :   0.9723 B(  0-C ,  9-H ) :   0.9823
B(  0-C , 10-H ) :   0.9836 B(  1-C ,  2-C ) :   0.9273 B(  1-C , 11-H ) :   0.9766
B(  1-C , 12-H ) :   0.9660 B(  2-C ,  3-C ) :   0.9041 B(  2-C , 13-H ) :   0.9742
B(  2-C , 14-H ) :   0.9792 B(  3-C ,  4-C ) :   0.8753 B(  3-C ,  7-C ) :   0.8773
B(  3-C , 15-H ) :   0.9474 B(  4-C ,  5-C ) :   0.9190 B(  4-C , 16-H ) :   0.9698
B(  4-C , 17-H ) :   0.9819 B(  5-C ,  6-C ) :   0.9125 B(  5-C , 18-H ) :   0.9845
B(  5-C , 19-H ) :   0.9789 B(  6-C ,  7-C ) :   0.8780 B(  6-C , 20-H ) :   0.9516
B(  6-C , 21-H ) :   0.9970 B(  7-C , 22-H ) :   0.9872 B(  7-C , 23-H ) :   0.9725

Dispersion correction           -0.006978603
FINAL SINGLE POINT ENERGY      -314.378593028717

DIPOLE MOMENT
-------------

Method             : SCF
Type of density    : Electron Density
Multiplicity       :   1
Irrep              :   0
Energy             :  -314.3818452727275030 Eh
Relativity type    :
Basis              : AO
                                X                 Y                 Z
Electronic contribution:      2.898357913       0.369814739       1.128457178
Nuclear contribution   :     -2.901455438      -0.378747004      -1.088511390
                        -----------------------------------------
Total Dipole Moment    :     -0.003097525      -0.008932265       0.039945788
                        -----------------------------------------
Magnitude (a.u.)       :      0.041049312
Magnitude (Debye)      :      0.104339058

Rotational constants in cm-1:             0.137646             0.035272             0.033301
Rotational constants in MHz :          4126.509224          1057.442814           998.334712

                             ****ORCA TERMINATED NORMALLY****
TOTAL RUN TIME: 0 days 0 hours 0 minutes 30 seconds 49 msec
