                         Program Version 6.0.0  -   RELEASE  -
|  1> ! r2scan-3c def2/J RI DEFGRID2 scfconv6 printgap
|  2> %output
|  3>     printlevel normal
|  4> end
|  5> * xyz 0 1
|  6> C -1.6588013369 0.8388894925 -0.059373316
|  7> O -1.168539093 -0.4288936033 0.358575433
|  8> C -0.0130497821 -0.8964281254 -0.2713303219
|  9> O 1.1943938503 -0.4236044458 0.2477018176
| 10> C 1.6479464588 0.8370393858 -0.2292339807
| 11> H -1.5987030791 0.9362077449 -1.1470406498
| 12> H -1.1123020292 1.6570502188 0.4150188733
| 13> H -2.6992387162 0.8687984813 0.2564516804
| 14> H -0.0026096072 -1.9739456795 -0.0819572556
| 15> H -0.0644351017 -0.6958585642 -1.3580085353
| 16> H 2.7109960984 0.870385844 -0.0014054851
| 17> H 1.1427770988 1.663682629 0.2751968742
| 18> H 1.4979641356 0.9170674453 -1.3096317301
| 19> *
| 20>
| 21>                          ****END OF INPUT****

CARTESIAN COORDINATES (ANGSTROEM)
---------------------------------
  C     -1.658801    0.838889   -0.059373
  O     -1.168539   -0.428894    0.358575
  C     -0.013050   -0.896428   -0.271330
  O      1.194394   -0.423604    0.247702
  C      1.647946    0.837039   -0.229234
  H     -1.598703    0.936208   -1.147041
  H     -1.112302    1.657050    0.415019
  H     -2.699239    0.868798    0.256452
  H     -0.002610   -1.973946   -0.081957
  H     -0.064435   -0.695859   -1.358009
  H      2.710996    0.870386   -0.001405
  H      1.142777    1.663683    0.275197
  H      1.497964    0.917067   -1.309632

 Total Charge           Charge          ....    0
 Multiplicity           Mult            ....    1
 Number of Electrons    NEL             ....   42
 Basis Dimension        Dim             ....  145

ORBITAL ENERGIES
----------------

  NO   OCC          E(Eh)            E(eV)
   0   2.0000     -18.957947      -515.8720
   1   2.0000     -18.957858      -515.8695
   2   2.0000     -10.122562      -275.4489
   3   2.0000     -10.076352      -274.1915
   4   2.0000     -10.076282      -274.1896
   5   2.0000      -1.029214       -28.0063
   6   2.0000      -0.975360       -26.5409
   7   2.0000      -0.708052       -19.2671
   8   2.0000      -0.652782       -17.7631
   9   2.0000      -0.584106       -15.8943
  10   2.0000      -0.474196       -12.9035
  11   2.0000      -0.472527       -12.8581
  12   2.0000      -0.463586       -12.6148
  13   2.0000      -0.403469       -10.9789
  14   2.0000      -0.401140       -10.9156
  15   2.0000      -0.397968       -10.8293
  16   2.0000      -0.356221        -9.6933
  17   2.0000      -0.296948        -8.0804
  18   2.0000      -0.288583        -7.8527
  19   2.0000      -0.248510        -6.7623
  20   2.0000      -0.230146        -6.2626
  21   0.0000       0.065379         1.7790
  22   0.0000       0.083773         2.2796
  23   0.0000       0.095128         2.5886
  24   0.0000       0.123493         3.3604
  25   0.0000       0.129837         3.5330

MULLIKEN ATOMIC CHARGES
-----------------------
   0 C :   -0.284288
   1 O :   -0.199059
   2 C :   -0.141070
   3 O :   -0.199994
   4 C :   -0.283369
   5 H :    0.133113
   6 H :    0.137651
   7 H :    0.151094
   8 H :    0.144050
   9 H :    0.120226
  10 H :    0.151160
  11 H :    0.136929
  12 H :    0.133557
Sum of atomic charges:    0.0000000

LOEWDIN ATOMIC CHARGES
----------------------
   0 C :   -0.075526
   1 O :   -0.711156
   2 C :    0.229066
   3 O :   -0.711055
   4 C :   -0.075421
   5 H :    0.158042
   6 H :    0.154899
   7 H :    0.175349
   8 H :    0.200984
   9 H :    0.166657
  10 H :    0.175430
  11 H :    0.154699
  12 H :    0.158032

  Mayer bond orders larger than 0.100000
B(  0-C ,  1-O ) :   0.8677 B(  0-C ,  5-H ) :   0.9654 B(  0-C ,  6-H ) :   0.9646
B(  0-C ,  7-H ) :   0.9755 B(  1-O ,  2-C ) :   0.9779 B(  2-C ,  3-O ) :   0.9760
B(  2-C ,  8-H ) :   0.9772 B(  2-C ,  9-H ) :   0.9683 B(  3-O ,  4-C ) :   0.8681
B(  4-C , 10-H ) :   0.9754 B(  4-C , 11-H ) :   0.9641 B(  4-C , 12-H ) :   0.9659

Dispersion correction           -0.002528767
FINAL SINGLE POINT ENERGY      -269.480238494969

DIPOLE MOMENT
-------------

Method             : SCF
Type of density    : Electron Density
Multiplicity       :   1
Irrep              :   0
Energy             :  -269.4904470280602027 Eh
Relativity type    :
Basis              : AO
                                X                 Y                 Z
Electronic contribution:      0.089275784      -3.336167999       2.094600609
Nuclear contribution   :     -0.117404403       3.968359349      -2.759888890
                        -----------------------------------------
Total Dipole Moment    :     -0.028128619       0.632191351      -0.665288281
                        -----------------------------------------
Magnitude (a.u.)       :      0.918186049
Magnitude (Debye)      :      2.333843462

Rotational constants in cm-1:             0.306022             0.118790             0.094286
Rotational constants in MHz :          9174.311913          3561.236548          2826.620357

                             ****ORCA TERMINATED NORMALLY****
TOTAL RUN TIME: 0 days 0 hours 0 minutes 15 seconds 130 msec
