                         Program Version 6.0.0  -   RELEASE  -
|  1> ! r2scan-3c def2/J RI DEFGRID2 scfconv6 printgap
|  2> %output
|  3>     printlevel normal
|  4> end
|  5> %cpcm
|  6>     smd true
|  7>     smdsolvent "water"
|  8> end
|  9> * xyz 0 1
| 10> C -1.6588013369 0.8388894925 -0.059373316
| 11> O -1.168539093 -0.4288936033 0.358575433
| 12> C -0.0130497821 -0.8964281254 -0.2713303219
| 13> O 1.1943938503 -0.4236044458 0.2477018176
| 14> C 1.6479464588 0.8370393858 -0.2292339807
| 15> H -1.5987030791 0.9362077449 -1.1470406498
| 16> H -1.1123020292 1.6570502188 0.4150188733
| 17> H -2.6992387162 0.8687984813 0.2564516804
| 18> H -0.0026096072 -1.9739456795 -0.0819572556
| 19> H -0.0644351017 -0.6958585642 -1.3580085353
| 20> H 2.7109960984 0.870385844 -0.0014054851
| 21> H 1.1427770988 1.663682629 0.2751968742
| 22> H 1.4979641356 0.9170674453 -1.3096317301
| 23> *
| 24>
| 25>                          ****END OF INPUT****

CARTESIAN COORDINATES (ANGSTROEM)
---------------------------------
  C     -1.658801    0.838889   -0.059373
  O     -1.168539   -0.428894    0.358575
  C     -0.013050   -0.896428   -0.271330
  O      1.194394   -0.423604    0.247702
  C      1.647946    0.837039   -0.229234
  H     -1.598703    0.936208   -1.147041
  H     -1.112302    1.657050    0.415019
  H     -2.699239    0.868798    0.256452
  H     -0.002610   -1.973946   -0.081957
  H     -0.064435   -0.695859   -1.358009
  H      2.710996    0.870386   -0.001405
  H      1.142777    1.663683    0.275197
  H      1.497964    0.917067   -1.309632

 Total Charge           Charge          ....    0
 Multiplicity           Mult            ....    1
 Number of Electrons    NEL             ....   42
 Basis Dimension        Dim             ....  145

ORBITAL ENERGIES
----------------

  NO   OCC          E(Eh)            E(eV)
   0   2.0000     -18.963995      -516.0365
   1   2.0000     -18.963923      -516.0346
   2   2.0000     -10.119792      -275.3735
   3   2.0000     -10.065586      -273.8985
   4   2.0000     -10.065519      -273.8967
   5   2.0000      -1.033732       -28.1293
   6   2.0000      -0.980060       -26.6688
   7   2.0000      -0.704669       -19.1750
   8   2.0000      -0.646080       -17.5807
   9   2.0000      -0.578259       -15.7352
  10   2.0000      -0.471572       -12.8321
  11   2.0000      -0.470756       -12.8099
  12   2.0000      -0.463004       -12.5990
  13   2.0000      -0.398710       -10.8495
  14   2.0000      -0.392604       -10.6833
  15   2.0000      -0.392073       -10.6688
  16   2.0000      -0.348214        -9.4754
  17   2.0000      -0.299723        -8.1559
  18   2.0000      -0.290620        -7.9082
  19   2.0000      -0.252613        -6.8739
  20   2.0000      -0.235030        -6.3955
  21   0.0000       0.069267         1.8849
  22   0.0000       0.087388         2.3780
  23   0.0000       0.110013         2.9936
  24   0.0000       0.136290         3.7087
  25   0.0000       0.137670         3.7462

MULLIKEN ATOMIC CHARGES
-----------------------
   0 C :   -0.303680
   1 O :   -0.270716
   2 C :   -0.134096
   3 O :   -0.271605
   4 C :   -0.302972
   5 H :    0.161194
   6 H :    0.158907
   7 H :    0.164439
   8 H :    0.159029
   9 H :    0.155051
  10 H :    0.164550
  11 H :    0.158676
  12 H :    0.161224
Sum of atomic charges:    0.0000000

LOEWDIN ATOMIC CHARGES
----------------------
   0 C :   -0.074405
   1 O :   -0.750027
   2 C :    0.227305
   3 O :   -0.749901
   4 C :   -0.074329
   5 H :    0.171024
   6 H :    0.164629
   7 H :    0.180101
   8 H :    0.205709
   9 H :    0.184250
  10 H :    0.180194
  11 H :    0.164587
  12 H :    0.170862

  Mayer bond orders larger than 0.100000
B(  0-C ,  1-O ) :   0.8599 B(  0-C ,  5-H ) :   0.9593 B(  0-C ,  6-H ) :   0.9568
B(  0-C ,  7-H ) :   0.9685 B(  1-O ,  2-C ) :   0.9777 B(  2-C ,  3-O ) :   0.9762
B(  2-C ,  8-H ) :   0.9689 B(  2-C ,  9-H ) :   0.9579 B(  3-O ,  4-C ) :   0.8600
B(  4-C , 10-H ) :   0.9685 B(  4-C , 11-H ) :   0.9564 B(  4-C , 12-H ) :   0.9596

Dispersion correction           -0.002528767
FINAL SINGLE POINT ENERGY      -269.486335305466

DIPOLE MOMENT
-------------

Method             : SCF
Type of density    : Electron Density
Multiplicity       :   1
Irrep              :   0
Energy             :  -269.4965438385574998 Eh
Relativity type    :
Basis              : AO
                                X                 Y                 Z
Electronic contribution:      0.073607113      -3.058125033       1.748979930
Nuclear contribution   :     -0.117404403       3.968359349      -2.759888890
                        -----------------------------------------
Total Dipole Moment    :     -0.043797290       0.910234316      -1.010908960
                        -----------------------------------------
Magnitude (a.u.)       :      1.361022277
Magnitude (Debye)      :      3.459443702

Rotational constants in cm-1:             0.306022             0.118790             0.094286
Rotational constants in MHz :          9174.311913          3561.236548          2826.620357

                             ****ORCA TERMINATED NORMALLY****
TOTAL RUN TIME: 0 days 0 hours 0 minutes 19 seconds 723 msec
