                         Program Version 6.0.0  -   RELEASE  -
|  1> ! pbe def2-sv(p) def2/J RI DEFGRID1 loosescf d4 GCP(DFT/SV(P)) printgap
|  2> %output
|  3>     printlevel normal
|  4> end
|  5> * xyz 0 1
|  6> C 2.5163032365 0.7542292598 0.3209019813
|  7> C 1.2540765996 -0.1026980325 0.262819761
|  8> C 1.4363067393 -1.2624886776 -0.7137647987
|  9> C 0.0516869916 0.7555673448 -0.146631261
| 10> C -1.2703408563 0.0688724093 0.0891081333
| 11> O -1.414484919 -0.9456515012 0.7312076856
| 12> O -2.33813488 0.6656580798 -0.4455562726
| 13> H 2.4073653702 1.5565099445 1.0464118078
| 14> H 2.7229908944 1.1907065636 -0.6535027288
| 15> H 3.3687487673 0.1460345869 0.6107775963
| 16> H 1.0508552549 -0.5168467326 1.2560100049
| 17> H 1.6356683613 -0.8911022622 -1.7167948132
| 18> H 2.2702110261 -1.8879885496 -0.4066163534
| 19> H 0.5403277399 -1.8786688272 -0.7378357159
| 20> H 0.1354676312 1.0288657012 -1.2005001798
| 21> H 0.0425027419 1.6751779745 0.4452228207
| 22> H -2.1298830748 1.4778878445 -0.9424023026
| 23> *
| 24>
| 25>                          ****END OF INPUT****

CARTESIAN COORDINATES (ANGSTROEM)
---------------------------------
  C      2.516303    0.754229    0.320902
  C      1.254077   -0.102698    0.262820
  C      1.436307   -1.262489   -0.713765
  C      0.051687    0.755567   -0.146631
  C     -1.270341    0.068872    0.089108
  O     -1.414485   -0.945652    0.731208
  O     -2.338135    0.665658   -0.445556
  H      2.407365    1.556510    1.046412
  H      2.722991    1.190707   -0.653503
  H      3.368749    0.146035    0.610778
  H      1.050855   -0.516847    1.256010
  H      1.635668   -0.891102   -1.716795
  H      2.270211   -1.887989   -0.406616
  H      0.540328   -1.878669   -0.737836
  H      0.135468    1.028866   -1.200500
  H      0.042503    1.675178    0.445223
  H     -2.129883    1.477888   -0.942402

 Total Charge           Charge          ....    0
 Multiplicity           Mult            ....    1
 Number of Electrons    NEL             ....   56
 Basis Dimension        Dim             ....  118

ORBITAL ENERGIES
----------------

  NO   OCC          E(Eh)            E(eV)
   0   2.0000     -18.804439      -511.6948
   1   2.0000     -18.729755      -509.6625
   2   2.0000     -10.012329      -272.4493
   3   2.0000      -9.906810      -269.5780
   4   2.0000      -9.902478      -269.4601
   5   2.0000      -9.879013      -268.8216
   6   2.0000      -9.872304      -268.6390
   7   2.0000      -1.004682       -27.3388
   8   2.0000      -0.914111       -24.8742
   9   2.0000      -0.740608       -20.1530
  10   2.0000      -0.652443       -17.7539
  11   2.0000      -0.614524       -16.7221
  12   2.0000      -0.572761       -15.5856
  13   2.0000      -0.512713       -13.9516
  14   2.0000      -0.466022       -12.6811
  15   2.0000      -0.436819       -11.8865
  16   2.0000      -0.402587       -10.9550
  17   2.0000      -0.396908       -10.8004
  18   2.0000      -0.373331       -10.1589
  19   2.0000      -0.363222        -9.8838
  20   2.0000      -0.348790        -9.4911
  21   2.0000      -0.341229        -9.2853
  22   2.0000      -0.324483        -8.8296
  23   2.0000      -0.294970        -8.0265
  24   2.0000      -0.293283        -7.9806
  25   2.0000      -0.290877        -7.9152
  26   2.0000      -0.270011        -7.3474
  27   2.0000      -0.219106        -5.9622
  28   0.0000      -0.023165        -0.6304
  29   0.0000       0.004447         0.1210
  30   0.0000       0.033330         0.9069
  31   0.0000       0.068254         1.8573
  32   0.0000       0.080432         2.1887

MULLIKEN ATOMIC CHARGES
-----------------------
   0 C :   -0.233281
   1 C :   -0.179501
   2 C :   -0.259392
   3 C :   -0.233023
   4 C :    0.139873
   5 O :   -0.176068
   6 O :   -0.286498
   7 H :    0.098026
   8 H :    0.090088
   9 H :    0.104455
  10 H :    0.095987
  11 H :    0.086919
  12 H :    0.103178
  13 H :    0.121985
  14 H :    0.094422
  15 H :    0.116694
  16 H :    0.316136
Sum of atomic charges:   -0.0000000

LOEWDIN ATOMIC CHARGES
----------------------
   0 C :   -0.328940
   1 C :   -0.153547
   2 C :   -0.332620
   3 C :   -0.266279
   4 C :    0.028407
   5 O :   -0.144212
   6 O :   -0.206845
   7 H :    0.116347
   8 H :    0.115187
   9 H :    0.121285
  10 H :    0.126659
  11 H :    0.112498
  12 H :    0.120801
  13 H :    0.125479
  14 H :    0.127503
  15 H :    0.140170
  16 H :    0.298107

  Mayer bond orders larger than 0.100000
B(  0-C ,  1-C ) :   1.1059 B(  0-C ,  7-H ) :   0.9503 B(  0-C ,  8-H ) :   0.9474
B(  0-C ,  9-H ) :   0.9521 B(  1-C ,  2-C ) :   1.1102 B(  1-C ,  3-C ) :   1.0805
B(  1-C , 10-H ) :   0.8979 B(  2-C , 11-H ) :   0.9475 B(  2-C , 12-H ) :   0.9520
B(  2-C , 13-H ) :   0.9460 B(  3-C ,  4-C ) :   0.9975 B(  3-C , 14-H ) :   0.8959
B(  3-C , 15-H ) :   0.8899 B(  4-C ,  5-O ) :   2.1148 B(  4-C ,  6-O ) :   1.2211
B(  6-O , 16-H ) :   0.8287

Dispersion correction           -0.012954478
FINAL SINGLE POINT ENERGY      -346.239847290531

DIPOLE MOMENT
-------------

Method             : SCF
Type of density    : Electron Density
Multiplicity       :   1
Irrep              :   0
Energy             :  -346.3044595808778467 Eh
Relativity type    :
Basis              : AO
                                X                 Y                 Z
Electronic contribution:    -10.632190875      -0.553923530       1.482728431
Nuclear contribution   :     11.243887808       1.778907069      -2.152826935
                        -----------------------------------------
Total Dipole Moment    :      0.611696933       1.224983539      -0.670098504
                        -----------------------------------------
Magnitude (a.u.)       :      1.524398181
Magnitude (Debye)      :      3.874712247

Rotational constants in cm-1:             0.164672             0.051481             0.045568
Rotational constants in MHz :          4936.742710          1543.372038          1366.088374

                             ****ORCA TERMINATED NORMALLY****
TOTAL RUN TIME: 0 days 0 hours 0 minutes 8 seconds 287 msec
