                         Program Version 6.0.0  -   RELEASE  -
|  1> ! pbe def2-sv(p) def2/J RI DEFGRID1 loosescf d4 GCP(DFT/SV(P)) printgap
|  2> %output
|  3>     printlevel normal
|  4> end
|  5> * xyz 0 1
|  6> C 1.5604565777 -1.1922524479 -0.6521167238
|  7> C 1.062317478 -0.2659114093 0.4565925491
|  8> C 1.2492991549 1.195659189 0.0596135604
|  9> C -0.3881494557 -0.5730487299 0.8584692766
| 10> C -1.4489699956 -0.3533397261 -0.2205441712
| 11> O -1.7545229879 1.0250538586 -0.3291459662
| 12> H 1.0602601852 -0.979085266 -1.5933505885
| 13> H 1.3834026958 -2.233223254 -0.3917785411
| 14> H 2.6282184006 -1.0515160025 -0.8016874918
| 15> H 1.6726739343 -0.4555840685 1.3481993624
| 16> H 0.9183980599 1.8526086831 0.8601880612
| 17> H 0.6664462316 1.4296010418 -0.8265731638
| 18> H 2.2972542553 1.3997273287 -0.1485222555
| 19> H -0.6582447941 0.0552867089 1.7096141941
| 20> H -0.4450855158 -1.616349109 1.1746517521
| 21> H -1.1017411493 -0.7430619262 -1.185115705
| 22> H -2.3536772137 -0.907345375 0.0668829233
| 23> H -2.4668677939 1.1451101136 -0.9700818022
| 24> *
| 25>
| 26>                          ****END OF INPUT****

CARTESIAN COORDINATES (ANGSTROEM)
---------------------------------
  C      1.560457   -1.192252   -0.652117
  C      1.062317   -0.265911    0.456593
  C      1.249299    1.195659    0.059614
  C     -0.388149   -0.573049    0.858469
  C     -1.448970   -0.353340   -0.220544
  O     -1.754523    1.025054   -0.329146
  H      1.060260   -0.979085   -1.593351
  H      1.383403   -2.233223   -0.391779
  H      2.628218   -1.051516   -0.801687
  H      1.672674   -0.455584    1.348199
  H      0.918398    1.852609    0.860188
  H      0.666446    1.429601   -0.826573
  H      2.297254    1.399727   -0.148522
  H     -0.658245    0.055287    1.709614
  H     -0.445086   -1.616349    1.174652
  H     -1.101741   -0.743062   -1.185116
  H     -2.353677   -0.907345    0.066883
  H     -2.466868    1.145110   -0.970082

 Total Charge           Charge          ....    0
 Multiplicity           Mult            ....    1
 Number of Electrons    NEL             ....   50
 Basis Dimension        Dim             ....  108

ORBITAL ENERGIES
----------------

  NO   OCC          E(Eh)            E(eV)
   0   2.0000     -18.738786      -509.9083
   1   2.0000      -9.927315      -270.1360
   2   2.0000      -9.887734      -269.0589
   3   2.0000      -9.878213      -268.7998
   4   2.0000      -9.868054      -268.5234
   5   2.0000      -9.857638      -268.2400
   6   2.0000      -0.914774       -24.8923
   7   2.0000      -0.723595       -19.6900
   8   2.0000      -0.646285       -17.5863
   9   2.0000      -0.601723       -16.3737
  10   2.0000      -0.555875       -15.1261
  11   2.0000      -0.477637       -12.9972
  12   2.0000      -0.463893       -12.6232
  13   2.0000      -0.426883       -11.6161
  14   2.0000      -0.386395       -10.5143
  15   2.0000      -0.373838       -10.1727
  16   2.0000      -0.359891        -9.7931
  17   2.0000      -0.343099        -9.3362
  18   2.0000      -0.328528        -8.9397
  19   2.0000      -0.313637        -8.5345
  20   2.0000      -0.294916        -8.0251
  21   2.0000      -0.279036        -7.5929
  22   2.0000      -0.275323        -7.4919
  23   2.0000      -0.256255        -6.9731
  24   2.0000      -0.209319        -5.6959
  25   0.0000       0.023893         0.6502
  26   0.0000       0.047805         1.3008
  27   0.0000       0.070372         1.9149
  28   0.0000       0.082835         2.2540
  29   0.0000       0.099072         2.6959

MULLIKEN ATOMIC CHARGES
-----------------------
   0 C :   -0.258223
   1 C :   -0.180511
   2 C :   -0.230382
   3 C :   -0.139331
   4 C :   -0.007059
   5 O :   -0.435099
   6 H :    0.099505
   7 H :    0.092693
   8 H :    0.097994
   9 H :    0.069142
  10 H :    0.095747
  11 H :    0.101058
  12 H :    0.087679
  13 H :    0.089767
  14 H :    0.080210
  15 H :    0.071402
  16 H :    0.069052
  17 H :    0.296355
Sum of atomic charges:    0.0000000

LOEWDIN ATOMIC CHARGES
----------------------
   0 C :   -0.333452
   1 C :   -0.156972
   2 C :   -0.332086
   3 C :   -0.230403
   4 C :   -0.122580
   5 O :   -0.345391
   6 H :    0.113824
   7 H :    0.114126
   8 H :    0.118802
   9 H :    0.113525
  10 H :    0.118078
  11 H :    0.117039
  12 H :    0.111267
  13 H :    0.122646
  14 H :    0.118273
  15 H :    0.093673
  16 H :    0.095793
  17 H :    0.283836

  Mayer bond orders larger than 0.100000
B(  0-C ,  1-C ) :   1.1108 B(  0-C ,  6-H ) :   0.9432 B(  0-C ,  7-H ) :   0.9518
B(  0-C ,  8-H ) :   0.9494 B(  1-C ,  2-C ) :   1.1201 B(  1-C ,  3-C ) :   1.0995
B(  1-C ,  9-H ) :   0.9030 B(  2-C , 10-H ) :   0.9502 B(  2-C , 11-H ) :   0.9377
B(  2-C , 12-H ) :   0.9491 B(  3-C ,  4-C ) :   1.1114 B(  3-C , 13-H ) :   0.9115
B(  3-C , 14-H ) :   0.9171 B(  4-C ,  5-O ) :   1.0622 B(  4-C , 15-H ) :   0.9193
B(  4-C , 16-H ) :   0.9232 B(  5-O , 17-H ) :   0.8524

Dispersion correction           -0.013328598
FINAL SINGLE POINT ENERGY      -272.298367894365

DIPOLE MOMENT
-------------

Method             : SCF
Type of density    : Electron Density
Multiplicity       :   1
Irrep              :   0
Energy             :  -272.3681465338681846 Eh
Relativity type    :
Basis              : AO
                                X                 Y                 Z
Electronic contribution:     -3.720804528       1.618296440       0.409101452
Nuclear contribution   :      3.352324301      -1.958525579      -0.715612348
                        -----------------------------------------
Total Dipole Moment    :     -0.368480227      -0.340229139      -0.306510896
                        -----------------------------------------
Magnitude (a.u.)       :      0.587777572
Magnitude (Debye)      :      1.494011856

Rotational constants in cm-1:             0.166127             0.079827             0.067852
Rotational constants in MHz :          4980.369903          2393.139250          2034.137247

                             ****ORCA TERMINATED NORMALLY****
TOTAL RUN TIME: 0 days 0 hours 0 minutes 9 seconds 757 msec
