                         Program Version 6.0.0  -   RELEASE  -
|  1> ! pbe def2-sv(p) def2/J RI DEFGRID1 loosescf d4 GCP(DFT/SV(P)) printgap
|  2> %output
|  3>     printlevel normal
|  4> end
|  5> * xyz 0 1
|  6> C 2.4241620477 -0.1728185391 -0.9025612798
|  7> C 1.2533648928 -0.2611753973 0.072459407
|  8> H 1.0722313878 -1.3213183827 0.310741798
|  9> C -0.0116891966 0.3613109646 -0.5339918537
| 10> C -1.3097241001 0.0338450872 0.2159885206
| 11> C -2.4126383882 1.0028886867 -0.2084668254
| 12> C -1.7552101557 -1.4043406275 -0.0422152163
| 13> O 1.6541627471 0.4112338162 1.2579348301
| 14> H 2.2186837466 -0.7605129632 -1.791568583
| 15> H 2.5902181746 0.8638928359 -1.1830065742
| 16> H 3.3245147935 -0.5480452258 -0.4236812592
| 17> H 0.1357665865 1.4438704858 -0.5492320968
| 18> H -0.1058748408 0.0218187436 -1.5664146345
| 19> H -1.1453259322 0.1582782342 1.2928231377
| 20> H -2.5897031212 0.9253283129 -1.2787565166
| 21> H -2.1341263512 2.0288839039 0.0203318883
| 22> H -3.3405056551 0.7752455842 0.3107655555
| 23> H -2.6644915246 -1.6230873874 0.5126549424
| 24> H -1.9556414802 -1.5507365558 -1.1012422241
| 25> H -0.992112308 -2.115489408 0.2634066236
| 26> H 0.9183800477 0.420818915 1.8838735567
| 27> *
| 28>
| 29>                          ****END OF INPUT****

CARTESIAN COORDINATES (ANGSTROEM)
---------------------------------
  C      2.424162   -0.172819   -0.902561
  C      1.253365   -0.261175    0.072459
  H      1.072231   -1.321318    0.310742
  C     -0.011689    0.361311   -0.533992
  C     -1.309724    0.033845    0.215989
  C     -2.412638    1.002889   -0.208467
  C     -1.755210   -1.404341   -0.042215
  O      1.654163    0.411234    1.257935
  H      2.218684   -0.760513   -1.791569
  H      2.590218    0.863893   -1.183007
  H      3.324515   -0.548045   -0.423681
  H      0.135767    1.443870   -0.549232
  H     -0.105875    0.021819   -1.566415
  H     -1.145326    0.158278    1.292823
  H     -2.589703    0.925328   -1.278757
  H     -2.134126    2.028884    0.020332
  H     -3.340506    0.775246    0.310766
  H     -2.664492   -1.623087    0.512655
  H     -1.955641   -1.550737   -1.101242
  H     -0.992112   -2.115489    0.263407
  H      0.918380    0.420819    1.883874

 Total Charge           Charge          ....    0
 Multiplicity           Mult            ....    1
 Number of Electrons    NEL             ....   58
 Basis Dimension        Dim             ....  126

ORBITAL ENERGIES
----------------

  NO   OCC          E(Eh)            E(eV)
   0   2.0000     -18.735279      -509.8129
   1   2.0000      -9.933332      -270.2997
   2   2.0000      -9.901624      -269.4369
   3   2.0000      -9.879933      -268.8467
   4   2.0000      -9.876885      -268.7637
   5   2.0000      -9.875788      -268.7339
   6   2.0000      -9.868399      -268.5328
   7   2.0000      -0.912822       -24.8392
   8   2.0000      -0.734820       -19.9955
   9   2.0000      -0.678392       -18.4600
  10   2.0000      -0.614494       -16.7212
  11   2.0000      -0.608163       -16.5490
  12   2.0000      -0.526793       -14.3348
  13   2.0000      -0.502944       -13.6858
  14   2.0000      -0.459207       -12.4956
  15   2.0000      -0.429246       -11.6804
  16   2.0000      -0.401606       -10.9283
  17   2.0000      -0.377516       -10.2727
  18   2.0000      -0.366549        -9.9743
  19   2.0000      -0.353225        -9.6118
  20   2.0000      -0.343236        -9.3399
  21   2.0000      -0.336217        -9.1489
  22   2.0000      -0.325728        -8.8635
  23   2.0000      -0.314375        -8.5546
  24   2.0000      -0.294771        -8.0211
  25   2.0000      -0.289915        -7.8890
  26   2.0000      -0.285298        -7.7634
  27   2.0000      -0.261749        -7.1226
  28   2.0000      -0.208621        -5.6769
  29   0.0000       0.019011         0.5173
  30   0.0000       0.047020         1.2795
  31   0.0000       0.058103         1.5811
  32   0.0000       0.067752         1.8436
  33   0.0000       0.079167         2.1543

MULLIKEN ATOMIC CHARGES
-----------------------
   0 C :   -0.230104
   1 C :    0.011613
   2 H :    0.060037
   3 C :   -0.136994
   4 C :   -0.182653
   5 C :   -0.232531
   6 C :   -0.251871
   7 O :   -0.430128
   8 H :    0.095457
   9 H :    0.098424
  10 H :    0.107016
  11 H :    0.080732
  12 H :    0.071770
  13 H :    0.049531
  14 H :    0.095034
  15 H :    0.100843
  16 H :    0.097840
  17 H :    0.099931
  18 H :    0.095591
  19 H :    0.106030
  20 H :    0.294430
Sum of atomic charges:    0.0000000

LOEWDIN ATOMIC CHARGES
----------------------
   0 C :   -0.338097
   1 C :   -0.055203
   2 H :    0.094679
   3 C :   -0.232510
   4 C :   -0.160279
   5 C :   -0.327519
   6 C :   -0.330885
   7 O :   -0.335476
   8 H :    0.120445
   9 H :    0.121890
  10 H :    0.123879
  11 H :    0.118331
  12 H :    0.118345
  13 H :    0.101579
  14 H :    0.117980
  15 H :    0.117696
  16 H :    0.116723
  17 H :    0.118543
  18 H :    0.117957
  19 H :    0.115469
  20 H :    0.276453

  Mayer bond orders larger than 0.100000
B(  0-C ,  1-C ) :   1.1190 B(  0-C ,  8-H ) :   0.9459 B(  0-C ,  9-H ) :   0.9441
B(  0-C , 10-H ) :   0.9447 B(  1-C ,  2-H ) :   0.9027 B(  1-C ,  3-C ) :   1.0667
B(  1-C ,  7-O ) :   1.0562 B(  3-C ,  4-C ) :   1.0735 B(  3-C , 11-H ) :   0.9055
B(  3-C , 12-H ) :   0.9041 B(  4-C ,  5-C ) :   1.1120 B(  4-C ,  6-C ) :   1.1090
B(  4-C , 13-H ) :   0.8920 B(  5-C , 14-H ) :   0.9497 B(  5-C , 15-H ) :   0.9489
B(  5-C , 16-H ) :   0.9512 B(  6-C , 17-H ) :   0.9487 B(  6-C , 18-H ) :   0.9487
B(  6-C , 19-H ) :   0.9436 B(  7-O , 20-H ) :   0.8484

Dispersion correction           -0.016051313
FINAL SINGLE POINT ENERGY      -311.518385910740

DIPOLE MOMENT
-------------

Method             : SCF
Type of density    : Electron Density
Multiplicity       :   1
Irrep              :   0
Energy             :  -311.5981329295028104 Eh
Relativity type    :
Basis              : AO
                                X                 Y                 Z
Electronic contribution:      3.773193572       0.998513370       3.034102397
Nuclear contribution   :     -4.354785696      -1.195734112      -3.076618379
                        -----------------------------------------
Total Dipole Moment    :     -0.581592123      -0.197220742      -0.042515982
                        -----------------------------------------
Magnitude (a.u.)       :      0.615591608
Magnitude (Debye)      :      1.564709518

Rotational constants in cm-1:             0.142935             0.045045             0.043538
Rotational constants in MHz :          4285.074123          1350.421274          1305.228424

                             ****ORCA TERMINATED NORMALLY****
TOTAL RUN TIME: 0 days 0 hours 0 minutes 9 seconds 129 msec
