                         Program Version 6.0.0  -   RELEASE  -
|  1> ! pbe def2-sv(p) def2/J RI DEFGRID1 loosescf d4 GCP(DFT/SV(P)) printgap
|  2> %output
|  3>     printlevel normal
|  4> end
|  5> * xyz 0 1
|  6> C -1.3596159655 -0.4410292696 -0.3332659796
|  7> C 0.007712912 -0.0623971215 0.2510266137
|  8> C 1.1384445654 -0.8017072544 -0.4844941873
|  9> O 2.3913027687 -0.5309895262 0.0962067646
| 10> O 0.2349743629 1.3316492482 0.2151439552
| 11> O -2.4155641593 0.3153011365 0.206083269
| 12> H -1.5275840232 -1.515260825 -0.1870677116
| 13> H -1.3716817371 -0.2309463989 -1.4064905784
| 14> H 0.0525712949 -0.3272006432 1.314121794
| 15> H 1.141228476 -0.5073036598 -1.5437756554
| 16> H 0.9920874412 -1.8806809098 -0.4181911973
| 17> H 2.4501819024 0.4262868578 0.2434869545
| 18> H -0.0849065192 1.687541743 -0.6260349137
| 19> H -2.4530239229 0.1856370368 1.1637971545
| 20> *
| 21>
| 22>                          ****END OF INPUT****

CARTESIAN COORDINATES (ANGSTROEM)
---------------------------------
  C     -1.359616   -0.441029   -0.333266
  C      0.007713   -0.062397    0.251027
  C      1.138445   -0.801707   -0.484494
  O      2.391303   -0.530990    0.096207
  O      0.234974    1.331649    0.215144
  O     -2.415564    0.315301    0.206083
  H     -1.527584   -1.515261   -0.187068
  H     -1.371682   -0.230946   -1.406491
  H      0.052571   -0.327201    1.314122
  H      1.141228   -0.507304   -1.543776
  H      0.992087   -1.880681   -0.418191
  H      2.450182    0.426287    0.243487
  H     -0.084907    1.687542   -0.626035
  H     -2.453024    0.185637    1.163797

 Total Charge           Charge          ....    0
 Multiplicity           Mult            ....    1
 Number of Electrons    NEL             ....   50
 Basis Dimension        Dim             ....  100

ORBITAL ENERGIES
----------------

  NO   OCC          E(Eh)            E(eV)
   0   2.0000     -18.760153      -510.4897
   1   2.0000     -18.752715      -510.2873
   2   2.0000     -18.739325      -509.9230
   3   2.0000      -9.943592      -270.5789
   4   2.0000      -9.941538      -270.5230
   5   2.0000      -9.931725      -270.2560
   6   2.0000      -0.946967       -25.7683
   7   2.0000      -0.924493       -25.1567
   8   2.0000      -0.909406       -24.7462
   9   2.0000      -0.687098       -18.6969
  10   2.0000      -0.604048       -16.4370
  11   2.0000      -0.564173       -15.3519
  12   2.0000      -0.482781       -13.1371
  13   2.0000      -0.463602       -12.6152
  14   2.0000      -0.427310       -11.6277
  15   2.0000      -0.422079       -11.4854
  16   2.0000      -0.398972       -10.8566
  17   2.0000      -0.383209       -10.4276
  18   2.0000      -0.347728        -9.4622
  19   2.0000      -0.309000        -8.4083
  20   2.0000      -0.285090        -7.7577
  21   2.0000      -0.281459        -7.6589
  22   2.0000      -0.240705        -6.5499
  23   2.0000      -0.226283        -6.1575
  24   2.0000      -0.204829        -5.5737
  25   0.0000       0.015868         0.4318
  26   0.0000       0.030512         0.8303
  27   0.0000       0.052923         1.4401
  28   0.0000       0.064218         1.7475
  29   0.0000       0.080938         2.2024

MULLIKEN ATOMIC CHARGES
-----------------------
   0 C :    0.014095
   1 C :   -0.051901
   2 C :    0.059080
   3 O :   -0.436359
   4 O :   -0.425245
   5 O :   -0.422962
   6 H :    0.081008
   7 H :    0.078073
   8 H :    0.070500
   9 H :    0.055457
  10 H :    0.082631
  11 H :    0.295748
  12 H :    0.300144
  13 H :    0.299732
Sum of atomic charges:    0.0000000

LOEWDIN ATOMIC CHARGES
----------------------
   0 C :   -0.140620
   1 C :   -0.105198
   2 C :   -0.135647
   3 O :   -0.341964
   4 O :   -0.320468
   5 O :   -0.335000
   6 H :    0.102639
   7 H :    0.109931
   8 H :    0.111141
   9 H :    0.091369
  10 H :    0.113250
  11 H :    0.277860
  12 H :    0.286342
  13 H :    0.286365

  Mayer bond orders larger than 0.100000
B(  0-C ,  1-C ) :   1.0426 B(  0-C ,  5-O ) :   1.0882 B(  0-C ,  6-H ) :   0.9177
B(  0-C ,  7-H ) :   0.9101 B(  1-C ,  2-C ) :   1.0355 B(  1-C ,  4-O ) :   1.0345
B(  1-C ,  8-H ) :   0.8868 B(  2-C ,  3-O ) :   1.0799 B(  2-C ,  9-H ) :   0.9022
B(  2-C , 10-H ) :   0.9178 B(  3-O , 11-H ) :   0.8372 B(  4-O , 12-H ) :   0.8487
B(  5-O , 13-H ) :   0.8524

Dispersion correction           -0.009031792
FINAL SINGLE POINT ENERGY      -344.007741221719

DIPOLE MOMENT
-------------

Method             : SCF
Type of density    : Electron Density
Multiplicity       :   1
Irrep              :   0
Energy             :  -344.0811751088997426 Eh
Relativity type    :
Basis              : AO
                                X                 Y                 Z
Electronic contribution:      0.344869251       1.957452262       1.225716537
Nuclear contribution   :     -0.748466736      -2.011688657      -1.362193167
                        -----------------------------------------
Total Dipole Moment    :     -0.403597485      -0.054236395      -0.136476630
                        -----------------------------------------
Magnitude (a.u.)       :      0.429486190
Magnitude (Debye)      :      1.091667138

Rotational constants in cm-1:             0.265752             0.065194             0.056274
Rotational constants in MHz :          7967.051168          1954.473109          1687.046941

                             ****ORCA TERMINATED NORMALLY****
TOTAL RUN TIME: 0 days 0 hours 0 minutes 6 seconds 537 msec
