                         Program Version 6.0.0  -   RELEASE  -
|  1> ! r2scan-3c def2/J RI DEFGRID2 scfconv6 printgap
|  2> %output
|  3>     printlevel normal
|  4> end
|  5> * xyz 0 1
|  6> C -2.5851565456 -0.0177906768 0.8622133287
|  7> C -1.7475350932 0.6378422043 -0.2354237571
|  8> C -0.4254361578 -0.0709730631 -0.3878504038
|  9> O -0.2975723521 -1.2602355316 -0.5917192509
| 10> O 0.5948957436 0.7708446664 -0.2795773505
| 11> C 1.9307526721 0.2497272367 -0.387698605
| 12> C 2.4367769213 -0.2421885687 0.9596922541
| 13> H -3.5696903745 0.4377353626 0.9003398645
| 14> H -2.693023146 -1.0805185644 0.6592015044
| 15> H -2.1056443067 0.1019757162 1.8303399668
| 16> H -1.5577409552 1.6873974317 -0.0162453583
| 17> H -2.273359161 0.5567597175 -1.1884354847
| 18> H 1.9290674478 -0.5640301744 -1.1192718361
| 19> H 2.5240577535 1.0882206525 -0.7534564964
| 20> H 2.3813137214 0.5562639817 1.6945213913
| 21> H 1.8331025508 -1.0805814755 1.3001843474
| 22> H 3.4669091754 -0.5677609651 0.8600100972
| 23> *
| 24>
| 25>                          ****END OF INPUT****

CARTESIAN COORDINATES (ANGSTROEM)
---------------------------------
  C     -2.585157   -0.017791    0.862213
  C     -1.747535    0.637842   -0.235424
  C     -0.425436   -0.070973   -0.387850
  O     -0.297572   -1.260236   -0.591719
  O      0.594896    0.770845   -0.279577
  C      1.930753    0.249727   -0.387699
  C      2.436777   -0.242189    0.959692
  H     -3.569690    0.437735    0.900340
  H     -2.693023   -1.080519    0.659202
  H     -2.105644    0.101976    1.830340
  H     -1.557741    1.687397   -0.016245
  H     -2.273359    0.556760   -1.188435
  H      1.929067   -0.564030   -1.119272
  H      2.524058    1.088221   -0.753456
  H      2.381314    0.556264    1.694521
  H      1.833103   -1.080581    1.300184
  H      3.466909   -0.567761    0.860010

 Total Charge           Charge          ....    0
 Multiplicity           Mult            ....    1
 Number of Electrons    NEL             ....   56
 Basis Dimension        Dim             ....  193

ORBITAL ENERGIES
----------------

  NO   OCC          E(Eh)            E(eV)
   0   2.0000     -18.996967      -516.9338
   1   2.0000     -18.927353      -515.0394
   2   2.0000     -10.151426      -276.2343
   3   2.0000     -10.090915      -274.5878
   4   2.0000     -10.043049      -273.2852
   5   2.0000     -10.028932      -272.9011
   6   2.0000     -10.027168      -272.8531
   7   2.0000      -1.071208       -29.1490
   8   2.0000      -0.975295       -26.5391
   9   2.0000      -0.763300       -20.7705
  10   2.0000      -0.730603       -19.8807
  11   2.0000      -0.643950       -17.5228
  12   2.0000      -0.595602       -16.2071
  13   2.0000      -0.520549       -14.1649
  14   2.0000      -0.472411       -12.8549
  15   2.0000      -0.451743       -12.2925
  16   2.0000      -0.444322       -12.0906
  17   2.0000      -0.411112       -11.1869
  18   2.0000      -0.405596       -11.0368
  19   2.0000      -0.379105       -10.3160
  20   2.0000      -0.369201       -10.0465
  21   2.0000      -0.354111        -9.6358
  22   2.0000      -0.336461        -9.1556
  23   2.0000      -0.327501        -8.9118
  24   2.0000      -0.320898        -8.7321
  25   2.0000      -0.305072        -8.3014
  26   2.0000      -0.271213        -7.3801
  27   2.0000      -0.235940        -6.4202
  28   0.0000      -0.014822        -0.4033
  29   0.0000       0.077125         2.0987
  30   0.0000       0.093133         2.5343
  31   0.0000       0.117432         3.1955
  32   0.0000       0.125460         3.4139

MULLIKEN ATOMIC CHARGES
-----------------------
   0 C :   -0.461075
   1 C :   -0.302852
   2 C :    0.408477
   3 O :   -0.437384
   4 O :   -0.178906
   5 C :   -0.136592
   6 C :   -0.468758
   7 H :    0.149960
   8 H :    0.171776
   9 H :    0.144018
  10 H :    0.163449
  11 H :    0.162480
  12 H :    0.167570
  13 H :    0.147520
  14 H :    0.151513
  15 H :    0.171754
  16 H :    0.147050
Sum of atomic charges:   -0.0000000

LOEWDIN ATOMIC CHARGES
----------------------
   0 C :   -0.395974
   1 C :   -0.237286
   2 C :    0.359617
   3 O :   -0.437965
   4 O :   -0.596500
   5 C :    0.026979
   6 C :   -0.390346
   7 H :    0.151700
   8 H :    0.165546
   9 H :    0.154405
  10 H :    0.174284
  11 H :    0.178420
  12 H :    0.188226
  13 H :    0.177608
  14 H :    0.156908
  15 H :    0.165208
  16 H :    0.159171

  Mayer bond orders larger than 0.100000
B(  0-C ,  1-C ) :   0.9012 B(  0-C ,  7-H ) :   0.9736 B(  0-C ,  8-H ) :   0.9715
B(  0-C ,  9-H ) :   0.9750 B(  1-C ,  2-C ) :   0.9549 B(  1-C , 10-H ) :   0.9862
B(  1-C , 11-H ) :   0.9478 B(  2-C ,  3-O ) :   1.8208 B(  2-C ,  4-O ) :   1.0646
B(  4-O ,  5-C ) :   0.8164 B(  5-C ,  6-C ) :   0.9394 B(  5-C , 12-H ) :   0.9654
B(  5-C , 13-H ) :   0.9607 B(  6-C , 14-H ) :   0.9739 B(  6-C , 15-H ) :   0.9715
B(  6-C , 16-H ) :   0.9654

Dispersion correction           -0.003980415
FINAL SINGLE POINT ENERGY      -346.936536935954

DIPOLE MOMENT
-------------

Method             : SCF
Type of density    : Electron Density
Multiplicity       :   1
Irrep              :   0
Energy             :  -346.9429976884920279 Eh
Relativity type    :
Basis              : AO
                                X                 Y                 Z
Electronic contribution:      0.290313542      -0.381914753      -3.687597574
Nuclear contribution   :     -0.056579548       1.057997124       3.896601120
                        -----------------------------------------
Total Dipole Moment    :      0.233733994       0.676082371       0.209003546
                        -----------------------------------------
Magnitude (a.u.)       :      0.745252598
Magnitude (Debye)      :      1.894281563

Rotational constants in cm-1:             0.180310             0.048132             0.047441
Rotational constants in MHz :          5405.561464          1442.953096          1422.234517

                             ****ORCA TERMINATED NORMALLY****
TOTAL RUN TIME: 0 days 0 hours 0 minutes 21 seconds 535 msec
