                         Program Version 6.0.0  -   RELEASE  -
|  1> ! r2scan-3c def2/J RI DEFGRID2 scfconv6 printgap
|  2> %output
|  3>     printlevel normal
|  4> end
|  5> %cpcm
|  6>     smd true
|  7>     smdsolvent "water"
|  8> end
|  9> * xyz 0 1
| 10> C -2.5851565456 -0.0177906768 0.8622133287
| 11> C -1.7475350932 0.6378422043 -0.2354237571
| 12> C -0.4254361578 -0.0709730631 -0.3878504038
| 13> O -0.2975723521 -1.2602355316 -0.5917192509
| 14> O 0.5948957436 0.7708446664 -0.2795773505
| 15> C 1.9307526721 0.2497272367 -0.387698605
| 16> C 2.4367769213 -0.2421885687 0.9596922541
| 17> H -3.5696903745 0.4377353626 0.9003398645
| 18> H -2.693023146 -1.0805185644 0.6592015044
| 19> H -2.1056443067 0.1019757162 1.8303399668
| 20> H -1.5577409552 1.6873974317 -0.0162453583
| 21> H -2.273359161 0.5567597175 -1.1884354847
| 22> H 1.9290674478 -0.5640301744 -1.1192718361
| 23> H 2.5240577535 1.0882206525 -0.7534564964
| 24> H 2.3813137214 0.5562639817 1.6945213913
| 25> H 1.8331025508 -1.0805814755 1.3001843474
| 26> H 3.4669091754 -0.5677609651 0.8600100972
| 27> *
| 28>
| 29>                          ****END OF INPUT****

CARTESIAN COORDINATES (ANGSTROEM)
---------------------------------
  C     -2.585157   -0.017791    0.862213
  C     -1.747535    0.637842   -0.235424
  C     -0.425436   -0.070973   -0.387850
  O     -0.297572   -1.260236   -0.591719
  O      0.594896    0.770845   -0.279577
  C      1.930753    0.249727   -0.387699
  C      2.436777   -0.242189    0.959692
  H     -3.569690    0.437735    0.900340
  H     -2.693023   -1.080519    0.659202
  H     -2.105644    0.101976    1.830340
  H     -1.557741    1.687397   -0.016245
  H     -2.273359    0.556760   -1.188435
  H      1.929067   -0.564030   -1.119272
  H      2.524058    1.088221   -0.753456
  H      2.381314    0.556264    1.694521
  H      1.833103   -1.080581    1.300184
  H      3.466909   -0.567761    0.860010

 Total Charge           Charge          ....    0
 Multiplicity           Mult            ....    1
 Number of Electrons    NEL             ....   56
 Basis Dimension        Dim             ....  193

ORBITAL ENERGIES
----------------

  NO   OCC          E(Eh)            E(eV)
   0   2.0000     -19.002828      -517.0933
   1   2.0000     -18.943133      -515.4689
   2   2.0000     -10.162071      -276.5240
   3   2.0000     -10.083094      -274.3749
   4   2.0000     -10.037329      -273.1296
   5   2.0000     -10.020014      -272.6584
   6   2.0000     -10.018360      -272.6134
   7   2.0000      -1.078683       -29.3525
   8   2.0000      -0.988939       -26.9104
   9   2.0000      -0.759609       -20.6700
  10   2.0000      -0.723598       -19.6901
  11   2.0000      -0.639259       -17.3951
  12   2.0000      -0.589824       -16.0499
  13   2.0000      -0.518903       -14.1201
  14   2.0000      -0.472884       -12.8678
  15   2.0000      -0.457843       -12.4585
  16   2.0000      -0.446045       -12.1375
  17   2.0000      -0.413270       -11.2457
  18   2.0000      -0.400942       -10.9102
  19   2.0000      -0.374266       -10.1843
  20   2.0000      -0.365780        -9.9534
  21   2.0000      -0.347314        -9.4509
  22   2.0000      -0.333264        -9.0686
  23   2.0000      -0.324710        -8.8358
  24   2.0000      -0.315181        -8.5765
  25   2.0000      -0.302786        -8.2392
  26   2.0000      -0.278895        -7.5891
  27   2.0000      -0.251961        -6.8562
  28   0.0000      -0.022737        -0.6187
  29   0.0000       0.079428         2.1614
  30   0.0000       0.100505         2.7349
  31   0.0000       0.127252         3.4627
  32   0.0000       0.134639         3.6637

MULLIKEN ATOMIC CHARGES
-----------------------
   0 C :   -0.493655
   1 C :   -0.313892
   2 C :    0.448679
   3 O :   -0.520288
   4 O :   -0.199152
   5 C :   -0.142056
   6 C :   -0.493468
   7 H :    0.169964
   8 H :    0.165103
   9 H :    0.163210
  10 H :    0.177438
  11 H :    0.189851
  12 H :    0.171006
  13 H :    0.173517
  14 H :    0.165647
  15 H :    0.167695
  16 H :    0.170401
Sum of atomic charges:   -0.0000000

LOEWDIN ATOMIC CHARGES
----------------------
   0 C :   -0.399491
   1 C :   -0.233456
   2 C :    0.369756
   3 O :   -0.497367
   4 O :   -0.599024
   5 C :    0.031644
   6 C :   -0.393056
   7 H :    0.159517
   8 H :    0.161506
   9 H :    0.159783
  10 H :    0.181494
  11 H :    0.188240
  12 H :    0.189367
  13 H :    0.188953
  14 H :    0.161931
  15 H :    0.162441
  16 H :    0.167762

  Mayer bond orders larger than 0.100000
B(  0-C ,  1-C ) :   0.8842 B(  0-C ,  7-H ) :   0.9676 B(  0-C ,  8-H ) :   0.9731
B(  0-C ,  9-H ) :   0.9723 B(  1-C ,  2-C ) :   0.9576 B(  1-C , 10-H ) :   0.9775
B(  1-C , 11-H ) :   0.9398 B(  2-C ,  3-O ) :   1.7554 B(  2-C ,  4-O ) :   1.0879
B(  4-O ,  5-C ) :   0.7985 B(  5-C ,  6-C ) :   0.9385 B(  5-C , 12-H ) :   0.9616
B(  5-C , 13-H ) :   0.9514 B(  6-C , 14-H ) :   0.9699 B(  6-C , 15-H ) :   0.9692
B(  6-C , 16-H ) :   0.9604

Dispersion correction           -0.003980415
FINAL SINGLE POINT ENERGY      -346.941449402858

DIPOLE MOMENT
-------------

Method             : SCF
Type of density    : Electron Density
Multiplicity       :   1
Irrep              :   0
Energy             :  -346.9479101553960732 Eh
Relativity type    :
Basis              : AO
                                X                 Y                 Z
Electronic contribution:      0.364360873      -0.037015503      -3.630752685
Nuclear contribution   :     -0.056579548       1.057997124       3.896601120
                        -----------------------------------------
Total Dipole Moment    :      0.307781325       1.020981621       0.265848435
                        -----------------------------------------
Magnitude (a.u.)       :      1.099003278
Magnitude (Debye)      :      2.793444333

Rotational constants in cm-1:             0.180310             0.048132             0.047441
Rotational constants in MHz :          5405.561464          1442.953096          1422.234517

                             ****ORCA TERMINATED NORMALLY****
TOTAL RUN TIME: 0 days 0 hours 0 minutes 25 seconds 612 msec
