                         Program Version 6.0.0  -   RELEASE  -
|  1> ! r2scan-3c def2/J RI DEFGRID2 scfconv6 printgap
|  2> %output
|  3>     printlevel normal
|  4> end
|  5> * xyz 0 1
|  6> C -1.9893137145 0.9071756668 1.2345656743
|  7> C -2.0941847651 -0.2570051436 0.2534833912
|  8> C -3.5227351794 -0.390611153 -0.2671446762
|  9> C -1.1259281952 -0.0596647109 -0.9265689225
| 10> C 0.3018126959 -0.0497146504 -0.4847625303
| 11> C 0.9286421258 -1.1940875563 0.0170588311
| 12> N 2.1820692478 -1.1875540858 0.4373438516
| 13> C 2.8385066057 -0.035318053 0.3579448333
| 14> C 2.2338548483 1.1019733415 -0.1549535701
| 15> N 0.9755486606 1.0941251222 -0.5718871647
| 16> H -2.2465481227 1.8412854284 0.7411512262
| 17> H -0.9769718377 0.9951894007 1.6238354445
| 18> H -2.6665779333 0.7599285425 2.0722389069
| 19> H -1.8219252843 -1.1804387121 0.7766517138
| 20> H -3.6097095325 -1.2377638729 -0.942987948
| 21> H -4.2126826596 -0.5385675557 0.5597133292
| 22> H -3.8150919973 0.5097371653 -0.8020605357
| 23> H -1.3421117233 0.8884356662 -1.4191627545
| 24> H -1.2693568239 -0.8726397343 -1.6412136785
| 25> H 0.411580288 -2.1414892264 0.0791870926
| 26> H 3.8600614959 -0.0395307964 0.7080327581
| 27> H 2.7583518764 2.0431464292 -0.2386620714
| 28> *
| 29>
| 30>                          ****END OF INPUT****

CARTESIAN COORDINATES (ANGSTROEM)
---------------------------------
  C     -1.989314    0.907176    1.234566
  C     -2.094185   -0.257005    0.253483
  C     -3.522735   -0.390611   -0.267145
  C     -1.125928   -0.059665   -0.926569
  C      0.301813   -0.049715   -0.484763
  C      0.928642   -1.194088    0.017059
  N      2.182069   -1.187554    0.437344
  C      2.838507   -0.035318    0.357945
  C      2.233855    1.101973   -0.154954
  N      0.975549    1.094125   -0.571887
  H     -2.246548    1.841285    0.741151
  H     -0.976972    0.995189    1.623835
  H     -2.666578    0.759929    2.072239
  H     -1.821925   -1.180439    0.776652
  H     -3.609710   -1.237764   -0.942988
  H     -4.212683   -0.538568    0.559713
  H     -3.815092    0.509737   -0.802061
  H     -1.342112    0.888436   -1.419163
  H     -1.269357   -0.872640   -1.641214
  H      0.411580   -2.141489    0.079187
  H      3.860061   -0.039531    0.708033
  H      2.758352    2.043146   -0.238662

 Total Charge           Charge          ....    0
 Multiplicity           Mult            ....    1
 Number of Electrons    NEL             ....   74
 Basis Dimension        Dim             ....  260

ORBITAL ENERGIES
----------------

  NO   OCC          E(Eh)            E(eV)
   0   2.0000     -14.173533      -385.6814
   1   2.0000     -14.170531      -385.5997
   2   2.0000     -10.083207      -274.3780
   3   2.0000     -10.076424      -274.1934
   4   2.0000     -10.074888      -274.1516
   5   2.0000     -10.074157      -274.1318
   6   2.0000     -10.045164      -273.3428
   7   2.0000     -10.036466      -273.1061
   8   2.0000     -10.021904      -272.7099
   9   2.0000     -10.017948      -272.6022
  10   2.0000      -0.954037       -25.9607
  11   2.0000      -0.879644       -23.9363
  12   2.0000      -0.793478       -21.5916
  13   2.0000      -0.747840       -20.3498
  14   2.0000      -0.676183       -18.3999
  15   2.0000      -0.655385       -17.8339
  16   2.0000      -0.630224       -17.1493
  17   2.0000      -0.599242       -16.3062
  18   2.0000      -0.537967       -14.6388
  19   2.0000      -0.493102       -13.4180
  20   2.0000      -0.488127       -13.2826
  21   2.0000      -0.449644       -12.2354
  22   2.0000      -0.437432       -11.9031
  23   2.0000      -0.422575       -11.4989
  24   2.0000      -0.406963       -11.0740
  25   2.0000      -0.391265       -10.6469
  26   2.0000      -0.374270       -10.1844
  27   2.0000      -0.361843        -9.8463
  28   2.0000      -0.358197        -9.7470
  29   2.0000      -0.339835        -9.2474
  30   2.0000      -0.318709        -8.6725
  31   2.0000      -0.308921        -8.4062
  32   2.0000      -0.304020        -8.2728
  33   2.0000      -0.300980        -8.1901
  34   2.0000      -0.273393        -7.4394
  35   2.0000      -0.248879        -6.7723
  36   2.0000      -0.214823        -5.8456
  37   0.0000      -0.076803        -2.0899
  38   0.0000      -0.051278        -1.3953
  39   0.0000       0.072239         1.9657
  40   0.0000       0.084229         2.2920
  41   0.0000       0.095448         2.5973

MULLIKEN ATOMIC CHARGES
-----------------------
   0 C :   -0.490028
   1 C :   -0.033705
   2 C :   -0.482203
   3 C :   -0.471037
   4 C :    0.368957
   5 C :   -0.228811
   6 N :   -0.148807
   7 C :   -0.070288
   8 C :   -0.063349
   9 N :   -0.195756
  10 H :    0.157323
  11 H :    0.156046
  12 H :    0.146317
  13 H :    0.150567
  14 H :    0.145172
  15 H :    0.151145
  16 H :    0.152469
  17 H :    0.182234
  18 H :    0.160111
  19 H :    0.139830
  20 H :    0.136056
  21 H :    0.137757
Sum of atomic charges:    0.0000000

LOEWDIN ATOMIC CHARGES
----------------------
   0 C :   -0.407710
   1 C :   -0.231161
   2 C :   -0.413085
   3 C :   -0.247818
   4 C :    0.147515
   5 C :    0.101886
   6 N :   -0.569349
   7 C :    0.085825
   8 C :    0.098751
   9 N :   -0.574131
  10 H :    0.157351
  11 H :    0.160281
  12 H :    0.153663
  13 H :    0.157324
  14 H :    0.152958
  15 H :    0.154973
  16 H :    0.155758
  17 H :    0.182715
  18 H :    0.172387
  19 H :    0.188656
  20 H :    0.186623
  21 H :    0.186587

  Mayer bond orders larger than 0.100000
B(  0-C ,  1-C ) :   0.9104 B(  0-C , 10-H ) :   0.9835 B(  0-C , 11-H ) :   0.9648
B(  0-C , 12-H ) :   0.9701 B(  1-C ,  2-C ) :   0.8980 B(  1-C ,  3-C ) :   0.8801
B(  1-C , 13-H ) :   0.9522 B(  2-C , 14-H ) :   0.9778 B(  2-C , 15-H ) :   0.9756
B(  2-C , 16-H ) :   0.9876 B(  3-C ,  4-C ) :   0.8305 B(  3-C ,  9-N ) :   0.1167
B(  3-C , 17-H ) :   1.0239 B(  3-C , 18-H ) :   0.9781 B(  4-C ,  5-C ) :   1.2703
B(  4-C ,  9-N ) :   1.2137 B(  5-C ,  6-N ) :   1.4925 B(  5-C ,  8-C ) :   0.1153
B(  5-C , 19-H ) :   0.9734 B(  6-N ,  7-C ) :   1.4170 B(  7-C ,  8-C ) :   1.3111
B(  7-C , 20-H ) :   0.9710 B(  8-C ,  9-N ) :   1.4464 B(  8-C , 21-H ) :   0.9663

Dispersion correction           -0.007433764
FINAL SINGLE POINT ENERGY      -421.452892999293

DIPOLE MOMENT
-------------

Method             : SCF
Type of density    : Electron Density
Multiplicity       :   1
Irrep              :   0
Energy             :  -421.4580589887121960 Eh
Relativity type    :
Basis              : AO
                                X                 Y                 Z
Electronic contribution:     13.675707152      -0.932943730      -1.438132096
Nuclear contribution   :    -13.990462355       0.963261154       1.422204109
                        -----------------------------------------
Total Dipole Moment    :     -0.314755203       0.030317424      -0.015927987
                        -----------------------------------------
Magnitude (a.u.)       :      0.316612831
Magnitude (Debye)      :      0.804765861

Rotational constants in cm-1:             0.107229             0.025592             0.024049
Rotational constants in MHz :          3214.648838           767.222704           720.985490

                             ****ORCA TERMINATED NORMALLY****
TOTAL RUN TIME: 0 days 0 hours 0 minutes 36 seconds 79 msec
