                         Program Version 6.0.0  -   RELEASE  -
|  1> ! r2scan-3c def2/J RI DEFGRID2 scfconv6 printgap
|  2> %output
|  3>     printlevel normal
|  4> end
|  5> %cpcm
|  6>     smd true
|  7>     smdsolvent "water"
|  8> end
|  9> * xyz 0 1
| 10> C -1.9893137145 0.9071756668 1.2345656743
| 11> C -2.0941847651 -0.2570051436 0.2534833912
| 12> C -3.5227351794 -0.390611153 -0.2671446762
| 13> C -1.1259281952 -0.0596647109 -0.9265689225
| 14> C 0.3018126959 -0.0497146504 -0.4847625303
| 15> C 0.9286421258 -1.1940875563 0.0170588311
| 16> N 2.1820692478 -1.1875540858 0.4373438516
| 17> C 2.8385066057 -0.035318053 0.3579448333
| 18> C 2.2338548483 1.1019733415 -0.1549535701
| 19> N 0.9755486606 1.0941251222 -0.5718871647
| 20> H -2.2465481227 1.8412854284 0.7411512262
| 21> H -0.9769718377 0.9951894007 1.6238354445
| 22> H -2.6665779333 0.7599285425 2.0722389069
| 23> H -1.8219252843 -1.1804387121 0.7766517138
| 24> H -3.6097095325 -1.2377638729 -0.942987948
| 25> H -4.2126826596 -0.5385675557 0.5597133292
| 26> H -3.8150919973 0.5097371653 -0.8020605357
| 27> H -1.3421117233 0.8884356662 -1.4191627545
| 28> H -1.2693568239 -0.8726397343 -1.6412136785
| 29> H 0.411580288 -2.1414892264 0.0791870926
| 30> H 3.8600614959 -0.0395307964 0.7080327581
| 31> H 2.7583518764 2.0431464292 -0.2386620714
| 32> *
| 33>
| 34>                          ****END OF INPUT****

CARTESIAN COORDINATES (ANGSTROEM)
---------------------------------
  C     -1.989314    0.907176    1.234566
  C     -2.094185   -0.257005    0.253483
  C     -3.522735   -0.390611   -0.267145
  C     -1.125928   -0.059665   -0.926569
  C      0.301813   -0.049715   -0.484763
  C      0.928642   -1.194088    0.017059
  N      2.182069   -1.187554    0.437344
  C      2.838507   -0.035318    0.357945
  C      2.233855    1.101973   -0.154954
  N      0.975549    1.094125   -0.571887
  H     -2.246548    1.841285    0.741151
  H     -0.976972    0.995189    1.623835
  H     -2.666578    0.759929    2.072239
  H     -1.821925   -1.180439    0.776652
  H     -3.609710   -1.237764   -0.942988
  H     -4.212683   -0.538568    0.559713
  H     -3.815092    0.509737   -0.802061
  H     -1.342112    0.888436   -1.419163
  H     -1.269357   -0.872640   -1.641214
  H      0.411580   -2.141489    0.079187
  H      3.860061   -0.039531    0.708033
  H      2.758352    2.043146   -0.238662

 Total Charge           Charge          ....    0
 Multiplicity           Mult            ....    1
 Number of Electrons    NEL             ....   74
 Basis Dimension        Dim             ....  260

ORBITAL ENERGIES
----------------

  NO   OCC          E(Eh)            E(eV)
   0   2.0000     -14.174483      -385.7073
   1   2.0000     -14.170689      -385.6040
   2   2.0000     -10.079968      -274.2899
   3   2.0000     -10.071760      -274.0665
   4   2.0000     -10.070331      -274.0276
   5   2.0000     -10.069476      -274.0044
   6   2.0000     -10.033402      -273.0227
   7   2.0000     -10.025969      -272.8205
   8   2.0000     -10.008393      -272.3422
   9   2.0000     -10.008044      -272.3327
  10   2.0000      -0.953071       -25.9344
  11   2.0000      -0.879578       -23.9345
  12   2.0000      -0.784146       -21.3377
  13   2.0000      -0.741090       -20.1661
  14   2.0000      -0.668663       -18.1953
  15   2.0000      -0.644644       -17.5417
  16   2.0000      -0.626233       -17.0407
  17   2.0000      -0.594014       -16.1639
  18   2.0000      -0.527434       -14.3522
  19   2.0000      -0.490009       -13.3338
  20   2.0000      -0.483030       -13.1439
  21   2.0000      -0.440407       -11.9841
  22   2.0000      -0.427389       -11.6298
  23   2.0000      -0.415430       -11.3044
  24   2.0000      -0.397518       -10.8170
  25   2.0000      -0.386386       -10.5141
  26   2.0000      -0.365709        -9.9515
  27   2.0000      -0.352009        -9.5787
  28   2.0000      -0.347281        -9.4500
  29   2.0000      -0.329457        -8.9650
  30   2.0000      -0.315793        -8.5932
  31   2.0000      -0.300571        -8.1789
  32   2.0000      -0.294379        -8.0105
  33   2.0000      -0.291848        -7.9416
  34   2.0000      -0.277461        -7.5501
  35   2.0000      -0.244007        -6.6398
  36   2.0000      -0.217173        -5.9096
  37   0.0000      -0.076462        -2.0806
  38   0.0000      -0.047634        -1.2962
  39   0.0000       0.077275         2.1027
  40   0.0000       0.089164         2.4263
  41   0.0000       0.104492         2.8434

MULLIKEN ATOMIC CHARGES
-----------------------
   0 C :   -0.551172
   1 C :    0.001487
   2 C :   -0.535233
   3 C :   -0.477919
   4 C :    0.357288
   5 C :   -0.221098
   6 N :   -0.201876
   7 C :   -0.084474
   8 C :   -0.071890
   9 N :   -0.236290
  10 H :    0.169767
  11 H :    0.161819
  12 H :    0.161167
  13 H :    0.167427
  14 H :    0.159382
  15 H :    0.162443
  16 H :    0.164205
  17 H :    0.185921
  18 H :    0.180772
  19 H :    0.171030
  20 H :    0.167747
  21 H :    0.169498
Sum of atomic charges:    0.0000000

LOEWDIN ATOMIC CHARGES
----------------------
   0 C :   -0.418146
   1 C :   -0.226240
   2 C :   -0.420248
   3 C :   -0.247440
   4 C :    0.150734
   5 C :    0.107716
   6 N :   -0.605071
   7 C :    0.086984
   8 C :    0.101605
   9 N :   -0.603514
  10 H :    0.158662
  11 H :    0.159416
  12 H :    0.157674
  13 H :    0.163228
  14 H :    0.156751
  15 H :    0.157499
  16 H :    0.157993
  17 H :    0.182242
  18 H :    0.181649
  19 H :    0.201439
  20 H :    0.198363
  21 H :    0.198706

  Mayer bond orders larger than 0.100000
B(  0-C ,  1-C ) :   0.8860 B(  0-C , 10-H ) :   0.9842 B(  0-C , 11-H ) :   0.9659
B(  0-C , 12-H ) :   0.9673 B(  1-C ,  2-C ) :   0.8849 B(  1-C ,  3-C ) :   0.8698
B(  1-C , 13-H ) :   0.9513 B(  2-C , 14-H ) :   0.9756 B(  2-C , 15-H ) :   0.9731
B(  2-C , 16-H ) :   0.9870 B(  3-C ,  4-C ) :   0.8371 B(  3-C ,  9-N ) :   0.1275
B(  3-C , 17-H ) :   1.0354 B(  3-C , 18-H ) :   0.9608 B(  4-C ,  5-C ) :   1.2918
B(  4-C ,  9-N ) :   1.2110 B(  5-C ,  6-N ) :   1.4913 B(  5-C ,  8-C ) :   0.1150
B(  5-C , 19-H ) :   0.9569 B(  6-N ,  7-C ) :   1.4119 B(  7-C ,  8-C ) :   1.3264
B(  7-C , 20-H ) :   0.9604 B(  8-C ,  9-N ) :   1.4366 B(  8-C , 21-H ) :   0.9557

Dispersion correction           -0.007433764
FINAL SINGLE POINT ENERGY      -421.461673748328

DIPOLE MOMENT
-------------

Method             : SCF
Type of density    : Electron Density
Multiplicity       :   1
Irrep              :   0
Energy             :  -421.4668397377473639 Eh
Relativity type    :
Basis              : AO
                                X                 Y                 Z
Electronic contribution:     13.587038362      -1.017199968      -1.453053711
Nuclear contribution   :    -13.990462355       0.963261154       1.422204109
                        -----------------------------------------
Total Dipole Moment    :     -0.403423993      -0.053938814      -0.030849602
                        -----------------------------------------
Magnitude (a.u.)       :      0.408181347
Magnitude (Debye)      :      1.037514532

Rotational constants in cm-1:             0.107229             0.025592             0.024049
Rotational constants in MHz :          3214.648838           767.222704           720.985490

                             ****ORCA TERMINATED NORMALLY****
TOTAL RUN TIME: 0 days 0 hours 0 minutes 49 seconds 881 msec
