                         Program Version 6.0.0  -   RELEASE  -
|  1> ! pbe def2-sv(p) def2/J RI DEFGRID1 loosescf d4 GCP(DFT/SV(P)) printgap
|  2> %output
|  3>     printlevel normal
|  4> end
|  5> * xyz 0 1
|  6> C -1.0209699425 -0.4151317221 -0.3734540963
|  7> C 0.1267601743 0.3688805373 0.2854896081
|  8> C 1.4748509675 -0.0947373273 -0.2873850223
|  9> O 1.7510488548 -1.4465754344 -0.0269473331
| 10> O 0.0396928283 1.7595284445 0.0434128196
| 11> O -2.2605761015 -0.2268507604 0.2734748278
| 12> H -0.7922608389 -1.4805401216 -0.299535088
| 13> H -1.0804853876 -0.1391029829 -1.4316261765
| 14> H 0.1033682012 0.1707480785 1.3673023241
| 15> H 2.2612524076 0.5611766904 0.1043267445
| 16> H 1.4518910417 0.0112000189 -1.3743059967
| 17> H 1.9050777733 -1.5684189553 0.920694944
| 18> H -0.6735721617 2.1355435719 0.5774405421
| 19> H -2.6364070125 0.622696865 0.0060833327
| 20> *
| 21>
| 22>                          ****END OF INPUT****

CARTESIAN COORDINATES (ANGSTROEM)
---------------------------------
  C     -1.020970   -0.415132   -0.373454
  C      0.126760    0.368881    0.285490
  C      1.474851   -0.094737   -0.287385
  O      1.751049   -1.446575   -0.026947
  O      0.039693    1.759528    0.043413
  O     -2.260576   -0.226851    0.273475
  H     -0.792261   -1.480540   -0.299535
  H     -1.080485   -0.139103   -1.431626
  H      0.103368    0.170748    1.367302
  H      2.261252    0.561177    0.104327
  H      1.451891    0.011200   -1.374306
  H      1.905078   -1.568419    0.920695
  H     -0.673572    2.135544    0.577441
  H     -2.636407    0.622697    0.006083

 Total Charge           Charge          ....    0
 Multiplicity           Mult            ....    1
 Number of Electrons    NEL             ....   50
 Basis Dimension        Dim             ....  100

ORBITAL ENERGIES
----------------

  NO   OCC          E(Eh)            E(eV)
   0   2.0000     -18.756006      -510.3769
   1   2.0000     -18.751891      -510.2649
   2   2.0000     -18.748757      -510.1796
   3   2.0000      -9.936130      -270.3758
   4   2.0000      -9.930134      -270.2127
   5   2.0000      -9.924420      -270.0572
   6   2.0000      -0.939297       -25.5596
   7   2.0000      -0.925553       -25.1856
   8   2.0000      -0.916162       -24.9300
   9   2.0000      -0.680976       -18.5303
  10   2.0000      -0.603284       -16.4162
  11   2.0000      -0.543298       -14.7839
  12   2.0000      -0.479122       -13.0376
  13   2.0000      -0.470976       -12.8159
  14   2.0000      -0.443907       -12.0793
  15   2.0000      -0.404573       -11.0090
  16   2.0000      -0.391818       -10.6619
  17   2.0000      -0.360204        -9.8016
  18   2.0000      -0.348471        -9.4824
  19   2.0000      -0.306912        -8.3515
  20   2.0000      -0.279957        -7.6180
  21   2.0000      -0.275173        -7.4878
  22   2.0000      -0.245631        -6.6840
  23   2.0000      -0.228372        -6.2143
  24   2.0000      -0.201308        -5.4779
  25   0.0000       0.002249         0.0612
  26   0.0000       0.024118         0.6563
  27   0.0000       0.052715         1.4344
  28   0.0000       0.075508         2.0547
  29   0.0000       0.098229         2.6729

MULLIKEN ATOMIC CHARGES
-----------------------
   0 C :    0.025430
   1 C :   -0.033847
   2 C :    0.032336
   3 O :   -0.428178
   4 O :   -0.427928
   5 O :   -0.432569
   6 H :    0.088877
   7 H :    0.072423
   8 H :    0.051546
   9 H :    0.084891
  10 H :    0.087846
  11 H :    0.298265
  12 H :    0.292503
  13 H :    0.288407
Sum of atomic charges:   -0.0000000

LOEWDIN ATOMIC CHARGES
----------------------
   0 C :   -0.142484
   1 C :   -0.102079
   2 C :   -0.127007
   3 O :   -0.329493
   4 O :   -0.331252
   5 O :   -0.341118
   6 H :    0.116189
   7 H :    0.101741
   8 H :    0.094389
   9 H :    0.101052
  10 H :    0.116192
  11 H :    0.284926
  12 H :    0.281193
  13 H :    0.277753

  Mayer bond orders larger than 0.100000
B(  0-C ,  1-C ) :   1.0248 B(  0-C ,  5-O ) :   1.0700 B(  0-C ,  6-H ) :   0.9080
B(  0-C ,  7-H ) :   0.9173 B(  1-C ,  2-C ) :   1.0164 B(  1-C ,  4-O ) :   1.0497
B(  1-C ,  8-H ) :   0.8986 B(  2-C ,  3-O ) :   1.0665 B(  2-C ,  9-H ) :   0.9225
B(  2-C , 10-H ) :   0.9182 B(  3-O , 11-H ) :   0.8513 B(  4-O , 12-H ) :   0.8474
B(  5-O , 13-H ) :   0.8532

Dispersion correction           -0.008994455
FINAL SINGLE POINT ENERGY      -344.005596067618

DIPOLE MOMENT
-------------

Method             : SCF
Type of density    : Electron Density
Multiplicity       :   1
Irrep              :   0
Energy             :  -344.0786007082604101 Eh
Relativity type    :
Basis              : AO
                                X                 Y                 Z
Electronic contribution:     -0.672481508       0.286296350       0.621058378
Nuclear contribution   :      0.498570212       0.295211421      -0.117299445
                        -----------------------------------------
Total Dipole Moment    :     -0.173911296       0.581507771       0.503758933
                        -----------------------------------------
Magnitude (a.u.)       :      0.788777212
Magnitude (Debye)      :      2.004912339

Rotational constants in cm-1:             0.168783             0.079835             0.058491
Rotational constants in MHz :          5059.996751          2393.397277          1753.528626

                             ****ORCA TERMINATED NORMALLY****
TOTAL RUN TIME: 0 days 0 hours 0 minutes 6 seconds 663 msec
