                         Program Version 6.0.0  -   RELEASE  -
|  1> ! pbe def2-sv(p) def2/J RI DEFGRID1 loosescf d4 GCP(DFT/SV(P)) printgap
|  2> %output
|  3>     printlevel normal
|  4> end
|  5> * xyz 0 1
|  6> C -2.1808052141 1.3103481441 0.067365363
|  7> C -1.8948009764 -0.1508156488 0.4123201416
|  8> C -0.5575427868 -0.6018606184 -0.1171874485
|  9> O -0.3857792894 -1.5835981344 -0.8130766237
| 10> O 0.4299675307 0.1902737537 0.2695028655
| 11> C 1.7593890629 -0.1361740867 -0.1669563534
| 12> C 2.7064100921 0.9193433502 0.3699510606
| 13> H -2.2101139874 1.4476800595 -1.0106002843
| 14> H -3.1416484823 1.6019848397 0.4805878226
| 15> H -1.4083997914 1.9519677967 0.4809422103
| 16> H -2.6577815217 -0.8090065895 -0.0029230526
| 17> H -1.8748428391 -0.271071667 1.4969338276
| 18> H 2.0094261774 -1.1349228474 0.2062223879
| 19> H 1.7660036291 -0.1717245022 -1.261381861
| 20> H 3.7202282089 0.6791745414 0.0673539066
| 21> H 2.4373283232 1.8958609781 -0.0214520771
| 22> H 2.6526402163 0.9490703467 1.4541081763
| 23> *
| 24>
| 25>                          ****END OF INPUT****

CARTESIAN COORDINATES (ANGSTROEM)
---------------------------------
  C     -2.180805    1.310348    0.067365
  C     -1.894801   -0.150816    0.412320
  C     -0.557543   -0.601861   -0.117187
  O     -0.385779   -1.583598   -0.813077
  O      0.429968    0.190274    0.269503
  C      1.759389   -0.136174   -0.166956
  C      2.706410    0.919343    0.369951
  H     -2.210114    1.447680   -1.010600
  H     -3.141648    1.601985    0.480588
  H     -1.408400    1.951968    0.480942
  H     -2.657782   -0.809007   -0.002923
  H     -1.874843   -0.271072    1.496934
  H      2.009426   -1.134923    0.206222
  H      1.766004   -0.171725   -1.261382
  H      3.720228    0.679175    0.067354
  H      2.437328    1.895861   -0.021452
  H      2.652640    0.949070    1.454108

 Total Charge           Charge          ....    0
 Multiplicity           Mult            ....    1
 Number of Electrons    NEL             ....   56
 Basis Dimension        Dim             ....  118

ORBITAL ENERGIES
----------------

  NO   OCC          E(Eh)            E(eV)
   0   2.0000     -18.797726      -511.5121
   1   2.0000     -18.728244      -509.6214
   2   2.0000     -10.002968      -272.1946
   3   2.0000      -9.947540      -270.6863
   4   2.0000      -9.898777      -269.3594
   5   2.0000      -9.889945      -269.1191
   6   2.0000      -9.885299      -268.9927
   7   2.0000      -1.005008       -27.3476
   8   2.0000      -0.904954       -24.6251
   9   2.0000      -0.723112       -19.6769
  10   2.0000      -0.688607       -18.7379
  11   2.0000      -0.599850       -16.3227
  12   2.0000      -0.562310       -15.3012
  13   2.0000      -0.508309       -13.8318
  14   2.0000      -0.449954       -12.2439
  15   2.0000      -0.435023       -11.8376
  16   2.0000      -0.417039       -11.3482
  17   2.0000      -0.393669       -10.7123
  18   2.0000      -0.377816       -10.2809
  19   2.0000      -0.360933        -9.8215
  20   2.0000      -0.358425        -9.7532
  21   2.0000      -0.340015        -9.2523
  22   2.0000      -0.328716        -8.9448
  23   2.0000      -0.316934        -8.6242
  24   2.0000      -0.305476        -8.3124
  25   2.0000      -0.296117        -8.0577
  26   2.0000      -0.255864        -6.9624
  27   2.0000      -0.211415        -5.7529
  28   0.0000      -0.018161        -0.4942
  29   0.0000       0.038386         1.0445
  30   0.0000       0.055144         1.5006
  31   0.0000       0.081030         2.2049
  32   0.0000       0.083964         2.2848

MULLIKEN ATOMIC CHARGES
-----------------------
   0 C :   -0.300066
   1 C :   -0.142948
   2 C :    0.096217
   3 O :   -0.210811
   4 O :   -0.243933
   5 C :   -0.028298
   6 C :   -0.272458
   7 H :    0.110190
   8 H :    0.110162
   9 H :    0.117948
  10 H :    0.103636
  11 H :    0.111289
  12 H :    0.104702
  13 H :    0.104845
  14 H :    0.111132
  15 H :    0.114304
  16 H :    0.114088
Sum of atomic charges:   -0.0000000

LOEWDIN ATOMIC CHARGES
----------------------
   0 C :   -0.337428
   1 C :   -0.250489
   2 C :    0.032195
   3 O :   -0.170358
   4 O :   -0.070659
   5 C :   -0.107654
   6 C :   -0.350971
   7 H :    0.122581
   8 H :    0.122500
   9 H :    0.123037
  10 H :    0.133806
  11 H :    0.138759
  12 H :    0.115875
  13 H :    0.116193
  14 H :    0.130327
  15 H :    0.126028
  16 H :    0.126258

  Mayer bond orders larger than 0.100000
B(  0-C ,  1-C ) :   1.1363 B(  0-C ,  7-H ) :   0.9573 B(  0-C ,  8-H ) :   0.9512
B(  0-C ,  9-H ) :   0.9501 B(  1-C ,  2-C ) :   1.0419 B(  1-C , 10-H ) :   0.9159
B(  1-C , 11-H ) :   0.9001 B(  2-C ,  3-O ) :   2.0622 B(  2-C ,  4-O ) :   1.1930
B(  4-O ,  5-C ) :   0.9143 B(  5-C ,  6-C ) :   1.1484 B(  5-C , 12-H ) :   0.9329
B(  5-C , 13-H ) :   0.9312 B(  6-C , 14-H ) :   0.9445 B(  6-C , 15-H ) :   0.9502
B(  6-C , 16-H ) :   0.9497

Dispersion correction           -0.011706230
FINAL SINGLE POINT ENERGY      -346.244180485083

DIPOLE MOMENT
-------------

Method             : SCF
Type of density    : Electron Density
Multiplicity       :   1
Irrep              :   0
Energy             :  -346.3088460342839880 Eh
Relativity type    :
Basis              : AO
                                X                 Y                 Z
Electronic contribution:     -0.943546242      -5.068532444      -1.364426618
Nuclear contribution   :      1.213555164       5.738762959       1.764880877
                        -----------------------------------------
Total Dipole Moment    :      0.270008922       0.670230516       0.400454259
                        -----------------------------------------
Magnitude (a.u.)       :      0.826121889
Magnitude (Debye)      :      2.099834966

Rotational constants in cm-1:             0.146814             0.054330             0.042326
Rotational constants in MHz :          4401.363792          1628.773960          1268.908685

                             ****ORCA TERMINATED NORMALLY****
TOTAL RUN TIME: 0 days 0 hours 0 minutes 9 seconds 96 msec
