                         Program Version 6.0.0  -   RELEASE  -
|  1> ! r2scan-3c def2/J RI DEFGRID2 scfconv6 printgap
|  2> %output
|  3>     printlevel normal
|  4> end
|  5> * xyz 0 1
|  6> C -1.9975295936 0.4792929206 -0.7269021673
|  7> C -1.5033455784 -0.5355345239 0.2958990728
|  8> C -0.2412986685 -0.055103419 1.0261224862
|  9> C 0.9391604771 0.0910417741 0.1051734618
| 10> C 1.3449951574 1.2730765853 -0.3315601703
| 11> C 1.6240729977 -1.1826710714 -0.2865331205
| 12> H -1.2314277159 0.6690821853 -1.4751011984
| 13> H -2.2401592318 1.4214374583 -0.2402746619
| 14> H -2.889313664 0.1114928677 -1.2287246579
| 15> H -2.2865207743 -0.7125728013 1.0361165463
| 16> H -1.2996979418 -1.4847280737 -0.2029405725
| 17> H -0.4566033846 0.904753516 1.4992839245
| 18> H 0.0035415179 -0.7755858351 1.810018739
| 19> H 2.1851083333 1.3777973404 -0.9979841224
| 20> H 0.8539912006 2.1867503929 -0.0411885591
| 21> H 0.9208671947 -1.8629178603 -0.7637927141
| 22> H 2.4434983836 -0.9897552759 -0.9734136897
| 23> H 2.017864904 -1.6811525791 0.5984405457
| 24> *
| 25>
| 26>                          ****END OF INPUT****

CARTESIAN COORDINATES (ANGSTROEM)
---------------------------------
  C     -1.997530    0.479293   -0.726902
  C     -1.503346   -0.535535    0.295899
  C     -0.241299   -0.055103    1.026122
  C      0.939160    0.091042    0.105173
  C      1.344995    1.273077   -0.331560
  C      1.624073   -1.182671   -0.286533
  H     -1.231428    0.669082   -1.475101
  H     -2.240159    1.421437   -0.240275
  H     -2.889314    0.111493   -1.228725
  H     -2.286521   -0.712573    1.036117
  H     -1.299698   -1.484728   -0.202941
  H     -0.456603    0.904754    1.499284
  H      0.003542   -0.775586    1.810019
  H      2.185108    1.377797   -0.997984
  H      0.853991    2.186750   -0.041189
  H      0.920867   -1.862918   -0.763793
  H      2.443498   -0.989755   -0.973414
  H      2.017865   -1.681153    0.598441

 Total Charge           Charge          ....    0
 Multiplicity           Mult            ....    1
 Number of Electrons    NEL             ....   48
 Basis Dimension        Dim             ....  174

ORBITAL ENERGIES
----------------

  NO   OCC          E(Eh)            E(eV)
   0   2.0000     -10.036745      -273.1137
   1   2.0000     -10.027615      -272.8653
   2   2.0000     -10.027100      -272.8513
   3   2.0000     -10.023164      -272.7441
   4   2.0000     -10.011608      -272.4297
   5   2.0000     -10.008655      -272.3493
   6   2.0000      -0.787229       -21.4216
   7   2.0000      -0.728616       -19.8267
   8   2.0000      -0.653837       -17.7918
   9   2.0000      -0.645286       -17.5591
  10   2.0000      -0.558075       -15.1860
  11   2.0000      -0.489146       -13.3103
  12   2.0000      -0.435179       -11.8418
  13   2.0000      -0.426318       -11.6007
  14   2.0000      -0.408156       -11.1065
  15   2.0000      -0.386611       -10.5202
  16   2.0000      -0.377428       -10.2703
  17   2.0000      -0.352767        -9.5993
  18   2.0000      -0.336816        -9.1652
  19   2.0000      -0.320358        -8.7174
  20   2.0000      -0.310315        -8.4441
  21   2.0000      -0.300435        -8.1752
  22   2.0000      -0.287551        -7.8247
  23   2.0000      -0.222837        -6.0637
  24   0.0000      -0.006170        -0.1679
  25   0.0000       0.085180         2.3179
  26   0.0000       0.114382         3.1125
  27   0.0000       0.117814         3.2059
  28   0.0000       0.126186         3.4337

MULLIKEN ATOMIC CHARGES
-----------------------
   0 C :   -0.499637
   1 C :   -0.232739
   2 C :   -0.251188
   3 C :    0.099909
   4 C :   -0.388450
   5 C :   -0.508386
   6 H :    0.167351
   7 H :    0.142913
   8 H :    0.144016
   9 H :    0.143088
  10 H :    0.140579
  11 H :    0.154960
  12 H :    0.144223
  13 H :    0.140194
  14 H :    0.142459
  15 H :    0.154039
  16 H :    0.150011
  17 H :    0.156659
Sum of atomic charges:    0.0000000

LOEWDIN ATOMIC CHARGES
----------------------
   0 C :   -0.423911
   1 C :   -0.304731
   2 C :   -0.289550
   3 C :   -0.136047
   4 C :   -0.331501
   5 C :   -0.394954
   6 H :    0.158660
   7 H :    0.149897
   8 H :    0.149690
   9 H :    0.152241
  10 H :    0.150319
  11 H :    0.163182
  12 H :    0.162110
  13 H :    0.156049
  14 H :    0.157701
  15 H :    0.159687
  16 H :    0.159174
  17 H :    0.161984

  Mayer bond orders larger than 0.100000
B(  0-C ,  1-C ) :   0.8879 B(  0-C ,  6-H ) :   0.9786 B(  0-C ,  7-H ) :   0.9797
B(  0-C ,  8-H ) :   0.9678 B(  1-C ,  2-C ) :   0.8869 B(  1-C ,  9-H ) :   0.9638
B(  1-C , 10-H ) :   0.9942 B(  2-C ,  3-C ) :   0.8695 B(  2-C , 11-H ) :   0.9975
B(  2-C , 12-H ) :   0.9723 B(  3-C ,  4-C ) :   1.8673 B(  3-C ,  5-C ) :   0.8818
B(  4-C , 13-H ) :   0.9791 B(  4-C , 14-H ) :   0.9831 B(  5-C , 15-H ) :   0.9730
B(  5-C , 16-H ) :   0.9893 B(  5-C , 17-H ) :   0.9700

Dispersion correction           -0.004682283
FINAL SINGLE POINT ENERGY      -235.762508615587

DIPOLE MOMENT
-------------

Method             : SCF
Type of density    : Electron Density
Multiplicity       :   1
Irrep              :   0
Energy             :  -235.7654424522509942 Eh
Relativity type    :
Basis              : AO
                                X                 Y                 Z
Electronic contribution:      1.767270611       0.564768647       0.975554811
Nuclear contribution   :     -1.856485036      -0.783740151      -0.918987382
                        -----------------------------------------
Total Dipole Moment    :     -0.089214425      -0.218971504       0.056567430
                        -----------------------------------------
Magnitude (a.u.)       :      0.243120561
Magnitude (Debye)      :      0.617963356

Rotational constants in cm-1:             0.170681             0.079667             0.068808
Rotational constants in MHz :          5116.901971          2388.348026          2062.804779

                             ****ORCA TERMINATED NORMALLY****
TOTAL RUN TIME: 0 days 0 hours 0 minutes 19 seconds 300 msec
