                         Program Version 6.0.0  -   RELEASE  -
|  1> ! r2scan-3c def2/J RI DEFGRID2 scfconv6 printgap
|  2> %output
|  3>     printlevel normal
|  4> end
|  5> %cpcm
|  6>     smd true
|  7>     smdsolvent "water"
|  8> end
|  9> * xyz 0 1
| 10> C -1.9975295936 0.4792929206 -0.7269021673
| 11> C -1.5033455784 -0.5355345239 0.2958990728
| 12> C -0.2412986685 -0.055103419 1.0261224862
| 13> C 0.9391604771 0.0910417741 0.1051734618
| 14> C 1.3449951574 1.2730765853 -0.3315601703
| 15> C 1.6240729977 -1.1826710714 -0.2865331205
| 16> H -1.2314277159 0.6690821853 -1.4751011984
| 17> H -2.2401592318 1.4214374583 -0.2402746619
| 18> H -2.889313664 0.1114928677 -1.2287246579
| 19> H -2.2865207743 -0.7125728013 1.0361165463
| 20> H -1.2996979418 -1.4847280737 -0.2029405725
| 21> H -0.4566033846 0.904753516 1.4992839245
| 22> H 0.0035415179 -0.7755858351 1.810018739
| 23> H 2.1851083333 1.3777973404 -0.9979841224
| 24> H 0.8539912006 2.1867503929 -0.0411885591
| 25> H 0.9208671947 -1.8629178603 -0.7637927141
| 26> H 2.4434983836 -0.9897552759 -0.9734136897
| 27> H 2.017864904 -1.6811525791 0.5984405457
| 28> *
| 29>
| 30>                          ****END OF INPUT****

CARTESIAN COORDINATES (ANGSTROEM)
---------------------------------
  C     -1.997530    0.479293   -0.726902
  C     -1.503346   -0.535535    0.295899
  C     -0.241299   -0.055103    1.026122
  C      0.939160    0.091042    0.105173
  C      1.344995    1.273077   -0.331560
  C      1.624073   -1.182671   -0.286533
  H     -1.231428    0.669082   -1.475101
  H     -2.240159    1.421437   -0.240275
  H     -2.889314    0.111493   -1.228725
  H     -2.286521   -0.712573    1.036117
  H     -1.299698   -1.484728   -0.202941
  H     -0.456603    0.904754    1.499284
  H      0.003542   -0.775586    1.810019
  H      2.185108    1.377797   -0.997984
  H      0.853991    2.186750   -0.041189
  H      0.920867   -1.862918   -0.763793
  H      2.443498   -0.989755   -0.973414
  H      2.017865   -1.681153    0.598441

 Total Charge           Charge          ....    0
 Multiplicity           Mult            ....    1
 Number of Electrons    NEL             ....   48
 Basis Dimension        Dim             ....  174

ORBITAL ENERGIES
----------------

  NO   OCC          E(Eh)            E(eV)
   0   2.0000     -10.035287      -273.0741
   1   2.0000     -10.019916      -272.6558
   2   2.0000     -10.019575      -272.6465
   3   2.0000     -10.014336      -272.5039
   4   2.0000     -10.006398      -272.2879
   5   2.0000     -10.005186      -272.2549
   6   2.0000      -0.782485       -21.2925
   7   2.0000      -0.723137       -19.6776
   8   2.0000      -0.647831       -17.6284
   9   2.0000      -0.640551       -17.4303
  10   2.0000      -0.552160       -15.0250
  11   2.0000      -0.483719       -13.1627
  12   2.0000      -0.429124       -11.6771
  13   2.0000      -0.420212       -11.4346
  14   2.0000      -0.402936       -10.9645
  15   2.0000      -0.380205       -10.3459
  16   2.0000      -0.369847       -10.0640
  17   2.0000      -0.347290        -9.4502
  18   2.0000      -0.329752        -8.9730
  19   2.0000      -0.314942        -8.5700
  20   2.0000      -0.303844        -8.2680
  21   2.0000      -0.293011        -7.9732
  22   2.0000      -0.281421        -7.6579
  23   2.0000      -0.222841        -6.0638
  24   0.0000      -0.005680        -0.1546
  25   0.0000       0.092554         2.5185
  26   0.0000       0.119736         3.2582
  27   0.0000       0.124629         3.3913
  28   0.0000       0.132818         3.6142

MULLIKEN ATOMIC CHARGES
-----------------------
   0 C :   -0.535603
   1 C :   -0.246779
   2 C :   -0.246031
   3 C :    0.083423
   4 C :   -0.468692
   5 C :   -0.540956
   6 H :    0.163965
   7 H :    0.156592
   8 H :    0.155976
   9 H :    0.154000
  10 H :    0.157149
  11 H :    0.164616
  12 H :    0.160019
  13 H :    0.164270
  14 H :    0.164360
  15 H :    0.174621
  16 H :    0.164817
  17 H :    0.174253
Sum of atomic charges:   -0.0000000

LOEWDIN ATOMIC CHARGES
----------------------
   0 C :   -0.431615
   1 C :   -0.305060
   2 C :   -0.292216
   3 C :   -0.135418
   4 C :   -0.361798
   5 C :   -0.402527
   6 H :    0.155459
   7 H :    0.153054
   8 H :    0.152773
   9 H :    0.155820
  10 H :    0.155269
  11 H :    0.166117
  12 H :    0.167688
  13 H :    0.161593
  14 H :    0.162488
  15 H :    0.167447
  16 H :    0.162545
  17 H :    0.168380

  Mayer bond orders larger than 0.100000
B(  0-C ,  1-C ) :   0.8791 B(  0-C ,  6-H ) :   0.9787 B(  0-C ,  7-H ) :   0.9767
B(  0-C ,  8-H ) :   0.9658 B(  1-C ,  2-C ) :   0.8828 B(  1-C ,  9-H ) :   0.9631
B(  1-C , 10-H ) :   0.9934 B(  2-C ,  3-C ) :   0.8651 B(  2-C , 11-H ) :   0.9942
B(  2-C , 12-H ) :   0.9688 B(  3-C ,  4-C ) :   1.8401 B(  3-C ,  5-C ) :   0.8814
B(  4-C , 13-H ) :   0.9784 B(  4-C , 14-H ) :   0.9818 B(  5-C , 15-H ) :   0.9654
B(  5-C , 16-H ) :   0.9857 B(  5-C , 17-H ) :   0.9636

Dispersion correction           -0.004682283
FINAL SINGLE POINT ENERGY      -235.760467962116

DIPOLE MOMENT
-------------

Method             : SCF
Type of density    : Electron Density
Multiplicity       :   1
Irrep              :   0
Energy             :  -235.7634017987801087 Eh
Relativity type    :
Basis              : AO
                                X                 Y                 Z
Electronic contribution:      1.695491228       0.421000478       1.023182817
Nuclear contribution   :     -1.856485036      -0.783740151      -0.918987382
                        -----------------------------------------
Total Dipole Moment    :     -0.160993808      -0.362739672       0.104195436
                        -----------------------------------------
Magnitude (a.u.)       :      0.410311790
Magnitude (Debye)      :      1.042929687

Rotational constants in cm-1:             0.170681             0.079667             0.068808
Rotational constants in MHz :          5116.901971          2388.348026          2062.804779

                             ****ORCA TERMINATED NORMALLY****
TOTAL RUN TIME: 0 days 0 hours 0 minutes 22 seconds 712 msec
