                         Program Version 6.0.0  -   RELEASE  -
|  1> ! pbe def2-sv(p) def2/J RI DEFGRID1 loosescf d4 GCP(DFT/SV(P)) printgap
|  2> %output
|  3>     printlevel normal
|  4> end
|  5> * xyz 0 1
|  6> C -2.8116891119 0.229448004 -0.0007685606
|  7> C -1.4444203388 -0.4415116009 -0.0004303551
|  8> C -0.3194369473 0.5892890757 0.0019355796
|  9> C 1.0437500645 -0.0430990908 0.000581086
| 10> O 1.2666453652 -1.2347477495 9.76665e-05
| 11> O 2.0150384265 0.8609928301 -0.0011037153
| 12> H -3.5981964328 -0.5200249918 -0.0022705584
| 13> H -2.9302620017 0.8544372009 -0.8824214729
| 14> H -2.9312400325 0.8520582502 0.8824396921
| 15> H -1.342445229 -1.0826737493 0.8771065519
| 16> H -1.3412344285 -1.0802870477 -0.8795468751
| 17> H -0.3837664903 1.2372945155 -0.8747992816
| 18> H -0.3835645118 1.2327681392 0.8820143966
| 19> H 2.9046499534 0.4576857242 -0.0022555368
| 20> *
| 21>
| 22>                          ****END OF INPUT****

CARTESIAN COORDINATES (ANGSTROEM)
---------------------------------
  C     -2.811689    0.229448   -0.000769
  C     -1.444420   -0.441512   -0.000430
  C     -0.319437    0.589289    0.001936
  C      1.043750   -0.043099    0.000581
  O      1.266645   -1.234748    0.000098
  O      2.015038    0.860993   -0.001104
  H     -3.598196   -0.520025   -0.002271
  H     -2.930262    0.854437   -0.882421
  H     -2.931240    0.852058    0.882440
  H     -1.342445   -1.082674    0.877107
  H     -1.341234   -1.080287   -0.879547
  H     -0.383766    1.237295   -0.874799
  H     -0.383565    1.232768    0.882014
  H      2.904650    0.457686   -0.002256

 Total Charge           Charge          ....    0
 Multiplicity           Mult            ....    1
 Number of Electrons    NEL             ....   48
 Basis Dimension        Dim             ....  100

ORBITAL ENERGIES
----------------

  NO   OCC          E(Eh)            E(eV)
   0   2.0000     -18.796529      -511.4796
   1   2.0000     -18.738225      -509.8930
   2   2.0000     -10.010574      -272.4016
   3   2.0000      -9.900328      -269.4016
   4   2.0000      -9.888120      -269.0694
   5   2.0000      -9.877556      -268.7819
   6   2.0000      -1.006300       -27.3828
   7   2.0000      -0.909801       -24.7569
   8   2.0000      -0.723022       -19.6744
   9   2.0000      -0.650311       -17.6959
  10   2.0000      -0.572840       -15.5878
  11   2.0000      -0.517769       -14.0892
  12   2.0000      -0.440074       -11.9750
  13   2.0000      -0.438648       -11.9362
  14   2.0000      -0.410689       -11.1754
  15   2.0000      -0.390237       -10.6189
  16   2.0000      -0.373053       -10.1513
  17   2.0000      -0.340028        -9.2526
  18   2.0000      -0.339034        -9.2256
  19   2.0000      -0.308242        -8.3877
  20   2.0000      -0.302774        -8.2389
  21   2.0000      -0.293865        -7.9965
  22   2.0000      -0.272153        -7.4057
  23   2.0000      -0.221828        -6.0362
  24   0.0000      -0.019479        -0.5301
  25   0.0000       0.026895         0.7318
  26   0.0000       0.039334         1.0703
  27   0.0000       0.079316         2.1583
  28   0.0000       0.081897         2.2285

MULLIKEN ATOMIC CHARGES
-----------------------
   0 C :   -0.258157
   1 C :   -0.192087
   2 C :   -0.208631
   3 C :    0.102096
   4 O :   -0.195311
   5 O :   -0.292214
   6 H :    0.106579
   7 H :    0.096950
   8 H :    0.096897
   9 H :    0.100195
  10 H :    0.100161
  11 H :    0.114954
  12 H :    0.115025
  13 H :    0.313545
Sum of atomic charges:   -0.0000000

LOEWDIN ATOMIC CHARGES
----------------------
   0 C :   -0.339581
   1 C :   -0.229959
   2 C :   -0.252972
   3 C :    0.026478
   4 O :   -0.170643
   5 O :   -0.212255
   6 H :    0.121716
   7 H :    0.116811
   8 H :    0.116807
   9 H :    0.122627
  10 H :    0.122604
  11 H :    0.140484
  12 H :    0.140561
  13 H :    0.297321

  Mayer bond orders larger than 0.100000
B(  0-C ,  1-C ) :   1.1524 B(  0-C ,  6-H ) :   0.9540 B(  0-C ,  7-H ) :   0.9536
B(  0-C ,  8-H ) :   0.9536 B(  1-C ,  2-C ) :   1.1316 B(  1-C ,  9-H ) :   0.9277
B(  1-C , 10-H ) :   0.9278 B(  2-C ,  3-C ) :   1.0068 B(  2-C , 11-H ) :   0.8995
B(  2-C , 12-H ) :   0.8993 B(  3-C ,  4-O ) :   2.0986 B(  3-C ,  5-O ) :   1.2757
B(  5-O , 13-H ) :   0.8211

Dispersion correction           -0.009086246
FINAL SINGLE POINT ENERGY      -307.033974513887

DIPOLE MOMENT
-------------

Method             : SCF
Type of density    : Electron Density
Multiplicity       :   1
Irrep              :   0
Energy             :  -307.0890532495427010 Eh
Relativity type    :
Basis              : AO
                                X                 Y                 Z
Electronic contribution:      9.402953801      -1.220440184      -0.000152427
Nuclear contribution   :     -9.338670822       1.825066327       0.000235469
                        -----------------------------------------
Total Dipole Moment    :      0.064282979       0.604626142       0.000083042
                        -----------------------------------------
Magnitude (a.u.)       :      0.608033782
Magnitude (Debye)      :      1.545499052

Rotational constants in cm-1:             0.303827             0.061878             0.052919
Rotational constants in MHz :          9108.499664          1855.059923          1586.470523

                             ****ORCA TERMINATED NORMALLY****
TOTAL RUN TIME: 0 days 0 hours 0 minutes 6 seconds 801 msec
