                         Program Version 6.0.0  -   RELEASE  -
|  1> ! pbe def2-sv(p) def2/J RI DEFGRID1 loosescf d4 GCP(DFT/SV(P)) printgap
|  2> %output
|  3>     printlevel normal
|  4> end
|  5> * xyz 0 1
|  6> C -1.7272916094 0.9013564108 -0.1128880591
|  7> C -1.2405683438 -0.5521201334 -0.1366159479
|  8> N 0.0077007773 -0.8368261386 0.5450657452
|  9> C 1.2496209437 -0.5466235998 -0.1451216268
| 10> C 1.7112852252 0.9153684227 -0.1586825944
| 11> H -1.7476967719 1.2749997381 0.909061506
| 12> H -1.0865266535 1.5479722926 -0.7055129233
| 13> H -2.7342126247 0.9550203034 -0.518999353
| 14> H -1.1377742998 -0.8910488734 -1.1707103338
| 15> H -2.0023624671 -1.1759602073 0.3445463257
| 16> H 0.0095383895 -0.4059176231 1.4635192994
| 17> H 2.0222434431 -1.1460558687 0.349386764
| 18> H 1.1506675615 -0.9119766892 -1.1707197105
| 19> H 1.7158653509 1.3187994802 0.8520370946
| 20> H 2.7207245379 0.974345063 -0.5575659672
| 21> H 1.0653828726 1.5331121427 -0.7761868053
| 22> *
| 23>
| 24>                          ****END OF INPUT****

CARTESIAN COORDINATES (ANGSTROEM)
---------------------------------
  C     -1.727292    0.901356   -0.112888
  C     -1.240568   -0.552120   -0.136616
  N      0.007701   -0.836826    0.545066
  C      1.249621   -0.546624   -0.145122
  C      1.711285    0.915368   -0.158683
  H     -1.747697    1.275000    0.909062
  H     -1.086527    1.547972   -0.705513
  H     -2.734213    0.955020   -0.518999
  H     -1.137774   -0.891049   -1.170710
  H     -2.002362   -1.175960    0.344546
  H      0.009538   -0.405918    1.463519
  H      2.022243   -1.146056    0.349387
  H      1.150668   -0.911977   -1.170720
  H      1.715865    1.318799    0.852037
  H      2.720725    0.974345   -0.557566
  H      1.065383    1.533112   -0.776187

 Total Charge           Charge          ....    0
 Multiplicity           Mult            ....    1
 Number of Electrons    NEL             ....   42
 Basis Dimension        Dim             ....   92

ORBITAL ENERGIES
----------------

  NO   OCC          E(Eh)            E(eV)
   0   2.0000     -13.959129      -379.8472
   1   2.0000      -9.904176      -269.5063
   2   2.0000      -9.904131      -269.5051
   3   2.0000      -9.871633      -268.6208
   4   2.0000      -9.871514      -268.6175
   5   2.0000      -0.809883       -22.0380
   6   2.0000      -0.677626       -18.4391
   7   2.0000      -0.638048       -17.3622
   8   2.0000      -0.553653       -15.0657
   9   2.0000      -0.529916       -14.4197
  10   2.0000      -0.438210       -11.9243
  11   2.0000      -0.406888       -11.0720
  12   2.0000      -0.373914       -10.1747
  13   2.0000      -0.367791       -10.0081
  14   2.0000      -0.366141        -9.9632
  15   2.0000      -0.334145        -9.0925
  16   2.0000      -0.333321        -9.0701
  17   2.0000      -0.309808        -8.4303
  18   2.0000      -0.300665        -8.1815
  19   2.0000      -0.281602        -7.6628
  20   2.0000      -0.161494        -4.3945
  21   0.0000       0.034864         0.9487
  22   0.0000       0.058838         1.6011
  23   0.0000       0.070809         1.9268
  24   0.0000       0.076002         2.0681
  25   0.0000       0.098053         2.6682

MULLIKEN ATOMIC CHARGES
-----------------------
   0 C :   -0.290000
   1 C :   -0.094226
   2 N :   -0.340206
   3 C :   -0.096164
   4 C :   -0.289470
   5 H :    0.091986
   6 H :    0.106529
   7 H :    0.094445
   8 H :    0.081451
   9 H :    0.085397
  10 H :    0.189563
  11 H :    0.085428
  12 H :    0.081950
  13 H :    0.091492
  14 H :    0.094155
  15 H :    0.107669
Sum of atomic charges:   -0.0000000

LOEWDIN ATOMIC CHARGES
----------------------
   0 C :   -0.365627
   1 C :   -0.174681
   2 N :   -0.259586
   3 C :   -0.174780
   4 C :   -0.365916
   5 H :    0.113925
   6 H :    0.115004
   7 H :    0.119702
   8 H :    0.112188
   9 H :    0.108491
  10 H :    0.202074
  11 H :    0.108619
  12 H :    0.112132
  13 H :    0.113827
  14 H :    0.119602
  15 H :    0.115028

  Mayer bond orders larger than 0.100000
B(  0-C ,  1-C ) :   1.1309 B(  0-C ,  5-H ) :   0.9521 B(  0-C ,  6-H ) :   0.9440
B(  0-C ,  7-H ) :   0.9389 B(  1-C ,  2-N ) :   1.1091 B(  1-C ,  8-H ) :   0.9288
B(  1-C ,  9-H ) :   0.9394 B(  2-N ,  3-C ) :   1.1118 B(  2-N , 10-H ) :   0.8839
B(  3-C ,  4-C ) :   1.1288 B(  3-C , 11-H ) :   0.9397 B(  3-C , 12-H ) :   0.9291
B(  4-C , 13-H ) :   0.9524 B(  4-C , 14-H ) :   0.9387 B(  4-C , 15-H ) :   0.9437

Dispersion correction           -0.010530381
FINAL SINGLE POINT ENERGY      -213.240757420982

DIPOLE MOMENT
-------------

Method             : SCF
Type of density    : Electron Density
Multiplicity       :   1
Irrep              :   0
Energy             :  -213.3004395582951247 Eh
Relativity type    :
Basis              : AO
                                X                 Y                 Z
Electronic contribution:      0.021692036      -2.549040959       0.929952403
Nuclear contribution   :     -0.022615037       2.878662446      -0.917478772
                        -----------------------------------------
Total Dipole Moment    :     -0.000923001       0.329621488       0.012473631
                        -----------------------------------------
Magnitude (a.u.)       :      0.329858710
Magnitude (Debye)      :      0.838434209

Rotational constants in cm-1:             0.259503             0.109182             0.086250
Rotational constants in MHz :          7779.692412          3273.184497          2585.695408

                             ****ORCA TERMINATED NORMALLY****
TOTAL RUN TIME: 0 days 0 hours 0 minutes 6 seconds 467 msec
