                         Program Version 6.0.0  -   RELEASE  -
|  1> ! pbe def2-sv(p) def2/J RI DEFGRID1 loosescf d4 GCP(DFT/SV(P)) printgap
|  2> %output
|  3>     printlevel normal
|  4> end
|  5> * xyz 0 1
|  6> C 2.6395268918 0.5617175147 0.5562289759
|  7> C 1.3183653891 -0.1505706772 0.8264315116
|  8> C 0.2891221881 0.0399186977 -0.2995901866
|  9> H 0.3509628917 1.0749402929 -0.6551568811
| 10> C 0.6381905482 -0.8887470254 -1.4636564421
| 11> C -1.1446492149 -0.1946414544 0.2238121291
| 12> C -1.6036267712 0.9719282261 1.1010063745
| 13> C -2.1617999778 -0.372961661 -0.9046192462
| 14> H 3.3290130437 0.401001936 1.3818183485
| 15> H 3.1096324803 0.1945413046 -0.3524932346
| 16> H 2.477351144 1.6320486181 0.4486644353
| 17> H 0.915979321 0.2288676649 1.7662563075
| 18> H 1.5006802837 -1.2194973737 0.9594953265
| 19> H 0.4512127771 -1.9253394201 -1.1902430672
| 20> H 0.058183666 -0.6497385094 -2.3499381113
| 21> H 1.6898542041 -0.7895202061 -1.719561515
| 22> H -1.1392549377 -1.1090260396 0.8288344081
| 23> H -0.9242929932 1.1491472392 1.9299968707
| 24> H -2.5890369498 0.7671287248 1.5132795468
| 25> H -1.6633950307 1.8825839049 0.5084096839
| 26> H -3.1658938915 -0.4234650591 -0.488981439
| 27> H -1.9848541581 -1.2872381261 -1.4626182781
| 28> H -2.1197583411 0.4710682474 -1.5898262351
| 29> *
| 30>
| 31>                          ****END OF INPUT****

CARTESIAN COORDINATES (ANGSTROEM)
---------------------------------
  C      2.639527    0.561718    0.556229
  C      1.318365   -0.150571    0.826432
  C      0.289122    0.039919   -0.299590
  H      0.350963    1.074940   -0.655157
  C      0.638191   -0.888747   -1.463656
  C     -1.144649   -0.194641    0.223812
  C     -1.603627    0.971928    1.101006
  C     -2.161800   -0.372962   -0.904619
  H      3.329013    0.401002    1.381818
  H      3.109632    0.194541   -0.352493
  H      2.477351    1.632049    0.448664
  H      0.915979    0.228868    1.766256
  H      1.500680   -1.219497    0.959495
  H      0.451213   -1.925339   -1.190243
  H      0.058184   -0.649739   -2.349938
  H      1.689854   -0.789520   -1.719562
  H     -1.139255   -1.109026    0.828834
  H     -0.924293    1.149147    1.929997
  H     -2.589037    0.767129    1.513280
  H     -1.663395    1.882584    0.508410
  H     -3.165894   -0.423465   -0.488981
  H     -1.984854   -1.287238   -1.462618
  H     -2.119758    0.471068   -1.589826

 Total Charge           Charge          ....    0
 Multiplicity           Mult            ....    1
 Number of Electrons    NEL             ....   58
 Basis Dimension        Dim             ....  130

ORBITAL ENERGIES
----------------

  NO   OCC          E(Eh)            E(eV)
   0   2.0000      -9.889108      -269.0963
   1   2.0000      -9.887427      -269.0506
   2   2.0000      -9.877348      -268.7763
   3   2.0000      -9.869599      -268.5654
   4   2.0000      -9.867906      -268.5194
   5   2.0000      -9.867672      -268.5130
   6   2.0000      -9.867405      -268.5057
   7   2.0000      -0.741492       -20.1770
   8   2.0000      -0.685112       -18.6429
   9   2.0000      -0.639681       -17.4066
  10   2.0000      -0.605371       -16.4730
  11   2.0000      -0.567318       -15.4375
  12   2.0000      -0.518665       -14.1136
  13   2.0000      -0.488457       -13.2916
  14   2.0000      -0.417557       -11.3623
  15   2.0000      -0.401129       -10.9153
  16   2.0000      -0.399249       -10.8641
  17   2.0000      -0.371384       -10.1059
  18   2.0000      -0.362071        -9.8525
  19   2.0000      -0.350180        -9.5289
  20   2.0000      -0.337427        -9.1819
  21   2.0000      -0.325327        -8.8526
  22   2.0000      -0.319756        -8.7010
  23   2.0000      -0.309769        -8.4292
  24   2.0000      -0.298536        -8.1236
  25   2.0000      -0.292317        -7.9543
  26   2.0000      -0.273015        -7.4291
  27   2.0000      -0.263076        -7.1587
  28   2.0000      -0.260665        -7.0931
  29   0.0000       0.035557         0.9676
  30   0.0000       0.057900         1.5755
  31   0.0000       0.058960         1.6044
  32   0.0000       0.068167         1.8549
  33   0.0000       0.088060         2.3962

MULLIKEN ATOMIC CHARGES
-----------------------
   0 C :   -0.267635
   1 C :   -0.164807
   2 C :   -0.142684
   3 H :    0.057326
   4 C :   -0.242973
   5 C :   -0.153155
   6 C :   -0.248395
   7 C :   -0.237467
   8 H :    0.099751
   9 H :    0.101350
  10 H :    0.097627
  11 H :    0.084724
  12 H :    0.077418
  13 H :    0.093702
  14 H :    0.103270
  15 H :    0.097751
  16 H :    0.064178
  17 H :    0.101593
  18 H :    0.097353
  19 H :    0.091079
  20 H :    0.094695
  21 H :    0.103570
  22 H :    0.091729
Sum of atomic charges:    0.0000000

LOEWDIN ATOMIC CHARGES
----------------------
   0 C :   -0.339443
   1 C :   -0.225372
   2 C :   -0.142456
   3 H :    0.110388
   4 C :   -0.329840
   5 C :   -0.149549
   6 C :   -0.329735
   7 C :   -0.329676
   8 H :    0.118744
   9 H :    0.114688
  10 H :    0.116471
  11 H :    0.112428
  12 H :    0.113508
  13 H :    0.116806
  14 H :    0.117654
  15 H :    0.116022
  16 H :    0.112855
  17 H :    0.114123
  18 H :    0.116985
  19 H :    0.115628
  20 H :    0.116589
  21 H :    0.116889
  22 H :    0.116291

  Mayer bond orders larger than 0.100000
B(  0-C ,  1-C ) :   1.1580 B(  0-C ,  8-H ) :   0.9498 B(  0-C ,  9-H ) :   0.9473
B(  0-C , 10-H ) :   0.9532 B(  1-C ,  2-C ) :   1.0790 B(  1-C , 11-H ) :   0.9179
B(  1-C , 12-H ) :   0.9177 B(  2-C ,  3-H ) :   0.8973 B(  2-C ,  4-C ) :   1.1217
B(  2-C ,  5-C ) :   1.0384 B(  4-C , 13-H ) :   0.9445 B(  4-C , 14-H ) :   0.9366
B(  4-C , 15-H ) :   0.9427 B(  5-C ,  6-C ) :   1.1165 B(  5-C ,  7-C ) :   1.1233
B(  5-C , 16-H ) :   0.8932 B(  6-C , 17-H ) :   0.9421 B(  6-C , 18-H ) :   0.9489
B(  6-C , 19-H ) :   0.9477 B(  7-C , 20-H ) :   0.9492 B(  7-C , 21-H ) :   0.9381
B(  7-C , 22-H ) :   0.9467

Dispersion correction           -0.018864506
FINAL SINGLE POINT ENERGY      -275.659285485569

DIPOLE MOMENT
-------------

Method             : SCF
Type of density    : Electron Density
Multiplicity       :   1
Irrep              :   0
Energy             :  -275.7370324892558529 Eh
Relativity type    :
Basis              : AO
                                X                 Y                 Z
Electronic contribution:     -0.277752534      -0.385348587       0.464392044
Nuclear contribution   :      0.278055579       0.372922172      -0.442872085
                        -----------------------------------------
Total Dipole Moment    :      0.000303045      -0.012426415       0.021519960
                        -----------------------------------------
Magnitude (a.u.)       :      0.024851887
Magnitude (Debye)      :      0.063168477

Rotational constants in cm-1:             0.124124             0.056334             0.042550
Rotational constants in MHz :          3721.147810          1688.860413          1275.629005

                             ****ORCA TERMINATED NORMALLY****
TOTAL RUN TIME: 0 days 0 hours 0 minutes 9 seconds 794 msec
