                         Program Version 6.0.0  -   RELEASE  -
|  1> ! r2scan-3c def2/J RI DEFGRID2 scfconv6 printgap
|  2> %output
|  3>     printlevel normal
|  4> end
|  5> * xyz 0 1
|  6> C -2.0971741424 1.0906206277 -0.6064449204
|  7> C -2.0792080289 -0.2594138887 0.1001906572
|  8> C -0.8375608825 -0.4180830186 0.9858022611
|  9> C 0.4111353116 -0.4403635842 0.1443374164
| 10> O 0.6449496355 -1.2392103233 -0.7383883677
| 11> O 1.2473272321 0.5375963571 0.4763855274
| 12> C 2.4755663386 0.6356473225 -0.2486507964
| 13> H -2.0574515086 1.9014697215 0.1168747713
| 14> H -1.2417843827 1.1827783641 -1.273161642
| 15> H -3.0028895577 1.1965382451 -1.1974848533
| 16> H -2.085360128 -1.0620300021 -0.6397308219
| 17> H -2.9682043738 -0.3591979907 0.7233047514
| 18> H -0.8945890627 -1.3673792544 1.5203454663
| 19> H -0.7617808758 0.4006318551 1.7001046254
| 20> H 3.0141647522 1.465481002 0.1974518677
| 21> H 2.2716151391 0.8227369781 -1.3036390918
| 22> H 3.0383168905 -0.2939166021 -0.1566504004
| 23> *
| 24>
| 25>                          ****END OF INPUT****

CARTESIAN COORDINATES (ANGSTROEM)
---------------------------------
  C     -2.097174    1.090621   -0.606445
  C     -2.079208   -0.259414    0.100191
  C     -0.837561   -0.418083    0.985802
  C      0.411135   -0.440364    0.144337
  O      0.644950   -1.239210   -0.738388
  O      1.247327    0.537596    0.476386
  C      2.475566    0.635647   -0.248651
  H     -2.057452    1.901470    0.116875
  H     -1.241784    1.182778   -1.273162
  H     -3.002890    1.196538   -1.197485
  H     -2.085360   -1.062030   -0.639731
  H     -2.968204   -0.359198    0.723305
  H     -0.894589   -1.367379    1.520345
  H     -0.761781    0.400632    1.700105
  H      3.014165    1.465481    0.197452
  H      2.271615    0.822737   -1.303639
  H      3.038317   -0.293917   -0.156650

 Total Charge           Charge          ....    0
 Multiplicity           Mult            ....    1
 Number of Electrons    NEL             ....   56
 Basis Dimension        Dim             ....  193

ORBITAL ENERGIES
----------------

  NO   OCC          E(Eh)            E(eV)
   0   2.0000     -19.000692      -517.0351
   1   2.0000     -18.929238      -515.0907
   2   2.0000     -10.152189      -276.2551
   3   2.0000     -10.087238      -274.4877
   4   2.0000     -10.041791      -273.2510
   5   2.0000     -10.035798      -273.0880
   6   2.0000     -10.020645      -272.6756
   7   2.0000      -1.074032       -29.2259
   8   2.0000      -0.976471       -26.5711
   9   2.0000      -0.772618       -21.0240
  10   2.0000      -0.711179       -19.3522
  11   2.0000      -0.661269       -17.9940
  12   2.0000      -0.575047       -15.6478
  13   2.0000      -0.527955       -14.3664
  14   2.0000      -0.472822       -12.8661
  15   2.0000      -0.457970       -12.4620
  16   2.0000      -0.445240       -12.1156
  17   2.0000      -0.419119       -11.4048
  18   2.0000      -0.413260       -11.2454
  19   2.0000      -0.377453       -10.2710
  20   2.0000      -0.371902       -10.1200
  21   2.0000      -0.357584        -9.7304
  22   2.0000      -0.329589        -8.9686
  23   2.0000      -0.311970        -8.4891
  24   2.0000      -0.310919        -8.4605
  25   2.0000      -0.310173        -8.4402
  26   2.0000      -0.275072        -7.4851
  27   2.0000      -0.237157        -6.4534
  28   0.0000      -0.017297        -0.4707
  29   0.0000       0.064972         1.7680
  30   0.0000       0.091695         2.4951
  31   0.0000       0.111212         3.0262
  32   0.0000       0.125976         3.4280

MULLIKEN ATOMIC CHARGES
-----------------------
   0 C :   -0.491407
   1 C :   -0.219379
   2 C :   -0.297737
   3 C :    0.339415
   4 O :   -0.415734
   5 O :   -0.180182
   6 C :   -0.296085
   7 H :    0.147744
   8 H :    0.155548
   9 H :    0.148743
  10 H :    0.161363
  11 H :    0.145291
  12 H :    0.165075
  13 H :    0.163677
  14 H :    0.150646
  15 H :    0.160366
  16 H :    0.162655
Sum of atomic charges:    0.0000000

LOEWDIN ATOMIC CHARGES
----------------------
   0 C :   -0.416530
   1 C :   -0.291924
   2 C :   -0.232426
   3 C :    0.348278
   4 O :   -0.425720
   5 O :   -0.604050
   6 C :   -0.045497
   7 H :    0.151282
   8 H :    0.155522
   9 H :    0.152905
  10 H :    0.166551
  11 H :    0.153206
  12 H :    0.181350
  13 H :    0.176968
  14 H :    0.176263
  15 H :    0.176227
  16 H :    0.177595

  Mayer bond orders larger than 0.100000
B(  0-C ,  1-C ) :   0.9031 B(  0-C ,  7-H ) :   0.9815 B(  0-C ,  8-H ) :   0.9721
B(  0-C ,  9-H ) :   0.9684 B(  1-C ,  2-C ) :   0.8878 B(  1-C , 10-H ) :   0.9689
B(  1-C , 11-H ) :   0.9659 B(  2-C ,  3-C ) :   0.9367 B(  2-C , 12-H ) :   0.9387
B(  2-C , 13-H ) :   1.0048 B(  3-C ,  4-O ) :   1.8170 B(  3-C ,  5-O ) :   1.0517
B(  5-O ,  6-C ) :   0.8539 B(  6-C , 14-H ) :   0.9689 B(  6-C , 15-H ) :   0.9620
B(  6-C , 16-H ) :   0.9626

Dispersion correction           -0.004143126
FINAL SINGLE POINT ENERGY      -346.932261678442

DIPOLE MOMENT
-------------

Method             : SCF
Type of density    : Electron Density
Multiplicity       :   1
Irrep              :   0
Energy             :  -346.9387693778533048 Eh
Relativity type    :
Basis              : AO
                                X                 Y                 Z
Electronic contribution:      4.402672191      -3.033160788       0.719367726
Nuclear contribution   :     -4.370038036       3.636359045      -0.297141797
                        -----------------------------------------
Total Dipole Moment    :      0.032634156       0.603198257       0.422225929
                        -----------------------------------------
Magnitude (a.u.)       :      0.737012795
Magnitude (Debye)      :      1.873337649

Rotational constants in cm-1:             0.157744             0.053667             0.049573
Rotational constants in MHz :          4729.043341          1608.910940          1486.161841

                             ****ORCA TERMINATED NORMALLY****
TOTAL RUN TIME: 0 days 0 hours 0 minutes 25 seconds 868 msec
