                         Program Version 6.0.0  -   RELEASE  -
|  1> ! r2scan-3c def2/J RI DEFGRID2 scfconv6 printgap
|  2> %output
|  3>     printlevel normal
|  4> end
|  5> %cpcm
|  6>     smd true
|  7>     smdsolvent "water"
|  8> end
|  9> * xyz 0 1
| 10> C -2.0971741424 1.0906206277 -0.6064449204
| 11> C -2.0792080289 -0.2594138887 0.1001906572
| 12> C -0.8375608825 -0.4180830186 0.9858022611
| 13> C 0.4111353116 -0.4403635842 0.1443374164
| 14> O 0.6449496355 -1.2392103233 -0.7383883677
| 15> O 1.2473272321 0.5375963571 0.4763855274
| 16> C 2.4755663386 0.6356473225 -0.2486507964
| 17> H -2.0574515086 1.9014697215 0.1168747713
| 18> H -1.2417843827 1.1827783641 -1.273161642
| 19> H -3.0028895577 1.1965382451 -1.1974848533
| 20> H -2.085360128 -1.0620300021 -0.6397308219
| 21> H -2.9682043738 -0.3591979907 0.7233047514
| 22> H -0.8945890627 -1.3673792544 1.5203454663
| 23> H -0.7617808758 0.4006318551 1.7001046254
| 24> H 3.0141647522 1.465481002 0.1974518677
| 25> H 2.2716151391 0.8227369781 -1.3036390918
| 26> H 3.0383168905 -0.2939166021 -0.1566504004
| 27> *
| 28>
| 29>                          ****END OF INPUT****

CARTESIAN COORDINATES (ANGSTROEM)
---------------------------------
  C     -2.097174    1.090621   -0.606445
  C     -2.079208   -0.259414    0.100191
  C     -0.837561   -0.418083    0.985802
  C      0.411135   -0.440364    0.144337
  O      0.644950   -1.239210   -0.738388
  O      1.247327    0.537596    0.476386
  C      2.475566    0.635647   -0.248651
  H     -2.057452    1.901470    0.116875
  H     -1.241784    1.182778   -1.273162
  H     -3.002890    1.196538   -1.197485
  H     -2.085360   -1.062030   -0.639731
  H     -2.968204   -0.359198    0.723305
  H     -0.894589   -1.367379    1.520345
  H     -0.761781    0.400632    1.700105
  H      3.014165    1.465481    0.197452
  H      2.271615    0.822737   -1.303639
  H      3.038317   -0.293917   -0.156650

 Total Charge           Charge          ....    0
 Multiplicity           Mult            ....    1
 Number of Electrons    NEL             ....   56
 Basis Dimension        Dim             ....  193

ORBITAL ENERGIES
----------------

  NO   OCC          E(Eh)            E(eV)
   0   2.0000     -19.005580      -517.1681
   1   2.0000     -18.944712      -515.5118
   2   2.0000     -10.162318      -276.5307
   3   2.0000     -10.076466      -274.1946
   4   2.0000     -10.035624      -273.0832
   5   2.0000     -10.028846      -272.8988
   6   2.0000     -10.011770      -272.4341
   7   2.0000      -1.080572       -29.4038
   8   2.0000      -0.989632       -26.9293
   9   2.0000      -0.767643       -20.8886
  10   2.0000      -0.706270       -19.2186
  11   2.0000      -0.654358       -17.8060
  12   2.0000      -0.568538       -15.4707
  13   2.0000      -0.526281       -14.3208
  14   2.0000      -0.473242       -12.8776
  15   2.0000      -0.459740       -12.5101
  16   2.0000      -0.450997       -12.2722
  17   2.0000      -0.414826       -11.2880
  18   2.0000      -0.410677       -11.1751
  19   2.0000      -0.372695       -10.1415
  20   2.0000      -0.365469        -9.9449
  21   2.0000      -0.358308        -9.7501
  22   2.0000      -0.328556        -8.9405
  23   2.0000      -0.306193        -8.3319
  24   2.0000      -0.305622        -8.3164
  25   2.0000      -0.303892        -8.2693
  26   2.0000      -0.282380        -7.6840
  27   2.0000      -0.253358        -6.8942
  28   0.0000      -0.024668        -0.6713
  29   0.0000       0.069714         1.8970
  30   0.0000       0.099528         2.7083
  31   0.0000       0.122166         3.3243
  32   0.0000       0.133779         3.6403

MULLIKEN ATOMIC CHARGES
-----------------------
   0 C :   -0.529576
   1 C :   -0.225277
   2 C :   -0.315380
   3 C :    0.383907
   4 O :   -0.501836
   5 O :   -0.196602
   6 C :   -0.331654
   7 H :    0.163328
   8 H :    0.163170
   9 H :    0.161636
  10 H :    0.156245
  11 H :    0.164371
  12 H :    0.192330
  13 H :    0.179558
  14 H :    0.178610
  15 H :    0.178964
  16 H :    0.178206
Sum of atomic charges:    0.0000000

LOEWDIN ATOMIC CHARGES
----------------------
   0 C :   -0.423847
   1 C :   -0.291104
   2 C :   -0.229569
   3 C :    0.358418
   4 O :   -0.487025
   5 O :   -0.605589
   6 C :   -0.043063
   7 H :    0.156128
   8 H :    0.156374
   9 H :    0.156380
  10 H :    0.163067
  11 H :    0.160733
  12 H :    0.190906
  13 H :    0.184626
  14 H :    0.188465
  15 H :    0.182384
  16 H :    0.182718

  Mayer bond orders larger than 0.100000
B(  0-C ,  1-C ) :   0.8942 B(  0-C ,  7-H ) :   0.9783 B(  0-C ,  8-H ) :   0.9697
B(  0-C ,  9-H ) :   0.9652 B(  1-C ,  2-C ) :   0.8742 B(  1-C , 10-H ) :   0.9729
B(  1-C , 11-H ) :   0.9616 B(  2-C ,  3-C ) :   0.9398 B(  2-C , 12-H ) :   0.9323
B(  2-C , 13-H ) :   0.9946 B(  3-C ,  4-O ) :   1.7497 B(  3-C ,  5-O ) :   1.0762
B(  5-O ,  6-C ) :   0.8342 B(  6-C , 14-H ) :   0.9590 B(  6-C , 15-H ) :   0.9564
B(  6-C , 16-H ) :   0.9572

Dispersion correction           -0.004143126
FINAL SINGLE POINT ENERGY      -346.937517737856

DIPOLE MOMENT
-------------

Method             : SCF
Type of density    : Electron Density
Multiplicity       :   1
Irrep              :   0
Energy             :  -346.9440254372678396 Eh
Relativity type    :
Basis              : AO
                                X                 Y                 Z
Electronic contribution:      4.391848786      -2.783065222       0.956630611
Nuclear contribution   :     -4.370038036       3.636359045      -0.297141797
                        -----------------------------------------
Total Dipole Moment    :      0.021810750       0.853293823       0.659488814
                        -----------------------------------------
Magnitude (a.u.)       :      1.078661927
Magnitude (Debye)      :      2.741740729

Rotational constants in cm-1:             0.157744             0.053667             0.049573
Rotational constants in MHz :          4729.043341          1608.910940          1486.161841

                             ****ORCA TERMINATED NORMALLY****
TOTAL RUN TIME: 0 days 0 hours 0 minutes 30 seconds 150 msec
