                         Program Version 6.0.0  -   RELEASE  -
|  1> ! r2scan-3c def2/J RI DEFGRID2 scfconv6 printgap
|  2> %output
|  3>     printlevel normal
|  4> end
|  5> * xyz 0 1
|  6> C 2.1842233108 -0.9250034537 -0.6165628826
|  7> C 1.2022903252 -0.1418037443 0.2503084534
|  8> C 1.7756261459 1.2260729589 0.6302499703
|  9> O 0.0001137622 -0.0012068498 -0.5005623017
| 10> C -1.2020848718 0.1413566765 0.2499667398
| 11> C -2.1825754164 0.9261368882 -0.6171140097
| 12> C -1.7775883702 -1.2256274102 0.6298304493
| 13> H 2.3677968797 -0.3790041351 -1.5376275789
| 14> H 3.1211402108 -1.0645063411 -0.0863981894
| 15> H 1.7650527851 -1.8951408977 -0.868533279
| 16> H 0.9940893026 -0.7127480893 1.1681959004
| 17> H 1.0630090184 1.7896563678 1.2282468045
| 18> H 1.9942246912 1.7922704385 -0.2714189112
| 19> H 2.6884873879 1.0983179383 1.2040350494
| 20> H -0.9932834377 0.7119000432 1.1679259118
| 21> H -3.1201160609 1.0654440365 -0.0880047927
| 22> H -1.7626342407 1.8963866938 -0.8673816582
| 23> H -2.3651848351 0.381318324 -1.5390700559
| 24> H -2.6901596379 -1.096491572 1.2037956815
| 25> H -1.0657014413 -1.7903260732 1.2276426058
| 26> H -1.997229018 -1.7914080814 -0.2718387035
| 27> *
| 28>
| 29>                          ****END OF INPUT****

CARTESIAN COORDINATES (ANGSTROEM)
---------------------------------
  C      2.184223   -0.925003   -0.616563
  C      1.202290   -0.141804    0.250308
  C      1.775626    1.226073    0.630250
  O      0.000114   -0.001207   -0.500562
  C     -1.202085    0.141357    0.249967
  C     -2.182575    0.926137   -0.617114
  C     -1.777588   -1.225627    0.629830
  H      2.367797   -0.379004   -1.537628
  H      3.121140   -1.064506   -0.086398
  H      1.765053   -1.895141   -0.868533
  H      0.994089   -0.712748    1.168196
  H      1.063009    1.789656    1.228247
  H      1.994225    1.792270   -0.271419
  H      2.688487    1.098318    1.204035
  H     -0.993283    0.711900    1.167926
  H     -3.120116    1.065444   -0.088005
  H     -1.762634    1.896387   -0.867382
  H     -2.365185    0.381318   -1.539070
  H     -2.690160   -1.096492    1.203796
  H     -1.065701   -1.790326    1.227643
  H     -1.997229   -1.791408   -0.271839

 Total Charge           Charge          ....    0
 Multiplicity           Mult            ....    1
 Number of Electrons    NEL             ....   58
 Basis Dimension        Dim             ....  208

ORBITAL ENERGIES
----------------

  NO   OCC          E(Eh)            E(eV)
   0   2.0000     -18.939370      -515.3665
   1   2.0000     -10.079654      -274.2813
   2   2.0000     -10.079640      -274.2810
   3   2.0000     -10.015111      -272.5250
   4   2.0000     -10.015098      -272.5247
   5   2.0000     -10.014021      -272.4954
   6   2.0000     -10.014014      -272.4952
   7   2.0000      -0.986812       -26.8525
   8   2.0000      -0.761296       -20.7159
   9   2.0000      -0.713373       -19.4119
  10   2.0000      -0.654341       -17.8055
  11   2.0000      -0.651489       -17.7279
  12   2.0000      -0.565667       -15.3926
  13   2.0000      -0.530797       -14.4437
  14   2.0000      -0.469544       -12.7770
  15   2.0000      -0.429329       -11.6826
  16   2.0000      -0.415113       -11.2958
  17   2.0000      -0.388123       -10.5614
  18   2.0000      -0.383541       -10.4367
  19   2.0000      -0.375639       -10.2217
  20   2.0000      -0.354716        -9.6523
  21   2.0000      -0.354120        -9.6361
  22   2.0000      -0.337326        -9.1791
  23   2.0000      -0.332900        -9.0587
  24   2.0000      -0.323438        -8.8012
  25   2.0000      -0.309741        -8.4285
  26   2.0000      -0.303427        -8.2567
  27   2.0000      -0.266757        -7.2588
  28   2.0000      -0.212116        -5.7720
  29   0.0000       0.078995         2.1496
  30   0.0000       0.107914         2.9365
  31   0.0000       0.115833         3.1520
  32   0.0000       0.118787         3.2324
  33   0.0000       0.125620         3.4183

MULLIKEN ATOMIC CHARGES
-----------------------
   0 C :   -0.457704
   1 C :    0.003596
   2 C :   -0.454066
   3 O :   -0.205122
   4 C :    0.003961
   5 C :   -0.457707
   6 C :   -0.454265
   7 H :    0.153711
   8 H :    0.137781
   9 H :    0.152780
  10 H :    0.128106
  11 H :    0.137952
  12 H :    0.156771
  13 H :    0.143582
  14 H :    0.128043
  15 H :    0.137752
  16 H :    0.152726
  17 H :    0.153795
  18 H :    0.143584
  19 H :    0.138002
  20 H :    0.156721
Sum of atomic charges:    0.0000000

LOEWDIN ATOMIC CHARGES
----------------------
   0 C :   -0.382981
   1 C :    0.053385
   2 C :   -0.396914
   3 O :   -0.770616
   4 C :    0.053378
   5 C :   -0.383001
   6 C :   -0.396890
   7 H :    0.161523
   8 H :    0.155175
   9 H :    0.160415
  10 H :    0.164611
  11 H :    0.154163
  12 H :    0.160542
  13 H :    0.155390
  14 H :    0.164631
  15 H :    0.155166
  16 H :    0.160373
  17 H :    0.161554
  18 H :    0.155374
  19 H :    0.154187
  20 H :    0.160535

  Mayer bond orders larger than 0.100000
B(  0-C ,  1-C ) :   0.9473 B(  0-C ,  7-H ) :   0.9793 B(  0-C ,  8-H ) :   0.9738
B(  0-C ,  9-H ) :   0.9731 B(  1-C ,  2-C ) :   0.9423 B(  1-C ,  3-O ) :   0.7804
B(  1-C , 10-H ) :   0.9442 B(  2-C , 11-H ) :   0.9652 B(  2-C , 12-H ) :   0.9812
B(  2-C , 13-H ) :   0.9733 B(  3-O ,  4-C ) :   0.7800 B(  4-C ,  5-C ) :   0.9473
B(  4-C ,  6-C ) :   0.9425 B(  4-C , 14-H ) :   0.9442 B(  5-C , 15-H ) :   0.9738
B(  5-C , 16-H ) :   0.9731 B(  5-C , 17-H ) :   0.9793 B(  6-C , 18-H ) :   0.9733
B(  6-C , 19-H ) :   0.9653 B(  6-C , 20-H ) :   0.9812

Dispersion correction           -0.005336068
FINAL SINGLE POINT ENERGY      -312.195908360085

DIPOLE MOMENT
-------------

Method             : SCF
Type of density    : Electron Density
Multiplicity       :   1
Irrep              :   0
Energy             :  -312.2026604112099903 Eh
Relativity type    :
Basis              : AO
                                X                 Y                 Z
Electronic contribution:      0.000637011      -0.004673147      -1.101824894
Nuclear contribution   :     -0.000475270       0.005300213       1.558899841
                        -----------------------------------------
Total Dipole Moment    :      0.000161741       0.000627066       0.457074947
                        -----------------------------------------
Magnitude (a.u.)       :      0.457075405
Magnitude (Debye)      :      1.161793351

Rotational constants in cm-1:             0.137368             0.051318             0.045255
Rotational constants in MHz :          4118.200688          1538.488908          1356.715550

                             ****ORCA TERMINATED NORMALLY****
TOTAL RUN TIME: 0 days 0 hours 0 minutes 23 seconds 382 msec
