                         Program Version 6.0.0  -   RELEASE  -
|  1> ! r2scan-3c def2/J RI DEFGRID2 scfconv6 printgap
|  2> %output
|  3>     printlevel normal
|  4> end
|  5> %cpcm
|  6>     smd true
|  7>     smdsolvent "water"
|  8> end
|  9> * xyz 0 1
| 10> C 2.1842233108 -0.9250034537 -0.6165628826
| 11> C 1.2022903252 -0.1418037443 0.2503084534
| 12> C 1.7756261459 1.2260729589 0.6302499703
| 13> O 0.0001137622 -0.0012068498 -0.5005623017
| 14> C -1.2020848718 0.1413566765 0.2499667398
| 15> C -2.1825754164 0.9261368882 -0.6171140097
| 16> C -1.7775883702 -1.2256274102 0.6298304493
| 17> H 2.3677968797 -0.3790041351 -1.5376275789
| 18> H 3.1211402108 -1.0645063411 -0.0863981894
| 19> H 1.7650527851 -1.8951408977 -0.868533279
| 20> H 0.9940893026 -0.7127480893 1.1681959004
| 21> H 1.0630090184 1.7896563678 1.2282468045
| 22> H 1.9942246912 1.7922704385 -0.2714189112
| 23> H 2.6884873879 1.0983179383 1.2040350494
| 24> H -0.9932834377 0.7119000432 1.1679259118
| 25> H -3.1201160609 1.0654440365 -0.0880047927
| 26> H -1.7626342407 1.8963866938 -0.8673816582
| 27> H -2.3651848351 0.381318324 -1.5390700559
| 28> H -2.6901596379 -1.096491572 1.2037956815
| 29> H -1.0657014413 -1.7903260732 1.2276426058
| 30> H -1.997229018 -1.7914080814 -0.2718387035
| 31> *
| 32>
| 33>                          ****END OF INPUT****

CARTESIAN COORDINATES (ANGSTROEM)
---------------------------------
  C      2.184223   -0.925003   -0.616563
  C      1.202290   -0.141804    0.250308
  C      1.775626    1.226073    0.630250
  O      0.000114   -0.001207   -0.500562
  C     -1.202085    0.141357    0.249967
  C     -2.182575    0.926137   -0.617114
  C     -1.777588   -1.225627    0.629830
  H      2.367797   -0.379004   -1.537628
  H      3.121140   -1.064506   -0.086398
  H      1.765053   -1.895141   -0.868533
  H      0.994089   -0.712748    1.168196
  H      1.063009    1.789656    1.228247
  H      1.994225    1.792270   -0.271419
  H      2.688487    1.098318    1.204035
  H     -0.993283    0.711900    1.167926
  H     -3.120116    1.065444   -0.088005
  H     -1.762634    1.896387   -0.867382
  H     -2.365185    0.381318   -1.539070
  H     -2.690160   -1.096492    1.203796
  H     -1.065701   -1.790326    1.227643
  H     -1.997229   -1.791408   -0.271839

 Total Charge           Charge          ....    0
 Multiplicity           Mult            ....    1
 Number of Electrons    NEL             ....   58
 Basis Dimension        Dim             ....  208

ORBITAL ENERGIES
----------------

  NO   OCC          E(Eh)            E(eV)
   0   2.0000     -18.947393      -515.5848
   1   2.0000     -10.076262      -274.1890
   2   2.0000     -10.076249      -274.1887
   3   2.0000     -10.010138      -272.3897
   4   2.0000     -10.010132      -272.3895
   5   2.0000     -10.008574      -272.3472
   6   2.0000     -10.008572      -272.3471
   7   2.0000      -0.993076       -27.0230
   8   2.0000      -0.758573       -20.6418
   9   2.0000      -0.709643       -19.3104
  10   2.0000      -0.650093       -17.6899
  11   2.0000      -0.647377       -17.6160
  12   2.0000      -0.564115       -15.3504
  13   2.0000      -0.527801       -14.3622
  14   2.0000      -0.467203       -12.7132
  15   2.0000      -0.425701       -11.5839
  16   2.0000      -0.413606       -11.2548
  17   2.0000      -0.383216       -10.4278
  18   2.0000      -0.380383       -10.3507
  19   2.0000      -0.371773       -10.1165
  20   2.0000      -0.350393        -9.5347
  21   2.0000      -0.349491        -9.5101
  22   2.0000      -0.333788        -9.0828
  23   2.0000      -0.330451        -8.9920
  24   2.0000      -0.319935        -8.7059
  25   2.0000      -0.305540        -8.3142
  26   2.0000      -0.298825        -8.1314
  27   2.0000      -0.270341        -7.3563
  28   2.0000      -0.217943        -5.9305
  29   0.0000       0.085788         2.3344
  30   0.0000       0.111320         3.0292
  31   0.0000       0.121884         3.3166
  32   0.0000       0.126190         3.4338
  33   0.0000       0.130389         3.5481

MULLIKEN ATOMIC CHARGES
-----------------------
   0 C :   -0.507354
   1 C :    0.030756
   2 C :   -0.508198
   3 O :   -0.279993
   4 C :    0.031175
   5 C :   -0.507371
   6 C :   -0.508451
   7 H :    0.163035
   8 H :    0.161647
   9 H :    0.161404
  10 H :    0.152862
  11 H :    0.157845
  12 H :    0.163872
  13 H :    0.164072
  14 H :    0.152831
  15 H :    0.161612
  16 H :    0.161404
  17 H :    0.163072
  18 H :    0.164080
  19 H :    0.157870
  20 H :    0.163829
Sum of atomic charges:    0.0000000

LOEWDIN ATOMIC CHARGES
----------------------
   0 C :   -0.391943
   1 C :    0.055369
   2 C :   -0.403441
   3 O :   -0.810774
   4 C :    0.055366
   5 C :   -0.391961
   6 C :   -0.403431
   7 H :    0.162006
   8 H :    0.164269
   9 H :    0.160885
  10 H :    0.175044
  11 H :    0.159566
  12 H :    0.160583
  13 H :    0.163053
  14 H :    0.175075
  15 H :    0.164256
  16 H :    0.160864
  17 H :    0.162021
  18 H :    0.163044
  19 H :    0.159575
  20 H :    0.160574

  Mayer bond orders larger than 0.100000
B(  0-C ,  1-C ) :   0.9324 B(  0-C ,  7-H ) :   0.9759 B(  0-C ,  8-H ) :   0.9684
B(  0-C ,  9-H ) :   0.9724 B(  1-C ,  2-C ) :   0.9321 B(  1-C ,  3-O ) :   0.7739
B(  1-C , 10-H ) :   0.9413 B(  2-C , 11-H ) :   0.9636 B(  2-C , 12-H ) :   0.9783
B(  2-C , 13-H ) :   0.9679 B(  3-O ,  4-C ) :   0.7734 B(  4-C ,  5-C ) :   0.9323
B(  4-C ,  6-C ) :   0.9323 B(  4-C , 14-H ) :   0.9413 B(  5-C , 15-H ) :   0.9685
B(  5-C , 16-H ) :   0.9724 B(  5-C , 17-H ) :   0.9759 B(  6-C , 18-H ) :   0.9679
B(  6-C , 19-H ) :   0.9637 B(  6-C , 20-H ) :   0.9783

Dispersion correction           -0.005336068
FINAL SINGLE POINT ENERGY      -312.197854324308

DIPOLE MOMENT
-------------

Method             : SCF
Type of density    : Electron Density
Multiplicity       :   1
Irrep              :   0
Energy             :  -312.2046063754330589 Eh
Relativity type    :
Basis              : AO
                                X                 Y                 Z
Electronic contribution:      0.000627526      -0.004215596      -0.749594691
Nuclear contribution   :     -0.000475270       0.005300213       1.558899841
                        -----------------------------------------
Total Dipole Moment    :      0.000152256       0.001084617       0.809305150
                        -----------------------------------------
Magnitude (a.u.)       :      0.809305891
Magnitude (Debye)      :      2.057092095

Rotational constants in cm-1:             0.137368             0.051318             0.045255
Rotational constants in MHz :          4118.200688          1538.488908          1356.715550

                             ****ORCA TERMINATED NORMALLY****
TOTAL RUN TIME: 0 days 0 hours 0 minutes 27 seconds 955 msec
