                         Program Version 6.0.0  -   RELEASE  -
|  1> ! r2scan-3c def2/J RI DEFGRID2 scfconv6 printgap
|  2> %output
|  3>     printlevel normal
|  4> end
|  5> * xyz 0 1
|  6> C 0.2135749209 -3.3786471429 0.114503284
|  7> C 0.672516362 -1.95628177 0.0679534505
|  8> C 2.0131121849 -1.5886230439 -0.0837466841
|  9> N 2.4041209117 -0.3229591018 -0.1242227393
| 10> C 1.4710106641 0.6314731615 -0.0159550568
| 11> N 0.1548217128 0.3828274339 0.1308146807
| 12> C -0.2114664151 -0.8830862941 0.17149469
| 13> O -1.5502250087 -1.133461553 0.3010359994
| 14> C -2.3182543728 -0.0113152201 0.619148329
| 15> O -2.5786646083 0.2208892161 1.7855184128
| 16> N -2.7568079643 0.6776121889 -0.4256691997
| 17> C -3.5217580203 1.8898008681 -0.2175227227
| 18> C -2.4085204695 0.3801127895 -1.7981211233
| 19> N 1.8558630524 1.911740697 -0.0703665765
| 20> C 3.2379325088 2.2832112211 -0.2523008979
| 21> C 0.9152598504 2.9977596717 0.0586747875
| 22> C 3.0828612687 -2.6230027514 -0.2111435023
| 23> H 0.4034074476 -3.8736806133 -0.8370767236
| 24> H 0.7445795604 -3.9247638406 0.8923061237
| 25> H -0.852139684 -3.412390734 0.3241680898
| 26> H -2.9868077287 2.7357919577 -0.6485701456
| 27> H -3.6486119687 2.0410576974 0.8516018651
| 28> H -4.4978942608 1.7940899459 -0.6920189904
| 29> H -1.5484665559 0.9780987251 -2.1065968254
| 30> H -3.2623130091 0.6180409505 -2.4287894407
| 31> H -2.1653047763 -0.6740880493 -1.9050718441
| 32> H 3.5929696336 2.8380726565 0.6180925578
| 33> H 3.3347445592 2.9129202474 -1.1380258662
| 34> H 3.8276461493 1.3804157757 -0.3748481843
| 35> H 0.8441956074 3.5470618754 -0.8825079095
| 36> H 1.2495209947 3.6792582933 0.8420406486
| 37> H -0.0575066547 2.5923991882 0.3221972753
| 38> H 4.0427775064 -2.1361147067 -0.3466678434
| 39> H 3.1110904103 -3.2396761788 0.6847165769
| 40> H 2.8754044048 -3.2709294213 -1.0595839298
| 41> *
| 42>
| 43>                          ****END OF INPUT****

CARTESIAN COORDINATES (ANGSTROEM)
---------------------------------
  C      0.213575   -3.378647    0.114503
  C      0.672516   -1.956282    0.067953
  C      2.013112   -1.588623   -0.083747
  N      2.404121   -0.322959   -0.124223
  C      1.471011    0.631473   -0.015955
  N      0.154822    0.382827    0.130815
  C     -0.211466   -0.883086    0.171495
  O     -1.550225   -1.133462    0.301036
  C     -2.318254   -0.011315    0.619148
  O     -2.578665    0.220889    1.785518
  N     -2.756808    0.677612   -0.425669
  C     -3.521758    1.889801   -0.217523
  C     -2.408520    0.380113   -1.798121
  N      1.855863    1.911741   -0.070367
  C      3.237933    2.283211   -0.252301
  C      0.915260    2.997760    0.058675
  C      3.082861   -2.623003   -0.211144
  H      0.403407   -3.873681   -0.837077
  H      0.744580   -3.924764    0.892306
  H     -0.852140   -3.412391    0.324168
  H     -2.986808    2.735792   -0.648570
  H     -3.648612    2.041058    0.851602
  H     -4.497894    1.794090   -0.692019
  H     -1.548467    0.978099   -2.106597
  H     -3.262313    0.618041   -2.428789
  H     -2.165305   -0.674088   -1.905072
  H      3.592970    2.838073    0.618093
  H      3.334745    2.912920   -1.138026
  H      3.827646    1.380416   -0.374848
  H      0.844196    3.547062   -0.882508
  H      1.249521    3.679258    0.842041
  H     -0.057507    2.592399    0.322197
  H      4.042778   -2.136115   -0.346668
  H      3.111090   -3.239676    0.684717
  H      2.875404   -3.270929   -1.059584

 Total Charge           Charge          ....    0
 Multiplicity           Mult            ....    1
 Number of Electrons    NEL             ....  128
 Basis Dimension        Dim             ....  443

ORBITAL ENERGIES
----------------

  NO   OCC          E(Eh)            E(eV)
   0   2.0000     -18.996821      -516.9298
   1   2.0000     -18.910947      -514.5930
   2   2.0000     -14.202786      -386.4774
   3   2.0000     -14.188963      -386.1013
   4   2.0000     -14.144045      -384.8790
   5   2.0000     -14.135548      -384.6478
   6   2.0000     -10.168459      -276.6978
   7   2.0000     -10.130376      -275.6615
   8   2.0000     -10.124003      -275.4881
   9   2.0000     -10.077335      -274.2182
  10   2.0000     -10.069721      -274.0110
  11   2.0000     -10.066054      -273.9113
  12   2.0000     -10.057995      -273.6920
  13   2.0000     -10.055454      -273.6228
  14   2.0000     -10.031617      -272.9742
  15   2.0000     -10.026163      -272.8258
  16   2.0000     -10.025519      -272.8082
  17   2.0000      -1.076879       -29.3034
  18   2.0000      -0.985724       -26.8229
  19   2.0000      -0.966201       -26.2917
  20   2.0000      -0.917507       -24.9666
  21   2.0000      -0.897373       -24.4188
  22   2.0000      -0.847217       -23.0540
  23   2.0000      -0.772969       -21.0335
  24   2.0000      -0.710240       -19.3266
  25   2.0000      -0.699579       -19.0365
  26   2.0000      -0.692814       -18.8524
  27   2.0000      -0.686739       -18.6871
  28   2.0000      -0.677430       -18.4338
  29   2.0000      -0.630875       -17.1670
  30   2.0000      -0.604286       -16.4435
  31   2.0000      -0.558301       -15.1921
  32   2.0000      -0.541808       -14.7434
  33   2.0000      -0.513580       -13.9752
  34   2.0000      -0.500764       -13.6265
  35   2.0000      -0.472491       -12.8571
  36   2.0000      -0.456252       -12.4153
  37   2.0000      -0.455574       -12.3968
  38   2.0000      -0.448685       -12.2094
  39   2.0000      -0.428618       -11.6633
  40   2.0000      -0.419981       -11.4283
  41   2.0000      -0.411367       -11.1939
  42   2.0000      -0.395789       -10.7700
  43   2.0000      -0.387140       -10.5346
  44   2.0000      -0.383274       -10.4294
  45   2.0000      -0.381625       -10.3845
  46   2.0000      -0.378103       -10.2887
  47   2.0000      -0.377189       -10.2638
  48   2.0000      -0.372869       -10.1463
  49   2.0000      -0.371495       -10.1089
  50   2.0000      -0.360819        -9.8184
  51   2.0000      -0.358767        -9.7626
  52   2.0000      -0.354107        -9.6357
  53   2.0000      -0.352905        -9.6030
  54   2.0000      -0.344146        -9.3647
  55   2.0000      -0.335810        -9.1379
  56   2.0000      -0.321609        -8.7514
  57   2.0000      -0.275067        -7.4849
  58   2.0000      -0.266731        -7.2581
  59   2.0000      -0.254135        -6.9154
  60   2.0000      -0.228715        -6.2236
  61   2.0000      -0.222001        -6.0410
  62   2.0000      -0.209771        -5.7082
  63   2.0000      -0.181006        -4.9254
  64   0.0000      -0.038527        -1.0484
  65   0.0000      -0.008205        -0.2233
  66   0.0000       0.010958         0.2982
  67   0.0000       0.055440         1.5086
  68   0.0000       0.074861         2.0371

MULLIKEN ATOMIC CHARGES
-----------------------
   0 C :   -0.614677
   1 C :   -0.224764
   2 C :    0.276511
   3 N :   -0.240739
   4 C :    0.008369
   5 N :   -0.281509
   6 C :    0.441916
   7 O :   -0.125896
   8 C :    0.135713
   9 O :   -0.415361
  10 N :    0.150172
  11 C :   -0.408683
  12 C :   -0.425055
  13 N :    0.167950
  14 C :   -0.383565
  15 C :   -0.387567
  16 C :   -0.628559
  17 H :    0.162149
  18 H :    0.153324
  19 H :    0.183735
  20 H :    0.145974
  21 H :    0.203268
  22 H :    0.150412
  23 H :    0.178046
  24 H :    0.143126
  25 H :    0.179034
  26 H :    0.144016
  27 H :    0.136663
  28 H :    0.198902
  29 H :    0.144684
  30 H :    0.139316
  31 H :    0.196813
  32 H :    0.176820
  33 H :    0.164242
  34 H :    0.155221
Sum of atomic charges:   -0.0000000

LOEWDIN ATOMIC CHARGES
----------------------
   0 C :   -0.373056
   1 C :   -0.077009
   2 C :    0.176648
   3 N :   -0.577736
   4 C :    0.436928
   5 N :   -0.511139
   6 C :    0.401901
   7 O :   -0.457676
   8 C :    0.464478
   9 O :   -0.381934
  10 N :   -0.777698
  11 C :   -0.099933
  12 C :   -0.100460
  13 N :   -0.794153
  14 C :   -0.104482
  15 C :   -0.104799
  16 C :   -0.353797
  17 H :    0.160811
  18 H :    0.162491
  19 H :    0.179298
  20 H :    0.174435
  21 H :    0.209952
  22 H :    0.174399
  23 H :    0.178489
  24 H :    0.177434
  25 H :    0.198487
  26 H :    0.171077
  27 H :    0.170339
  28 H :    0.210977
  29 H :    0.168832
  30 H :    0.173615
  31 H :    0.210306
  32 H :    0.175353
  33 H :    0.169622
  34 H :    0.168001

  Mayer bond orders larger than 0.100000
B(  0-C ,  1-C ) :   0.7147 B(  0-C , 17-H ) :   0.9908 B(  0-C , 18-H ) :   0.9752
B(  0-C , 19-H ) :   0.9919 B(  1-C ,  2-C ) :   1.3457 B(  1-C ,  6-C ) :   1.3820
B(  2-C ,  3-N ) :   1.3502 B(  2-C , 16-C ) :   0.7752 B(  3-N ,  4-C ) :   1.3458
B(  4-C ,  5-N ) :   1.3761 B(  4-C , 13-N ) :   1.3290 B(  5-N ,  6-C ) :   1.2523
B(  6-C ,  7-O ) :   1.0684 B(  7-O ,  8-C ) :   0.9215 B(  8-C ,  9-O ) :   1.9525
B(  8-C , 10-N ) :   1.2776 B( 10-N , 11-C ) :   0.9150 B( 10-N , 12-C ) :   0.8997
B( 11-C , 20-H ) :   0.9476 B( 11-C , 21-H ) :   0.9537 B( 11-C , 22-H ) :   0.9632
B( 12-C , 23-H ) :   0.9513 B( 12-C , 24-H ) :   0.9544 B( 12-C , 25-H ) :   0.9613
B( 13-N , 14-C ) :   0.9129 B( 13-N , 15-C ) :   0.9060 B( 14-C , 26-H ) :   0.9578
B( 14-C , 27-H ) :   0.9555 B( 14-C , 28-H ) :   0.9533 B( 15-C , 29-H ) :   0.9595
B( 15-C , 30-H ) :   0.9531 B( 15-C , 31-H ) :   0.9559 B( 16-C , 32-H ) :   1.0132
B( 16-C , 33-H ) :   0.9750 B( 16-C , 34-H ) :   0.9675

Dispersion correction           -0.014342928
FINAL SINGLE POINT ENERGY      -799.295063887741

DIPOLE MOMENT
-------------

Method             : SCF
Type of density    : Electron Density
Multiplicity       :   1
Irrep              :   0
Energy             :  -799.3184172819908326 Eh
Relativity type    :
Basis              : AO
                                X                 Y                 Z
Electronic contribution:     -4.335777913      -3.698644285       5.851905789
Nuclear contribution   :      4.645601211       4.303044783      -7.368888910
                        -----------------------------------------
Total Dipole Moment    :      0.309823299       0.604400498      -1.516983121
                        -----------------------------------------
Magnitude (a.u.)       :      1.662085505
Magnitude (Debye)      :      4.224685614

Rotational constants in cm-1:             0.020044             0.013144             0.008964
Rotational constants in MHz :           600.899318           394.057730           268.747439

                             ****ORCA TERMINATED NORMALLY****
TOTAL RUN TIME: 0 days 0 hours 1 minutes 28 seconds 810 msec
