                         Program Version 6.0.0  -   RELEASE  -
|  1> ! r2scan-3c def2/J RI DEFGRID2 scfconv6 printgap
|  2> %output
|  3>     printlevel normal
|  4> end
|  5> %cpcm
|  6>     smd true
|  7>     smdsolvent "water"
|  8> end
|  9> * xyz 0 1
| 10> C 0.2135749209 -3.3786471429 0.114503284
| 11> C 0.672516362 -1.95628177 0.0679534505
| 12> C 2.0131121849 -1.5886230439 -0.0837466841
| 13> N 2.4041209117 -0.3229591018 -0.1242227393
| 14> C 1.4710106641 0.6314731615 -0.0159550568
| 15> N 0.1548217128 0.3828274339 0.1308146807
| 16> C -0.2114664151 -0.8830862941 0.17149469
| 17> O -1.5502250087 -1.133461553 0.3010359994
| 18> C -2.3182543728 -0.0113152201 0.619148329
| 19> O -2.5786646083 0.2208892161 1.7855184128
| 20> N -2.7568079643 0.6776121889 -0.4256691997
| 21> C -3.5217580203 1.8898008681 -0.2175227227
| 22> C -2.4085204695 0.3801127895 -1.7981211233
| 23> N 1.8558630524 1.911740697 -0.0703665765
| 24> C 3.2379325088 2.2832112211 -0.2523008979
| 25> C 0.9152598504 2.9977596717 0.0586747875
| 26> C 3.0828612687 -2.6230027514 -0.2111435023
| 27> H 0.4034074476 -3.8736806133 -0.8370767236
| 28> H 0.7445795604 -3.9247638406 0.8923061237
| 29> H -0.852139684 -3.412390734 0.3241680898
| 30> H -2.9868077287 2.7357919577 -0.6485701456
| 31> H -3.6486119687 2.0410576974 0.8516018651
| 32> H -4.4978942608 1.7940899459 -0.6920189904
| 33> H -1.5484665559 0.9780987251 -2.1065968254
| 34> H -3.2623130091 0.6180409505 -2.4287894407
| 35> H -2.1653047763 -0.6740880493 -1.9050718441
| 36> H 3.5929696336 2.8380726565 0.6180925578
| 37> H 3.3347445592 2.9129202474 -1.1380258662
| 38> H 3.8276461493 1.3804157757 -0.3748481843
| 39> H 0.8441956074 3.5470618754 -0.8825079095
| 40> H 1.2495209947 3.6792582933 0.8420406486
| 41> H -0.0575066547 2.5923991882 0.3221972753
| 42> H 4.0427775064 -2.1361147067 -0.3466678434
| 43> H 3.1110904103 -3.2396761788 0.6847165769
| 44> H 2.8754044048 -3.2709294213 -1.0595839298
| 45> *
| 46>
| 47>                          ****END OF INPUT****

CARTESIAN COORDINATES (ANGSTROEM)
---------------------------------
  C      0.213575   -3.378647    0.114503
  C      0.672516   -1.956282    0.067953
  C      2.013112   -1.588623   -0.083747
  N      2.404121   -0.322959   -0.124223
  C      1.471011    0.631473   -0.015955
  N      0.154822    0.382827    0.130815
  C     -0.211466   -0.883086    0.171495
  O     -1.550225   -1.133462    0.301036
  C     -2.318254   -0.011315    0.619148
  O     -2.578665    0.220889    1.785518
  N     -2.756808    0.677612   -0.425669
  C     -3.521758    1.889801   -0.217523
  C     -2.408520    0.380113   -1.798121
  N      1.855863    1.911741   -0.070367
  C      3.237933    2.283211   -0.252301
  C      0.915260    2.997760    0.058675
  C      3.082861   -2.623003   -0.211144
  H      0.403407   -3.873681   -0.837077
  H      0.744580   -3.924764    0.892306
  H     -0.852140   -3.412391    0.324168
  H     -2.986808    2.735792   -0.648570
  H     -3.648612    2.041058    0.851602
  H     -4.497894    1.794090   -0.692019
  H     -1.548467    0.978099   -2.106597
  H     -3.262313    0.618041   -2.428789
  H     -2.165305   -0.674088   -1.905072
  H      3.592970    2.838073    0.618093
  H      3.334745    2.912920   -1.138026
  H      3.827646    1.380416   -0.374848
  H      0.844196    3.547062   -0.882508
  H      1.249521    3.679258    0.842041
  H     -0.057507    2.592399    0.322197
  H      4.042778   -2.136115   -0.346668
  H      3.111090   -3.239676    0.684717
  H      2.875404   -3.270929   -1.059584

 Total Charge           Charge          ....    0
 Multiplicity           Mult            ....    1
 Number of Electrons    NEL             ....  128
 Basis Dimension        Dim             ....  443

ORBITAL ENERGIES
----------------

  NO   OCC          E(Eh)            E(eV)
   0   2.0000     -19.007756      -517.2273
   1   2.0000     -18.934982      -515.2470
   2   2.0000     -14.207996      -386.6192
   3   2.0000     -14.187506      -386.0617
   4   2.0000     -14.148405      -384.9977
   5   2.0000     -14.140425      -384.7805
   6   2.0000     -10.185198      -277.1533
   7   2.0000     -10.136571      -275.8301
   8   2.0000     -10.127341      -275.5790
   9   2.0000     -10.081127      -274.3214
  10   2.0000     -10.056690      -273.6565
  11   2.0000     -10.055705      -273.6297
  12   2.0000     -10.047196      -273.3981
  13   2.0000     -10.046205      -273.3711
  14   2.0000     -10.034543      -273.0538
  15   2.0000     -10.020864      -272.6816
  16   2.0000     -10.019538      -272.6455
  17   2.0000      -1.090465       -29.6731
  18   2.0000      -1.004428       -27.3319
  19   2.0000      -0.970375       -26.4052
  20   2.0000      -0.922425       -25.1005
  21   2.0000      -0.897717       -24.4281
  22   2.0000      -0.852788       -23.2055
  23   2.0000      -0.774291       -21.0695
  24   2.0000      -0.708551       -19.2807
  25   2.0000      -0.693087       -18.8599
  26   2.0000      -0.688720       -18.7410
  27   2.0000      -0.682391       -18.5688
  28   2.0000      -0.673076       -18.3153
  29   2.0000      -0.629703       -17.1351
  30   2.0000      -0.607674       -16.5356
  31   2.0000      -0.557908       -15.1814
  32   2.0000      -0.544366       -14.8129
  33   2.0000      -0.509781       -13.8718
  34   2.0000      -0.501215       -13.6388
  35   2.0000      -0.473925       -12.8962
  36   2.0000      -0.462105       -12.5745
  37   2.0000      -0.453799       -12.3485
  38   2.0000      -0.445791       -12.1306
  39   2.0000      -0.426168       -11.5966
  40   2.0000      -0.416606       -11.3364
  41   2.0000      -0.413665       -11.2564
  42   2.0000      -0.398581       -10.8459
  43   2.0000      -0.392786       -10.6882
  44   2.0000      -0.382287       -10.4026
  45   2.0000      -0.372827       -10.1451
  46   2.0000      -0.371381       -10.1058
  47   2.0000      -0.370270       -10.0755
  48   2.0000      -0.367831       -10.0092
  49   2.0000      -0.360093        -9.7986
  50   2.0000      -0.359086        -9.7712
  51   2.0000      -0.353490        -9.6189
  52   2.0000      -0.349816        -9.5190
  53   2.0000      -0.349038        -9.4978
  54   2.0000      -0.342480        -9.3194
  55   2.0000      -0.338959        -9.2235
  56   2.0000      -0.334756        -9.1092
  57   2.0000      -0.280938        -7.6447
  58   2.0000      -0.272175        -7.4063
  59   2.0000      -0.266413        -7.2495
  60   2.0000      -0.244882        -6.6636
  61   2.0000      -0.229853        -6.2546
  62   2.0000      -0.216396        -5.8884
  63   2.0000      -0.181496        -4.9388
  64   0.0000      -0.043510        -1.1840
  65   0.0000      -0.011781        -0.3206
  66   0.0000      -0.003830        -0.1042
  67   0.0000       0.056359         1.5336
  68   0.0000       0.079041         2.1508

MULLIKEN ATOMIC CHARGES
-----------------------
   0 C :   -0.645662
   1 C :   -0.225900
   2 C :    0.271364
   3 N :   -0.277852
   4 C :    0.007365
   5 N :   -0.296004
   6 C :    0.441373
   7 O :   -0.139903
   8 C :    0.146273
   9 O :   -0.513992
  10 N :    0.152592
  11 C :   -0.420978
  12 C :   -0.444201
  13 N :    0.168291
  14 C :   -0.414258
  15 C :   -0.412085
  16 C :   -0.657632
  17 H :    0.185593
  18 H :    0.176005
  19 H :    0.183871
  20 H :    0.178357
  21 H :    0.191491
  22 H :    0.180839
  23 H :    0.191447
  24 H :    0.175387
  25 H :    0.192602
  26 H :    0.168024
  27 H :    0.163922
  28 H :    0.193158
  29 H :    0.171114
  30 H :    0.163545
  31 H :    0.192286
  32 H :    0.181249
  33 H :    0.189864
  34 H :    0.182456
Sum of atomic charges:   -0.0000000

LOEWDIN ATOMIC CHARGES
----------------------
   0 C :   -0.376577
   1 C :   -0.077635
   2 C :    0.178431
   3 N :   -0.601122
   4 C :    0.431398
   5 N :   -0.525746
   6 C :    0.395871
   7 O :   -0.467823
   8 C :    0.459425
   9 O :   -0.463415
  10 N :   -0.761380
  11 C :   -0.094331
  12 C :   -0.092686
  13 N :   -0.792134
  14 C :   -0.105145
  15 C :   -0.103274
  16 C :   -0.357060
  17 H :    0.170589
  18 H :    0.170110
  19 H :    0.177612
  20 H :    0.189159
  21 H :    0.204574
  22 H :    0.188194
  23 H :    0.186273
  24 H :    0.191977
  25 H :    0.202931
  26 H :    0.180319
  27 H :    0.181222
  28 H :    0.206682
  29 H :    0.180481
  30 H :    0.182445
  31 H :    0.207168
  32 H :    0.175516
  33 H :    0.179410
  34 H :    0.178539

  Mayer bond orders larger than 0.100000
B(  0-C ,  1-C ) :   0.7231 B(  0-C , 17-H ) :   0.9776 B(  0-C , 18-H ) :   0.9697
B(  0-C , 19-H ) :   0.9937 B(  1-C ,  2-C ) :   1.3433 B(  1-C ,  6-C ) :   1.3607
B(  2-C ,  3-N ) :   1.3588 B(  2-C , 16-C ) :   0.7903 B(  3-N ,  4-C ) :   1.3441
B(  4-C ,  5-N ) :   1.3691 B(  4-C , 13-N ) :   1.3506 B(  5-N ,  6-C ) :   1.2533
B(  6-C ,  7-O ) :   1.0500 B(  7-O ,  8-C ) :   0.9296 B(  8-C ,  9-O ) :   1.8654
B(  8-C , 10-N ) :   1.3408 B( 10-N , 11-C ) :   0.9087 B( 10-N , 12-C ) :   0.8943
B( 11-C , 20-H ) :   0.9372 B( 11-C , 21-H ) :   0.9540 B( 11-C , 22-H ) :   0.9518
B( 12-C , 23-H ) :   0.9404 B( 12-C , 24-H ) :   0.9459 B( 12-C , 25-H ) :   0.9545
B( 13-N , 14-C ) :   0.9002 B( 13-N , 15-C ) :   0.8945 B( 14-C , 26-H ) :   0.9507
B( 14-C , 27-H ) :   0.9490 B( 14-C , 28-H ) :   0.9555 B( 15-C , 29-H ) :   0.9500
B( 15-C , 30-H ) :   0.9486 B( 15-C , 31-H ) :   0.9558 B( 16-C , 32-H ) :   1.0082
B( 16-C , 33-H ) :   0.9624 B( 16-C , 34-H ) :   0.9558

Dispersion correction           -0.014342928
FINAL SINGLE POINT ENERGY      -799.307638510769

DIPOLE MOMENT
-------------

Method             : SCF
Type of density    : Electron Density
Multiplicity       :   1
Irrep              :   0
Energy             :  -799.3309919050184362 Eh
Relativity type    :
Basis              : AO
                                X                 Y                 Z
Electronic contribution:     -4.231598972      -3.432263502       5.012481238
Nuclear contribution   :      4.645601211       4.303044783      -7.368888910
                        -----------------------------------------
Total Dipole Moment    :      0.414002239       0.870781281      -2.356407672
                        -----------------------------------------
Magnitude (a.u.)       :      2.546039083
Magnitude (Debye)      :      6.471517048

Rotational constants in cm-1:             0.020044             0.013144             0.008964
Rotational constants in MHz :           600.899318           394.057730           268.747439

                             ****ORCA TERMINATED NORMALLY****
TOTAL RUN TIME: 0 days 0 hours 2 minutes 0 seconds 787 msec
