                         Program Version 6.0.0  -   RELEASE  -
|  1> ! pbe def2-sv(p) def2/J RI DEFGRID1 loosescf d4 GCP(DFT/SV(P)) printgap
|  2> %output
|  3>     printlevel normal
|  4> end
|  5> * xyz 0 1
|  6> C 2.0682851591 -0.5337960521 -0.0053726406
|  7> O 1.2664870064 0.5927578651 0.2894478594
|  8> C -0.0074505276 0.590115669 -0.3209733209
|  9> C -0.9911360591 -0.4170009534 0.2885114127
| 10> N -2.3330941987 -0.1360570245 -0.200291454
| 11> H 1.6778278234 -1.4420147598 0.4625959601
| 12> H 3.0525333401 -0.3130194607 0.4008094474
| 13> H 2.1413280513 -0.6861297636 -1.0875929971
| 14> H -0.4003977933 1.5973353929 -0.1703010944
| 15> H 0.0944482594 0.405298901 -1.4007764817
| 16> H -0.6549504285 -1.4431916993 0.0636192456
| 17> H -0.9893544457 -0.2884952461 1.3743272383
| 18> H -2.9881497058 -0.794953299 0.2043762927
| 19> H -2.3618296209 -0.2552718067 -1.2074052119
| 20> *
| 21>
| 22>                          ****END OF INPUT****

CARTESIAN COORDINATES (ANGSTROEM)
---------------------------------
  C      2.068285   -0.533796   -0.005373
  O      1.266487    0.592758    0.289448
  C     -0.007451    0.590116   -0.320973
  C     -0.991136   -0.417001    0.288511
  N     -2.333094   -0.136057   -0.200291
  H      1.677828   -1.442015    0.462596
  H      3.052533   -0.313019    0.400809
  H      2.141328   -0.686130   -1.087593
  H     -0.400398    1.597335   -0.170301
  H      0.094448    0.405299   -1.400776
  H     -0.654950   -1.443192    0.063619
  H     -0.989354   -0.288495    1.374327
  H     -2.988150   -0.794953    0.204376
  H     -2.361830   -0.255272   -1.207405

 Total Charge           Charge          ....    0
 Multiplicity           Mult            ....    1
 Number of Electrons    NEL             ....   42
 Basis Dimension        Dim             ....   88

ORBITAL ENERGIES
----------------

  NO   OCC          E(Eh)            E(eV)
   0   2.0000     -18.746516      -510.1186
   1   2.0000     -13.966018      -380.0347
   2   2.0000      -9.924093      -270.0483
   3   2.0000      -9.922108      -269.9943
   4   2.0000      -9.906120      -269.5592
   5   2.0000      -0.926851       -25.2209
   6   2.0000      -0.797611       -21.7041
   7   2.0000      -0.659101       -17.9350
   8   2.0000      -0.597534       -16.2597
   9   2.0000      -0.528115       -14.3707
  10   2.0000      -0.452288       -12.3074
  11   2.0000      -0.436303       -11.8724
  12   2.0000      -0.419527       -11.4159
  13   2.0000      -0.392149       -10.6709
  14   2.0000      -0.380002       -10.3404
  15   2.0000      -0.360946        -9.8218
  16   2.0000      -0.325616        -8.8605
  17   2.0000      -0.310813        -8.4576
  18   2.0000      -0.256837        -6.9889
  19   2.0000      -0.206033        -5.6064
  20   2.0000      -0.183519        -4.9938
  21   0.0000       0.030014         0.8167
  22   0.0000       0.044235         1.2037
  23   0.0000       0.072639         1.9766
  24   0.0000       0.088262         2.4017
  25   0.0000       0.100285         2.7289

MULLIKEN ATOMIC CHARGES
-----------------------
   0 C :   -0.105952
   1 O :   -0.335719
   2 C :    0.000038
   3 C :   -0.106749
   4 N :   -0.463156
   5 H :    0.093744
   6 H :    0.113821
   7 H :    0.080169
   8 H :    0.097500
   9 H :    0.058886
  10 H :    0.069993
  11 H :    0.090123
  12 H :    0.206456
  13 H :    0.200845
Sum of atomic charges:   -0.0000000

LOEWDIN ATOMIC CHARGES
----------------------
   0 C :   -0.208564
   1 O :   -0.179218
   2 C :   -0.122099
   3 C :   -0.199160
   4 N :   -0.414293
   5 H :    0.095031
   6 H :    0.115445
   7 H :    0.095631
   8 H :    0.116373
   9 H :    0.089224
  10 H :    0.088027
  11 H :    0.115885
  12 H :    0.206494
  13 H :    0.201223

  Mayer bond orders larger than 0.100000
B(  0-C ,  1-O ) :   1.0211 B(  0-C ,  5-H ) :   0.9401 B(  0-C ,  6-H ) :   0.9635
B(  0-C ,  7-H ) :   0.9391 B(  1-O ,  2-C ) :   1.0475 B(  2-C ,  3-C ) :   1.1031
B(  2-C ,  8-H ) :   0.9276 B(  2-C ,  9-H ) :   0.9178 B(  3-C ,  4-N ) :   1.0964
B(  3-C , 10-H ) :   0.9164 B(  3-C , 11-H ) :   0.9196 B(  4-N , 12-H ) :   0.9035
B(  4-N , 13-H ) :   0.9037

Dispersion correction           -0.008229612
FINAL SINGLE POINT ENERGY      -249.089949439824

DIPOLE MOMENT
-------------

Method             : SCF
Type of density    : Electron Density
Multiplicity       :   1
Irrep              :   0
Energy             :  -249.1508150543006082 Eh
Relativity type    :
Basis              : AO
                                X                 Y                 Z
Electronic contribution:      0.266020772       2.137198734       0.874554579
Nuclear contribution   :     -0.396060608      -3.013261406      -1.273038128
                        -----------------------------------------
Total Dipole Moment    :     -0.130039835      -0.876062672      -0.398483549
                        -----------------------------------------
Magnitude (a.u.)       :      0.971177277
Magnitude (Debye)      :      2.468536460

Rotational constants in cm-1:             0.491779             0.080579             0.075654
Rotational constants in MHz :         14743.165889          2415.689215          2268.043534

                             ****ORCA TERMINATED NORMALLY****
TOTAL RUN TIME: 0 days 0 hours 0 minutes 5 seconds 964 msec
