                         Program Version 6.0.0  -   RELEASE  -
|  1> ! r2scan-3c def2/J RI DEFGRID2 scfconv6 printgap
|  2> %output
|  3>     printlevel normal
|  4> end
|  5> * xyz 0 1
|  6> C 2.5278158265 0.7446428299 0.3221119991
|  7> C 1.2626050439 -0.1051428587 0.24506965
|  8> C 1.402023439 -1.1816595175 -0.8289610914
|  9> C 0.0485186786 0.7825988988 -0.0465347692
| 10> C -1.2601435627 0.0635619904 0.1285353244
| 11> O -1.4513806109 -0.8867376787 0.857221424
| 12> O -2.2280498506 0.6026239317 -0.6003592752
| 13> H 2.4479681023 1.4865331721 1.1125632594
| 14> H 2.6946714679 1.258896888 -0.6213513616
| 15> H 3.3901336684 0.1162620003 0.5280423011
| 16> H 1.0962075783 -0.59632804 1.2097386574
| 17> H 2.2568816812 -1.8186970237 -0.6176637361
| 18> H 0.5113718118 -1.8056828898 -0.8576147782
| 19> H 1.5426597616 -0.7277094907 -1.8074744677
| 20> H 0.0865737664 1.1878881234 -1.0582470597
| 21> H 0.0315077644 1.6256351682 0.6493241134
| 22> H -3.0895684099 0.1604819354 -0.4723462471
| 23> *
| 24>
| 25>                          ****END OF INPUT****

CARTESIAN COORDINATES (ANGSTROEM)
---------------------------------
  C      2.527816    0.744643    0.322112
  C      1.262605   -0.105143    0.245070
  C      1.402023   -1.181660   -0.828961
  C      0.048519    0.782599   -0.046535
  C     -1.260144    0.063562    0.128535
  O     -1.451381   -0.886738    0.857221
  O     -2.228050    0.602624   -0.600359
  H      2.447968    1.486533    1.112563
  H      2.694671    1.258897   -0.621351
  H      3.390134    0.116262    0.528042
  H      1.096208   -0.596328    1.209739
  H      2.256882   -1.818697   -0.617664
  H      0.511372   -1.805683   -0.857615
  H      1.542660   -0.727709   -1.807474
  H      0.086574    1.187888   -1.058247
  H      0.031508    1.625635    0.649324
  H     -3.089568    0.160482   -0.472346

 Total Charge           Charge          ....    0
 Multiplicity           Mult            ....    1
 Number of Electrons    NEL             ....   56
 Basis Dimension        Dim             ....  193

ORBITAL ENERGIES
----------------

  NO   OCC          E(Eh)            E(eV)
   0   2.0000     -19.003440      -517.1099
   1   2.0000     -18.935344      -515.2569
   2   2.0000     -10.162503      -276.5358
   3   2.0000     -10.046146      -273.3695
   4   2.0000     -10.041426      -273.2411
   5   2.0000     -10.020778      -272.6792
   6   2.0000     -10.016567      -272.5646
   7   2.0000      -1.078113       -29.3369
   8   2.0000      -0.979634       -26.6572
   9   2.0000      -0.786743       -21.4084
  10   2.0000      -0.701425       -19.0867
  11   2.0000      -0.654216       -17.8021
  12   2.0000      -0.599038       -16.3007
  13   2.0000      -0.529253       -14.4017
  14   2.0000      -0.470284       -12.7971
  15   2.0000      -0.451583       -12.2882
  16   2.0000      -0.446656       -12.1541
  17   2.0000      -0.414604       -11.2819
  18   2.0000      -0.402084       -10.9413
  19   2.0000      -0.379003       -10.3132
  20   2.0000      -0.360857        -9.8194
  21   2.0000      -0.356353        -9.6969
  22   2.0000      -0.340972        -9.2783
  23   2.0000      -0.309173        -8.4130
  24   2.0000      -0.305097        -8.3021
  25   2.0000      -0.300007        -8.1636
  26   2.0000      -0.292284        -7.9535
  27   2.0000      -0.242254        -6.5921
  28   0.0000      -0.020852        -0.5674
  29   0.0000       0.057185         1.5561
  30   0.0000       0.083272         2.2660
  31   0.0000       0.119982         3.2649
  32   0.0000       0.129844         3.5332

MULLIKEN ATOMIC CHARGES
-----------------------
   0 C :   -0.460798
   1 C :   -0.006602
   2 C :   -0.526601
   3 C :   -0.306285
   4 C :    0.317064
   5 O :   -0.402846
   6 O :   -0.344265
   7 H :    0.145006
   8 H :    0.144575
   9 H :    0.150801
  10 H :    0.165053
  11 H :    0.146857
  12 H :    0.164572
  13 H :    0.147176
  14 H :    0.168533
  15 H :    0.169567
  16 H :    0.328192
Sum of atomic charges:   -0.0000000

LOEWDIN ATOMIC CHARGES
----------------------
   0 C :   -0.412241
   1 C :   -0.231968
   2 C :   -0.407812
   3 C :   -0.231976
   4 C :    0.340705
   5 O :   -0.430525
   6 O :   -0.402538
   7 H :    0.152934
   8 H :    0.153897
   9 H :    0.155738
  10 H :    0.172341
  11 H :    0.155501
  12 H :    0.163549
  13 H :    0.152035
  14 H :    0.183648
  15 H :    0.187742
  16 H :    0.298972

  Mayer bond orders larger than 0.100000
B(  0-C ,  1-C ) :   0.8839 B(  0-C ,  7-H ) :   0.9812 B(  0-C ,  8-H ) :   0.9795
B(  0-C ,  9-H ) :   0.9769 B(  1-C ,  2-C ) :   0.9177 B(  1-C ,  3-C ) :   0.9077
B(  1-C , 10-H ) :   0.9471 B(  2-C , 11-H ) :   0.9705 B(  2-C , 12-H ) :   0.9646
B(  2-C , 13-H ) :   0.9878 B(  3-C ,  4-C ) :   0.9931 B(  3-C , 14-H ) :   0.9734
B(  3-C , 15-H ) :   0.9201 B(  4-C ,  5-O ) :   1.9320 B(  4-C ,  6-O ) :   1.0469
B(  6-O , 16-H ) :   0.8595

Dispersion correction           -0.004325792
FINAL SINGLE POINT ENERGY      -346.950458480233

DIPOLE MOMENT
-------------

Method             : SCF
Type of density    : Electron Density
Multiplicity       :   1
Irrep              :   0
Energy             :  -346.9553442350890577 Eh
Relativity type    :
Basis              : AO
                                X                 Y                 Z
Electronic contribution:    -10.194518673      -0.316971361       1.419697900
Nuclear contribution   :     10.235648067       0.828204532      -1.811572763
                        -----------------------------------------
Total Dipole Moment    :      0.041129395       0.511233172      -0.391874862
                        -----------------------------------------
Magnitude (a.u.)       :      0.645458667
Magnitude (Debye)      :      1.640625548

Rotational constants in cm-1:             0.164654             0.050643             0.046809
Rotational constants in MHz :          4936.198546          1518.229894          1403.297234

                             ****ORCA TERMINATED NORMALLY****
TOTAL RUN TIME: 0 days 0 hours 0 minutes 24 seconds 934 msec
