                         Program Version 6.0.0  -   RELEASE  -
|  1> ! r2scan-3c def2/J RI DEFGRID2 scfconv6 printgap
|  2> %output
|  3>     printlevel normal
|  4> end
|  5> %cpcm
|  6>     smd true
|  7>     smdsolvent "water"
|  8> end
|  9> * xyz 0 1
| 10> C 2.5278158265 0.7446428299 0.3221119991
| 11> C 1.2626050439 -0.1051428587 0.24506965
| 12> C 1.402023439 -1.1816595175 -0.8289610914
| 13> C 0.0485186786 0.7825988988 -0.0465347692
| 14> C -1.2601435627 0.0635619904 0.1285353244
| 15> O -1.4513806109 -0.8867376787 0.857221424
| 16> O -2.2280498506 0.6026239317 -0.6003592752
| 17> H 2.4479681023 1.4865331721 1.1125632594
| 18> H 2.6946714679 1.258896888 -0.6213513616
| 19> H 3.3901336684 0.1162620003 0.5280423011
| 20> H 1.0962075783 -0.59632804 1.2097386574
| 21> H 2.2568816812 -1.8186970237 -0.6176637361
| 22> H 0.5113718118 -1.8056828898 -0.8576147782
| 23> H 1.5426597616 -0.7277094907 -1.8074744677
| 24> H 0.0865737664 1.1878881234 -1.0582470597
| 25> H 0.0315077644 1.6256351682 0.6493241134
| 26> H -3.0895684099 0.1604819354 -0.4723462471
| 27> *
| 28>
| 29>                          ****END OF INPUT****

CARTESIAN COORDINATES (ANGSTROEM)
---------------------------------
  C      2.527816    0.744643    0.322112
  C      1.262605   -0.105143    0.245070
  C      1.402023   -1.181660   -0.828961
  C      0.048519    0.782599   -0.046535
  C     -1.260144    0.063562    0.128535
  O     -1.451381   -0.886738    0.857221
  O     -2.228050    0.602624   -0.600359
  H      2.447968    1.486533    1.112563
  H      2.694671    1.258897   -0.621351
  H      3.390134    0.116262    0.528042
  H      1.096208   -0.596328    1.209739
  H      2.256882   -1.818697   -0.617664
  H      0.511372   -1.805683   -0.857615
  H      1.542660   -0.727709   -1.807474
  H      0.086574    1.187888   -1.058247
  H      0.031508    1.625635    0.649324
  H     -3.089568    0.160482   -0.472346

 Total Charge           Charge          ....    0
 Multiplicity           Mult            ....    1
 Number of Electrons    NEL             ....   56
 Basis Dimension        Dim             ....  193

ORBITAL ENERGIES
----------------

  NO   OCC          E(Eh)            E(eV)
   0   2.0000     -19.000316      -517.0249
   1   2.0000     -18.944419      -515.5039
   2   2.0000     -10.167384      -276.6686
   3   2.0000     -10.035672      -273.0845
   4   2.0000     -10.033893      -273.0361
   5   2.0000     -10.009300      -272.3669
   6   2.0000     -10.008765      -272.3523
   7   2.0000      -1.077837       -29.3294
   8   2.0000      -0.986088       -26.8328
   9   2.0000      -0.778314       -21.1790
  10   2.0000      -0.693521       -18.8717
  11   2.0000      -0.645273       -17.5588
  12   2.0000      -0.590659       -16.0727
  13   2.0000      -0.521095       -14.1797
  14   2.0000      -0.470005       -12.7895
  15   2.0000      -0.454425       -12.3655
  16   2.0000      -0.446854       -12.1595
  17   2.0000      -0.408900       -11.1267
  18   2.0000      -0.393910       -10.7188
  19   2.0000      -0.375071       -10.2062
  20   2.0000      -0.356381        -9.6976
  21   2.0000      -0.348950        -9.4954
  22   2.0000      -0.332466        -9.0469
  23   2.0000      -0.302062        -8.2195
  24   2.0000      -0.299613        -8.1529
  25   2.0000      -0.294878        -8.0240
  26   2.0000      -0.291260        -7.9256
  27   2.0000      -0.252948        -6.8831
  28   0.0000      -0.023223        -0.6319
  29   0.0000       0.074802         2.0355
  30   0.0000       0.100246         2.7278
  31   0.0000       0.131949         3.5905
  32   0.0000       0.136843         3.7237

MULLIKEN ATOMIC CHARGES
-----------------------
   0 C :   -0.512468
   1 C :    0.002826
   2 C :   -0.556173
   3 C :   -0.318023
   4 C :    0.349847
   5 O :   -0.487748
   6 O :   -0.371217
   7 H :    0.159849
   8 H :    0.160143
   9 H :    0.162120
  10 H :    0.156594
  11 H :    0.161136
  12 H :    0.160523
  13 H :    0.164950
  14 H :    0.187509
  15 H :    0.202331
  16 H :    0.377800
Sum of atomic charges:   -0.0000000

LOEWDIN ATOMIC CHARGES
----------------------
   0 C :   -0.418143
   1 C :   -0.230057
   2 C :   -0.415638
   3 C :   -0.230334
   4 C :    0.352949
   5 O :   -0.492976
   6 O :   -0.395307
   7 H :    0.157319
   8 H :    0.158419
   9 H :    0.157986
  10 H :    0.167478
  11 H :    0.158143
  12 H :    0.160311
  13 H :    0.158389
  14 H :    0.192259
  15 H :    0.199877
  16 H :    0.319325

  Mayer bond orders larger than 0.100000
B(  0-C ,  1-C ) :   0.8807 B(  0-C ,  7-H ) :   0.9769 B(  0-C ,  8-H ) :   0.9791
B(  0-C ,  9-H ) :   0.9747 B(  1-C ,  2-C ) :   0.9146 B(  1-C ,  3-C ) :   0.8949
B(  1-C , 10-H ) :   0.9546 B(  2-C , 11-H ) :   0.9700 B(  2-C , 12-H ) :   0.9638
B(  2-C , 13-H ) :   0.9831 B(  3-C ,  4-C ) :   0.9978 B(  3-C , 14-H ) :   0.9645
B(  3-C , 15-H ) :   0.9098 B(  4-C ,  5-O ) :   1.8657 B(  4-C ,  6-O ) :   1.0815
B(  6-O , 16-H ) :   0.8350

Dispersion correction           -0.004325792
FINAL SINGLE POINT ENERGY      -346.959679868405

DIPOLE MOMENT
-------------

Method             : SCF
Type of density    : Electron Density
Multiplicity       :   1
Irrep              :   0
Energy             :  -346.9645656232614215 Eh
Relativity type    :
Basis              : AO
                                X                 Y                 Z
Electronic contribution:    -10.203498259      -0.023777284       1.216260132
Nuclear contribution   :     10.235648067       0.828204532      -1.811572763
                        -----------------------------------------
Total Dipole Moment    :      0.032149809       0.804427248      -0.595312631
                        -----------------------------------------
Magnitude (a.u.)       :      1.001266167
Magnitude (Debye)      :      2.545016340

Rotational constants in cm-1:             0.164654             0.050643             0.046809
Rotational constants in MHz :          4936.198546          1518.229894          1403.297234

                             ****ORCA TERMINATED NORMALLY****
TOTAL RUN TIME: 0 days 0 hours 0 minutes 29 seconds 227 msec
