                         Program Version 6.0.0  -   RELEASE  -
|  1> ! r2scan-3c def2/J RI DEFGRID2 scfconv6 printgap
|  2> %output
|  3>     printlevel normal
|  4> end
|  5> * xyz 0 1
|  6> C -2.141582601 1.3332990852 0.1608952372
|  7> C -1.9119870663 -0.1655308691 0.3452146761
|  8> C -0.5601208455 -0.6056576685 -0.1558459899
|  9> O -0.3729094926 -1.5699669743 -0.8722528323
| 10> O 0.4198242092 0.1679092702 0.2831942533
| 11> C 1.7604501708 -0.1559423126 -0.1198726975
| 12> C 2.6819631126 0.9425076172 0.373695726
| 13> H -1.3834919381 1.8989902467 0.6941954012
| 14> H -2.0981293898 1.5978451254 -0.8925876287
| 15> H -3.1203722604 1.6028346541 0.546149938
| 16> H -2.6673268246 -0.7489600338 -0.1813530026
| 17> H -1.9580641869 -0.4134948708 1.4076328755
| 18> H 2.0230454003 -1.1287367949 0.3089102826
| 19> H 1.7819698293 -0.2487915049 -1.2107352576
| 20> H 3.70305732 0.7072528541 0.0925753469
| 21> H 2.3989814735 1.8935832529 -0.0674522904
| 22> H 2.6166928025 1.0237576271 1.4545598109
| 23> *
| 24>
| 25>                          ****END OF INPUT****

CARTESIAN COORDINATES (ANGSTROEM)
---------------------------------
  C     -2.141583    1.333299    0.160895
  C     -1.911987   -0.165531    0.345215
  C     -0.560121   -0.605658   -0.155846
  O     -0.372909   -1.569967   -0.872253
  O      0.419824    0.167909    0.283194
  C      1.760450   -0.155942   -0.119873
  C      2.681963    0.942508    0.373696
  H     -1.383492    1.898990    0.694195
  H     -2.098129    1.597845   -0.892588
  H     -3.120372    1.602835    0.546150
  H     -2.667327   -0.748960   -0.181353
  H     -1.958064   -0.413495    1.407633
  H      2.023045   -1.128737    0.308910
  H      1.781970   -0.248792   -1.210735
  H      3.703057    0.707253    0.092575
  H      2.398981    1.893583   -0.067452
  H      2.616693    1.023758    1.454560

 Total Charge           Charge          ....    0
 Multiplicity           Mult            ....    1
 Number of Electrons    NEL             ....   56
 Basis Dimension        Dim             ....  193

ORBITAL ENERGIES
----------------

  NO   OCC          E(Eh)            E(eV)
   0   2.0000     -18.997178      -516.9395
   1   2.0000     -18.925585      -514.9913
   2   2.0000     -10.150380      -276.2059
   3   2.0000     -10.092390      -274.6279
   4   2.0000     -10.044051      -273.3125
   5   2.0000     -10.032923      -273.0097
   6   2.0000     -10.028608      -272.8923
   7   2.0000      -1.072740       -29.1907
   8   2.0000      -0.972429       -26.4611
   9   2.0000      -0.767488       -20.8844
  10   2.0000      -0.732684       -19.9374
  11   2.0000      -0.636489       -17.3198
  12   2.0000      -0.598131       -16.2760
  13   2.0000      -0.535413       -14.5693
  14   2.0000      -0.468456       -12.7473
  15   2.0000      -0.456604       -12.4248
  16   2.0000      -0.440056       -11.9745
  17   2.0000      -0.419303       -11.4098
  18   2.0000      -0.392386       -10.6774
  19   2.0000      -0.378615       -10.3026
  20   2.0000      -0.372549       -10.1376
  21   2.0000      -0.354075        -9.6349
  22   2.0000      -0.343220        -9.3395
  23   2.0000      -0.330889        -9.0040
  24   2.0000      -0.318026        -8.6539
  25   2.0000      -0.313067        -8.5190
  26   2.0000      -0.271666        -7.3924
  27   2.0000      -0.230400        -6.2695
  28   0.0000      -0.013681        -0.3723
  29   0.0000       0.073435         1.9983
  30   0.0000       0.094548         2.5728
  31   0.0000       0.117280         3.1914
  32   0.0000       0.123003         3.3471

MULLIKEN ATOMIC CHARGES
-----------------------
   0 C :   -0.464100
   1 C :   -0.302595
   2 C :    0.379594
   3 O :   -0.421912
   4 O :   -0.159185
   5 C :   -0.145049
   6 C :   -0.443563
   7 H :    0.162055
   8 H :    0.149322
   9 H :    0.148890
  10 H :    0.169599
  11 H :    0.160154
  12 H :    0.153695
  13 H :    0.160971
  14 H :    0.147571
  15 H :    0.152359
  16 H :    0.152194
Sum of atomic charges:    0.0000000

LOEWDIN ATOMIC CHARGES
----------------------
   0 C :   -0.397960
   1 C :   -0.236380
   2 C :    0.355436
   3 O :   -0.427015
   4 O :   -0.603915
   5 C :    0.035305
   6 C :   -0.387104
   7 H :    0.163245
   8 H :    0.155761
   9 H :    0.151534
  10 H :    0.175846
  11 H :    0.177516
  12 H :    0.177818
  13 H :    0.181688
  14 H :    0.159836
  15 H :    0.159041
  16 H :    0.159348

  Mayer bond orders larger than 0.100000
B(  0-C ,  1-C ) :   0.8943 B(  0-C ,  7-H ) :   0.9726 B(  0-C ,  8-H ) :   0.9758
B(  0-C ,  9-H ) :   0.9717 B(  1-C ,  2-C ) :   0.9885 B(  1-C , 10-H ) :   0.9863
B(  1-C , 11-H ) :   0.9430 B(  2-C ,  3-O ) :   1.8270 B(  2-C ,  4-O ) :   1.0646
B(  4-O ,  5-C ) :   0.8087 B(  5-C ,  6-C ) :   0.9405 B(  5-C , 12-H ) :   0.9517
B(  5-C , 13-H ) :   0.9561 B(  6-C , 14-H ) :   0.9679 B(  6-C , 15-H ) :   0.9731
B(  6-C , 16-H ) :   0.9710

Dispersion correction           -0.003927390
FINAL SINGLE POINT ENERGY      -346.935895461287

DIPOLE MOMENT
-------------

Method             : SCF
Type of density    : Electron Density
Multiplicity       :   1
Irrep              :   0
Energy             :  -346.9423292445662241 Eh
Relativity type    :
Basis              : AO
                                X                 Y                 Z
Electronic contribution:     -0.968835288      -5.031201068      -1.528384824
Nuclear contribution   :      1.216900086       5.781102055       2.010104282
                        -----------------------------------------
Total Dipole Moment    :      0.248064798       0.749900987       0.481719457
                        -----------------------------------------
Magnitude (a.u.)       :      0.925170941
Magnitude (Debye)      :      2.351597648

Rotational constants in cm-1:             0.144083             0.055219             0.042351
Rotational constants in MHz :          4319.495062          1655.416132          1269.652649

                             ****ORCA TERMINATED NORMALLY****
TOTAL RUN TIME: 0 days 0 hours 0 minutes 22 seconds 850 msec
