                         Program Version 6.0.0  -   RELEASE  -
|  1> ! r2scan-3c def2/J RI DEFGRID2 scfconv6 printgap
|  2> %output
|  3>     printlevel normal
|  4> end
|  5> %cpcm
|  6>     smd true
|  7>     smdsolvent "water"
|  8> end
|  9> * xyz 0 1
| 10> C -2.141582601 1.3332990852 0.1608952372
| 11> C -1.9119870663 -0.1655308691 0.3452146761
| 12> C -0.5601208455 -0.6056576685 -0.1558459899
| 13> O -0.3729094926 -1.5699669743 -0.8722528323
| 14> O 0.4198242092 0.1679092702 0.2831942533
| 15> C 1.7604501708 -0.1559423126 -0.1198726975
| 16> C 2.6819631126 0.9425076172 0.373695726
| 17> H -1.3834919381 1.8989902467 0.6941954012
| 18> H -2.0981293898 1.5978451254 -0.8925876287
| 19> H -3.1203722604 1.6028346541 0.546149938
| 20> H -2.6673268246 -0.7489600338 -0.1813530026
| 21> H -1.9580641869 -0.4134948708 1.4076328755
| 22> H 2.0230454003 -1.1287367949 0.3089102826
| 23> H 1.7819698293 -0.2487915049 -1.2107352576
| 24> H 3.70305732 0.7072528541 0.0925753469
| 25> H 2.3989814735 1.8935832529 -0.0674522904
| 26> H 2.6166928025 1.0237576271 1.4545598109
| 27> *
| 28>
| 29>                          ****END OF INPUT****

CARTESIAN COORDINATES (ANGSTROEM)
---------------------------------
  C     -2.141583    1.333299    0.160895
  C     -1.911987   -0.165531    0.345215
  C     -0.560121   -0.605658   -0.155846
  O     -0.372909   -1.569967   -0.872253
  O      0.419824    0.167909    0.283194
  C      1.760450   -0.155942   -0.119873
  C      2.681963    0.942508    0.373696
  H     -1.383492    1.898990    0.694195
  H     -2.098129    1.597845   -0.892588
  H     -3.120372    1.602835    0.546150
  H     -2.667327   -0.748960   -0.181353
  H     -1.958064   -0.413495    1.407633
  H      2.023045   -1.128737    0.308910
  H      1.781970   -0.248792   -1.210735
  H      3.703057    0.707253    0.092575
  H      2.398981    1.893583   -0.067452
  H      2.616693    1.023758    1.454560

 Total Charge           Charge          ....    0
 Multiplicity           Mult            ....    1
 Number of Electrons    NEL             ....   56
 Basis Dimension        Dim             ....  193

ORBITAL ENERGIES
----------------

  NO   OCC          E(Eh)            E(eV)
   0   2.0000     -19.002669      -517.0889
   1   2.0000     -18.942817      -515.4603
   2   2.0000     -10.161848      -276.5179
   3   2.0000     -10.084433      -274.4114
   4   2.0000     -10.038169      -273.1525
   5   2.0000     -10.019094      -272.6334
   6   2.0000     -10.018882      -272.6276
   7   2.0000      -1.080176       -29.3931
   8   2.0000      -0.987370       -26.8677
   9   2.0000      -0.762707       -20.7543
  10   2.0000      -0.723847       -19.6969
  11   2.0000      -0.630237       -17.1496
  12   2.0000      -0.591237       -16.0884
  13   2.0000      -0.533580       -14.5195
  14   2.0000      -0.467856       -12.7310
  15   2.0000      -0.455599       -12.3975
  16   2.0000      -0.450842       -12.2680
  17   2.0000      -0.417294       -11.3551
  18   2.0000      -0.388930       -10.5833
  19   2.0000      -0.374231       -10.1834
  20   2.0000      -0.360022        -9.7967
  21   2.0000      -0.349314        -9.5053
  22   2.0000      -0.335487        -9.1291
  23   2.0000      -0.324779        -8.8377
  24   2.0000      -0.317229        -8.6322
  25   2.0000      -0.311557        -8.4779
  26   2.0000      -0.277645        -7.5551
  27   2.0000      -0.247803        -6.7431
  28   0.0000      -0.022382        -0.6090
  29   0.0000       0.077698         2.1143
  30   0.0000       0.103830         2.8253
  31   0.0000       0.123171         3.3516
  32   0.0000       0.133739         3.6392

MULLIKEN ATOMIC CHARGES
-----------------------
   0 C :   -0.495414
   1 C :   -0.313739
   2 C :    0.429014
   3 O :   -0.513525
   4 O :   -0.173199
   5 C :   -0.148889
   6 C :   -0.491353
   7 H :    0.165596
   8 H :    0.164473
   9 H :    0.167178
  10 H :    0.175930
  11 H :    0.191446
  12 H :    0.171857
  13 H :    0.171354
  14 H :    0.168885
  15 H :    0.165504
  16 H :    0.164882
Sum of atomic charges:    0.0000000

LOEWDIN ATOMIC CHARGES
----------------------
   0 C :   -0.399548
   1 C :   -0.233607
   2 C :    0.366427
   3 O :   -0.492185
   4 O :   -0.603052
   5 C :    0.037420
   6 C :   -0.389830
   7 H :    0.163625
   8 H :    0.159958
   9 H :    0.158568
  10 H :    0.179182
  11 H :    0.190094
  12 H :    0.183749
  13 H :    0.185471
  14 H :    0.168380
  15 H :    0.162517
  16 H :    0.162831

  Mayer bond orders larger than 0.100000
B(  0-C ,  1-C ) :   0.8830 B(  0-C ,  7-H ) :   0.9711 B(  0-C ,  8-H ) :   0.9731
B(  0-C ,  9-H ) :   0.9668 B(  1-C ,  2-C ) :   0.9874 B(  1-C , 10-H ) :   0.9826
B(  1-C , 11-H ) :   0.9307 B(  2-C ,  3-O ) :   1.7540 B(  2-C ,  4-O ) :   1.0980
B(  4-O ,  5-C ) :   0.7942 B(  5-C ,  6-C ) :   0.9439 B(  5-C , 12-H ) :   0.9435
B(  5-C , 13-H ) :   0.9491 B(  6-C , 14-H ) :   0.9615 B(  6-C , 15-H ) :   0.9712
B(  6-C , 16-H ) :   0.9686

Dispersion correction           -0.003927390
FINAL SINGLE POINT ENERGY      -346.941752906919

DIPOLE MOMENT
-------------

Method             : SCF
Type of density    : Electron Density
Multiplicity       :   1
Irrep              :   0
Energy             :  -346.9481866901983267 Eh
Relativity type    :
Basis              : AO
                                X                 Y                 Z
Electronic contribution:     -0.925874992      -4.761018642      -1.330636190
Nuclear contribution   :      1.216900086       5.781102055       2.010104282
                        -----------------------------------------
Total Dipole Moment    :      0.291025095       1.020083413       0.679468091
                        -----------------------------------------
Magnitude (a.u.)       :      1.259739125
Magnitude (Debye)      :      3.202002388

Rotational constants in cm-1:             0.144083             0.055219             0.042351
Rotational constants in MHz :          4319.495062          1655.416132          1269.652649

                             ****ORCA TERMINATED NORMALLY****
TOTAL RUN TIME: 0 days 0 hours 0 minutes 26 seconds 685 msec
