                         Program Version 6.0.0  -   RELEASE  -
|  1> ! pbe def2-sv(p) def2/J RI DEFGRID1 loosescf d4 GCP(DFT/SV(P)) printgap
|  2> %output
|  3>     printlevel normal
|  4> end
|  5> * xyz 0 1
|  6> C 4.1951448189 -0.1266865992 -0.1171952064
|  7> N 2.7712132672 -0.3554186404 -0.2356070394
|  8> C 2.4098005912 -1.5831853666 -0.9059243453
|  9> C 1.903245589 0.5660177571 0.2059027161
| 10> O 2.2742760302 1.6522453024 0.6679130533
| 11> C 0.4475818242 0.2427358858 0.1401215455
| 12> C -0.4131262575 1.1221660107 -0.5018501687
| 13> C -1.778251891 0.8973843449 -0.5253234492
| 14> C -2.3069071539 -0.2122827937 0.1265898027
| 15> C -1.4462225534 -1.0844784619 0.7981001144
| 16> C -0.0872492182 -0.8608944447 0.8031129662
| 17> O -3.6278296702 -0.5317086807 0.1755780592
| 18> C -4.5596650639 0.3155405875 -0.4717692614
| 19> H 4.6487565376 -0.0410225967 -1.1056514027
| 20> H 4.6566096096 -0.9548987046 0.4208704134
| 21> H 4.3500393282 0.7999516002 0.4316325759
| 22> H 1.355858456 -1.5804678476 -1.1670096931
| 23> H 2.6221627663 -2.4417840855 -0.2658759884
| 24> H 3.0027907079 -1.6739960958 -1.816892967
| 25> H -0.0032034166 1.9926119811 -0.9922220673
| 26> H -2.4148359244 1.5952253245 -1.043906418
| 27> H -1.8746861827 -1.9303339956 1.3111090102
| 28> H 0.5628637077 -1.5350310521 1.3386120294
| 29> H -5.5308393678 -0.1400513168 -0.2932187691
| 30> H -4.3677336174 0.364328036 -1.5464598354
| 31> H -4.5409930816 1.3213256051 -0.0447943755
| 32> *
| 33>
| 34>                          ****END OF INPUT****

CARTESIAN COORDINATES (ANGSTROEM)
---------------------------------
  C      4.195145   -0.126687   -0.117195
  N      2.771213   -0.355419   -0.235607
  C      2.409801   -1.583185   -0.905924
  C      1.903246    0.566018    0.205903
  O      2.274276    1.652245    0.667913
  C      0.447582    0.242736    0.140122
  C     -0.413126    1.122166   -0.501850
  C     -1.778252    0.897384   -0.525323
  C     -2.306907   -0.212283    0.126590
  C     -1.446223   -1.084478    0.798100
  C     -0.087249   -0.860894    0.803113
  O     -3.627830   -0.531709    0.175578
  C     -4.559665    0.315541   -0.471769
  H      4.648757   -0.041023   -1.105651
  H      4.656610   -0.954899    0.420870
  H      4.350039    0.799952    0.431633
  H      1.355858   -1.580468   -1.167010
  H      2.622163   -2.441784   -0.265876
  H      3.002791   -1.673996   -1.816893
  H     -0.003203    1.992612   -0.992222
  H     -2.414836    1.595225   -1.043906
  H     -1.874686   -1.930334    1.311109
  H      0.562864   -1.535031    1.338612
  H     -5.530839   -0.140051   -0.293219
  H     -4.367734    0.364328   -1.546460
  H     -4.540993    1.321326   -0.044794

 Total Charge           Charge          ....    0
 Multiplicity           Mult            ....    1
 Number of Electrons    NEL             ....   96
 Basis Dimension        Dim             ....  208

ORBITAL ENERGIES
----------------

  NO   OCC          E(Eh)            E(eV)
   0   2.0000     -18.793922      -511.4086
   1   2.0000     -18.700126      -508.8563
   2   2.0000     -14.023645      -381.6028
   3   2.0000      -9.970876      -271.3213
   4   2.0000      -9.956390      -270.9271
   5   2.0000      -9.944754      -270.6105
   6   2.0000      -9.921478      -269.9771
   7   2.0000      -9.911308      -269.7004
   8   2.0000      -9.897812      -269.3331
   9   2.0000      -9.895596      -269.2729
  10   2.0000      -9.895101      -269.2594
  11   2.0000      -9.894051      -269.2308
  12   2.0000      -9.891368      -269.1578
  13   2.0000      -0.974266       -26.5111
  14   2.0000      -0.921912       -25.0865
  15   2.0000      -0.843312       -22.9477
  16   2.0000      -0.777967       -21.1695
  17   2.0000      -0.695417       -18.9233
  18   2.0000      -0.678169       -18.4539
  19   2.0000      -0.654272       -17.8036
  20   2.0000      -0.642779       -17.4909
  21   2.0000      -0.619412       -16.8551
  22   2.0000      -0.553175       -15.0527
  23   2.0000      -0.540668       -14.7123
  24   2.0000      -0.497978       -13.5507
  25   2.0000      -0.485168       -13.2021
  26   2.0000      -0.464527       -12.6404
  27   2.0000      -0.442724       -12.0471
  28   2.0000      -0.427844       -11.6422
  29   2.0000      -0.425565       -11.5802
  30   2.0000      -0.417802       -11.3690
  31   2.0000      -0.401292       -10.9197
  32   2.0000      -0.382445       -10.4069
  33   2.0000      -0.376390       -10.2421
  34   2.0000      -0.374972       -10.2035
  35   2.0000      -0.362111        -9.8536
  36   2.0000      -0.351205        -9.5568
  37   2.0000      -0.347619        -9.4592
  38   2.0000      -0.336866        -9.1666
  39   2.0000      -0.327692        -8.9170
  40   2.0000      -0.320180        -8.7125
  41   2.0000      -0.309223        -8.4144
  42   2.0000      -0.284212        -7.7338
  43   2.0000      -0.283239        -7.7073
  44   2.0000      -0.233457        -6.3527
  45   2.0000      -0.205681        -5.5969
  46   2.0000      -0.199564        -5.4304
  47   2.0000      -0.180633        -4.9153
  48   0.0000      -0.038809        -1.0561
  49   0.0000      -0.035855        -0.9757
  50   0.0000       0.017282         0.4703
  51   0.0000       0.032157         0.8750
  52   0.0000       0.043110         1.1731

MULLIKEN ATOMIC CHARGES
-----------------------
   0 C :   -0.179627
   1 N :   -0.228021
   2 C :   -0.182350
   3 C :    0.128611
   4 O :   -0.242125
   5 C :    0.011366
   6 C :   -0.078623
   7 C :   -0.190443
   8 C :    0.277271
   9 C :   -0.109854
  10 C :   -0.095697
  11 O :   -0.266032
  12 C :   -0.116250
  13 H :    0.108468
  14 H :    0.105051
  15 H :    0.143063
  16 H :    0.159988
  17 H :    0.106445
  18 H :    0.107281
  19 H :    0.052790
  20 H :    0.042208
  21 H :    0.044731
  22 H :    0.047770
  23 H :    0.127510
  24 H :    0.111681
  25 H :    0.114788
Sum of atomic charges:   -0.0000000

LOEWDIN ATOMIC CHARGES
----------------------
   0 C :   -0.254335
   1 N :   -0.046987
   2 C :   -0.250916
   3 C :    0.028979
   4 O :   -0.212834
   5 C :   -0.082903
   6 C :   -0.089575
   7 C :   -0.173210
   8 C :    0.031994
   9 C :   -0.141860
  10 C :   -0.110700
  11 O :   -0.088882
  12 C :   -0.201553
  13 H :    0.115546
  14 H :    0.115167
  15 H :    0.136831
  16 H :    0.136018
  17 H :    0.112948
  18 H :    0.116216
  19 H :    0.131097
  20 H :    0.127733
  21 H :    0.130498
  22 H :    0.125192
  23 H :    0.123562
  24 H :    0.110244
  25 H :    0.111728

  Mayer bond orders larger than 0.100000
B(  0-C ,  1-N ) :   1.0035 B(  0-C , 13-H ) :   0.9524 B(  0-C , 14-H ) :   0.9511
B(  0-C , 15-H ) :   0.9276 B(  1-N ,  2-C ) :   1.0155 B(  1-N ,  3-C ) :   1.1926
B(  2-C , 16-H ) :   0.9305 B(  2-C , 17-H ) :   0.9482 B(  2-C , 18-H ) :   0.9441
B(  3-C ,  4-O ) :   2.0289 B(  3-C ,  5-C ) :   0.9088 B(  5-C ,  6-C ) :   1.4024
B(  5-C , 10-C ) :   1.3359 B(  6-C ,  7-C ) :   1.3278 B(  6-C , 19-H ) :   0.9648
B(  7-C ,  8-C ) :   1.2828 B(  7-C , 20-H ) :   0.9653 B(  8-C ,  9-C ) :   1.3388
B(  8-C , 11-O ) :   1.1467 B(  9-C , 10-C ) :   1.3742 B(  9-C , 21-H ) :   0.9643
B( 10-C , 22-H ) :   0.9638 B( 11-O , 12-C ) :   0.9853 B( 12-C , 23-H ) :   0.9589
B( 12-C , 24-H ) :   0.9420 B( 12-C , 25-H ) :   0.9421

Dispersion correction           -0.028497124
FINAL SINGLE POINT ENERGY      -592.810803571844

DIPOLE MOMENT
-------------

Method             : SCF
Type of density    : Electron Density
Multiplicity       :   1
Irrep              :   0
Energy             :  -592.8952265141036833 Eh
Relativity type    :
Basis              : AO
                                X                 Y                 Z
Electronic contribution:     -2.801048120       3.007446612       3.593617417
Nuclear contribution   :      2.309415232      -3.948310002      -4.467435935
                        -----------------------------------------
Total Dipole Moment    :     -0.491632888      -0.940863390      -0.873818518
                        -----------------------------------------
Magnitude (a.u.)       :      1.374949314
Magnitude (Debye)      :      3.494843417

Rotational constants in cm-1:             0.076559             0.012711             0.011789
Rotational constants in MHz :          2295.168977           381.053306           353.435183

                             ****ORCA TERMINATED NORMALLY****
TOTAL RUN TIME: 0 days 0 hours 0 minutes 17 seconds 705 msec
