                         Program Version 6.0.0  -   RELEASE  -
|  1> ! r2scan-3c def2/J RI DEFGRID2 scfconv6 printgap
|  2> %output
|  3>     printlevel normal
|  4> end
|  5> * xyz 0 1
|  6> C 0.9738849811 -1.2014554558 0.5942977465
|  7> C 0.9316468559 0.2944637189 0.2917317708
|  8> C 2.2565126776 0.7441391289 -0.3235195492
|  9> C -0.2284341776 0.6507980576 -0.646053522
| 10> C -1.616459284 0.5093633555 -0.0137436114
| 11> O -2.0631433755 -0.8220843157 0.1386508113
| 12> H 1.7663148656 -1.4209065371 1.3062183159
| 13> H 1.1663507761 -1.7654823402 -0.3161630964
| 14> H 0.0290600403 -1.5328801311 1.0160178495
| 15> H 0.7853088274 0.8352858322 1.2337843391
| 16> H 2.4212472879 0.243287326 -1.2750959219
| 17> H 3.0831993383 0.5005057151 0.3392089431
| 18> H 2.2584755755 1.8181067532 -0.4945487265
| 19> H -0.1734583091 0.027401977 -1.5416075608
| 20> H -0.118920992 1.691734794 -0.9561751338
| 21> H -1.6125790716 0.9284425251 0.9957014055
| 22> H -2.3452384522 1.0721554729 -0.6139447118
| 23> H -2.1225887138 -1.2326749567 -0.7349808278
| 24> *
| 25>
| 26>                          ****END OF INPUT****

CARTESIAN COORDINATES (ANGSTROEM)
---------------------------------
  C      0.973885   -1.201455    0.594298
  C      0.931647    0.294464    0.291732
  C      2.256513    0.744139   -0.323520
  C     -0.228434    0.650798   -0.646054
  C     -1.616459    0.509363   -0.013744
  O     -2.063143   -0.822084    0.138651
  H      1.766315   -1.420907    1.306218
  H      1.166351   -1.765482   -0.316163
  H      0.029060   -1.532880    1.016018
  H      0.785309    0.835286    1.233784
  H      2.421247    0.243287   -1.275096
  H      3.083199    0.500506    0.339209
  H      2.258476    1.818107   -0.494549
  H     -0.173458    0.027402   -1.541608
  H     -0.118921    1.691735   -0.956175
  H     -1.612579    0.928443    0.995701
  H     -2.345238    1.072155   -0.613945
  H     -2.122589   -1.232675   -0.734981

 Total Charge           Charge          ....    0
 Multiplicity           Mult            ....    1
 Number of Electrons    NEL             ....   50
 Basis Dimension        Dim             ....  179

ORBITAL ENERGIES
----------------

  NO   OCC          E(Eh)            E(eV)
   0   2.0000     -18.946966      -515.5731
   1   2.0000     -10.074252      -274.1343
   2   2.0000     -10.031778      -272.9786
   3   2.0000     -10.026192      -272.8266
   4   2.0000     -10.013728      -272.4874
   5   2.0000     -10.005508      -272.2637
   6   2.0000      -0.984523       -26.7902
   7   2.0000      -0.774602       -21.0780
   8   2.0000      -0.692072       -18.8322
   9   2.0000      -0.644910       -17.5489
  10   2.0000      -0.594277       -16.1711
  11   2.0000      -0.530309       -14.4304
  12   2.0000      -0.467968       -12.7341
  13   2.0000      -0.431467       -11.7408
  14   2.0000      -0.415878       -11.3166
  15   2.0000      -0.406280       -11.0555
  16   2.0000      -0.383964       -10.4482
  17   2.0000      -0.354571        -9.6484
  18   2.0000      -0.347861        -9.4658
  19   2.0000      -0.333223        -9.0674
  20   2.0000      -0.307427        -8.3655
  21   2.0000      -0.301514        -8.2046
  22   2.0000      -0.292779        -7.9669
  23   2.0000      -0.281748        -7.6668
  24   2.0000      -0.229537        -6.2460
  25   0.0000       0.062009         1.6874
  26   0.0000       0.096706         2.6315
  27   0.0000       0.112755         3.0682
  28   0.0000       0.116419         3.1679
  29   0.0000       0.136791         3.7223

MULLIKEN ATOMIC CHARGES
-----------------------
   0 C :   -0.521188
   1 C :   -0.022362
   2 C :   -0.476622
   3 C :   -0.248779
   4 C :   -0.199636
   5 O :   -0.413049
   6 H :    0.140664
   7 H :    0.141259
   8 H :    0.188172
   9 H :    0.140586
  10 H :    0.144129
  11 H :    0.147398
  12 H :    0.142978
  13 H :    0.135258
  14 H :    0.141416
  15 H :    0.136054
  16 H :    0.130429
  17 H :    0.293295
Sum of atomic charges:   -0.0000000

LOEWDIN ATOMIC CHARGES
----------------------
   0 C :   -0.418546
   1 C :   -0.245461
   2 C :   -0.418693
   3 C :   -0.296030
   4 C :    0.000535
   5 O :   -0.626665
   6 H :    0.149774
   7 H :    0.151094
   8 H :    0.172893
   9 H :    0.155218
  10 H :    0.152994
  11 H :    0.153402
  12 H :    0.150949
  13 H :    0.159046
  14 H :    0.162707
  15 H :    0.176387
  16 H :    0.156374
  17 H :    0.264023

  Mayer bond orders larger than 0.100000
B(  0-C ,  1-C ) :   0.9085 B(  0-C ,  6-H ) :   0.9729 B(  0-C ,  7-H ) :   0.9895
B(  0-C ,  8-H ) :   0.9620 B(  1-C ,  2-C ) :   0.9072 B(  1-C ,  3-C ) :   0.8893
B(  1-C ,  9-H ) :   0.9591 B(  2-C , 10-H ) :   0.9847 B(  2-C , 11-H ) :   0.9770
B(  2-C , 12-H ) :   0.9785 B(  3-C ,  4-C ) :   0.9157 B(  3-C , 13-H ) :   0.9790
B(  3-C , 14-H ) :   0.9627 B(  4-C ,  5-O ) :   0.9734 B(  4-C , 15-H ) :   0.9803
B(  4-C , 16-H ) :   0.9817 B(  5-O , 17-H ) :   0.8971

Dispersion correction           -0.004381967
FINAL SINGLE POINT ENERGY      -272.896911246340

DIPOLE MOMENT
-------------

Method             : SCF
Type of density    : Electron Density
Multiplicity       :   1
Irrep              :   0
Energy             :  -272.9024853179050751 Eh
Relativity type    :
Basis              : AO
                                X                 Y                 Z
Electronic contribution:     -4.671609242      -0.820506823       0.473297861
Nuclear contribution   :      4.788889166       1.080738412      -0.975119640
                        -----------------------------------------
Total Dipole Moment    :      0.117279925       0.260231589      -0.501821779
                        -----------------------------------------
Magnitude (a.u.)       :      0.577321539
Magnitude (Debye)      :      1.467434733

Rotational constants in cm-1:             0.206014             0.070370             0.057423
Rotational constants in MHz :          6176.135592          2109.640290          1721.511591

                             ****ORCA TERMINATED NORMALLY****
TOTAL RUN TIME: 0 days 0 hours 0 minutes 24 seconds 723 msec
