                         Program Version 6.0.0  -   RELEASE  -
|  1> ! r2scan-3c def2/J RI DEFGRID2 scfconv6 printgap
|  2> %output
|  3>     printlevel normal
|  4> end
|  5> %cpcm
|  6>     smd true
|  7>     smdsolvent "water"
|  8> end
|  9> * xyz 0 1
| 10> C 0.9738849811 -1.2014554558 0.5942977465
| 11> C 0.9316468559 0.2944637189 0.2917317708
| 12> C 2.2565126776 0.7441391289 -0.3235195492
| 13> C -0.2284341776 0.6507980576 -0.646053522
| 14> C -1.616459284 0.5093633555 -0.0137436114
| 15> O -2.0631433755 -0.8220843157 0.1386508113
| 16> H 1.7663148656 -1.4209065371 1.3062183159
| 17> H 1.1663507761 -1.7654823402 -0.3161630964
| 18> H 0.0290600403 -1.5328801311 1.0160178495
| 19> H 0.7853088274 0.8352858322 1.2337843391
| 20> H 2.4212472879 0.243287326 -1.2750959219
| 21> H 3.0831993383 0.5005057151 0.3392089431
| 22> H 2.2584755755 1.8181067532 -0.4945487265
| 23> H -0.1734583091 0.027401977 -1.5416075608
| 24> H -0.118920992 1.691734794 -0.9561751338
| 25> H -1.6125790716 0.9284425251 0.9957014055
| 26> H -2.3452384522 1.0721554729 -0.6139447118
| 27> H -2.1225887138 -1.2326749567 -0.7349808278
| 28> *
| 29>
| 30>                          ****END OF INPUT****

CARTESIAN COORDINATES (ANGSTROEM)
---------------------------------
  C      0.973885   -1.201455    0.594298
  C      0.931647    0.294464    0.291732
  C      2.256513    0.744139   -0.323520
  C     -0.228434    0.650798   -0.646054
  C     -1.616459    0.509363   -0.013744
  O     -2.063143   -0.822084    0.138651
  H      1.766315   -1.420907    1.306218
  H      1.166351   -1.765482   -0.316163
  H      0.029060   -1.532880    1.016018
  H      0.785309    0.835286    1.233784
  H      2.421247    0.243287   -1.275096
  H      3.083199    0.500506    0.339209
  H      2.258476    1.818107   -0.494549
  H     -0.173458    0.027402   -1.541608
  H     -0.118921    1.691735   -0.956175
  H     -1.612579    0.928443    0.995701
  H     -2.345238    1.072155   -0.613945
  H     -2.122589   -1.232675   -0.734981

 Total Charge           Charge          ....    0
 Multiplicity           Mult            ....    1
 Number of Electrons    NEL             ....   50
 Basis Dimension        Dim             ....  179

ORBITAL ENERGIES
----------------

  NO   OCC          E(Eh)            E(eV)
   0   2.0000     -18.946992      -515.5739
   1   2.0000     -10.066121      -273.9131
   2   2.0000     -10.023819      -272.7620
   3   2.0000     -10.014464      -272.5074
   4   2.0000     -10.005408      -272.2610
   5   2.0000     -10.002294      -272.1763
   6   2.0000      -0.983500       -26.7624
   7   2.0000      -0.766503       -20.8576
   8   2.0000      -0.683948       -18.6112
   9   2.0000      -0.639940       -17.4137
  10   2.0000      -0.586987       -15.9727
  11   2.0000      -0.522540       -14.2190
  12   2.0000      -0.461400       -12.5553
  13   2.0000      -0.425411       -11.5760
  14   2.0000      -0.409562       -11.1448
  15   2.0000      -0.399005       -10.8575
  16   2.0000      -0.378614       -10.3026
  17   2.0000      -0.350725        -9.5437
  18   2.0000      -0.341705        -9.2983
  19   2.0000      -0.324405        -8.8275
  20   2.0000      -0.303468        -8.2578
  21   2.0000      -0.298065        -8.1108
  22   2.0000      -0.284483        -7.7412
  23   2.0000      -0.275785        -7.5045
  24   2.0000      -0.229002        -6.2315
  25   0.0000       0.078379         2.1328
  26   0.0000       0.106643         2.9019
  27   0.0000       0.124000         3.3742
  28   0.0000       0.126003         3.4287
  29   0.0000       0.143834         3.9139

MULLIKEN ATOMIC CHARGES
-----------------------
   0 C :   -0.559782
   1 C :   -0.008437
   2 C :   -0.525343
   3 C :   -0.261906
   4 C :   -0.202196
   5 O :   -0.494069
   6 H :    0.152812
   7 H :    0.159059
   8 H :    0.171918
   9 H :    0.150282
  10 H :    0.157142
  11 H :    0.156779
  12 H :    0.156539
  13 H :    0.155829
  14 H :    0.154585
  15 H :    0.148679
  16 H :    0.140373
  17 H :    0.347734
Sum of atomic charges:   -0.0000000

LOEWDIN ATOMIC CHARGES
----------------------
   0 C :   -0.427390
   1 C :   -0.243717
   2 C :   -0.427116
   3 C :   -0.294345
   4 C :    0.000077
   5 O :   -0.661552
   6 H :    0.152018
   7 H :    0.155656
   8 H :    0.165315
   9 H :    0.157678
  10 H :    0.155860
  11 H :    0.154837
  12 H :    0.154668
  13 H :    0.166340
  14 H :    0.167822
  15 H :    0.178799
  16 H :    0.162990
  17 H :    0.282061

  Mayer bond orders larger than 0.100000
B(  0-C ,  1-C ) :   0.8969 B(  0-C ,  6-H ) :   0.9724 B(  0-C ,  7-H ) :   0.9855
B(  0-C ,  8-H ) :   0.9674 B(  1-C ,  2-C ) :   0.8982 B(  1-C ,  3-C ) :   0.8883
B(  1-C ,  9-H ) :   0.9610 B(  2-C , 10-H ) :   0.9833 B(  2-C , 11-H ) :   0.9753
B(  2-C , 12-H ) :   0.9756 B(  3-C ,  4-C ) :   0.9229 B(  3-C , 13-H ) :   0.9740
B(  3-C , 14-H ) :   0.9599 B(  4-C ,  5-O ) :   0.9613 B(  4-C , 15-H ) :   0.9807
B(  4-C , 16-H ) :   0.9710 B(  5-O , 17-H ) :   0.8696

Dispersion correction           -0.004381967
FINAL SINGLE POINT ENERGY      -272.902026217584

DIPOLE MOMENT
-------------

Method             : SCF
Type of density    : Electron Density
Multiplicity       :   1
Irrep              :   0
Energy             :  -272.9076002891483199 Eh
Relativity type    :
Basis              : AO
                                X                 Y                 Z
Electronic contribution:     -4.601366458      -0.688810987       0.229693526
Nuclear contribution   :      4.788889166       1.080738412      -0.975119640
                        -----------------------------------------
Total Dipole Moment    :      0.187522709       0.391927426      -0.745426114
                        -----------------------------------------
Magnitude (a.u.)       :      0.862804708
Magnitude (Debye)      :      2.193075282

Rotational constants in cm-1:             0.206014             0.070370             0.057423
Rotational constants in MHz :          6176.135592          2109.640290          1721.511591

                             ****ORCA TERMINATED NORMALLY****
TOTAL RUN TIME: 0 days 0 hours 0 minutes 27 seconds 743 msec
