                         Program Version 6.0.0  -   RELEASE  -
|  1> ! r2scan-3c def2/J RI DEFGRID2 scfconv6 printgap
|  2> %output
|  3>     printlevel normal
|  4> end
|  5> * xyz 0 1
|  6> C 1.5911691978 0.7533590356 -0.972599737
|  7> C 1.39175574 0.1293878788 0.4072996569
|  8> C 1.6749347723 -1.3699487293 0.3716622858
|  9> C -0.0198383342 0.4368421596 0.939004818
| 10> C -1.1542143118 0.0451140497 0.020132519
| 11> O -1.1866284568 -0.9939986891 -0.6093817264
| 12> C -2.2718216763 1.0462908058 -0.0447700439
| 13> H 2.6128589198 0.6024760453 -1.3117003376
| 14> H 0.9210103446 0.292443809 -1.6955366461
| 15> H 1.3922548909 1.8223070072 -0.9448956201
| 16> H 2.1015004361 0.5951158566 1.1010795284
| 17> H 2.682993031 -1.5540942635 0.0075628676
| 18> H 0.9715713494 -1.8717872767 -0.2876980656
| 19> H 1.5838983003 -1.8017559935 1.3660394083
| 20> H -0.0981025368 1.5000580414 1.1649672916
| 21> H -0.1707581371 -0.1179131986 1.8692218461
| 22> H -3.1115939555 0.6427605992 -0.6038830873
| 23> H -2.5848550965 1.3191968618 0.9593319998
| 24> H -1.9072991876 1.9439365613 -0.5399966912
| 25> *
| 26>
| 27>                          ****END OF INPUT****

CARTESIAN COORDINATES (ANGSTROEM)
---------------------------------
  C      1.591169    0.753359   -0.972600
  C      1.391756    0.129388    0.407300
  C      1.674935   -1.369949    0.371662
  C     -0.019838    0.436842    0.939005
  C     -1.154214    0.045114    0.020133
  O     -1.186628   -0.993999   -0.609382
  C     -2.271822    1.046291   -0.044770
  H      2.612859    0.602476   -1.311700
  H      0.921010    0.292444   -1.695537
  H      1.392255    1.822307   -0.944896
  H      2.101500    0.595116    1.101080
  H      2.682993   -1.554094    0.007563
  H      0.971571   -1.871787   -0.287698
  H      1.583898   -1.801756    1.366039
  H     -0.098103    1.500058    1.164967
  H     -0.170758   -0.117913    1.869222
  H     -3.111594    0.642761   -0.603883
  H     -2.584855    1.319197    0.959332
  H     -1.907299    1.943937   -0.539997

 Total Charge           Charge          ....    0
 Multiplicity           Mult            ....    1
 Number of Electrons    NEL             ....   56
 Basis Dimension        Dim             ....  198

ORBITAL ENERGIES
----------------

  NO   OCC          E(Eh)            E(eV)
   0   2.0000     -18.937614      -515.3187
   1   2.0000     -10.120446      -275.3913
   2   2.0000     -10.041882      -273.2535
   3   2.0000     -10.037893      -273.1449
   4   2.0000     -10.033995      -273.0389
   5   2.0000     -10.016404      -272.5602
   6   2.0000     -10.006758      -272.2977
   7   2.0000      -1.004695       -27.3391
   8   2.0000      -0.781993       -21.2791
   9   2.0000      -0.727891       -19.8069
  10   2.0000      -0.665345       -18.1049
  11   2.0000      -0.647902       -17.6303
  12   2.0000      -0.548463       -14.9244
  13   2.0000      -0.486259       -13.2318
  14   2.0000      -0.450376       -12.2553
  15   2.0000      -0.437486       -11.9046
  16   2.0000      -0.421676       -11.4744
  17   2.0000      -0.398880       -10.8541
  18   2.0000      -0.395434       -10.7603
  19   2.0000      -0.382649       -10.4124
  20   2.0000      -0.360937        -9.8216
  21   2.0000      -0.346776        -9.4363
  22   2.0000      -0.340204        -9.2574
  23   2.0000      -0.321967        -8.7612
  24   2.0000      -0.303195        -8.2503
  25   2.0000      -0.299332        -8.1452
  26   2.0000      -0.298338        -8.1182
  27   2.0000      -0.210595        -5.7306
  28   0.0000      -0.047376        -1.2892
  29   0.0000       0.066183         1.8009
  30   0.0000       0.106141         2.8883
  31   0.0000       0.119289         3.2460
  32   0.0000       0.127824         3.4783

MULLIKEN ATOMIC CHARGES
-----------------------
   0 C :   -0.535474
   1 C :    0.047901
   2 C :   -0.527721
   3 C :   -0.356694
   4 C :    0.325221
   5 O :   -0.360295
   6 C :   -0.526623
   7 H :    0.147229
   8 H :    0.176829
   9 H :    0.145455
  10 H :    0.150248
  11 H :    0.139013
  12 H :    0.197807
  13 H :    0.138122
  14 H :    0.158596
  15 H :    0.174621
  16 H :    0.177245
  17 H :    0.160460
  18 H :    0.168060
Sum of atomic charges:    0.0000000

LOEWDIN ATOMIC CHARGES
----------------------
   0 C :   -0.411217
   1 C :   -0.227928
   2 C :   -0.412742
   3 C :   -0.283535
   4 C :    0.218533
   5 O :   -0.477800
   6 C :   -0.387179
   7 H :    0.155455
   8 H :    0.164896
   9 H :    0.151498
  10 H :    0.155619
  11 H :    0.150490
  12 H :    0.177897
  13 H :    0.151802
  14 H :    0.167336
  15 H :    0.187885
  16 H :    0.172899
  17 H :    0.170713
  18 H :    0.175378

  Mayer bond orders larger than 0.100000
B(  0-C ,  1-C ) :   0.8935 B(  0-C ,  7-H ) :   0.9668 B(  0-C ,  8-H ) :   0.9752
B(  0-C ,  9-H ) :   0.9772 B(  1-C ,  2-C ) :   0.9134 B(  1-C ,  3-C ) :   0.8943
B(  1-C , 10-H ) :   0.9696 B(  2-C , 11-H ) :   0.9731 B(  2-C , 12-H ) :   0.9714
B(  2-C , 13-H ) :   0.9719 B(  3-C ,  4-C ) :   0.8684 B(  3-C , 14-H ) :   0.9660
B(  3-C , 15-H ) :   0.9438 B(  4-C ,  5-O ) :   1.9225 B(  4-C ,  6-C ) :   0.9148
B(  6-C , 16-H ) :   0.9887 B(  6-C , 17-H ) :   0.9516 B(  6-C , 18-H ) :   0.9466

Dispersion correction           -0.005149969
FINAL SINGLE POINT ENERGY      -311.002473486126

DIPOLE MOMENT
-------------

Method             : SCF
Type of density    : Electron Density
Multiplicity       :   1
Irrep              :   0
Energy             :  -311.0063284347905324 Eh
Relativity type    :
Basis              : AO
                                X                 Y                 Z
Electronic contribution:     -4.037034739      -2.227503796      -0.440721378
Nuclear contribution   :      4.104205511       3.149445674       1.008393314
                        -----------------------------------------
Total Dipole Moment    :      0.067170773       0.921941878       0.567671936
                        -----------------------------------------
Magnitude (a.u.)       :      1.084776551
Magnitude (Debye)      :      2.757282869

Rotational constants in cm-1:             0.138474             0.058751             0.053381
Rotational constants in MHz :          4151.343290          1761.301491          1600.331000

                             ****ORCA TERMINATED NORMALLY****
TOTAL RUN TIME: 0 days 0 hours 0 minutes 29 seconds 49 msec
