                         Program Version 6.0.0  -   RELEASE  -
|  1> ! r2scan-3c def2/J RI DEFGRID2 scfconv6 printgap
|  2> %output
|  3>     printlevel normal
|  4> end
|  5> %cpcm
|  6>     smd true
|  7>     smdsolvent "water"
|  8> end
|  9> * xyz 0 1
| 10> C 1.5911691978 0.7533590356 -0.972599737
| 11> C 1.39175574 0.1293878788 0.4072996569
| 12> C 1.6749347723 -1.3699487293 0.3716622858
| 13> C -0.0198383342 0.4368421596 0.939004818
| 14> C -1.1542143118 0.0451140497 0.020132519
| 15> O -1.1866284568 -0.9939986891 -0.6093817264
| 16> C -2.2718216763 1.0462908058 -0.0447700439
| 17> H 2.6128589198 0.6024760453 -1.3117003376
| 18> H 0.9210103446 0.292443809 -1.6955366461
| 19> H 1.3922548909 1.8223070072 -0.9448956201
| 20> H 2.1015004361 0.5951158566 1.1010795284
| 21> H 2.682993031 -1.5540942635 0.0075628676
| 22> H 0.9715713494 -1.8717872767 -0.2876980656
| 23> H 1.5838983003 -1.8017559935 1.3660394083
| 24> H -0.0981025368 1.5000580414 1.1649672916
| 25> H -0.1707581371 -0.1179131986 1.8692218461
| 26> H -3.1115939555 0.6427605992 -0.6038830873
| 27> H -2.5848550965 1.3191968618 0.9593319998
| 28> H -1.9072991876 1.9439365613 -0.5399966912
| 29> *
| 30>
| 31>                          ****END OF INPUT****

CARTESIAN COORDINATES (ANGSTROEM)
---------------------------------
  C      1.591169    0.753359   -0.972600
  C      1.391756    0.129388    0.407300
  C      1.674935   -1.369949    0.371662
  C     -0.019838    0.436842    0.939005
  C     -1.154214    0.045114    0.020133
  O     -1.186628   -0.993999   -0.609382
  C     -2.271822    1.046291   -0.044770
  H      2.612859    0.602476   -1.311700
  H      0.921010    0.292444   -1.695537
  H      1.392255    1.822307   -0.944896
  H      2.101500    0.595116    1.101080
  H      2.682993   -1.554094    0.007563
  H      0.971571   -1.871787   -0.287698
  H      1.583898   -1.801756    1.366039
  H     -0.098103    1.500058    1.164967
  H     -0.170758   -0.117913    1.869222
  H     -3.111594    0.642761   -0.603883
  H     -2.584855    1.319197    0.959332
  H     -1.907299    1.943937   -0.539997

 Total Charge           Charge          ....    0
 Multiplicity           Mult            ....    1
 Number of Electrons    NEL             ....   56
 Basis Dimension        Dim             ....  198

ORBITAL ENERGIES
----------------

  NO   OCC          E(Eh)            E(eV)
   0   2.0000     -18.943820      -515.4875
   1   2.0000     -10.124076      -275.4901
   2   2.0000     -10.033266      -273.0190
   3   2.0000     -10.026279      -272.8289
   4   2.0000     -10.021266      -272.6925
   5   2.0000     -10.007991      -272.3313
   6   2.0000     -10.004290      -272.2306
   7   2.0000      -1.013487       -27.5784
   8   2.0000      -0.774012       -21.0619
   9   2.0000      -0.719122       -19.5683
  10   2.0000      -0.655501       -17.8371
  11   2.0000      -0.642790       -17.4912
  12   2.0000      -0.541962       -14.7475
  13   2.0000      -0.484022       -13.1709
  14   2.0000      -0.444298       -12.0900
  15   2.0000      -0.430225       -11.7070
  16   2.0000      -0.417696       -11.3661
  17   2.0000      -0.394647       -10.7389
  18   2.0000      -0.385328       -10.4853
  19   2.0000      -0.379286       -10.3209
  20   2.0000      -0.354625        -9.6498
  21   2.0000      -0.343468        -9.3462
  22   2.0000      -0.334110        -9.0916
  23   2.0000      -0.320801        -8.7294
  24   2.0000      -0.298601        -8.1253
  25   2.0000      -0.292139        -7.9495
  26   2.0000      -0.290388        -7.9019
  27   2.0000      -0.216528        -5.8920
  28   0.0000      -0.047385        -1.2894
  29   0.0000       0.077072         2.0972
  30   0.0000       0.119077         3.2402
  31   0.0000       0.132397         3.6027
  32   0.0000       0.138412         3.7664

MULLIKEN ATOMIC CHARGES
-----------------------
   0 C :   -0.562201
   1 C :    0.055236
   2 C :   -0.571319
   3 C :   -0.354374
   4 C :    0.351600
   5 O :   -0.455199
   6 C :   -0.556682
   7 H :    0.159246
   8 H :    0.168687
   9 H :    0.163546
  10 H :    0.164809
  11 H :    0.154416
  12 H :    0.177051
  13 H :    0.157936
  14 H :    0.182148
  15 H :    0.200344
  16 H :    0.176944
  17 H :    0.190028
  18 H :    0.197784
Sum of atomic charges:    0.0000000

LOEWDIN ATOMIC CHARGES
----------------------
   0 C :   -0.417127
   1 C :   -0.225146
   2 C :   -0.422358
   3 C :   -0.276527
   4 C :    0.235424
   5 O :   -0.548913
   6 C :   -0.385112
   7 H :    0.157455
   8 H :    0.160997
   9 H :    0.158524
  10 H :    0.161981
  11 H :    0.154201
  12 H :    0.167747
  13 H :    0.156727
  14 H :    0.179139
  15 H :    0.198058
  16 H :    0.171801
  17 H :    0.184312
  18 H :    0.188817

  Mayer bond orders larger than 0.100000
B(  0-C ,  1-C ) :   0.8983 B(  0-C ,  7-H ) :   0.9666 B(  0-C ,  8-H ) :   0.9753
B(  0-C ,  9-H ) :   0.9708 B(  1-C ,  2-C ) :   0.8988 B(  1-C ,  3-C ) :   0.8833
B(  1-C , 10-H ) :   0.9650 B(  2-C , 11-H ) :   0.9715 B(  2-C , 12-H ) :   0.9773
B(  2-C , 13-H ) :   0.9705 B(  3-C ,  4-C ) :   0.8855 B(  3-C , 14-H ) :   0.9554
B(  3-C , 15-H ) :   0.9375 B(  4-C ,  5-O ) :   1.8514 B(  4-C ,  6-C ) :   0.9333
B(  6-C , 16-H ) :   0.9866 B(  6-C , 17-H ) :   0.9383 B(  6-C , 18-H ) :   0.9314

Dispersion correction           -0.005149969
FINAL SINGLE POINT ENERGY      -311.007315171863

DIPOLE MOMENT
-------------

Method             : SCF
Type of density    : Electron Density
Multiplicity       :   1
Irrep              :   0
Energy             :  -311.0111701205277086 Eh
Relativity type    :
Basis              : AO
                                X                 Y                 Z
Electronic contribution:     -3.976322699      -1.717486455      -0.098555460
Nuclear contribution   :      4.104205511       3.149445674       1.008393314
                        -----------------------------------------
Total Dipole Moment    :      0.127882813       1.431959219       0.909837854
                        -----------------------------------------
Magnitude (a.u.)       :      1.701371840
Magnitude (Debye)      :      4.324543541

Rotational constants in cm-1:             0.138474             0.058751             0.053381
Rotational constants in MHz :          4151.343290          1761.301491          1600.331000

                             ****ORCA TERMINATED NORMALLY****
TOTAL RUN TIME: 0 days 0 hours 0 minutes 31 seconds 652 msec
