                         Program Version 6.0.0  -   RELEASE  -
|  1> ! r2scan-3c def2/J RI DEFGRID2 scfconv6 printgap
|  2> %output
|  3>     printlevel normal
|  4> end
|  5> * xyz 0 1
|  6> C -3.5941870046 -0.3281804574 -0.1924219291
|  7> C -2.1864398704 -0.5891041349 0.3307784384
|  8> C -1.1882535919 0.4386774604 -0.1993636301
|  9> C 0.2164916456 0.2549980265 0.3700113678
| 10> C 0.9061146554 -1.0424340494 -0.0614035913
| 11> C 2.3817571677 -0.7509174407 0.1881588385
| 12> C 2.5523161321 0.68629038 -0.3102162444
| 13> C 1.1878701511 1.3628049453 -0.0846239259
| 14> H -4.2893413622 -1.0697879715 0.1933131001
| 15> H -3.9378728867 0.6575593996 0.1130812409
| 16> H -3.6103845338 -0.3741419652 -1.2789614811
| 17> H -2.193453749 -0.5533641486 1.4225667976
| 18> H -1.8710648842 -1.5905190711 0.032829718
| 19> H -1.1470537905 0.3717591117 -1.289454167
| 20> H -1.5427559973 1.440372084 0.057862194
| 21> H 0.1521037189 0.2636971629 1.4632780581
| 22> H 0.5539324431 -1.9095329701 0.4947847692
| 23> H 0.7345132071 -1.2159159029 -1.1253479401
| 24> H 2.5891472011 -0.8050272247 1.258216069
| 25> H 3.042368102 -1.448679058 -0.3244985789
| 26> H 3.3555541096 1.2023315959 0.2137916385
| 27> H 2.7973828659 0.6806892499 -1.3725973524
| 28> H 1.25139748 2.1522005123 0.6633624727
| 29> H 0.8304166713 1.8154142198 -1.0098562634
| 30> *
| 31>
| 32>                          ****END OF INPUT****

CARTESIAN COORDINATES (ANGSTROEM)
---------------------------------
  C     -3.594187   -0.328180   -0.192422
  C     -2.186440   -0.589104    0.330778
  C     -1.188254    0.438677   -0.199364
  C      0.216492    0.254998    0.370011
  C      0.906115   -1.042434   -0.061404
  C      2.381757   -0.750917    0.188159
  C      2.552316    0.686290   -0.310216
  C      1.187870    1.362805   -0.084624
  H     -4.289341   -1.069788    0.193313
  H     -3.937873    0.657559    0.113081
  H     -3.610385   -0.374142   -1.278961
  H     -2.193454   -0.553364    1.422567
  H     -1.871065   -1.590519    0.032830
  H     -1.147054    0.371759   -1.289454
  H     -1.542756    1.440372    0.057862
  H      0.152104    0.263697    1.463278
  H      0.553932   -1.909533    0.494785
  H      0.734513   -1.215916   -1.125348
  H      2.589147   -0.805027    1.258216
  H      3.042368   -1.448679   -0.324499
  H      3.355554    1.202332    0.213792
  H      2.797383    0.680689   -1.372597
  H      1.251397    2.152201    0.663362
  H      0.830417    1.815414   -1.009856

 Total Charge           Charge          ....    0
 Multiplicity           Mult            ....    1
 Number of Electrons    NEL             ....   64
 Basis Dimension        Dim             ....  232

ORBITAL ENERGIES
----------------

  NO   OCC          E(Eh)            E(eV)
   0   2.0000     -10.023847      -272.7627
   1   2.0000     -10.020139      -272.6618
   2   2.0000     -10.017904      -272.6010
   3   2.0000     -10.017887      -272.6006
   4   2.0000     -10.017199      -272.5819
   5   2.0000     -10.016424      -272.5607
   6   2.0000     -10.015626      -272.5390
   7   2.0000     -10.012783      -272.4617
   8   2.0000      -0.804635       -21.8952
   9   2.0000      -0.749560       -20.3966
  10   2.0000      -0.687675       -18.7126
  11   2.0000      -0.670707       -18.2509
  12   2.0000      -0.617248       -16.7962
  13   2.0000      -0.552045       -15.0219
  14   2.0000      -0.528651       -14.3853
  15   2.0000      -0.515481       -14.0269
  16   2.0000      -0.448408       -12.2018
  17   2.0000      -0.433578       -11.7983
  18   2.0000      -0.428240       -11.6530
  19   2.0000      -0.389485       -10.5984
  20   2.0000      -0.381333       -10.3766
  21   2.0000      -0.370912       -10.0930
  22   2.0000      -0.350789        -9.5454
  23   2.0000      -0.339859        -9.2480
  24   2.0000      -0.315341        -8.5809
  25   2.0000      -0.301371        -8.2007
  26   2.0000      -0.300595        -8.1796
  27   2.0000      -0.295306        -8.0357
  28   2.0000      -0.287534        -7.8242
  29   2.0000      -0.278872        -7.5885
  30   2.0000      -0.275166        -7.4876
  31   2.0000      -0.270571        -7.3626
  32   0.0000       0.086197         2.3455
  33   0.0000       0.093811         2.5527
  34   0.0000       0.103374         2.8129
  35   0.0000       0.115348         3.1388
  36   0.0000       0.125316         3.4100

MULLIKEN ATOMIC CHARGES
-----------------------
   0 C :   -0.478282
   1 C :   -0.238326
   2 C :   -0.352765
   3 C :    0.040041
   4 C :   -0.382460
   5 C :   -0.279275
   6 C :   -0.287871
   7 C :   -0.404957
   8 H :    0.145203
   9 H :    0.141661
  10 H :    0.142126
  11 H :    0.139943
  12 H :    0.142969
  13 H :    0.144548
  14 H :    0.144403
  15 H :    0.157180
  16 H :    0.157632
  17 H :    0.160066
  18 H :    0.145652
  19 H :    0.151516
  20 H :    0.147367
  21 H :    0.148533
  22 H :    0.153823
  23 H :    0.161273
Sum of atomic charges:   -0.0000000

LOEWDIN ATOMIC CHARGES
----------------------
   0 C :   -0.425468
   1 C :   -0.314186
   2 C :   -0.301183
   3 C :   -0.226517
   4 C :   -0.300893
   5 C :   -0.303171
   6 C :   -0.305263
   7 C :   -0.300516
   8 H :    0.149232
   9 H :    0.149283
  10 H :    0.149402
  11 H :    0.151322
  12 H :    0.152741
  13 H :    0.155701
  14 H :    0.157365
  15 H :    0.159632
  16 H :    0.158285
  17 H :    0.158053
  18 H :    0.154654
  19 H :    0.154808
  20 H :    0.155070
  21 H :    0.154505
  22 H :    0.157797
  23 H :    0.159347

  Mayer bond orders larger than 0.100000
B(  0-C ,  1-C ) :   0.8949 B(  0-C ,  8-H ) :   0.9751 B(  0-C ,  9-H ) :   0.9855
B(  0-C , 10-H ) :   0.9848 B(  1-C ,  2-C ) :   0.8984 B(  1-C , 11-H ) :   0.9774
B(  1-C , 12-H ) :   0.9652 B(  2-C ,  3-C ) :   0.8874 B(  2-C , 13-H ) :   1.0019
B(  2-C , 14-H ) :   0.9919 B(  3-C ,  4-C ) :   0.8745 B(  3-C ,  7-C ) :   0.9163
B(  3-C , 15-H ) :   0.9436 B(  4-C ,  5-C ) :   0.8851 B(  4-C , 16-H ) :   0.9536
B(  4-C , 17-H ) :   1.0151 B(  5-C ,  6-C ) :   0.9205 B(  5-C , 18-H ) :   0.9852
B(  5-C , 19-H ) :   0.9595 B(  6-C ,  7-C ) :   0.9156 B(  6-C , 20-H ) :   0.9652
B(  6-C , 21-H ) :   0.9848 B(  7-C , 22-H ) :   0.9720 B(  7-C , 23-H ) :   1.0106

Dispersion correction           -0.006830323
FINAL SINGLE POINT ENERGY      -314.382958903631

DIPOLE MOMENT
-------------

Method             : SCF
Type of density    : Electron Density
Multiplicity       :   1
Irrep              :   0
Energy             :  -314.3862288812608767 Eh
Relativity type    :
Basis              : AO
                                X                 Y                 Z
Electronic contribution:      3.088814345       0.343478505       0.496844100
Nuclear contribution   :     -3.081970101      -0.359264822      -0.457476185
                        -----------------------------------------
Total Dipole Moment    :      0.006844244      -0.015786317       0.039367915
                        -----------------------------------------
Magnitude (a.u.)       :      0.042963755
Magnitude (Debye)      :      0.109205185

Rotational constants in cm-1:             0.173074             0.032206             0.028899
Rotational constants in MHz :          5188.629985           965.522432           866.363995

                             ****ORCA TERMINATED NORMALLY****
TOTAL RUN TIME: 0 days 0 hours 0 minutes 24 seconds 795 msec
