                         Program Version 6.0.0  -   RELEASE  -
|  1> ! r2scan-3c def2/J RI DEFGRID2 scfconv6 printgap
|  2> %output
|  3>     printlevel normal
|  4> end
|  5> %cpcm
|  6>     smd true
|  7>     smdsolvent "water"
|  8> end
|  9> * xyz 0 1
| 10> C -3.5941870046 -0.3281804574 -0.1924219291
| 11> C -2.1864398704 -0.5891041349 0.3307784384
| 12> C -1.1882535919 0.4386774604 -0.1993636301
| 13> C 0.2164916456 0.2549980265 0.3700113678
| 14> C 0.9061146554 -1.0424340494 -0.0614035913
| 15> C 2.3817571677 -0.7509174407 0.1881588385
| 16> C 2.5523161321 0.68629038 -0.3102162444
| 17> C 1.1878701511 1.3628049453 -0.0846239259
| 18> H -4.2893413622 -1.0697879715 0.1933131001
| 19> H -3.9378728867 0.6575593996 0.1130812409
| 20> H -3.6103845338 -0.3741419652 -1.2789614811
| 21> H -2.193453749 -0.5533641486 1.4225667976
| 22> H -1.8710648842 -1.5905190711 0.032829718
| 23> H -1.1470537905 0.3717591117 -1.289454167
| 24> H -1.5427559973 1.440372084 0.057862194
| 25> H 0.1521037189 0.2636971629 1.4632780581
| 26> H 0.5539324431 -1.9095329701 0.4947847692
| 27> H 0.7345132071 -1.2159159029 -1.1253479401
| 28> H 2.5891472011 -0.8050272247 1.258216069
| 29> H 3.042368102 -1.448679058 -0.3244985789
| 30> H 3.3555541096 1.2023315959 0.2137916385
| 31> H 2.7973828659 0.6806892499 -1.3725973524
| 32> H 1.25139748 2.1522005123 0.6633624727
| 33> H 0.8304166713 1.8154142198 -1.0098562634
| 34> *
| 35>
| 36>                          ****END OF INPUT****

CARTESIAN COORDINATES (ANGSTROEM)
---------------------------------
  C     -3.594187   -0.328180   -0.192422
  C     -2.186440   -0.589104    0.330778
  C     -1.188254    0.438677   -0.199364
  C      0.216492    0.254998    0.370011
  C      0.906115   -1.042434   -0.061404
  C      2.381757   -0.750917    0.188159
  C      2.552316    0.686290   -0.310216
  C      1.187870    1.362805   -0.084624
  H     -4.289341   -1.069788    0.193313
  H     -3.937873    0.657559    0.113081
  H     -3.610385   -0.374142   -1.278961
  H     -2.193454   -0.553364    1.422567
  H     -1.871065   -1.590519    0.032830
  H     -1.147054    0.371759   -1.289454
  H     -1.542756    1.440372    0.057862
  H      0.152104    0.263697    1.463278
  H      0.553932   -1.909533    0.494785
  H      0.734513   -1.215916   -1.125348
  H      2.589147   -0.805027    1.258216
  H      3.042368   -1.448679   -0.324499
  H      3.355554    1.202332    0.213792
  H      2.797383    0.680689   -1.372597
  H      1.251397    2.152201    0.663362
  H      0.830417    1.815414   -1.009856

 Total Charge           Charge          ....    0
 Multiplicity           Mult            ....    1
 Number of Electrons    NEL             ....   64
 Basis Dimension        Dim             ....  232

ORBITAL ENERGIES
----------------

  NO   OCC          E(Eh)            E(eV)
   0   2.0000     -10.016731      -272.5691
   1   2.0000     -10.013431      -272.4793
   2   2.0000     -10.011416      -272.4245
   3   2.0000     -10.010933      -272.4113
   4   2.0000     -10.010643      -272.4034
   5   2.0000     -10.009283      -272.3664
   6   2.0000     -10.009080      -272.3609
   7   2.0000     -10.006509      -272.2910
   8   2.0000      -0.797987       -21.7143
   9   2.0000      -0.743129       -20.2216
  10   2.0000      -0.681421       -18.5424
  11   2.0000      -0.664451       -18.0806
  12   2.0000      -0.611044       -16.6273
  13   2.0000      -0.545798       -14.8519
  14   2.0000      -0.522283       -14.2120
  15   2.0000      -0.508887       -13.8475
  16   2.0000      -0.441821       -12.0226
  17   2.0000      -0.427110       -11.6223
  18   2.0000      -0.421556       -11.4711
  19   2.0000      -0.382944       -10.4204
  20   2.0000      -0.374532       -10.1915
  21   2.0000      -0.364544        -9.9197
  22   2.0000      -0.344704        -9.3799
  23   2.0000      -0.333117        -9.0646
  24   2.0000      -0.308985        -8.4079
  25   2.0000      -0.294886        -8.0242
  26   2.0000      -0.294593        -8.0163
  27   2.0000      -0.288595        -7.8531
  28   2.0000      -0.280299        -7.6273
  29   2.0000      -0.272104        -7.4043
  30   2.0000      -0.268160        -7.2970
  31   2.0000      -0.264036        -7.1848
  32   0.0000       0.093736         2.5507
  33   0.0000       0.100983         2.7479
  34   0.0000       0.110752         3.0137
  35   0.0000       0.120760         3.2860
  36   0.0000       0.130003         3.5376

MULLIKEN ATOMIC CHARGES
-----------------------
   0 C :   -0.520513
   1 C :   -0.247896
   2 C :   -0.366005
   3 C :    0.039008
   4 C :   -0.397823
   5 C :   -0.300871
   6 C :   -0.303463
   7 C :   -0.423503
   8 H :    0.154805
   9 H :    0.152980
  10 H :    0.153469
  11 H :    0.148905
  12 H :    0.150148
  13 H :    0.154467
  14 H :    0.150938
  15 H :    0.165765
  16 H :    0.165069
  17 H :    0.168892
  18 H :    0.155072
  19 H :    0.158816
  20 H :    0.155079
  21 H :    0.157037
  22 H :    0.162389
  23 H :    0.167236
Sum of atomic charges:   -0.0000000

LOEWDIN ATOMIC CHARGES
----------------------
   0 C :   -0.434423
   1 C :   -0.316613
   2 C :   -0.304120
   3 C :   -0.226056
   4 C :   -0.304161
   5 C :   -0.307842
   6 C :   -0.309819
   7 C :   -0.304604
   8 H :    0.151368
   9 H :    0.151694
  10 H :    0.151785
  11 H :    0.153407
  12 H :    0.154219
  13 H :    0.158087
  14 H :    0.158573
  15 H :    0.161916
  16 H :    0.159833
  17 H :    0.160451
  18 H :    0.156732
  19 H :    0.156316
  20 H :    0.156597
  21 H :    0.156498
  22 H :    0.159553
  23 H :    0.160606

  Mayer bond orders larger than 0.100000
B(  0-C ,  1-C ) :   0.8855 B(  0-C ,  8-H ) :   0.9723 B(  0-C ,  9-H ) :   0.9833
B(  0-C , 10-H ) :   0.9827 B(  1-C ,  2-C ) :   0.8954 B(  1-C , 11-H ) :   0.9765
B(  1-C , 12-H ) :   0.9643 B(  2-C ,  3-C ) :   0.8888 B(  2-C , 13-H ) :   0.9979
B(  2-C , 14-H ) :   0.9902 B(  3-C ,  4-C ) :   0.8735 B(  3-C ,  7-C ) :   0.9150
B(  3-C , 15-H ) :   0.9444 B(  4-C ,  5-C ) :   0.8840 B(  4-C , 16-H ) :   0.9525
B(  4-C , 17-H ) :   1.0119 B(  5-C ,  6-C ) :   0.9154 B(  5-C , 18-H ) :   0.9847
B(  5-C , 19-H ) :   0.9578 B(  6-C ,  7-C ) :   0.9116 B(  6-C , 20-H ) :   0.9641
B(  6-C , 21-H ) :   0.9831 B(  7-C , 22-H ) :   0.9711 B(  7-C , 23-H ) :   1.0086

Dispersion correction           -0.006830323
FINAL SINGLE POINT ENERGY      -314.380187857511

DIPOLE MOMENT
-------------

Method             : SCF
Type of density    : Electron Density
Multiplicity       :   1
Irrep              :   0
Energy             :  -314.3834578351410300 Eh
Relativity type    :
Basis              : AO
                                X                 Y                 Z
Electronic contribution:      3.082056824       0.338259661       0.504526142
Nuclear contribution   :     -3.081970101      -0.359264822      -0.457476185
                        -----------------------------------------
Total Dipole Moment    :      0.000086724      -0.021005161       0.047049957
                        -----------------------------------------
Magnitude (a.u.)       :      0.051525943
Magnitude (Debye)      :      0.130968539

Rotational constants in cm-1:             0.173074             0.032206             0.028899
Rotational constants in MHz :          5188.629985           965.522432           866.363995

                             ****ORCA TERMINATED NORMALLY****
TOTAL RUN TIME: 0 days 0 hours 0 minutes 29 seconds 442 msec
