                         Program Version 6.0.0  -   RELEASE  -
|  1> ! r2scan-3c def2/J RI DEFGRID2 scfconv6 printgap
|  2> %output
|  3>     printlevel normal
|  4> end
|  5> * xyz 0 1
|  6> C 2.0639009768 1.0302086329 0.4817575359
|  7> C 1.4912173056 -0.0526318028 -0.4275231507
|  8> C 0.0476748366 -0.4188405792 -0.1740253828
|  9> O -0.3350802835 -1.5684102632 -0.285332804
| 10> C -0.8816846155 0.7108372042 0.185884152
| 11> C -2.3454551019 0.2884966114 0.1865117861
| 12> H 1.5628864873 1.9814535723 0.331747955
| 13> H 1.9687347057 0.7420549782 1.5256344803
| 14> H 3.1196165334 1.1634870825 0.2613164105
| 15> H 1.5408724412 0.2824783509 -1.4676949152
| 16> H 2.0835990281 -0.9670793753 -0.3541402965
| 17> H -0.7170748228 1.5321496338 -0.5129915471
| 18> H -0.5958905873 1.0621127698 1.1797671883
| 19> H -2.9797560631 1.1175416558 0.4864452702
| 20> H -2.4967480353 -0.5402955746 0.8740554589
| 21> H -2.6437185973 -0.0441036493 -0.8050191226
| 22> *
| 23>
| 24>                          ****END OF INPUT****

CARTESIAN COORDINATES (ANGSTROEM)
---------------------------------
  C      2.063901    1.030209    0.481758
  C      1.491217   -0.052632   -0.427523
  C      0.047675   -0.418841   -0.174025
  O     -0.335080   -1.568410   -0.285333
  C     -0.881685    0.710837    0.185884
  C     -2.345455    0.288497    0.186512
  H      1.562886    1.981454    0.331748
  H      1.968735    0.742055    1.525634
  H      3.119617    1.163487    0.261316
  H      1.540872    0.282478   -1.467695
  H      2.083599   -0.967079   -0.354140
  H     -0.717075    1.532150   -0.512992
  H     -0.595891    1.062113    1.179767
  H     -2.979756    1.117542    0.486445
  H     -2.496748   -0.540296    0.874055
  H     -2.643719   -0.044104   -0.805019

 Total Charge           Charge          ....    0
 Multiplicity           Mult            ....    1
 Number of Electrons    NEL             ....   48
 Basis Dimension        Dim             ....  169

ORBITAL ENERGIES
----------------

  NO   OCC          E(Eh)            E(eV)
   0   2.0000     -18.935595      -515.2637
   1   2.0000     -10.114782      -275.2372
   2   2.0000     -10.040851      -273.2254
   3   2.0000     -10.039806      -273.1970
   4   2.0000     -10.034316      -273.0476
   5   2.0000     -10.019785      -272.6522
   6   2.0000      -1.001186       -27.2436
   7   2.0000      -0.768230       -20.9046
   8   2.0000      -0.733896       -19.9703
   9   2.0000      -0.635394       -17.2900
  10   2.0000      -0.600168       -16.3314
  11   2.0000      -0.489016       -13.3068
  12   2.0000      -0.452223       -12.3056
  13   2.0000      -0.438785       -11.9399
  14   2.0000      -0.422342       -11.4925
  15   2.0000      -0.405527       -11.0349
  16   2.0000      -0.366973        -9.9858
  17   2.0000      -0.359520        -9.7830
  18   2.0000      -0.350294        -9.5320
  19   2.0000      -0.331541        -9.0217
  20   2.0000      -0.327895        -8.9225
  21   2.0000      -0.318766        -8.6741
  22   2.0000      -0.310559        -8.4507
  23   2.0000      -0.211211        -5.7473
  24   0.0000      -0.043009        -1.1703
  25   0.0000       0.079960         2.1758
  26   0.0000       0.100766         2.7420
  27   0.0000       0.120814         3.2875
  28   0.0000       0.129258         3.5173

MULLIKEN ATOMIC CHARGES
-----------------------
   0 C :   -0.467367
   1 C :   -0.293558
   2 C :    0.274365
   3 O :   -0.354400
   4 C :   -0.248331
   5 C :   -0.488720
   6 H :    0.148588
   7 H :    0.158505
   8 H :    0.153190
   9 H :    0.163588
  10 H :    0.172660
  11 H :    0.157574
  12 H :    0.164408
  13 H :    0.143157
  14 H :    0.162309
  15 H :    0.154032
Sum of atomic charges:   -0.0000000

LOEWDIN ATOMIC CHARGES
----------------------
   0 C :   -0.414670
   1 C :   -0.285171
   2 C :    0.223922
   3 O :   -0.469632
   4 C :   -0.289820
   5 C :   -0.404311
   6 H :    0.152428
   7 H :    0.154179
   8 H :    0.155282
   9 H :    0.177393
  10 H :    0.176942
  11 H :    0.171100
  12 H :    0.178519
  13 H :    0.148850
  14 H :    0.164740
  15 H :    0.160250

  Mayer bond orders larger than 0.100000
B(  0-C ,  1-C ) :   0.8615 B(  0-C ,  6-H ) :   0.9627 B(  0-C ,  7-H ) :   0.9871
B(  0-C ,  8-H ) :   0.9661 B(  1-C ,  2-C ) :   0.9354 B(  1-C ,  9-H ) :   0.9452
B(  1-C , 10-H ) :   0.9891 B(  2-C ,  3-O ) :   1.9202 B(  2-C ,  4-C ) :   0.9079
B(  4-C ,  5-C ) :   0.9234 B(  4-C , 11-H ) :   0.9488 B(  4-C , 12-H ) :   0.9208
B(  5-C , 13-H ) :   0.9743 B(  5-C , 14-H ) :   0.9756 B(  5-C , 15-H ) :   0.9788

Dispersion correction           -0.003739594
FINAL SINGLE POINT ENERGY      -271.703264102534

DIPOLE MOMENT
-------------

Method             : SCF
Type of density    : Electron Density
Multiplicity       :   1
Irrep              :   0
Energy             :  -271.7069290317102173 Eh
Relativity type    :
Basis              : AO
                                X                 Y                 Z
Electronic contribution:     -0.394894071      -4.813602852      -1.314856403
Nuclear contribution   :      0.785446744       5.915117786       1.420953812
                        -----------------------------------------
Total Dipole Moment    :      0.390552673       1.101514934       0.106097409
                        -----------------------------------------
Magnitude (a.u.)       :      1.173508927
Magnitude (Debye)      :      2.982822642

Rotational constants in cm-1:             0.196462             0.078825             0.060084
Rotational constants in MHz :          5889.786834          2363.099654          1801.276824

                             ****ORCA TERMINATED NORMALLY****
TOTAL RUN TIME: 0 days 0 hours 0 minutes 17 seconds 365 msec
