                         Program Version 6.0.0  -   RELEASE  -
|  1> ! r2scan-3c def2/J RI DEFGRID2 scfconv6 printgap
|  2> %output
|  3>     printlevel normal
|  4> end
|  5> %cpcm
|  6>     smd true
|  7>     smdsolvent "water"
|  8> end
|  9> * xyz 0 1
| 10> C 2.0639009768 1.0302086329 0.4817575359
| 11> C 1.4912173056 -0.0526318028 -0.4275231507
| 12> C 0.0476748366 -0.4188405792 -0.1740253828
| 13> O -0.3350802835 -1.5684102632 -0.285332804
| 14> C -0.8816846155 0.7108372042 0.185884152
| 15> C -2.3454551019 0.2884966114 0.1865117861
| 16> H 1.5628864873 1.9814535723 0.331747955
| 17> H 1.9687347057 0.7420549782 1.5256344803
| 18> H 3.1196165334 1.1634870825 0.2613164105
| 19> H 1.5408724412 0.2824783509 -1.4676949152
| 20> H 2.0835990281 -0.9670793753 -0.3541402965
| 21> H -0.7170748228 1.5321496338 -0.5129915471
| 22> H -0.5958905873 1.0621127698 1.1797671883
| 23> H -2.9797560631 1.1175416558 0.4864452702
| 24> H -2.4967480353 -0.5402955746 0.8740554589
| 25> H -2.6437185973 -0.0441036493 -0.8050191226
| 26> *
| 27>
| 28>                          ****END OF INPUT****

CARTESIAN COORDINATES (ANGSTROEM)
---------------------------------
  C      2.063901    1.030209    0.481758
  C      1.491217   -0.052632   -0.427523
  C      0.047675   -0.418841   -0.174025
  O     -0.335080   -1.568410   -0.285333
  C     -0.881685    0.710837    0.185884
  C     -2.345455    0.288497    0.186512
  H      1.562886    1.981454    0.331748
  H      1.968735    0.742055    1.525634
  H      3.119617    1.163487    0.261316
  H      1.540872    0.282478   -1.467695
  H      2.083599   -0.967079   -0.354140
  H     -0.717075    1.532150   -0.512992
  H     -0.595891    1.062113    1.179767
  H     -2.979756    1.117542    0.486445
  H     -2.496748   -0.540296    0.874055
  H     -2.643719   -0.044104   -0.805019

 Total Charge           Charge          ....    0
 Multiplicity           Mult            ....    1
 Number of Electrons    NEL             ....   48
 Basis Dimension        Dim             ....  169

ORBITAL ENERGIES
----------------

  NO   OCC          E(Eh)            E(eV)
   0   2.0000     -18.945160      -515.5240
   1   2.0000     -10.121001      -275.4064
   2   2.0000     -10.030135      -272.9339
   3   2.0000     -10.029853      -272.9262
   4   2.0000     -10.017314      -272.5850
   5   2.0000     -10.013646      -272.4852
   6   2.0000      -1.013346       -27.5746
   7   2.0000      -0.759008       -20.6536
   8   2.0000      -0.724040       -19.7021
   9   2.0000      -0.626408       -17.0454
  10   2.0000      -0.590718       -16.0743
  11   2.0000      -0.486524       -13.2390
  12   2.0000      -0.444068       -12.0837
  13   2.0000      -0.432385       -11.7658
  14   2.0000      -0.420745       -11.4490
  15   2.0000      -0.401526       -10.9261
  16   2.0000      -0.363279        -9.8853
  17   2.0000      -0.347408        -9.4535
  18   2.0000      -0.344690        -9.3795
  19   2.0000      -0.324938        -8.8420
  20   2.0000      -0.320256        -8.7146
  21   2.0000      -0.311233        -8.4691
  22   2.0000      -0.305724        -8.3192
  23   2.0000      -0.221290        -6.0216
  24   0.0000      -0.045188        -1.2296
  25   0.0000       0.090222         2.4551
  26   0.0000       0.112735         3.0677
  27   0.0000       0.133286         3.6269
  28   0.0000       0.147227         4.0062

MULLIKEN ATOMIC CHARGES
-----------------------
   0 C :   -0.501776
   1 C :   -0.298746
   2 C :    0.316519
   3 O :   -0.463824
   4 C :   -0.243796
   5 C :   -0.548191
   6 H :    0.165504
   7 H :    0.170590
   8 H :    0.165524
   9 H :    0.191463
  10 H :    0.173036
  11 H :    0.189592
  12 H :    0.193776
  13 H :    0.162788
  14 H :    0.162580
  15 H :    0.164960
Sum of atomic charges:   -0.0000000

LOEWDIN ATOMIC CHARGES
----------------------
   0 C :   -0.415491
   1 C :   -0.280965
   2 C :    0.243758
   3 O :   -0.548456
   4 C :   -0.283026
   5 C :   -0.414102
   6 H :    0.158730
   7 H :    0.158467
   8 H :    0.159162
   9 H :    0.190462
  10 H :    0.176717
  11 H :    0.186032
  12 H :    0.191894
  13 H :    0.156681
  14 H :    0.160590
  15 H :    0.159547

  Mayer bond orders larger than 0.100000
B(  0-C ,  1-C ) :   0.8606 B(  0-C ,  6-H ) :   0.9608 B(  0-C ,  7-H ) :   0.9824
B(  0-C ,  8-H ) :   0.9629 B(  1-C ,  2-C ) :   0.9530 B(  1-C ,  9-H ) :   0.9292
B(  1-C , 10-H ) :   0.9903 B(  2-C ,  3-O ) :   1.8416 B(  2-C ,  4-C ) :   0.9324
B(  4-C ,  5-C ) :   0.8818 B(  4-C , 11-H ) :   0.9351 B(  4-C , 12-H ) :   0.9088
B(  5-C , 13-H ) :   0.9680 B(  5-C , 14-H ) :   0.9789 B(  5-C , 15-H ) :   0.9817

Dispersion correction           -0.003739594
FINAL SINGLE POINT ENERGY      -271.710198347809

DIPOLE MOMENT
-------------

Method             : SCF
Type of density    : Electron Density
Multiplicity       :   1
Irrep              :   0
Energy             :  -271.7138632769849664 Eh
Relativity type    :
Basis              : AO
                                X                 Y                 Z
Electronic contribution:     -0.222811675      -4.248679462      -1.273725596
Nuclear contribution   :      0.785446744       5.915117786       1.420953812
                        -----------------------------------------
Total Dipole Moment    :      0.562635069       1.666438324       0.147228216
                        -----------------------------------------
Magnitude (a.u.)       :      1.765007381
Magnitude (Debye)      :      4.486292231

Rotational constants in cm-1:             0.196462             0.078825             0.060084
Rotational constants in MHz :          5889.786834          2363.099654          1801.276824

                             ****ORCA TERMINATED NORMALLY****
TOTAL RUN TIME: 0 days 0 hours 0 minutes 18 seconds 961 msec
