                         Program Version 6.0.0  -   RELEASE  -
|  1> ! pbe def2-sv(p) def2/J RI DEFGRID1 loosescf d4 GCP(DFT/SV(P)) printgap
|  2> %output
|  3>     printlevel normal
|  4> end
|  5> * xyz 0 1
|  6> C 2.2079966824 -1.1551159373 0.5321655544
|  7> C 1.5212722439 -0.2499834674 -0.4846051524
|  8> C 0.3000303208 0.5018755975 0.0806655161
|  9> H 0.3871360873 0.567520516 1.1711508275
| 10> C -1.051360674 -0.1496972395 -0.2772646483
| 11> C -1.137127274 -1.6080652046 0.1633420136
| 12> C -2.1916323826 0.6477946874 0.3568644923
| 13> O 0.3163786025 1.8575463985 -0.3450559512
| 14> H 1.5368936704 -1.9286423438 0.8924208399
| 15> H 2.5479870269 -0.571792497 1.3847355846
| 16> H 3.0724743745 -1.6337207042 0.0780916531
| 17> H 2.2425923549 0.5037096355 -0.8101435879
| 18> H 1.2263513409 -0.8292014788 -1.3619814589
| 19> H -1.1597399122 -0.1061032338 -1.3685741516
| 20> H -0.9590354175 -1.6902671891 1.2330435484
| 21> H -2.1319854376 -1.9934689442 -0.0475757837
| 22> H -0.4166691841 -2.2270206457 -0.3628347567
| 23> H -2.0904070964 1.7059029498 0.1285245596
| 24> H -2.1720187908 0.5306358689 1.4382493687
| 25> H -3.152429155 0.2987633633 -0.0127815595
| 26> H 0.2273422714 1.8779172923 -1.3080617331
| 27> *
| 28>
| 29>                          ****END OF INPUT****

CARTESIAN COORDINATES (ANGSTROEM)
---------------------------------
  C      2.207997   -1.155116    0.532166
  C      1.521272   -0.249983   -0.484605
  C      0.300030    0.501876    0.080666
  H      0.387136    0.567521    1.171151
  C     -1.051361   -0.149697   -0.277265
  C     -1.137127   -1.608065    0.163342
  C     -2.191632    0.647795    0.356864
  O      0.316379    1.857546   -0.345056
  H      1.536894   -1.928642    0.892421
  H      2.547987   -0.571792    1.384736
  H      3.072474   -1.633721    0.078092
  H      2.242592    0.503710   -0.810144
  H      1.226351   -0.829201   -1.361981
  H     -1.159740   -0.106103   -1.368574
  H     -0.959035   -1.690267    1.233044
  H     -2.131985   -1.993469   -0.047576
  H     -0.416669   -2.227021   -0.362835
  H     -2.090407    1.705903    0.128525
  H     -2.172019    0.530636    1.438249
  H     -3.152429    0.298763   -0.012782
  H      0.227342    1.877917   -1.308062

 Total Charge           Charge          ....    0
 Multiplicity           Mult            ....    1
 Number of Electrons    NEL             ....   58
 Basis Dimension        Dim             ....  126

ORBITAL ENERGIES
----------------

  NO   OCC          E(Eh)            E(eV)
   0   2.0000     -18.736557      -509.8476
   1   2.0000      -9.931139      -270.2400
   2   2.0000      -9.894253      -269.2363
   3   2.0000      -9.881733      -268.8956
   4   2.0000      -9.876058      -268.7412
   5   2.0000      -9.875443      -268.7245
   6   2.0000      -9.866059      -268.4691
   7   2.0000      -0.915486       -24.9116
   8   2.0000      -0.725835       -19.7510
   9   2.0000      -0.685912       -18.6646
  10   2.0000      -0.608589       -16.5606
  11   2.0000      -0.597911       -16.2700
  12   2.0000      -0.535240       -14.5646
  13   2.0000      -0.515276       -14.0214
  14   2.0000      -0.440478       -11.9860
  15   2.0000      -0.414231       -11.2718
  16   2.0000      -0.405709       -11.0399
  17   2.0000      -0.380198       -10.3457
  18   2.0000      -0.370540       -10.0829
  19   2.0000      -0.353889        -9.6298
  20   2.0000      -0.343174        -9.3382
  21   2.0000      -0.335721        -9.1354
  22   2.0000      -0.316407        -8.6099
  23   2.0000      -0.310564        -8.4509
  24   2.0000      -0.302877        -8.2417
  25   2.0000      -0.290067        -7.8931
  26   2.0000      -0.278550        -7.5797
  27   2.0000      -0.258485        -7.0337
  28   2.0000      -0.208432        -5.6717
  29   0.0000       0.030506         0.8301
  30   0.0000       0.041559         1.1309
  31   0.0000       0.061257         1.6669
  32   0.0000       0.066124         1.7993
  33   0.0000       0.085899         2.3374

MULLIKEN ATOMIC CHARGES
-----------------------
   0 C :   -0.295029
   1 C :   -0.152231
   2 C :    0.067496
   3 H :    0.059697
   4 C :   -0.199872
   5 C :   -0.251324
   6 C :   -0.226052
   7 O :   -0.424531
   8 H :    0.106488
   9 H :    0.106938
  10 H :    0.102738
  11 H :    0.084204
  12 H :    0.079755
  13 H :    0.053741
  14 H :    0.101302
  15 H :    0.100110
  16 H :    0.109776
  17 H :    0.101512
  18 H :    0.089258
  19 H :    0.095047
  20 H :    0.290978
Sum of atomic charges:    0.0000000

LOEWDIN ATOMIC CHARGES
----------------------
   0 C :   -0.340772
   1 C :   -0.249705
   2 C :   -0.044927
   3 H :    0.110037
   4 C :   -0.168936
   5 C :   -0.330405
   6 C :   -0.333924
   7 O :   -0.322570
   8 H :    0.116503
   9 H :    0.119932
  10 H :    0.120205
  11 H :    0.119420
  12 H :    0.112086
  13 H :    0.107340
  14 H :    0.118724
  15 H :    0.120628
  16 H :    0.117226
  17 H :    0.118587
  18 H :    0.116514
  19 H :    0.115354
  20 H :    0.278685

  Mayer bond orders larger than 0.100000
B(  0-C ,  1-C ) :   1.1500 B(  0-C ,  8-H ) :   0.9478 B(  0-C ,  9-H ) :   0.9523
B(  0-C , 10-H ) :   0.9490 B(  1-C ,  2-C ) :   1.0450 B(  1-C , 11-H ) :   0.9156
B(  1-C , 12-H ) :   0.9144 B(  2-C ,  3-H ) :   0.9018 B(  2-C ,  4-C ) :   1.0390
B(  2-C ,  7-O ) :   1.0289 B(  4-C ,  5-C ) :   1.1025 B(  4-C ,  6-C ) :   1.1123
B(  4-C , 13-H ) :   0.8848 B(  5-C , 14-H ) :   0.9438 B(  5-C , 15-H ) :   0.9448
B(  5-C , 16-H ) :   0.9383 B(  6-C , 17-H ) :   0.9375 B(  6-C , 18-H ) :   0.9500
B(  6-C , 19-H ) :   0.9501 B(  7-O , 20-H ) :   0.8527

Dispersion correction           -0.016715978
FINAL SINGLE POINT ENERGY      -311.515122540352

DIPOLE MOMENT
-------------

Method             : SCF
Type of density    : Electron Density
Multiplicity       :   1
Irrep              :   0
Energy             :  -311.5950347963811282 Eh
Relativity type    :
Basis              : AO
                                X                 Y                 Z
Electronic contribution:      0.762865960       4.697239330      -1.400815884
Nuclear contribution   :     -0.784776702      -5.128361222       0.983950547
                        -----------------------------------------
Total Dipole Moment    :     -0.021910742      -0.431121892      -0.416865337
                        -----------------------------------------
Magnitude (a.u.)       :      0.600102388
Magnitude (Debye)      :      1.525339049

Rotational constants in cm-1:             0.107511             0.066175             0.045709
Rotational constants in MHz :          3223.087129          1983.866355          1370.322482

                             ****ORCA TERMINATED NORMALLY****
TOTAL RUN TIME: 0 days 0 hours 0 minutes 9 seconds 198 msec
