                         Program Version 6.0.0  -   RELEASE  -
|  1> ! pbe def2-sv(p) def2/J RI DEFGRID1 loosescf d4 GCP(DFT/SV(P)) printgap
|  2> %output
|  3>     printlevel normal
|  4> end
|  5> * xyz 0 1
|  6> C -3.2361658259 1.1769043807 -0.1918506478
|  7> C -1.9020369029 0.7279170249 0.300844412
|  8> O -1.70218707 0.0133226601 1.2589834011
|  9> O -0.9135704042 1.2294673289 -0.4529639853
| 10> C 0.4040779641 0.8501865869 -0.2318675637
| 11> C 1.3530460648 1.8578511279 -0.1452222465
| 12> C 2.6841987028 1.53420854 0.0504071288
| 13> C 3.0680864345 0.2084463489 0.1766509286
| 14> C 2.1211546127 -0.7962048267 0.1028555697
| 15> C 0.7775208133 -0.4899656793 -0.1067880997
| 16> C -0.2310258838 -1.5714228077 -0.2748562523
| 17> O -1.0902859549 -1.5352518862 -1.1320369043
| 18> O -0.1308329913 -2.622630324 0.5274465972
| 19> H -3.9546007763 1.1615429442 0.6210654835
| 20> H -3.55084205 0.4668763949 -0.9560664033
| 21> H -3.1591537046 2.1608996278 -0.642452939
| 22> H 1.0302296122 2.8818985589 -0.2385884731
| 23> H 3.4194402956 2.3203514401 0.1072142755
| 24> H 4.1045573627 -0.0440441819 0.330136516
| 25> H 2.4262234504 -1.8295616999 0.1670062865
| 26> H 0.5433792956 -2.5280226039 1.2255303407
| 27> *
| 28>
| 29>                          ****END OF INPUT****

CARTESIAN COORDINATES (ANGSTROEM)
---------------------------------
  C     -3.236166    1.176904   -0.191851
  C     -1.902037    0.727917    0.300844
  O     -1.702187    0.013323    1.258983
  O     -0.913570    1.229467   -0.452964
  C      0.404078    0.850187   -0.231868
  C      1.353046    1.857851   -0.145222
  C      2.684199    1.534209    0.050407
  C      3.068086    0.208446    0.176651
  C      2.121155   -0.796205    0.102856
  C      0.777521   -0.489966   -0.106788
  C     -0.231026   -1.571423   -0.274856
  O     -1.090286   -1.535252   -1.132037
  O     -0.130833   -2.622630    0.527447
  H     -3.954601    1.161543    0.621065
  H     -3.550842    0.466876   -0.956066
  H     -3.159154    2.160900   -0.642453
  H      1.030230    2.881899   -0.238588
  H      3.419440    2.320351    0.107214
  H      4.104557   -0.044044    0.330137
  H      2.426223   -1.829562    0.167006
  H      0.543379   -2.528023    1.225530

 Total Charge           Charge          ....    0
 Multiplicity           Mult            ....    1
 Number of Electrons    NEL             ....   94
 Basis Dimension        Dim             ....  198

ORBITAL ENERGIES
----------------

  NO   OCC          E(Eh)            E(eV)
   0   2.0000     -18.820955      -512.1442
   1   2.0000     -18.800781      -511.5953
   2   2.0000     -18.743143      -510.0269
   3   2.0000     -18.734242      -509.7846
   4   2.0000     -10.021823      -272.7077
   5   2.0000     -10.018527      -272.6180
   6   2.0000      -9.979095      -271.5450
   7   2.0000      -9.926851      -270.1233
   8   2.0000      -9.921582      -269.9800
   9   2.0000      -9.917225      -269.8614
  10   2.0000      -9.915684      -269.8195
  11   2.0000      -9.913400      -269.7573
  12   2.0000      -9.895643      -269.2741
  13   2.0000      -1.027476       -27.9590
  14   2.0000      -1.004970       -27.3466
  15   2.0000      -0.926003       -25.1978
  16   2.0000      -0.914986       -24.8980
  17   2.0000      -0.802146       -21.8275
  18   2.0000      -0.716123       -19.4867
  19   2.0000      -0.707150       -19.2425
  20   2.0000      -0.670890       -18.2559
  21   2.0000      -0.607150       -16.5214
  22   2.0000      -0.581985       -15.8366
  23   2.0000      -0.572539       -15.5796
  24   2.0000      -0.544040       -14.8041
  25   2.0000      -0.491599       -13.3771
  26   2.0000      -0.461770       -12.5654
  27   2.0000      -0.443788       -12.0761
  28   2.0000      -0.441093       -12.0028
  29   2.0000      -0.424206       -11.5432
  30   2.0000      -0.415146       -11.2967
  31   2.0000      -0.410016       -11.1571
  32   2.0000      -0.400041       -10.8857
  33   2.0000      -0.380523       -10.3546
  34   2.0000      -0.368288       -10.0216
  35   2.0000      -0.364736        -9.9250
  36   2.0000      -0.351816        -9.5734
  37   2.0000      -0.348804        -9.4914
  38   2.0000      -0.338693        -9.2163
  39   2.0000      -0.325552        -8.8587
  40   2.0000      -0.322275        -8.7695
  41   2.0000      -0.288579        -7.8526
  42   2.0000      -0.271315        -7.3829
  43   2.0000      -0.255573        -6.9545
  44   2.0000      -0.235752        -6.4151
  45   2.0000      -0.229295        -6.2394
  46   2.0000      -0.219730        -5.9792
  47   0.0000      -0.078000        -2.1225
  48   0.0000      -0.060506        -1.6464
  49   0.0000      -0.023983        -0.6526
  50   0.0000       0.000648         0.0176
  51   0.0000       0.018199         0.4952

MULLIKEN ATOMIC CHARGES
-----------------------
   0 C :   -0.240871
   1 C :    0.108420
   2 O :   -0.200144
   3 O :   -0.200483
   4 C :    0.221897
   5 C :   -0.115067
   6 C :   -0.038675
   7 C :   -0.032405
   8 C :   -0.149092
   9 C :   -0.040105
  10 C :    0.188769
  11 O :   -0.187722
  12 O :   -0.276024
  13 H :    0.128504
  14 H :    0.152152
  15 H :    0.121849
  16 H :    0.053464
  17 H :    0.067201
  18 H :    0.062000
  19 H :    0.050086
  20 H :    0.326246
Sum of atomic charges:    0.0000000

LOEWDIN ATOMIC CHARGES
----------------------
   0 C :   -0.354372
   1 C :    0.052704
   2 O :   -0.152146
   3 O :   -0.018353
   4 C :    0.064287
   5 C :   -0.123124
   6 C :   -0.106866
   7 C :   -0.122368
   8 C :   -0.118695
   9 C :   -0.092790
  10 C :    0.037691
  11 O :   -0.153463
  12 O :   -0.183228
  13 H :    0.143738
  14 H :    0.161512
  15 H :    0.139318
  16 H :    0.136712
  17 H :    0.131227
  18 H :    0.129502
  19 H :    0.125327
  20 H :    0.303387

  Mayer bond orders larger than 0.100000
B(  0-C ,  1-C ) :   1.1016 B(  0-C , 13-H ) :   0.9358 B(  0-C , 14-H ) :   0.9125
B(  0-C , 15-H ) :   0.9302 B(  1-C ,  2-O ) :   2.0579 B(  1-C ,  3-O ) :   1.1085
B(  3-O ,  4-C ) :   1.0103 B(  4-C ,  5-C ) :   1.4032 B(  4-C ,  9-C ) :   1.3791
B(  5-C ,  6-C ) :   1.3376 B(  5-C , 16-H ) :   0.9656 B(  6-C ,  7-C ) :   1.3697
B(  6-C , 17-H ) :   0.9650 B(  7-C ,  8-C ) :   1.3745 B(  7-C , 18-H ) :   0.9657
B(  8-C ,  9-C ) :   1.3490 B(  8-C , 19-H ) :   0.9571 B(  9-C , 10-C ) :   0.8917
B( 10-C , 11-O ) :   2.0919 B( 10-C , 12-O ) :   1.2463 B( 12-O , 20-H ) :   0.8176

Dispersion correction           -0.025221522
FINAL SINGLE POINT ENERGY      -647.381529311893

DIPOLE MOMENT
-------------

Method             : SCF
Type of density    : Electron Density
Multiplicity       :   1
Irrep              :   0
Energy             :  -647.4491847553380239 Eh
Relativity type    :
Basis              : AO
                                X                 Y                 Z
Electronic contribution:      0.388844903      -3.435953282      -0.162264558
Nuclear contribution   :      0.749299835       4.262993511       0.578874784
                        -----------------------------------------
Total Dipole Moment    :      1.138144738       0.827040230       0.416610226
                        -----------------------------------------
Magnitude (a.u.)       :      1.467287656
Magnitude (Debye)      :      3.729548830

Rotational constants in cm-1:             0.041708             0.025163             0.017698
Rotational constants in MHz :          1250.363555           754.356960           530.578180

                             ****ORCA TERMINATED NORMALLY****
TOTAL RUN TIME: 0 days 0 hours 0 minutes 16 seconds 550 msec
