                         Program Version 6.0.0  -   RELEASE  -
|  1> ! pbe def2-sv(p) def2/J RI DEFGRID1 loosescf d4 GCP(DFT/SV(P)) printgap
|  2> %output
|  3>     printlevel normal
|  4> end
|  5> * xyz 0 1
|  6> C 2.5310143268 1.5660190533 0.4099013838
|  7> C 2.1280118198 0.2797825143 -0.3112239129
|  8> C 3.3779671359 -0.5478852215 -0.6107962766
|  9> C 1.1340491014 -0.5443119221 0.5246438393
| 10> C -0.3261741772 -0.3113325972 0.2363535481
| 11> C -0.8258670204 0.888929549 -0.2527507396
| 12> C -2.1807836305 1.0504502841 -0.4903496119
| 13> C -3.0645260137 0.0161748951 -0.2399368826
| 14> C -2.5813023163 -1.1847492263 0.2520157202
| 15> C -1.227844195 -1.3429342972 0.4847232827
| 16> H 3.0967549259 1.3273706593 1.3086470649
| 17> H 1.6605611447 2.1469065483 0.7034598981
| 18> H 3.1562651118 2.1828785875 -0.2321415726
| 19> H 1.6566909403 0.5361840279 -1.266092358
| 20> H 4.0940805387 0.0395890678 -1.1809028519
| 21> H 3.8544052811 -0.8642430128 0.3148219872
| 22> H 3.1245652374 -1.432820161 -1.1901385654
| 23> H 1.3111967432 -0.3429409498 1.5857522799
| 24> H 1.3342884349 -1.6070108905 0.3694646963
| 25> H -0.1614676601 1.7130174962 -0.4587164151
| 26> H -2.5466127208 1.9919359218 -0.8737055104
| 27> H -4.1203038666 0.1432635269 -0.4273986244
| 28> H -3.2604941895 -2.0010353598 0.4504137074
| 29> H -0.8605612972 -2.2856085587 0.865786597
| 30> *
| 31>
| 32>                          ****END OF INPUT****

CARTESIAN COORDINATES (ANGSTROEM)
---------------------------------
  C      2.531014    1.566019    0.409901
  C      2.128012    0.279783   -0.311224
  C      3.377967   -0.547885   -0.610796
  C      1.134049   -0.544312    0.524644
  C     -0.326174   -0.311333    0.236354
  C     -0.825867    0.888930   -0.252751
  C     -2.180784    1.050450   -0.490350
  C     -3.064526    0.016175   -0.239937
  C     -2.581302   -1.184749    0.252016
  C     -1.227844   -1.342934    0.484723
  H      3.096755    1.327371    1.308647
  H      1.660561    2.146907    0.703460
  H      3.156265    2.182879   -0.232142
  H      1.656691    0.536184   -1.266092
  H      4.094081    0.039589   -1.180903
  H      3.854405   -0.864243    0.314822
  H      3.124565   -1.432820   -1.190139
  H      1.311197   -0.342941    1.585752
  H      1.334288   -1.607011    0.369465
  H     -0.161468    1.713017   -0.458716
  H     -2.546613    1.991936   -0.873706
  H     -4.120304    0.143264   -0.427399
  H     -3.260494   -2.001035    0.450414
  H     -0.860561   -2.285609    0.865787

 Total Charge           Charge          ....    0
 Multiplicity           Mult            ....    1
 Number of Electrons    NEL             ....   74
 Basis Dimension        Dim             ....  168

ORBITAL ENERGIES
----------------

  NO   OCC          E(Eh)            E(eV)
   0   2.0000      -9.899949      -269.3913
   1   2.0000      -9.896582      -269.2997
   2   2.0000      -9.887451      -269.0512
   3   2.0000      -9.886686      -269.0304
   4   2.0000      -9.886329      -269.0207
   5   2.0000      -9.886009      -269.0120
   6   2.0000      -9.885127      -268.9880
   7   2.0000      -9.884230      -268.9636
   8   2.0000      -9.874599      -268.7015
   9   2.0000      -9.873850      -268.6811
  10   2.0000      -0.775498       -21.1024
  11   2.0000      -0.731811       -19.9136
  12   2.0000      -0.678200       -18.4548
  13   2.0000      -0.664890       -18.0926
  14   2.0000      -0.612222       -16.6594
  15   2.0000      -0.605517       -16.4770
  16   2.0000      -0.540990       -14.7211
  17   2.0000      -0.523798       -14.2533
  18   2.0000      -0.497462       -13.5366
  19   2.0000      -0.462973       -12.5981
  20   2.0000      -0.415100       -11.2954
  21   2.0000      -0.407093       -11.0776
  22   2.0000      -0.400565       -10.8999
  23   2.0000      -0.389051       -10.5866
  24   2.0000      -0.376725       -10.2512
  25   2.0000      -0.365375        -9.9424
  26   2.0000      -0.357239        -9.7210
  27   2.0000      -0.342736        -9.3263
  28   2.0000      -0.333168        -9.0660
  29   2.0000      -0.316475        -8.6117
  30   2.0000      -0.310714        -8.4550
  31   2.0000      -0.297356        -8.0915
  32   2.0000      -0.288291        -7.8448
  33   2.0000      -0.282362        -7.6835
  34   2.0000      -0.276939        -7.5359
  35   2.0000      -0.224725        -6.1151
  36   2.0000      -0.215248        -5.8572
  37   0.0000      -0.030978        -0.8430
  38   0.0000      -0.028876        -0.7857
  39   0.0000       0.037910         1.0316
  40   0.0000       0.049130         1.3369
  41   0.0000       0.065220         1.7747

MULLIKEN ATOMIC CHARGES
-----------------------
   0 C :   -0.260020
   1 C :   -0.190708
   2 C :   -0.245813
   3 C :   -0.071696
   4 C :    0.058664
   5 C :   -0.128608
   6 C :   -0.044889
   7 C :   -0.049987
   8 C :   -0.045348
   9 C :   -0.120094
  10 H :    0.095205
  11 H :    0.110162
  12 H :    0.099642
  13 H :    0.085688
  14 H :    0.097365
  15 H :    0.095404
  16 H :    0.103385
  17 H :    0.096882
  18 H :    0.081385
  19 H :    0.049691
  20 H :    0.047596
  21 H :    0.050153
  22 H :    0.049360
  23 H :    0.036579
Sum of atomic charges:   -0.0000000

LOEWDIN ATOMIC CHARGES
----------------------
   0 C :   -0.331347
   1 C :   -0.157018
   2 C :   -0.327980
   3 C :   -0.202468
   4 C :   -0.036442
   5 C :   -0.129590
   6 C :   -0.121192
   7 C :   -0.130449
   8 C :   -0.121828
   9 C :   -0.124279
  10 H :    0.117112
  11 H :    0.115908
  12 H :    0.118021
  13 H :    0.116913
  14 H :    0.117027
  15 H :    0.116362
  16 H :    0.117382
  17 H :    0.132167
  18 H :    0.122916
  19 H :    0.122605
  20 H :    0.122070
  21 H :    0.121983
  22 H :    0.122295
  23 H :    0.119835

  Mayer bond orders larger than 0.100000
B(  0-C ,  1-C ) :   1.1020 B(  0-C , 10-H ) :   0.9452 B(  0-C , 11-H ) :   0.9463
B(  0-C , 12-H ) :   0.9500 B(  1-C ,  2-C ) :   1.1158 B(  1-C ,  3-C ) :   1.0575
B(  1-C , 13-H ) :   0.9109 B(  2-C , 14-H ) :   0.9517 B(  2-C , 15-H ) :   0.9484
B(  2-C , 16-H ) :   0.9476 B(  3-C ,  4-C ) :   1.0599 B(  3-C , 17-H ) :   0.8839
B(  3-C , 18-H ) :   0.9095 B(  4-C ,  5-C ) :   1.4040 B(  4-C ,  9-C ) :   1.3856
B(  5-C ,  6-C ) :   1.3689 B(  5-C , 19-H ) :   0.9462 B(  6-C ,  7-C ) :   1.3857
B(  6-C , 20-H ) :   0.9617 B(  7-C ,  8-C ) :   1.3732 B(  7-C , 21-H ) :   0.9656
B(  8-C ,  9-C ) :   1.3805 B(  8-C , 22-H ) :   0.9628 B(  9-C , 23-H ) :   0.9611

Dispersion correction           -0.024188164
FINAL SINGLE POINT ENERGY      -388.577046381197

DIPOLE MOMENT
-------------

Method             : SCF
Type of density    : Electron Density
Multiplicity       :   1
Irrep              :   0
Energy             :  -388.6475601742814661 Eh
Relativity type    :
Basis              : AO
                                X                 Y                 Z
Electronic contribution:    -11.417018313      -1.455697081       0.040937200
Nuclear contribution   :     11.576383887       1.451800574      -0.028848312
                        -----------------------------------------
Total Dipole Moment    :      0.159365573      -0.003896507       0.012088888
                        -----------------------------------------
Magnitude (a.u.)       :      0.159870917
Magnitude (Debye)      :      0.406359576

Rotational constants in cm-1:             0.105963             0.024054             0.020989
Rotational constants in MHz :          3176.699615           721.131509           629.246043

                             ****ORCA TERMINATED NORMALLY****
TOTAL RUN TIME: 0 days 0 hours 0 minutes 12 seconds 197 msec
