                         Program Version 6.0.0  -   RELEASE  -
|  1> ! pbe def2-sv(p) def2/J RI DEFGRID1 loosescf d4 GCP(DFT/SV(P)) printgap
|  2> %output
|  3>     printlevel normal
|  4> end
|  5> * xyz 0 1
|  6> C -3.0705913693 0.7913406199 0.0575684093
|  7> C -1.5837204318 0.6848101617 0.3732026216
|  8> C -0.9247642339 -0.419591621 -0.4556582581
|  9> C 0.5454632693 -0.5868549524 -0.1743550977
| 10> O 1.1144105968 -1.6602332765 -0.1445523177
| 11> O 1.1564885988 0.5725799376 0.024791657
| 12> C 2.5619058311 0.5797265522 0.2913720393
| 13> H -3.2221367742 1.0298489174 -0.9920877645
| 14> H -3.5746633709 -0.1476035075 0.2730270173
| 15> H -3.5277969271 1.5727761273 0.6581396366
| 16> H -1.4496490995 0.4656850112 1.4340691006
| 17> H -1.0910791785 1.6342107403 0.162406645
| 18> H -1.0217759038 -0.1833696277 -1.5184258918
| 19> H -1.4068794349 -1.382393763 -0.2808748706
| 20> H 2.7220773764 1.2598807421 1.1244256099
| 21> H 3.0804053682 0.9379992426 -0.5971036193
| 22> H 2.8982321447 -0.4275458721 0.5396076996
| 23> *
| 24>
| 25>                          ****END OF INPUT****

CARTESIAN COORDINATES (ANGSTROEM)
---------------------------------
  C     -3.070591    0.791341    0.057568
  C     -1.583720    0.684810    0.373203
  C     -0.924764   -0.419592   -0.455658
  C      0.545463   -0.586855   -0.174355
  O      1.114411   -1.660233   -0.144552
  O      1.156489    0.572580    0.024792
  C      2.561906    0.579727    0.291372
  H     -3.222137    1.029849   -0.992088
  H     -3.574663   -0.147604    0.273027
  H     -3.527797    1.572776    0.658140
  H     -1.449649    0.465685    1.434069
  H     -1.091079    1.634211    0.162407
  H     -1.021776   -0.183370   -1.518426
  H     -1.406879   -1.382394   -0.280875
  H      2.722077    1.259881    1.124426
  H      3.080405    0.937999   -0.597104
  H      2.898232   -0.427546    0.539608

 Total Charge           Charge          ....    0
 Multiplicity           Mult            ....    1
 Number of Electrons    NEL             ....   56
 Basis Dimension        Dim             ....  118

ORBITAL ENERGIES
----------------

  NO   OCC          E(Eh)            E(eV)
   0   2.0000     -18.799449      -511.5590
   1   2.0000     -18.730212      -509.6750
   2   2.0000     -10.002897      -272.1927
   3   2.0000      -9.939155      -270.4582
   4   2.0000      -9.896134      -269.2875
   5   2.0000      -9.891292      -269.1557
   6   2.0000      -9.878743      -268.8143
   7   2.0000      -1.004405       -27.3313
   8   2.0000      -0.906292       -24.6614
   9   2.0000      -0.726571       -19.7710
  10   2.0000      -0.670564       -18.2470
  11   2.0000      -0.621336       -16.9074
  12   2.0000      -0.536445       -14.5974
  13   2.0000      -0.507827       -13.8187
  14   2.0000      -0.448742       -12.2109
  15   2.0000      -0.440813       -11.9951
  16   2.0000      -0.421623       -11.4729
  17   2.0000      -0.402838       -10.9618
  18   2.0000      -0.377026       -10.2594
  19   2.0000      -0.372097       -10.1253
  20   2.0000      -0.353551        -9.6206
  21   2.0000      -0.333553        -9.0764
  22   2.0000      -0.320573        -8.7232
  23   2.0000      -0.306975        -8.3532
  24   2.0000      -0.298247        -8.1157
  25   2.0000      -0.288842        -7.8598
  26   2.0000      -0.254950        -6.9376
  27   2.0000      -0.214540        -5.8379
  28   0.0000      -0.016613        -0.4520
  29   0.0000       0.037695         1.0257
  30   0.0000       0.058179         1.5831
  31   0.0000       0.077284         2.1030
  32   0.0000       0.079540         2.1644

MULLIKEN ATOMIC CHARGES
-----------------------
   0 C :   -0.256390
   1 C :   -0.212371
   2 C :   -0.162181
   3 C :    0.113556
   4 O :   -0.201089
   5 O :   -0.243838
   6 C :   -0.128233
   7 H :    0.097097
   8 H :    0.099788
   9 H :    0.105467
  10 H :    0.093505
  11 H :    0.102554
  12 H :    0.112634
  13 H :    0.102968
  14 H :    0.121858
  15 H :    0.121354
  16 H :    0.133321
Sum of atomic charges:   -0.0000000

LOEWDIN ATOMIC CHARGES
----------------------
   0 C :   -0.339986
   1 C :   -0.234167
   2 C :   -0.244062
   3 C :    0.034395
   4 O :   -0.172497
   5 O :   -0.071268
   6 C :   -0.208338
   7 H :    0.117509
   8 H :    0.117958
   9 H :    0.120777
  10 H :    0.118427
  11 H :    0.120388
  12 H :    0.141326
  13 H :    0.134818
  14 H :    0.120470
  15 H :    0.119814
  16 H :    0.124437

  Mayer bond orders larger than 0.100000
B(  0-C ,  1-C ) :   1.1557 B(  0-C ,  7-H ) :   0.9539 B(  0-C ,  8-H ) :   0.9533
B(  0-C ,  9-H ) :   0.9532 B(  1-C ,  2-C ) :   1.1174 B(  1-C , 10-H ) :   0.9344
B(  1-C , 11-H ) :   0.9180 B(  2-C ,  3-C ) :   1.0277 B(  2-C , 12-H ) :   0.8910
B(  2-C , 13-H ) :   0.9139 B(  3-C ,  4-O ) :   2.0839 B(  3-C ,  5-O ) :   1.1998
B(  5-O ,  6-C ) :   0.9374 B(  6-C , 14-H ) :   0.9608 B(  6-C , 15-H ) :   0.9606
B(  6-C , 16-H ) :   0.9299

Dispersion correction           -0.011830142
FINAL SINGLE POINT ENERGY      -346.238187290557

DIPOLE MOMENT
-------------

Method             : SCF
Type of density    : Electron Density
Multiplicity       :   1
Irrep              :   0
Energy             :  -346.3031834030869049 Eh
Relativity type    :
Basis              : AO
                                X                 Y                 Z
Electronic contribution:      6.118154124      -3.652733738      -0.699625934
Nuclear contribution   :     -6.151917016       4.449069829       0.751744885
                        -----------------------------------------
Total Dipole Moment    :     -0.033762892       0.796336090       0.052118952
                        -----------------------------------------
Magnitude (a.u.)       :      0.798753708
Magnitude (Debye)      :      2.030270579

Rotational constants in cm-1:             0.187613             0.046435             0.038948
Rotational constants in MHz :          5624.486144          1392.088992          1167.633438

                             ****ORCA TERMINATED NORMALLY****
TOTAL RUN TIME: 0 days 0 hours 0 minutes 9 seconds 119 msec
