                         Program Version 6.0.0  -   RELEASE  -
|  1> ! r2scan-3c def2/J RI DEFGRID2 scfconv6 printgap
|  2> %output
|  3>     printlevel normal
|  4> end
|  5> * xyz 0 1
|  6> C 2.0486467396 -1.1398955309 -0.0353938753
|  7> C 1.4544538823 0.2760939199 -0.0737440763
|  8> C 1.6701958631 0.9874205622 1.2573237987
|  9> C 0.0132306522 0.1634175302 -0.5428143603
| 10> O -0.2164756598 0.0342592714 -1.7310892625
| 11> C -1.1155852237 0.1519280637 0.4708230664
| 12> C -1.4998989377 -1.3115495195 0.7263255079
| 13> C -2.313950685 0.9263187979 -0.07857735
| 14> H 1.607366944 -1.7186353885 0.7717602697
| 15> H 3.1213974344 -1.081606111 0.1270309582
| 16> H 1.864434733 -1.6527843388 -0.9765733259
| 17> H 1.9745748504 0.8281516268 -0.8654257647
| 18> H 2.7362831628 1.13735282 1.41001842
| 19> H 1.1866216856 1.9610805728 1.262277848
| 20> H 1.2938709621 0.3948061005 2.0868642835
| 21> H -0.7920319416 0.6041579806 1.4074560663
| 22> H -1.7573582123 -1.7975340804 -0.2122629127
| 23> H -0.6809768683 -1.8567172776 1.1870171069
| 24> H -2.3604717 -1.3518373478 1.388529403
| 25> H -2.0580107299 1.9742260066 -0.2184424649
| 26> H -2.6104591703 0.5167336284 -1.0415559695
| 27> H -3.1526395365 0.8584360097 0.6086306625
| 28> *
| 29>
| 30>                          ****END OF INPUT****

CARTESIAN COORDINATES (ANGSTROEM)
---------------------------------
  C      2.048647   -1.139896   -0.035394
  C      1.454454    0.276094   -0.073744
  C      1.670196    0.987421    1.257324
  C      0.013231    0.163418   -0.542814
  O     -0.216476    0.034259   -1.731089
  C     -1.115585    0.151928    0.470823
  C     -1.499899   -1.311550    0.726326
  C     -2.313951    0.926319   -0.078577
  H      1.607367   -1.718635    0.771760
  H      3.121397   -1.081606    0.127031
  H      1.864435   -1.652784   -0.976573
  H      1.974575    0.828152   -0.865426
  H      2.736283    1.137353    1.410018
  H      1.186622    1.961081    1.262278
  H      1.293871    0.394806    2.086864
  H     -0.792032    0.604158    1.407456
  H     -1.757358   -1.797534   -0.212263
  H     -0.680977   -1.856717    1.187017
  H     -2.360472   -1.351837    1.388529
  H     -2.058011    1.974226   -0.218442
  H     -2.610459    0.516734   -1.041556
  H     -3.152640    0.858436    0.608631

 Total Charge           Charge          ....    0
 Multiplicity           Mult            ....    1
 Number of Electrons    NEL             ....   64
 Basis Dimension        Dim             ....  227

ORBITAL ENERGIES
----------------

  NO   OCC          E(Eh)            E(eV)
   0   2.0000     -18.932560      -515.1811
   1   2.0000     -10.111249      -275.1411
   2   2.0000     -10.045721      -273.3580
   3   2.0000     -10.043731      -273.3038
   4   2.0000     -10.030274      -272.9376
   5   2.0000     -10.029882      -272.9270
   6   2.0000     -10.029841      -272.9259
   7   2.0000     -10.018972      -272.6301
   8   2.0000      -1.000607       -27.2279
   9   2.0000      -0.784483       -21.3469
  10   2.0000      -0.760642       -20.6981
  11   2.0000      -0.664508       -18.0822
  12   2.0000      -0.656340       -17.8599
  13   2.0000      -0.617215       -16.7953
  14   2.0000      -0.567621       -15.4458
  15   2.0000      -0.483912       -13.1679
  16   2.0000      -0.458887       -12.4869
  17   2.0000      -0.433067       -11.7844
  18   2.0000      -0.419660       -11.4195
  19   2.0000      -0.402612       -10.9556
  20   2.0000      -0.397200       -10.8084
  21   2.0000      -0.378301       -10.2941
  22   2.0000      -0.366173        -9.9641
  23   2.0000      -0.360235        -9.8025
  24   2.0000      -0.349157        -9.5010
  25   2.0000      -0.348940        -9.4951
  26   2.0000      -0.332911        -9.0590
  27   2.0000      -0.316507        -8.6126
  28   2.0000      -0.308278        -8.3887
  29   2.0000      -0.304447        -8.2844
  30   2.0000      -0.299301        -8.1444
  31   2.0000      -0.207325        -5.6416
  32   0.0000      -0.049039        -1.3344
  33   0.0000       0.066143         1.7998
  34   0.0000       0.105399         2.8681
  35   0.0000       0.113749         3.0953
  36   0.0000       0.117575         3.1994

MULLIKEN ATOMIC CHARGES
-----------------------
   0 C :   -0.525043
   1 C :   -0.011025
   2 C :   -0.516978
   3 C :    0.234797
   4 O :   -0.359744
   5 C :   -0.035506
   6 C :   -0.501215
   7 C :   -0.500657
   8 H :    0.148759
   9 H :    0.151991
  10 H :    0.174393
  11 H :    0.172150
  12 H :    0.153583
  13 H :    0.158017
  14 H :    0.154441
  15 H :    0.159173
  16 H :    0.178315
  17 H :    0.141216
  18 H :    0.152548
  19 H :    0.146725
  20 H :    0.178244
  21 H :    0.145816
Sum of atomic charges:    0.0000000

LOEWDIN ATOMIC CHARGES
----------------------
   0 C :   -0.387687
   1 C :   -0.216461
   2 C :   -0.413397
   3 C :    0.239978
   4 O :   -0.474191
   5 C :   -0.219962
   6 C :   -0.385407
   7 C :   -0.391489
   8 H :    0.152355
   9 H :    0.155788
  10 H :    0.167328
  11 H :    0.181666
  12 H :    0.158270
  13 H :    0.156739
  14 H :    0.153723
  15 H :    0.165804
  16 H :    0.166701
  17 H :    0.153475
  18 H :    0.156002
  19 H :    0.157090
  20 H :    0.171879
  21 H :    0.151798

  Mayer bond orders larger than 0.100000
B(  0-C ,  1-C ) :   0.8929 B(  0-C ,  8-H ) :   0.9817 B(  0-C ,  9-H ) :   0.9682
B(  0-C , 10-H ) :   0.9671 B(  1-C ,  2-C ) :   0.8569 B(  1-C ,  3-C ) :   0.8957
B(  1-C , 11-H ) :   0.9750 B(  2-C , 12-H ) :   0.9639 B(  2-C , 13-H ) :   0.9786
B(  2-C , 14-H ) :   0.9754 B(  3-C ,  4-O ) :   1.9084 B(  3-C ,  5-C ) :   0.8646
B(  5-C ,  6-C ) :   0.8822 B(  5-C ,  7-C ) :   0.9123 B(  5-C , 15-H ) :   0.9438
B(  6-C , 16-H ) :   0.9809 B(  6-C , 17-H ) :   0.9641 B(  6-C , 18-H ) :   0.9712
B(  7-C , 19-H ) :   0.9735 B(  7-C , 20-H ) :   0.9761 B(  7-C , 21-H ) :   0.9778

Dispersion correction           -0.006540647
FINAL SINGLE POINT ENERGY      -350.300656404910

DIPOLE MOMENT
-------------

Method             : SCF
Type of density    : Electron Density
Multiplicity       :   1
Irrep              :   0
Energy             :  -350.3046395491875842 Eh
Relativity type    :
Basis              : AO
                                X                 Y                 Z
Electronic contribution:     -0.094786943       1.146644331      -5.434900026
Nuclear contribution   :      0.346350261      -1.110438293       6.480796766
                        -----------------------------------------
Total Dipole Moment    :      0.251563319       0.036206038       1.045896740
                        -----------------------------------------
Magnitude (a.u.)       :      1.076334043
Magnitude (Debye)      :      2.735823717

Rotational constants in cm-1:             0.092697             0.046252             0.044785
Rotational constants in MHz :          2778.975111          1386.597402          1342.628602

                             ****ORCA TERMINATED NORMALLY****
TOTAL RUN TIME: 0 days 0 hours 0 minutes 38 seconds 797 msec
