                         Program Version 6.0.0  -   RELEASE  -
|  1> ! r2scan-3c def2/J RI DEFGRID2 scfconv6 printgap
|  2> %output
|  3>     printlevel normal
|  4> end
|  5> %cpcm
|  6>     smd true
|  7>     smdsolvent "water"
|  8> end
|  9> * xyz 0 1
| 10> C 2.0486467396 -1.1398955309 -0.0353938753
| 11> C 1.4544538823 0.2760939199 -0.0737440763
| 12> C 1.6701958631 0.9874205622 1.2573237987
| 13> C 0.0132306522 0.1634175302 -0.5428143603
| 14> O -0.2164756598 0.0342592714 -1.7310892625
| 15> C -1.1155852237 0.1519280637 0.4708230664
| 16> C -1.4998989377 -1.3115495195 0.7263255079
| 17> C -2.313950685 0.9263187979 -0.07857735
| 18> H 1.607366944 -1.7186353885 0.7717602697
| 19> H 3.1213974344 -1.081606111 0.1270309582
| 20> H 1.864434733 -1.6527843388 -0.9765733259
| 21> H 1.9745748504 0.8281516268 -0.8654257647
| 22> H 2.7362831628 1.13735282 1.41001842
| 23> H 1.1866216856 1.9610805728 1.262277848
| 24> H 1.2938709621 0.3948061005 2.0868642835
| 25> H -0.7920319416 0.6041579806 1.4074560663
| 26> H -1.7573582123 -1.7975340804 -0.2122629127
| 27> H -0.6809768683 -1.8567172776 1.1870171069
| 28> H -2.3604717 -1.3518373478 1.388529403
| 29> H -2.0580107299 1.9742260066 -0.2184424649
| 30> H -2.6104591703 0.5167336284 -1.0415559695
| 31> H -3.1526395365 0.8584360097 0.6086306625
| 32> *
| 33>
| 34>                          ****END OF INPUT****

CARTESIAN COORDINATES (ANGSTROEM)
---------------------------------
  C      2.048647   -1.139896   -0.035394
  C      1.454454    0.276094   -0.073744
  C      1.670196    0.987421    1.257324
  C      0.013231    0.163418   -0.542814
  O     -0.216476    0.034259   -1.731089
  C     -1.115585    0.151928    0.470823
  C     -1.499899   -1.311550    0.726326
  C     -2.313951    0.926319   -0.078577
  H      1.607367   -1.718635    0.771760
  H      3.121397   -1.081606    0.127031
  H      1.864435   -1.652784   -0.976573
  H      1.974575    0.828152   -0.865426
  H      2.736283    1.137353    1.410018
  H      1.186622    1.961081    1.262278
  H      1.293871    0.394806    2.086864
  H     -0.792032    0.604158    1.407456
  H     -1.757358   -1.797534   -0.212263
  H     -0.680977   -1.856717    1.187017
  H     -2.360472   -1.351837    1.388529
  H     -2.058011    1.974226   -0.218442
  H     -2.610459    0.516734   -1.041556
  H     -3.152640    0.858436    0.608631

 Total Charge           Charge          ....    0
 Multiplicity           Mult            ....    1
 Number of Electrons    NEL             ....   64
 Basis Dimension        Dim             ....  227

ORBITAL ENERGIES
----------------

  NO   OCC          E(Eh)            E(eV)
   0   2.0000     -18.944195      -515.4978
   1   2.0000     -10.118339      -275.3340
   2   2.0000     -10.038203      -273.1534
   3   2.0000     -10.036527      -273.1078
   4   2.0000     -10.018810      -272.6257
   5   2.0000     -10.018611      -272.6203
   6   2.0000     -10.014112      -272.4979
   7   2.0000     -10.013176      -272.4724
   8   2.0000      -1.013704       -27.5843
   9   2.0000      -0.776827       -21.1385
  10   2.0000      -0.751976       -20.4623
  11   2.0000      -0.652195       -17.7471
  12   2.0000      -0.647498       -17.6193
  13   2.0000      -0.611419       -16.6376
  14   2.0000      -0.559947       -15.2369
  15   2.0000      -0.480585       -13.0774
  16   2.0000      -0.451639       -12.2897
  17   2.0000      -0.431230       -11.7344
  18   2.0000      -0.414772       -11.2865
  19   2.0000      -0.402572       -10.9545
  20   2.0000      -0.388300       -10.5662
  21   2.0000      -0.368177       -10.0186
  22   2.0000      -0.355425        -9.6716
  23   2.0000      -0.351516        -9.5652
  24   2.0000      -0.344872        -9.3845
  25   2.0000      -0.340217        -9.2578
  26   2.0000      -0.328260        -8.9324
  27   2.0000      -0.306400        -8.3376
  28   2.0000      -0.301735        -8.2106
  29   2.0000      -0.298207        -8.1146
  30   2.0000      -0.294661        -8.0181
  31   2.0000      -0.217224        -5.9110
  32   0.0000      -0.052719        -1.4346
  33   0.0000       0.077926         2.1205
  34   0.0000       0.115797         3.1510
  35   0.0000       0.126331         3.4376
  36   0.0000       0.129623         3.5272

MULLIKEN ATOMIC CHARGES
-----------------------
   0 C :   -0.556558
   1 C :    0.000025
   2 C :   -0.556888
   3 C :    0.264560
   4 O :   -0.461692
   5 C :    0.001818
   6 C :   -0.546252
   7 C :   -0.549502
   8 H :    0.175604
   9 H :    0.170760
  10 H :    0.168974
  11 H :    0.179810
  12 H :    0.167362
  13 H :    0.171359
  14 H :    0.173320
  15 H :    0.180843
  16 H :    0.177085
  17 H :    0.168408
  18 H :    0.170516
  19 H :    0.166628
  20 H :    0.166994
  21 H :    0.166825
Sum of atomic charges:    0.0000000

LOEWDIN ATOMIC CHARGES
----------------------
   0 C :   -0.390998
   1 C :   -0.210974
   2 C :   -0.415326
   3 C :    0.256675
   4 O :   -0.548155
   5 C :   -0.212192
   6 C :   -0.388262
   7 C :   -0.398942
   8 H :    0.161608
   9 H :    0.162286
  10 H :    0.163711
  11 H :    0.184112
  12 H :    0.162593
  13 H :    0.161540
  14 H :    0.160370
  15 H :    0.176654
  16 H :    0.164066
  17 H :    0.162453
  18 H :    0.162639
  19 H :    0.161264
  20 H :    0.165190
  21 H :    0.159689

  Mayer bond orders larger than 0.100000
B(  0-C ,  1-C ) :   0.8723 B(  0-C ,  8-H ) :   0.9768 B(  0-C ,  9-H ) :   0.9640
B(  0-C , 10-H ) :   0.9659 B(  1-C ,  2-C ) :   0.8527 B(  1-C ,  3-C ) :   0.9084
B(  1-C , 11-H ) :   0.9751 B(  2-C , 12-H ) :   0.9603 B(  2-C , 13-H ) :   0.9741
B(  2-C , 14-H ) :   0.9731 B(  3-C ,  4-O ) :   1.8322 B(  3-C ,  5-C ) :   0.8825
B(  5-C ,  6-C ) :   0.8621 B(  5-C ,  7-C ) :   0.8851 B(  5-C , 15-H ) :   0.9351
B(  6-C , 16-H ) :   0.9794 B(  6-C , 17-H ) :   0.9613 B(  6-C , 18-H ) :   0.9649
B(  7-C , 19-H ) :   0.9741 B(  7-C , 20-H ) :   0.9789 B(  7-C , 21-H ) :   0.9721

Dispersion correction           -0.006540647
FINAL SINGLE POINT ENERGY      -350.305628878191

DIPOLE MOMENT
-------------

Method             : SCF
Type of density    : Electron Density
Multiplicity       :   1
Irrep              :   0
Energy             :  -350.3096120224680590 Eh
Relativity type    :
Basis              : AO
                                X                 Y                 Z
Electronic contribution:      0.014527849       1.174115560      -4.832090863
Nuclear contribution   :      0.346350261      -1.110438293       6.480796766
                        -----------------------------------------
Total Dipole Moment    :      0.360878110       0.063677266       1.648705902
                        -----------------------------------------
Magnitude (a.u.)       :      1.688940188
Magnitude (Debye)      :      4.292944791

Rotational constants in cm-1:             0.092697             0.046252             0.044785
Rotational constants in MHz :          2778.975111          1386.597402          1342.628602

                             ****ORCA TERMINATED NORMALLY****
TOTAL RUN TIME: 0 days 0 hours 0 minutes 40 seconds 759 msec
