                         Program Version 6.0.0  -   RELEASE  -
|  1> ! r2scan-3c def2/J RI DEFGRID2 scfconv6 printgap
|  2> %output
|  3>     printlevel normal
|  4> end
|  5> * xyz 0 1
|  6> C -3.1037593697 0.7132951889 0.009975986
|  7> C -1.6675878086 0.4910851235 -0.4463818122
|  8> C -0.865955604 -0.2880903127 0.6076237288
|  9> C 0.535022368 -0.5032945784 0.1060377836
| 10> O 0.9205876037 -1.4862377909 -0.4924081245
| 11> O 1.3140562224 0.5412636655 0.363471361
| 12> C 2.6634531617 0.4946697468 -0.1071527081
| 13> H -3.6549946561 1.2656847112 -0.7459952601
| 14> H -3.6028181152 -0.2381270853 0.174723397
| 15> H -3.1248884431 1.2799584662 0.9371227453
| 16> H -1.1822840737 1.4530203671 -0.621279634
| 17> H -1.6594271069 -0.0686446607 -1.3840615179
| 18> H -1.3291057163 -1.2591041064 0.7801476807
| 19> H -0.8291699752 0.2831417517 1.5343104806
| 20> H 2.6772173984 0.4951367351 -1.1976072488
| 21> H 3.1527400227 -0.4109887666 0.2531763858
| 22> H 3.1431599725 1.3839216817 0.2891117292
| 23> *
| 24>
| 25>                          ****END OF INPUT****

CARTESIAN COORDINATES (ANGSTROEM)
---------------------------------
  C     -3.103759    0.713295    0.009976
  C     -1.667588    0.491085   -0.446382
  C     -0.865956   -0.288090    0.607624
  C      0.535022   -0.503295    0.106038
  O      0.920588   -1.486238   -0.492408
  O      1.314056    0.541264    0.363471
  C      2.663453    0.494670   -0.107153
  H     -3.654995    1.265685   -0.745995
  H     -3.602818   -0.238127    0.174723
  H     -3.124888    1.279958    0.937123
  H     -1.182284    1.453020   -0.621280
  H     -1.659427   -0.068645   -1.384062
  H     -1.329106   -1.259104    0.780148
  H     -0.829170    0.283142    1.534310
  H      2.677217    0.495137   -1.197607
  H      3.152740   -0.410989    0.253176
  H      3.143160    1.383922    0.289112

 Total Charge           Charge          ....    0
 Multiplicity           Mult            ....    1
 Number of Electrons    NEL             ....   56
 Basis Dimension        Dim             ....  193

ORBITAL ENERGIES
----------------

  NO   OCC          E(Eh)            E(eV)
   0   2.0000     -18.999158      -516.9934
   1   2.0000     -18.927779      -515.0511
   2   2.0000     -10.151069      -276.2246
   3   2.0000     -10.086874      -274.4778
   4   2.0000     -10.041859      -273.2529
   5   2.0000     -10.039954      -273.2010
   6   2.0000     -10.024498      -272.7805
   7   2.0000      -1.073021       -29.1984
   8   2.0000      -0.974805       -26.5258
   9   2.0000      -0.774773       -21.0826
  10   2.0000      -0.712519       -19.3886
  11   2.0000      -0.661824       -18.0091
  12   2.0000      -0.572661       -15.5829
  13   2.0000      -0.534693       -14.5497
  14   2.0000      -0.469825       -12.7846
  15   2.0000      -0.453985       -12.3536
  16   2.0000      -0.451044       -12.2735
  17   2.0000      -0.425192       -11.5701
  18   2.0000      -0.399572       -10.8729
  19   2.0000      -0.390188       -10.6175
  20   2.0000      -0.364176        -9.9097
  21   2.0000      -0.357843        -9.7374
  22   2.0000      -0.335926        -9.1410
  23   2.0000      -0.319088        -8.6828
  24   2.0000      -0.311754        -8.4833
  25   2.0000      -0.310939        -8.4611
  26   2.0000      -0.273256        -7.4357
  27   2.0000      -0.233622        -6.3572
  28   0.0000      -0.015393        -0.4189
  29   0.0000       0.065063         1.7705
  30   0.0000       0.095387         2.5956
  31   0.0000       0.102924         2.8007
  32   0.0000       0.127831         3.4785

MULLIKEN ATOMIC CHARGES
-----------------------
   0 C :   -0.472308
   1 C :   -0.232319
   2 C :   -0.331180
   3 C :    0.407792
   4 O :   -0.421048
   5 O :   -0.192558
   6 C :   -0.292945
   7 H :    0.151035
   8 H :    0.146443
   9 H :    0.144647
  10 H :    0.148527
  11 H :    0.153498
  12 H :    0.162194
  13 H :    0.155145
  14 H :    0.158080
  15 H :    0.164994
  16 H :    0.150004
Sum of atomic charges:   -0.0000000

LOEWDIN ATOMIC CHARGES
----------------------
   0 C :   -0.419355
   1 C :   -0.287542
   2 C :   -0.229947
   3 C :    0.350591
   4 O :   -0.422467
   5 O :   -0.604999
   6 C :   -0.044591
   7 H :    0.153290
   8 H :    0.151606
   9 H :    0.150767
  10 H :    0.158721
  11 H :    0.160506
  12 H :    0.177287
  13 H :    0.176434
  14 H :    0.174995
  15 H :    0.178822
  16 H :    0.175880

  Mayer bond orders larger than 0.100000
B(  0-C ,  1-C ) :   0.8963 B(  0-C ,  7-H ) :   0.9719 B(  0-C ,  8-H ) :   0.9831
B(  0-C ,  9-H ) :   0.9849 B(  1-C ,  2-C ) :   0.9279 B(  1-C , 10-H ) :   0.9629
B(  1-C , 11-H ) :   0.9587 B(  2-C ,  3-C ) :   0.9649 B(  2-C , 12-H ) :   0.9741
B(  2-C , 13-H ) :   0.9775 B(  3-C ,  4-O ) :   1.8309 B(  3-C ,  5-O ) :   1.0375
B(  5-O ,  6-C ) :   0.8521 B(  6-C , 14-H ) :   0.9607 B(  6-C , 15-H ) :   0.9642
B(  6-C , 16-H ) :   0.9694

Dispersion correction           -0.003956960
FINAL SINGLE POINT ENERGY      -346.931364433419

DIPOLE MOMENT
-------------

Method             : SCF
Type of density    : Electron Density
Multiplicity       :   1
Irrep              :   0
Energy             :  -346.9379883553245918 Eh
Relativity type    :
Basis              : AO
                                X                 Y                 Z
Electronic contribution:      5.915925427      -3.125455120       0.238828416
Nuclear contribution   :     -5.980117820       3.911280387       0.016522184
                        -----------------------------------------
Total Dipole Moment    :     -0.064192393       0.785825267       0.255350599
                        -----------------------------------------
Magnitude (a.u.)       :      0.828761692
Magnitude (Debye)      :      2.106544811

Rotational constants in cm-1:             0.203501             0.044071             0.039667
Rotational constants in MHz :          6100.795527          1321.205877          1189.185428

                             ****ORCA TERMINATED NORMALLY****
TOTAL RUN TIME: 0 days 0 hours 0 minutes 25 seconds 459 msec
