                         Program Version 6.0.0  -   RELEASE  -
|  1> ! r2scan-3c def2/J RI DEFGRID2 scfconv6 printgap
|  2> %output
|  3>     printlevel normal
|  4> end
|  5> %cpcm
|  6>     smd true
|  7>     smdsolvent "water"
|  8> end
|  9> * xyz 0 1
| 10> C -3.1037593697 0.7132951889 0.009975986
| 11> C -1.6675878086 0.4910851235 -0.4463818122
| 12> C -0.865955604 -0.2880903127 0.6076237288
| 13> C 0.535022368 -0.5032945784 0.1060377836
| 14> O 0.9205876037 -1.4862377909 -0.4924081245
| 15> O 1.3140562224 0.5412636655 0.363471361
| 16> C 2.6634531617 0.4946697468 -0.1071527081
| 17> H -3.6549946561 1.2656847112 -0.7459952601
| 18> H -3.6028181152 -0.2381270853 0.174723397
| 19> H -3.1248884431 1.2799584662 0.9371227453
| 20> H -1.1822840737 1.4530203671 -0.621279634
| 21> H -1.6594271069 -0.0686446607 -1.3840615179
| 22> H -1.3291057163 -1.2591041064 0.7801476807
| 23> H -0.8291699752 0.2831417517 1.5343104806
| 24> H 2.6772173984 0.4951367351 -1.1976072488
| 25> H 3.1527400227 -0.4109887666 0.2531763858
| 26> H 3.1431599725 1.3839216817 0.2891117292
| 27> *
| 28>
| 29>                          ****END OF INPUT****

CARTESIAN COORDINATES (ANGSTROEM)
---------------------------------
  C     -3.103759    0.713295    0.009976
  C     -1.667588    0.491085   -0.446382
  C     -0.865956   -0.288090    0.607624
  C      0.535022   -0.503295    0.106038
  O      0.920588   -1.486238   -0.492408
  O      1.314056    0.541264    0.363471
  C      2.663453    0.494670   -0.107153
  H     -3.654995    1.265685   -0.745995
  H     -3.602818   -0.238127    0.174723
  H     -3.124888    1.279958    0.937123
  H     -1.182284    1.453020   -0.621280
  H     -1.659427   -0.068645   -1.384062
  H     -1.329106   -1.259104    0.780148
  H     -0.829170    0.283142    1.534310
  H      2.677217    0.495137   -1.197607
  H      3.152740   -0.410989    0.253176
  H      3.143160    1.383922    0.289112

 Total Charge           Charge          ....    0
 Multiplicity           Mult            ....    1
 Number of Electrons    NEL             ....   56
 Basis Dimension        Dim             ....  193

ORBITAL ENERGIES
----------------

  NO   OCC          E(Eh)            E(eV)
   0   2.0000     -19.004419      -517.1365
   1   2.0000     -18.944235      -515.4988
   2   2.0000     -10.161822      -276.5172
   3   2.0000     -10.076577      -274.1976
   4   2.0000     -10.035442      -273.0782
   5   2.0000     -10.030639      -272.9476
   6   2.0000     -10.012078      -272.4425
   7   2.0000      -1.080086       -29.3906
   8   2.0000      -0.988901       -26.9094
   9   2.0000      -0.768127       -20.9018
  10   2.0000      -0.706729       -19.2311
  11   2.0000      -0.654017       -17.7967
  12   2.0000      -0.563944       -15.3457
  13   2.0000      -0.532623       -14.4934
  14   2.0000      -0.470323       -12.7981
  15   2.0000      -0.458621       -12.4797
  16   2.0000      -0.450839       -12.2680
  17   2.0000      -0.425008       -11.5651
  18   2.0000      -0.393342       -10.7034
  19   2.0000      -0.386323       -10.5124
  20   2.0000      -0.358740        -9.7618
  21   2.0000      -0.351968        -9.5775
  22   2.0000      -0.332478        -9.0472
  23   2.0000      -0.317136        -8.6297
  24   2.0000      -0.305664        -8.3175
  25   2.0000      -0.301452        -8.2029
  26   2.0000      -0.280043        -7.6204
  27   2.0000      -0.250144        -6.8068
  28   0.0000      -0.023687        -0.6446
  29   0.0000       0.070011         1.9051
  30   0.0000       0.103322         2.8115
  31   0.0000       0.114584         3.1180
  32   0.0000       0.136344         3.7101

MULLIKEN ATOMIC CHARGES
-----------------------
   0 C :   -0.516677
   1 C :   -0.219556
   2 C :   -0.357241
   3 C :    0.450970
   4 O :   -0.508395
   5 O :   -0.205856
   6 C :   -0.327512
   7 H :    0.162546
   8 H :    0.159035
   9 H :    0.159013
  10 H :    0.157644
  11 H :    0.157670
  12 H :    0.176316
  13 H :    0.177511
  14 H :    0.178674
  15 H :    0.177527
  16 H :    0.178333
Sum of atomic charges:   -0.0000000

LOEWDIN ATOMIC CHARGES
----------------------
   0 C :   -0.424707
   1 C :   -0.285025
   2 C :   -0.228123
   3 C :    0.360005
   4 O :   -0.485600
   5 O :   -0.605587
   6 C :   -0.042116
   7 H :    0.156492
   8 H :    0.154903
   9 H :    0.154928
  10 H :    0.161832
  11 H :    0.161489
  12 H :    0.182514
  13 H :    0.186032
  14 H :    0.181714
  15 H :    0.182977
  16 H :    0.188271

  Mayer bond orders larger than 0.100000
B(  0-C ,  1-C ) :   0.8879 B(  0-C ,  7-H ) :   0.9687 B(  0-C ,  8-H ) :   0.9809
B(  0-C ,  9-H ) :   0.9820 B(  1-C ,  2-C ) :   0.9177 B(  1-C , 10-H ) :   0.9602
B(  1-C , 11-H ) :   0.9578 B(  2-C ,  3-C ) :   0.9626 B(  2-C , 12-H ) :   0.9730
B(  2-C , 13-H ) :   0.9667 B(  3-C ,  4-O ) :   1.7617 B(  3-C ,  5-O ) :   1.0647
B(  5-O ,  6-C ) :   0.8322 B(  6-C , 14-H ) :   0.9551 B(  6-C , 15-H ) :   0.9589
B(  6-C , 16-H ) :   0.9594

Dispersion correction           -0.003956960
FINAL SINGLE POINT ENERGY      -346.936615473800

DIPOLE MOMENT
-------------

Method             : SCF
Type of density    : Electron Density
Multiplicity       :   1
Irrep              :   0
Energy             :  -346.9432393957058025 Eh
Relativity type    :
Basis              : AO
                                X                 Y                 Z
Electronic contribution:      5.878636225      -2.816780176       0.380164280
Nuclear contribution   :     -5.980117820       3.911280387       0.016522184
                        -----------------------------------------
Total Dipole Moment    :     -0.101481595       1.094500211       0.396686464
                        -----------------------------------------
Magnitude (a.u.)       :      1.168584347
Magnitude (Debye)      :      2.970305356

Rotational constants in cm-1:             0.203501             0.044071             0.039667
Rotational constants in MHz :          6100.795527          1321.205877          1189.185428

                             ****ORCA TERMINATED NORMALLY****
TOTAL RUN TIME: 0 days 0 hours 0 minutes 30 seconds 443 msec
