                         Program Version 6.0.0  -   RELEASE  -
|  1> ! pbe def2-sv(p) def2/J RI DEFGRID1 loosescf d4 GCP(DFT/SV(P)) printgap
|  2> %output
|  3>     printlevel normal
|  4> end
|  5> * xyz 0 1
|  6> C 1.8669986214 -1.0217791756 -0.4822263824
|  7> C 1.2283848995 -0.0003739383 0.4531637916
|  8> H 1.0142731747 -0.4868969515 1.41979771
|  9> C -0.0694291353 0.6191622503 -0.0924674093
| 10> C -1.349700096 -0.1940561178 0.1506704214
| 11> C -2.5563213523 0.7466852892 0.1700369934
| 12> C -1.5734162867 -1.2726967224 -0.9067636509
| 13> O 2.2139556925 1.0051561693 0.65995363
| 14> H 2.8489541077 -1.2850362749 -0.0969098987
| 15> H 1.2633400708 -1.9192485443 -0.5492600254
| 16> H 1.9913537023 -0.5905476935 -1.4716952872
| 17> H -0.1917960251 1.5872328069 0.401243363
| 18> H 0.0492700415 0.8160582976 -1.1594091379
| 19> H -1.2743038965 -0.6765442385 1.1321117544
| 20> H -2.6410523351 1.2683446341 -0.7806973965
| 21> H -2.461415978 1.4859106656 0.9620227409
| 22> H -3.4728347424 0.1857275579 0.3359290662
| 23> H -2.5150076092 -1.7853385014 -0.7225822783
| 24> H -1.614883817 -0.8264578162 -1.8977594279
| 25> H -0.7799065214 -2.0127003144 -0.8951504283
| 26> H 1.8774970811 1.6669782678 1.2784622084
| 27> *
| 28>
| 29>                          ****END OF INPUT****

CARTESIAN COORDINATES (ANGSTROEM)
---------------------------------
  C      1.866999   -1.021779   -0.482226
  C      1.228385   -0.000374    0.453164
  H      1.014273   -0.486897    1.419798
  C     -0.069429    0.619162   -0.092467
  C     -1.349700   -0.194056    0.150670
  C     -2.556321    0.746685    0.170037
  C     -1.573416   -1.272697   -0.906764
  O      2.213956    1.005156    0.659954
  H      2.848954   -1.285036   -0.096910
  H      1.263340   -1.919249   -0.549260
  H      1.991354   -0.590548   -1.471695
  H     -0.191796    1.587233    0.401243
  H      0.049270    0.816058   -1.159409
  H     -1.274304   -0.676544    1.132112
  H     -2.641052    1.268345   -0.780697
  H     -2.461416    1.485911    0.962023
  H     -3.472835    0.185728    0.335929
  H     -2.515008   -1.785339   -0.722582
  H     -1.614884   -0.826458   -1.897759
  H     -0.779907   -2.012700   -0.895150
  H      1.877497    1.666978    1.278462

 Total Charge           Charge          ....    0
 Multiplicity           Mult            ....    1
 Number of Electrons    NEL             ....   58
 Basis Dimension        Dim             ....  126

ORBITAL ENERGIES
----------------

  NO   OCC          E(Eh)            E(eV)
   0   2.0000     -18.733601      -509.7672
   1   2.0000      -9.934554      -270.3330
   2   2.0000      -9.897313      -269.3196
   3   2.0000      -9.880497      -268.8620
   4   2.0000      -9.873806      -268.6799
   5   2.0000      -9.873492      -268.6714
   6   2.0000      -9.869170      -268.5538
   7   2.0000      -0.911278       -24.7971
   8   2.0000      -0.733188       -19.9511
   9   2.0000      -0.674115       -18.3436
  10   2.0000      -0.615521       -16.7492
  11   2.0000      -0.607431       -16.5290
  12   2.0000      -0.524902       -14.2833
  13   2.0000      -0.502492       -13.6735
  14   2.0000      -0.459057       -12.4916
  15   2.0000      -0.414962       -11.2917
  16   2.0000      -0.408441       -11.1143
  17   2.0000      -0.389963       -10.6114
  18   2.0000      -0.355878        -9.6839
  19   2.0000      -0.352204        -9.5840
  20   2.0000      -0.340044        -9.2531
  21   2.0000      -0.338467        -9.2102
  22   2.0000      -0.318749        -8.6736
  23   2.0000      -0.309056        -8.4098
  24   2.0000      -0.302370        -8.2279
  25   2.0000      -0.285375        -7.7654
  26   2.0000      -0.281813        -7.6685
  27   2.0000      -0.259713        -7.0672
  28   2.0000      -0.207837        -5.6555
  29   0.0000       0.025512         0.6942
  30   0.0000       0.046351         1.2613
  31   0.0000       0.058251         1.5851
  32   0.0000       0.067839         1.8460
  33   0.0000       0.086366         2.3501

MULLIKEN ATOMIC CHARGES
-----------------------
   0 C :   -0.248406
   1 C :    0.026294
   2 H :    0.054697
   3 C :   -0.119871
   4 C :   -0.185792
   5 C :   -0.245341
   6 C :   -0.247997
   7 O :   -0.432193
   8 H :    0.107240
   9 H :    0.108303
  10 H :    0.098467
  11 H :    0.056876
  12 H :    0.077537
  13 H :    0.069776
  14 H :    0.095946
  15 H :    0.098224
  16 H :    0.097416
  17 H :    0.096748
  18 H :    0.094283
  19 H :    0.106331
  20 H :    0.291462
Sum of atomic charges:   -0.0000000

LOEWDIN ATOMIC CHARGES
----------------------
   0 C :   -0.341071
   1 C :   -0.052359
   2 H :    0.092631
   3 C :   -0.229033
   4 C :   -0.157059
   5 C :   -0.328815
   6 C :   -0.330348
   7 O :   -0.337663
   8 H :    0.125637
   9 H :    0.120144
  10 H :    0.121831
  11 H :    0.109250
  12 H :    0.118562
  13 H :    0.111793
  14 H :    0.117590
  15 H :    0.114540
  16 H :    0.116161
  17 H :    0.117536
  18 H :    0.117558
  19 H :    0.115640
  20 H :    0.277474

  Mayer bond orders larger than 0.100000
B(  0-C ,  1-C ) :   1.1259 B(  0-C ,  8-H ) :   0.9400 B(  0-C ,  9-H ) :   0.9352
B(  0-C , 10-H ) :   0.9428 B(  1-C ,  2-H ) :   0.9137 B(  1-C ,  3-C ) :   1.0572
B(  1-C ,  7-O ) :   1.0485 B(  3-C ,  4-C ) :   1.0474 B(  3-C , 11-H ) :   0.9180
B(  3-C , 12-H ) :   0.9039 B(  4-C ,  5-C ) :   1.1043 B(  4-C ,  6-C ) :   1.1199
B(  4-C , 13-H ) :   0.9035 B(  5-C , 14-H ) :   0.9515 B(  5-C , 15-H ) :   0.9487
B(  5-C , 16-H ) :   0.9508 B(  6-C , 17-H ) :   0.9480 B(  6-C , 18-H ) :   0.9481
B(  6-C , 19-H ) :   0.9405 B(  7-O , 20-H ) :   0.8521

Dispersion correction           -0.016217026
FINAL SINGLE POINT ENERGY      -311.514346879981

DIPOLE MOMENT
-------------

Method             : SCF
Type of density    : Electron Density
Multiplicity       :   1
Irrep              :   0
Energy             :  -311.5938026568609303 Eh
Relativity type    :
Basis              : AO
                                X                 Y                 Z
Electronic contribution:      4.986899081       2.428776149       2.191865883
Nuclear contribution   :     -5.508418133      -2.398525415      -1.907715472
                        -----------------------------------------
Total Dipole Moment    :     -0.521519052       0.030250734       0.284150412
                        -----------------------------------------
Magnitude (a.u.)       :      0.594675277
Magnitude (Debye)      :      1.511544430

Rotational constants in cm-1:             0.142660             0.049138             0.039098
Rotational constants in MHz :          4276.848236          1473.127637          1172.130278

                             ****ORCA TERMINATED NORMALLY****
TOTAL RUN TIME: 0 days 0 hours 0 minutes 10 seconds 581 msec
