                         Program Version 6.0.0  -   RELEASE  -
|  1> ! pbe def2-sv(p) def2/J RI DEFGRID1 loosescf d4 GCP(DFT/SV(P)) printgap
|  2> %output
|  3>     printlevel normal
|  4> end
|  5> * xyz 0 1
|  6> C -2.227544225 -0.8444001192 0.2310368337
|  7> C -1.5359760931 0.5017526566 0.332025347
|  8> S 0.0513529823 0.5636473923 -0.5732746721
|  9> C 1.0938003499 -0.4887548396 0.5099053195
| 10> C 2.5537737225 -0.334180522 0.1312609359
| 11> H -3.2031050499 -0.7898614569 0.7083784262
| 12> H -2.3621129834 -1.1195862323 -0.8123282383
| 13> H -1.6452138885 -1.6192295894 0.7239229678
| 14> H -1.3294652217 0.7753891075 1.3668075735
| 15> H -2.1360094679 1.2837806839 -0.1314780536
| 16> H 0.9151010352 -0.1632273495 1.5348713343
| 17> H 0.7663569699 -1.5206966749 0.3857533757
| 18> H 3.1693132489 -0.9574671084 0.7752107177
| 19> H 2.7088364786 -0.6330098954 -0.9026749003
| 20> H 2.8642773955 0.7022757745 0.2389287676
| 21> *
| 22>
| 23>                          ****END OF INPUT****

CARTESIAN COORDINATES (ANGSTROEM)
---------------------------------
  C     -2.227544   -0.844400    0.231037
  C     -1.535976    0.501753    0.332025
  S      0.051353    0.563647   -0.573275
  C      1.093800   -0.488755    0.509905
  C      2.553774   -0.334181    0.131261
  H     -3.203105   -0.789861    0.708378
  H     -2.362113   -1.119586   -0.812328
  H     -1.645214   -1.619230    0.723923
  H     -1.329465    0.775389    1.366808
  H     -2.136009    1.283781   -0.131478
  H      0.915101   -0.163227    1.534871
  H      0.766357   -1.520697    0.385753
  H      3.169313   -0.957467    0.775211
  H      2.708836   -0.633010   -0.902675
  H      2.864277    0.702276    0.238929

 Total Charge           Charge          ....    0
 Multiplicity           Mult            ....    1
 Number of Electrons    NEL             ....   50
 Basis Dimension        Dim             ....   94

ORBITAL ENERGIES
----------------

  NO   OCC          E(Eh)            E(eV)
   0   2.0000     -88.005370     -2394.7479
   1   2.0000      -9.912237      -269.7257
   2   2.0000      -9.911370      -269.7021
   3   2.0000      -9.882346      -268.9123
   4   2.0000      -9.879755      -268.8418
   5   2.0000      -7.649583      -208.1557
   6   2.0000      -5.678299      -154.5144
   7   2.0000      -5.674331      -154.4064
   8   2.0000      -5.665733      -154.1724
   9   2.0000      -0.734530       -19.9876
  10   2.0000      -0.688532       -18.7359
  11   2.0000      -0.616097       -16.7649
  12   2.0000      -0.553832       -15.0705
  13   2.0000      -0.506625       -13.7860
  14   2.0000      -0.416629       -11.3370
  15   2.0000      -0.408033       -11.1031
  16   2.0000      -0.402256       -10.9459
  17   2.0000      -0.367012        -9.9869
  18   2.0000      -0.341918        -9.3041
  19   2.0000      -0.338542        -9.2122
  20   2.0000      -0.323628        -8.8064
  21   2.0000      -0.312086        -8.4923
  22   2.0000      -0.291392        -7.9292
  23   2.0000      -0.259849        -7.0708
  24   2.0000      -0.175434        -4.7738
  25   0.0000       0.016392         0.4461
  26   0.0000       0.035897         0.9768
  27   0.0000       0.057534         1.5656
  28   0.0000       0.073177         1.9912
  29   0.0000       0.077204         2.1008

MULLIKEN ATOMIC CHARGES
-----------------------
   0 C :   -0.252235
   1 C :   -0.289714
   2 S :   -0.085034
   3 C :   -0.295461
   4 C :   -0.259280
   5 H :    0.104168
   6 H :    0.111036
   7 H :    0.112199
   8 H :    0.125387
   9 H :    0.131575
  10 H :    0.121743
  11 H :    0.133739
  12 H :    0.112556
  13 H :    0.115292
  14 H :    0.114030
Sum of atomic charges:   -0.0000000

LOEWDIN ATOMIC CHARGES
----------------------
   0 C :   -0.360078
   1 C :   -0.338448
   2 S :    0.176070
   3 C :   -0.334301
   4 C :   -0.355604
   5 H :    0.121457
   6 H :    0.122457
   7 H :    0.118720
   8 H :    0.118333
   9 H :    0.125958
  10 H :    0.117009
  11 H :    0.116317
  12 H :    0.125733
  13 H :    0.123620
  14 H :    0.122756

  Mayer bond orders larger than 0.100000
B(  0-C ,  1-C ) :   1.1115 B(  0-C ,  5-H ) :   0.9391 B(  0-C ,  6-H ) :   0.9523
B(  0-C ,  7-H ) :   0.9537 B(  1-C ,  2-S ) :   1.0511 B(  1-C ,  8-H ) :   0.9239
B(  1-C ,  9-H ) :   0.9303 B(  2-S ,  3-C ) :   1.0250 B(  3-C ,  4-C ) :   1.1441
B(  3-C , 10-H ) :   0.9228 B(  3-C , 11-H ) :   0.9202 B(  4-C , 12-H ) :   0.9482
B(  4-C , 13-H ) :   0.9516 B(  4-C , 14-H ) :   0.9521

Dispersion correction           -0.011017917
FINAL SINGLE POINT ENERGY      -555.917062727991

DIPOLE MOMENT
-------------

Method             : SCF
Type of density    : Electron Density
Multiplicity       :   1
Irrep              :   0
Energy             :  -555.9658012756348171 Eh
Relativity type    :
Basis              : AO
                                X                 Y                 Z
Electronic contribution:      0.124583540       3.506756490      -3.154580863
Nuclear contribution   :     -0.237897023      -3.807745092       3.663313851
                        -----------------------------------------
Total Dipole Moment    :     -0.113313483      -0.300988602       0.508732987
                        -----------------------------------------
Magnitude (a.u.)       :      0.601866544
Magnitude (Debye)      :      1.529823177

Rotational constants in cm-1:             0.279394             0.068312             0.060258
Rotational constants in MHz :          8376.006905          2047.931756          1806.498348

                             ****ORCA TERMINATED NORMALLY****
TOTAL RUN TIME: 0 days 0 hours 0 minutes 6 seconds 708 msec
