                         Program Version 6.0.0  -   RELEASE  -
|  1> ! pbe def2-sv(p) def2/J RI DEFGRID1 loosescf d4 GCP(DFT/SV(P)) printgap
|  2> %output
|  3>     printlevel normal
|  4> end
|  5> * xyz 0 1
|  6> C -2.8982606886 0.2785408375 0.9060041704
|  7> C -2.3578148991 0.2103483165 -0.5179164102
|  8> C -1.1547678496 -0.7235712591 -0.6650388222
|  9> C 0.0871082634 -0.2797892741 0.103389063
| 10> C 1.2747916046 -1.2250583078 -0.0940795857
| 11> C 2.4826793253 -0.4197554576 0.3918673705
| 12> C 2.1107463245 1.0599991879 0.1720863032
| 13> C 0.6675816723 1.0618712752 -0.3498472212
| 14> H -3.1314400952 -0.7189425447 1.2721056062
| 15> H -2.1741083033 0.7318013567 1.5776078952
| 16> H -3.8063370361 0.8761680085 0.9353416558
| 17> H -3.1508741203 -0.1498650752 -1.1777258245
| 18> H -2.0837048071 1.2124605908 -0.8518456332
| 19> H -1.4384755662 -1.7224761353 -0.3235688552
| 20> H -0.9003960186 -0.7982847481 -1.7258109917
| 21> H -0.1420902062 -0.228699757 1.171576799
| 22> H 1.1574609058 -2.1627517215 0.4473745459
| 23> H 1.3773314576 -1.4551169381 -1.1563322835
| 24> H 2.6554159897 -0.610380434 1.4514587096
| 25> H 3.388987149 -0.6948892885 -0.1457278367
| 26> H 2.1740236524 1.6082287617 1.1122310483
| 27> H 2.7841476122 1.542461048 -0.5351777413
| 28> H 0.1027625261 1.9128307489 0.027157019
| 29> H 0.6601634809 1.1033215309 -1.4406936079
| 30> *
| 31>
| 32>                          ****END OF INPUT****

CARTESIAN COORDINATES (ANGSTROEM)
---------------------------------
  C     -2.898261    0.278541    0.906004
  C     -2.357815    0.210348   -0.517916
  C     -1.154768   -0.723571   -0.665039
  C      0.087108   -0.279789    0.103389
  C      1.274792   -1.225058   -0.094080
  C      2.482679   -0.419755    0.391867
  C      2.110746    1.059999    0.172086
  C      0.667582    1.061871   -0.349847
  H     -3.131440   -0.718943    1.272106
  H     -2.174108    0.731801    1.577608
  H     -3.806337    0.876168    0.935342
  H     -3.150874   -0.149865   -1.177726
  H     -2.083705    1.212461   -0.851846
  H     -1.438476   -1.722476   -0.323569
  H     -0.900396   -0.798285   -1.725811
  H     -0.142090   -0.228700    1.171577
  H      1.157461   -2.162752    0.447375
  H      1.377331   -1.455117   -1.156332
  H      2.655416   -0.610380    1.451459
  H      3.388987   -0.694889   -0.145728
  H      2.174024    1.608229    1.112231
  H      2.784148    1.542461   -0.535178
  H      0.102763    1.912831    0.027157
  H      0.660163    1.103322   -1.440694

 Total Charge           Charge          ....    0
 Multiplicity           Mult            ....    1
 Number of Electrons    NEL             ....   64
 Basis Dimension        Dim             ....  144

ORBITAL ENERGIES
----------------

  NO   OCC          E(Eh)            E(eV)
   0   2.0000      -9.883230      -268.9364
   1   2.0000      -9.878408      -268.8051
   2   2.0000      -9.876589      -268.7557
   3   2.0000      -9.874745      -268.7055
   4   2.0000      -9.874242      -268.6918
   5   2.0000      -9.874223      -268.6913
   6   2.0000      -9.873478      -268.6710
   7   2.0000      -9.869618      -268.5660
   8   2.0000      -0.758534       -20.6408
   9   2.0000      -0.703485       -19.1428
  10   2.0000      -0.642740       -17.4899
  11   2.0000      -0.629506       -17.1297
  12   2.0000      -0.584600       -15.9078
  13   2.0000      -0.522193       -14.2096
  14   2.0000      -0.496507       -13.5107
  15   2.0000      -0.483895       -13.1675
  16   2.0000      -0.432763       -11.7761
  17   2.0000      -0.419648       -11.4192
  18   2.0000      -0.398340       -10.8394
  19   2.0000      -0.384144       -10.4531
  20   2.0000      -0.365202        -9.9377
  21   2.0000      -0.356503        -9.7010
  22   2.0000      -0.348306        -9.4779
  23   2.0000      -0.316637        -8.6161
  24   2.0000      -0.301034        -8.1915
  25   2.0000      -0.295526        -8.0417
  26   2.0000      -0.290244        -7.8979
  27   2.0000      -0.288126        -7.8403
  28   2.0000      -0.271043        -7.3754
  29   2.0000      -0.268839        -7.3155
  30   2.0000      -0.266245        -7.2449
  31   2.0000      -0.261860        -7.1256
  32   0.0000       0.028366         0.7719
  33   0.0000       0.046422         1.2632
  34   0.0000       0.051900         1.4123
  35   0.0000       0.069454         1.8900
  36   0.0000       0.081572         2.2197

MULLIKEN ATOMIC CHARGES
-----------------------
   0 C :   -0.293409
   1 C :   -0.163142
   2 C :   -0.091991
   3 C :   -0.235927
   4 C :   -0.109969
   5 C :   -0.144769
   6 C :   -0.138825
   7 C :   -0.138853
   8 H :    0.096071
   9 H :    0.109033
  10 H :    0.101542
  11 H :    0.081278
  12 H :    0.089367
  13 H :    0.073640
  14 H :    0.069888
  15 H :    0.073668
  16 H :    0.080310
  17 H :    0.069564
  18 H :    0.075659
  19 H :    0.081340
  20 H :    0.076242
  21 H :    0.080313
  22 H :    0.087618
  23 H :    0.071353
Sum of atomic charges:   -0.0000000

LOEWDIN ATOMIC CHARGES
----------------------
   0 C :   -0.342735
   1 C :   -0.234559
   2 C :   -0.215904
   3 C :   -0.149709
   4 C :   -0.218237
   5 C :   -0.230841
   6 C :   -0.230288
   7 C :   -0.222265
   8 H :    0.116414
   9 H :    0.116011
  10 H :    0.118979
  11 H :    0.114929
  12 H :    0.114412
  13 H :    0.112896
  14 H :    0.112586
  15 H :    0.113884
  16 H :    0.115002
  17 H :    0.112835
  18 H :    0.116451
  19 H :    0.116419
  20 H :    0.116822
  21 H :    0.117065
  22 H :    0.115732
  23 H :    0.114102

  Mayer bond orders larger than 0.100000
B(  0-C ,  1-C ) :   1.1526 B(  0-C ,  8-H ) :   0.9548 B(  0-C ,  9-H ) :   0.9495
B(  0-C , 10-H ) :   0.9515 B(  1-C ,  2-C ) :   1.1305 B(  1-C , 11-H ) :   0.9249
B(  1-C , 12-H ) :   0.9199 B(  2-C ,  3-C ) :   1.1050 B(  2-C , 13-H ) :   0.9176
B(  2-C , 14-H ) :   0.9040 B(  3-C ,  4-C ) :   1.0870 B(  3-C ,  7-C ) :   1.0896
B(  3-C , 15-H ) :   0.8941 B(  4-C ,  5-C ) :   1.1723 B(  4-C , 16-H ) :   0.9190
B(  4-C , 17-H ) :   0.9113 B(  5-C ,  6-C ) :   1.1578 B(  5-C , 18-H ) :   0.9164
B(  5-C , 19-H ) :   0.9259 B(  6-C ,  7-C ) :   1.1709 B(  6-C , 20-H ) :   0.9188
B(  6-C , 21-H ) :   0.9243 B(  7-C , 22-H ) :   0.9162 B(  7-C , 23-H ) :   0.9116

Dispersion correction           -0.020853935
FINAL SINGLE POINT ENERGY      -313.693755492286

DIPOLE MOMENT
-------------

Method             : SCF
Type of density    : Electron Density
Multiplicity       :   1
Irrep              :   0
Energy             :  -313.7747431394622595 Eh
Relativity type    :
Basis              : AO
                                X                 Y                 Z
Electronic contribution:      2.347857047      -0.406900828      -0.583856495
Nuclear contribution   :     -2.370863133       0.418294442       0.598520348
                        -----------------------------------------
Total Dipole Moment    :     -0.023006086       0.011393614       0.014663854
                        -----------------------------------------
Magnitude (a.u.)       :      0.029565572
Magnitude (Debye)      :      0.075149711

Rotational constants in cm-1:             0.138468             0.036787             0.033780
Rotational constants in MHz :          4151.157163          1102.860197          1012.693634

                             ****ORCA TERMINATED NORMALLY****
TOTAL RUN TIME: 0 days 0 hours 0 minutes 11 seconds 260 msec
