                         Program Version 6.0.0  -   RELEASE  -
|  1> ! pbe def2-sv(p) def2/J RI DEFGRID1 loosescf d4 GCP(DFT/SV(P)) printgap
|  2> %output
|  3>     printlevel normal
|  4> end
|  5> * xyz 0 1
|  6> C 2.0201711333 -0.8200157179 -0.6118454068
|  7> C 1.2837211151 0.0534252297 0.4087877862
|  8> H 1.9667311696 0.1976237329 1.2658328973
|  9> C 0.0155820909 -0.6210669595 0.9757234122
| 10> C -1.3253871877 -0.4270090019 0.2450989632
| 11> C -1.9194499099 0.9549215558 0.5148160548
| 12> C -1.2479481444 -0.6847127187 -1.2564540919
| 13> O 0.9718835602 1.3253663867 -0.1321309378
| 14> H 2.2442770861 -1.7885714736 -0.1746620726
| 15> H 1.4218292958 -0.964365845 -1.5049576111
| 16> H 2.9592570192 -0.3483688459 -0.8958946373
| 17> H 0.2292840025 -1.6896226058 1.03596972
| 18> H -0.1278001289 -0.2589327516 1.9960482915
| 19> H -2.0084382899 -1.1698898913 0.6779889255
| 20> H -1.2598338794 1.7279393927 0.1332597466
| 21> H -2.05429843 1.1112172241 1.5829424289
| 22> H -2.8882423029 1.0482696376 0.0289717131
| 23> H -0.8294756223 -1.6676997217 -1.4590637806
| 24> H -2.2453407279 -0.6429223497 -1.6893760929
| 25> H -0.6386426399 0.0765465154 -1.735324886
| 26> H 1.7851962939 1.7349972575 -0.4548513005
| 27> *
| 28>
| 29>                          ****END OF INPUT****

CARTESIAN COORDINATES (ANGSTROEM)
---------------------------------
  C      2.020171   -0.820016   -0.611845
  C      1.283721    0.053425    0.408788
  H      1.966731    0.197624    1.265833
  C      0.015582   -0.621067    0.975723
  C     -1.325387   -0.427009    0.245099
  C     -1.919450    0.954922    0.514816
  C     -1.247948   -0.684713   -1.256454
  O      0.971884    1.325366   -0.132131
  H      2.244277   -1.788571   -0.174662
  H      1.421829   -0.964366   -1.504958
  H      2.959257   -0.348369   -0.895895
  H      0.229284   -1.689623    1.035970
  H     -0.127800   -0.258933    1.996048
  H     -2.008438   -1.169890    0.677989
  H     -1.259834    1.727939    0.133260
  H     -2.054298    1.111217    1.582942
  H     -2.888242    1.048270    0.028972
  H     -0.829476   -1.667700   -1.459064
  H     -2.245341   -0.642922   -1.689376
  H     -0.638643    0.076547   -1.735325
  H      1.785196    1.734997   -0.454851

 Total Charge           Charge          ....    0
 Multiplicity           Mult            ....    1
 Number of Electrons    NEL             ....   58
 Basis Dimension        Dim             ....  126

ORBITAL ENERGIES
----------------

  NO   OCC          E(Eh)            E(eV)
   0   2.0000     -18.743469      -510.0357
   1   2.0000      -9.939007      -270.4541
   2   2.0000      -9.885840      -269.0074
   3   2.0000      -9.878136      -268.7978
   4   2.0000      -9.874764      -268.7060
   5   2.0000      -9.860804      -268.3261
   6   2.0000      -9.852759      -268.1072
   7   2.0000      -0.921254       -25.0686
   8   2.0000      -0.721605       -19.6359
   9   2.0000      -0.673489       -18.3266
  10   2.0000      -0.611798       -16.6479
  11   2.0000      -0.594247       -16.1703
  12   2.0000      -0.537615       -14.6292
  13   2.0000      -0.479029       -13.0350
  14   2.0000      -0.459388       -12.5006
  15   2.0000      -0.408357       -11.1120
  16   2.0000      -0.394458       -10.7338
  17   2.0000      -0.383918       -10.4470
  18   2.0000      -0.366265        -9.9666
  19   2.0000      -0.356959        -9.7133
  20   2.0000      -0.339999        -9.2518
  21   2.0000      -0.326195        -8.8762
  22   2.0000      -0.312866        -8.5135
  23   2.0000      -0.303627        -8.2621
  24   2.0000      -0.297203        -8.0873
  25   2.0000      -0.274943        -7.4816
  26   2.0000      -0.272682        -7.4201
  27   2.0000      -0.247768        -6.7421
  28   2.0000      -0.212807        -5.7908
  29   0.0000       0.016242         0.4420
  30   0.0000       0.053631         1.4594
  31   0.0000       0.071289         1.9399
  32   0.0000       0.077531         2.1097
  33   0.0000       0.084896         2.3101

MULLIKEN ATOMIC CHARGES
-----------------------
   0 C :   -0.284641
   1 C :    0.035274
   2 H :    0.055766
   3 C :   -0.127442
   4 C :   -0.161078
   5 C :   -0.258576
   6 C :   -0.257814
   7 O :   -0.411999
   8 H :    0.098295
   9 H :    0.113711
  10 H :    0.087967
  11 H :    0.078303
  12 H :    0.077737
  13 H :    0.064957
  14 H :    0.121109
  15 H :    0.086330
  16 H :    0.086212
  17 H :    0.094733
  18 H :    0.090950
  19 H :    0.113683
  20 H :    0.296526
Sum of atomic charges:    0.0000000

LOEWDIN ATOMIC CHARGES
----------------------
   0 C :   -0.357556
   1 C :   -0.053935
   2 H :    0.096093
   3 C :   -0.220735
   4 C :   -0.150792
   5 C :   -0.339101
   6 C :   -0.336841
   7 O :   -0.321675
   8 H :    0.122433
   9 H :    0.124400
  10 H :    0.111973
  11 H :    0.119102
  12 H :    0.118367
  13 H :    0.112762
  14 H :    0.124182
  15 H :    0.111287
  16 H :    0.111408
  17 H :    0.111872
  18 H :    0.115860
  19 H :    0.118125
  20 H :    0.282771

  Mayer bond orders larger than 0.100000
B(  0-C ,  1-C ) :   1.1147 B(  0-C ,  8-H ) :   0.9377 B(  0-C ,  9-H ) :   0.9381
B(  0-C , 10-H ) :   0.9428 B(  1-C ,  2-H ) :   0.9091 B(  1-C ,  3-C ) :   1.0709
B(  1-C ,  7-O ) :   1.0454 B(  3-C ,  4-C ) :   1.0871 B(  3-C , 11-H ) :   0.9171
B(  3-C , 12-H ) :   0.9139 B(  4-C ,  5-C ) :   1.1113 B(  4-C ,  6-C ) :   1.1208
B(  4-C , 13-H ) :   0.9032 B(  5-C , 14-H ) :   0.9372 B(  5-C , 15-H ) :   0.9493
B(  5-C , 16-H ) :   0.9490 B(  6-C , 17-H ) :   0.9443 B(  6-C , 18-H ) :   0.9441
B(  6-C , 19-H ) :   0.9327 B(  7-O , 20-H ) :   0.8485

Dispersion correction           -0.017293965
FINAL SINGLE POINT ENERGY      -311.512030397063

DIPOLE MOMENT
-------------

Method             : SCF
Type of density    : Electron Density
Multiplicity       :   1
Irrep              :   0
Energy             :  -311.5919823894913065 Eh
Relativity type    :
Basis              : AO
                                X                 Y                 Z
Electronic contribution:      1.973365218       2.329049469       1.102939164
Nuclear contribution   :     -1.341689233      -2.451246665      -1.121299482
                        -----------------------------------------
Total Dipole Moment    :      0.631675985      -0.122197196      -0.018360318
                        -----------------------------------------
Magnitude (a.u.)       :      0.643648822
Magnitude (Debye)      :      1.636025289

Rotational constants in cm-1:             0.119793             0.062336             0.055406
Rotational constants in MHz :          3591.298075          1868.780538          1661.015402

                             ****ORCA TERMINATED NORMALLY****
TOTAL RUN TIME: 0 days 0 hours 0 minutes 9 seconds 588 msec
