                         Program Version 6.0.0  -   RELEASE  -
|  1> ! r2scan-3c def2/J RI DEFGRID2 scfconv6 printgap
|  2> %output
|  3>     printlevel normal
|  4> end
|  5> * xyz 0 1
|  6> C -0.0693472654 -2.5251345018 -0.0278121258
|  7> C 0.0139167903 -1.1956385858 -0.0083213973
|  8> C -1.2442512394 -0.410842636 -0.1222654045
|  9> C -1.9998059592 -0.1289879312 1.0093537948
| 10> C -3.1813061753 0.583659878 0.9016929585
| 11> C -3.6197240593 1.0194447893 -0.3375172621
| 12> C -2.8723590143 0.7399363508 -1.4697132323
| 13> C -1.6902751796 0.0286284843 -1.3634171451
| 14> C 1.2643323162 -0.4334731223 0.1169352292
| 15> C 2.5022896282 -1.0574718716 0.283097059
| 16> C 3.6619108677 -0.3157720044 0.3987990666
| 17> C 3.6168310015 1.0681772477 0.352261781
| 18> C 2.396961101 1.7028850386 0.1914917749
| 19> C 1.235544523 0.9622777323 0.0768897084
| 20> H 0.7857874725 -3.1728880704 0.0426852935
| 21> H -1.0253100358 -3.0118791963 -0.1225511522
| 22> H -1.6548235338 -0.4702081776 1.9746444724
| 23> H -3.7613477455 0.7983823887 1.786973587
| 24> H -4.5419446706 1.5746419035 -0.4210506139
| 25> H -3.2112635744 1.0766547008 -2.4382388002
| 26> H -1.1041923678 -0.1899375301 -2.2444785541
| 27> H 2.5649914333 -2.1330691054 0.3258779292
| 28> H 4.6082159034 -0.8202580709 0.5270933681
| 29> H 4.5243586519 1.6457319032 0.4420800027
| 30> H 2.3485463452 2.7812106435 0.1556404535
| 31> H 0.2915977425 1.4724857699 -0.046251029
| 32> *
| 33>
| 34>                          ****END OF INPUT****

CARTESIAN COORDINATES (ANGSTROEM)
---------------------------------
  C     -0.069347   -2.525135   -0.027812
  C      0.013917   -1.195639   -0.008321
  C     -1.244251   -0.410843   -0.122265
  C     -1.999806   -0.128988    1.009354
  C     -3.181306    0.583660    0.901693
  C     -3.619724    1.019445   -0.337517
  C     -2.872359    0.739936   -1.469713
  C     -1.690275    0.028628   -1.363417
  C      1.264332   -0.433473    0.116935
  C      2.502290   -1.057472    0.283097
  C      3.661911   -0.315772    0.398799
  C      3.616831    1.068177    0.352262
  C      2.396961    1.702885    0.191492
  C      1.235545    0.962278    0.076890
  H      0.785787   -3.172888    0.042685
  H     -1.025310   -3.011879   -0.122551
  H     -1.654824   -0.470208    1.974644
  H     -3.761348    0.798382    1.786974
  H     -4.541945    1.574642   -0.421051
  H     -3.211264    1.076655   -2.438239
  H     -1.104192   -0.189938   -2.244479
  H      2.564991   -2.133069    0.325878
  H      4.608216   -0.820258    0.527093
  H      4.524359    1.645732    0.442080
  H      2.348546    2.781211    0.155640
  H      0.291598    1.472486   -0.046251

 Total Charge           Charge          ....    0
 Multiplicity           Mult            ....    1
 Number of Electrons    NEL             ....   96
 Basis Dimension        Dim             ....  326

ORBITAL ENERGIES
----------------

  NO   OCC          E(Eh)            E(eV)
   0   2.0000     -10.051129      -273.5051
   1   2.0000     -10.048645      -273.4375
   2   2.0000     -10.045424      -273.3499
   3   2.0000     -10.037272      -273.1281
   4   2.0000     -10.037111      -273.1237
   5   2.0000     -10.036937      -273.1189
   6   2.0000     -10.036688      -273.1122
   7   2.0000     -10.036285      -273.1012
   8   2.0000     -10.035877      -273.0901
   9   2.0000     -10.035750      -273.0866
  10   2.0000     -10.035605      -273.0827
  11   2.0000     -10.035486      -273.0795
  12   2.0000     -10.033848      -273.0349
  13   2.0000     -10.026363      -272.8312
  14   2.0000      -0.842506       -22.9258
  15   2.0000      -0.826318       -22.4853
  16   2.0000      -0.776653       -21.1338
  17   2.0000      -0.720841       -19.6151
  18   2.0000      -0.718542       -19.5525
  19   2.0000      -0.715140       -19.4600
  20   2.0000      -0.690243       -18.7825
  21   2.0000      -0.603736       -16.4285
  22   2.0000      -0.579120       -15.7587
  23   2.0000      -0.577587       -15.7169
  24   2.0000      -0.567049       -15.4302
  25   2.0000      -0.524672       -14.2771
  26   2.0000      -0.497755       -13.5446
  27   2.0000      -0.473093       -12.8735
  28   2.0000      -0.441081       -12.0024
  29   2.0000      -0.428726       -11.6662
  30   2.0000      -0.426602       -11.6084
  31   2.0000      -0.414431       -11.2773
  32   2.0000      -0.413721       -11.2579
  33   2.0000      -0.392280       -10.6745
  34   2.0000      -0.391903       -10.6642
  35   2.0000      -0.383577       -10.4377
  36   2.0000      -0.354901        -9.6574
  37   2.0000      -0.354007        -9.6330
  38   2.0000      -0.343496        -9.3470
  39   2.0000      -0.326735        -8.8909
  40   2.0000      -0.316734        -8.6188
  41   2.0000      -0.313386        -8.5277
  42   2.0000      -0.296877        -8.0784
  43   2.0000      -0.279009        -7.5922
  44   2.0000      -0.242908        -6.6099
  45   2.0000      -0.237567        -6.4645
  46   2.0000      -0.234043        -6.3686
  47   2.0000      -0.211475        -5.7545
  48   0.0000      -0.066820        -1.8183
  49   0.0000      -0.037995        -1.0339
  50   0.0000      -0.033614        -0.9147
  51   0.0000      -0.026632        -0.7247
  52   0.0000       0.022204         0.6042

MULLIKEN ATOMIC CHARGES
-----------------------
   0 C :   -0.283778
   1 C :    0.014152
   2 C :    0.023405
   3 C :   -0.184024
   4 C :   -0.158993
   5 C :   -0.135213
   6 C :   -0.159000
   7 C :   -0.188764
   8 C :    0.216094
   9 C :   -0.289083
  10 C :   -0.144202
  11 C :   -0.151909
  12 C :   -0.190433
  13 C :   -0.135602
  14 H :    0.127094
  15 H :    0.154106
  16 H :    0.157909
  17 H :    0.145738
  18 H :    0.147136
  19 H :    0.145850
  20 H :    0.158567
  21 H :    0.130484
  22 H :    0.145450
  23 H :    0.146194
  24 H :    0.145922
  25 H :    0.162900
Sum of atomic charges:   -0.0000000

LOEWDIN ATOMIC CHARGES
----------------------
   0 C :   -0.265937
   1 C :   -0.076621
   2 C :   -0.083290
   3 C :   -0.144415
   4 C :   -0.160818
   5 C :   -0.168597
   6 C :   -0.161408
   7 C :   -0.147391
   8 C :   -0.064086
   9 C :   -0.138815
  10 C :   -0.161052
  11 C :   -0.163172
  12 C :   -0.160878
  13 C :   -0.137118
  14 H :    0.156351
  15 H :    0.168089
  16 H :    0.175855
  17 H :    0.167772
  18 H :    0.166998
  19 H :    0.167779
  20 H :    0.176065
  21 H :    0.168948
  22 H :    0.167362
  23 H :    0.166958
  24 H :    0.167888
  25 H :    0.183532

  Mayer bond orders larger than 0.100000
B(  0-C ,  1-C ) :   1.7831 B(  0-C , 14-H ) :   0.9648 B(  0-C , 15-H ) :   0.9476
B(  1-C ,  2-C ) :   0.7849 B(  1-C ,  8-C ) :   1.0479 B(  2-C ,  3-C ) :   1.4327
B(  2-C ,  7-C ) :   1.4185 B(  3-C ,  4-C ) :   1.4166 B(  3-C , 16-H ) :   0.9474
B(  4-C ,  5-C ) :   1.4208 B(  4-C , 17-H ) :   0.9500 B(  5-C ,  6-C ) :   1.4175
B(  5-C , 18-H ) :   0.9461 B(  6-C ,  7-C ) :   1.4195 B(  6-C , 19-H ) :   0.9500
B(  7-C , 20-H ) :   0.9489 B(  8-C ,  9-C ) :   1.3826 B(  8-C , 13-C ) :   1.4139
B(  9-C , 10-C ) :   1.4438 B(  9-C , 21-H ) :   0.9466 B( 10-C , 11-C ) :   1.3943
B( 10-C , 22-H ) :   0.9453 B( 11-C , 12-C ) :   1.4132 B( 11-C , 23-H ) :   0.9516
B( 12-C , 13-C ) :   1.4198 B( 12-C , 24-H ) :   0.9503 B( 13-C , 25-H ) :   0.9177

Dispersion correction           -0.011215110
FINAL SINGLE POINT ENERGY      -540.545252151599

DIPOLE MOMENT
-------------

Method             : SCF
Type of density    : Electron Density
Multiplicity       :   1
Irrep              :   0
Energy             :  -540.5394950116185555 Eh
Relativity type    :
Basis              : AO
                                X                 Y                 Z
Electronic contribution:      0.190239076       0.521583417       0.022401370
Nuclear contribution   :     -0.164540393      -0.421363034      -0.016488381
                        -----------------------------------------
Total Dipole Moment    :      0.025698683       0.100220383       0.005912989
                        -----------------------------------------
Magnitude (a.u.)       :      0.103631612
Magnitude (Debye)      :      0.263410623

Rotational constants in cm-1:             0.052132             0.014272             0.012664
Rotational constants in MHz :          1562.872763           427.865176           379.663592

                             ****ORCA TERMINATED NORMALLY****
TOTAL RUN TIME: 0 days 0 hours 0 minutes 49 seconds 883 msec
