                         Program Version 6.0.0  -   RELEASE  -
|  1> ! r2scan-3c def2/J RI DEFGRID2 scfconv6 printgap
|  2> %output
|  3>     printlevel normal
|  4> end
|  5> %cpcm
|  6>     smd true
|  7>     smdsolvent "water"
|  8> end
|  9> * xyz 0 1
| 10> C -0.0693472654 -2.5251345018 -0.0278121258
| 11> C 0.0139167903 -1.1956385858 -0.0083213973
| 12> C -1.2442512394 -0.410842636 -0.1222654045
| 13> C -1.9998059592 -0.1289879312 1.0093537948
| 14> C -3.1813061753 0.583659878 0.9016929585
| 15> C -3.6197240593 1.0194447893 -0.3375172621
| 16> C -2.8723590143 0.7399363508 -1.4697132323
| 17> C -1.6902751796 0.0286284843 -1.3634171451
| 18> C 1.2643323162 -0.4334731223 0.1169352292
| 19> C 2.5022896282 -1.0574718716 0.283097059
| 20> C 3.6619108677 -0.3157720044 0.3987990666
| 21> C 3.6168310015 1.0681772477 0.352261781
| 22> C 2.396961101 1.7028850386 0.1914917749
| 23> C 1.235544523 0.9622777323 0.0768897084
| 24> H 0.7857874725 -3.1728880704 0.0426852935
| 25> H -1.0253100358 -3.0118791963 -0.1225511522
| 26> H -1.6548235338 -0.4702081776 1.9746444724
| 27> H -3.7613477455 0.7983823887 1.786973587
| 28> H -4.5419446706 1.5746419035 -0.4210506139
| 29> H -3.2112635744 1.0766547008 -2.4382388002
| 30> H -1.1041923678 -0.1899375301 -2.2444785541
| 31> H 2.5649914333 -2.1330691054 0.3258779292
| 32> H 4.6082159034 -0.8202580709 0.5270933681
| 33> H 4.5243586519 1.6457319032 0.4420800027
| 34> H 2.3485463452 2.7812106435 0.1556404535
| 35> H 0.2915977425 1.4724857699 -0.046251029
| 36> *
| 37>
| 38>                          ****END OF INPUT****

CARTESIAN COORDINATES (ANGSTROEM)
---------------------------------
  C     -0.069347   -2.525135   -0.027812
  C      0.013917   -1.195639   -0.008321
  C     -1.244251   -0.410843   -0.122265
  C     -1.999806   -0.128988    1.009354
  C     -3.181306    0.583660    0.901693
  C     -3.619724    1.019445   -0.337517
  C     -2.872359    0.739936   -1.469713
  C     -1.690275    0.028628   -1.363417
  C      1.264332   -0.433473    0.116935
  C      2.502290   -1.057472    0.283097
  C      3.661911   -0.315772    0.398799
  C      3.616831    1.068177    0.352262
  C      2.396961    1.702885    0.191492
  C      1.235545    0.962278    0.076890
  H      0.785787   -3.172888    0.042685
  H     -1.025310   -3.011879   -0.122551
  H     -1.654824   -0.470208    1.974644
  H     -3.761348    0.798382    1.786974
  H     -4.541945    1.574642   -0.421051
  H     -3.211264    1.076655   -2.438239
  H     -1.104192   -0.189938   -2.244479
  H      2.564991   -2.133069    0.325878
  H      4.608216   -0.820258    0.527093
  H      4.524359    1.645732    0.442080
  H      2.348546    2.781211    0.155640
  H      0.291598    1.472486   -0.046251

 Total Charge           Charge          ....    0
 Multiplicity           Mult            ....    1
 Number of Electrons    NEL             ....   96
 Basis Dimension        Dim             ....  326

ORBITAL ENERGIES
----------------

  NO   OCC          E(Eh)            E(eV)
   0   2.0000     -10.052692      -273.5477
   1   2.0000     -10.050437      -273.4863
   2   2.0000     -10.046098      -273.3682
   3   2.0000     -10.035594      -273.0824
   4   2.0000     -10.035110      -273.0692
   5   2.0000     -10.034831      -273.0616
   6   2.0000     -10.034493      -273.0524
   7   2.0000     -10.034480      -273.0521
   8   2.0000     -10.034370      -273.0491
   9   2.0000     -10.034120      -273.0423
  10   2.0000     -10.034018      -273.0395
  11   2.0000     -10.033902      -273.0364
  12   2.0000     -10.032596      -273.0008
  13   2.0000     -10.023449      -272.7519
  14   2.0000      -0.843455       -22.9516
  15   2.0000      -0.826847       -22.4997
  16   2.0000      -0.776859       -21.1394
  17   2.0000      -0.720549       -19.6071
  18   2.0000      -0.717187       -19.5157
  19   2.0000      -0.715142       -19.4600
  20   2.0000      -0.689571       -18.7642
  21   2.0000      -0.602277       -16.3888
  22   2.0000      -0.578062       -15.7299
  23   2.0000      -0.575260       -15.6536
  24   2.0000      -0.565183       -15.3794
  25   2.0000      -0.522459       -14.2168
  26   2.0000      -0.495193       -13.4749
  27   2.0000      -0.469479       -12.7752
  28   2.0000      -0.438577       -11.9343
  29   2.0000      -0.426767       -11.6129
  30   2.0000      -0.425075       -11.5669
  31   2.0000      -0.410764       -11.1774
  32   2.0000      -0.409915       -11.1544
  33   2.0000      -0.389684       -10.6038
  34   2.0000      -0.387957       -10.5569
  35   2.0000      -0.381617       -10.3843
  36   2.0000      -0.358410        -9.7528
  37   2.0000      -0.350338        -9.5332
  38   2.0000      -0.344986        -9.3875
  39   2.0000      -0.323743        -8.8095
  40   2.0000      -0.313095        -8.5198
  41   2.0000      -0.310414        -8.4468
  42   2.0000      -0.294549        -8.0151
  43   2.0000      -0.281279        -7.6540
  44   2.0000      -0.245095        -6.6694
  45   2.0000      -0.239818        -6.5258
  46   2.0000      -0.235283        -6.4024
  47   2.0000      -0.213993        -5.8230
  48   0.0000      -0.068642        -1.8678
  49   0.0000      -0.039549        -1.0762
  50   0.0000      -0.034320        -0.9339
  51   0.0000      -0.028019        -0.7624
  52   0.0000       0.020683         0.5628

MULLIKEN ATOMIC CHARGES
-----------------------
   0 C :   -0.332369
   1 C :    0.017285
   2 C :    0.036721
   3 C :   -0.212566
   4 C :   -0.199738
   5 C :   -0.165942
   6 C :   -0.199652
   7 C :   -0.210674
   8 C :    0.189576
   9 C :   -0.301933
  10 C :   -0.182384
  11 C :   -0.179197
  12 C :   -0.237760
  13 C :   -0.159847
  14 H :    0.164399
  15 H :    0.176110
  16 H :    0.184945
  17 H :    0.178051
  18 H :    0.180004
  19 H :    0.177978
  20 H :    0.186044
  21 H :    0.168603
  22 H :    0.178982
  23 H :    0.179879
  24 H :    0.178272
  25 H :    0.185214
Sum of atomic charges:   -0.0000000

LOEWDIN ATOMIC CHARGES
----------------------
   0 C :   -0.273638
   1 C :   -0.084326
   2 C :   -0.089377
   3 C :   -0.154096
   4 C :   -0.168972
   5 C :   -0.177405
   6 C :   -0.169000
   7 C :   -0.155312
   8 C :   -0.076068
   9 C :   -0.146759
  10 C :   -0.167845
  11 C :   -0.170339
  12 C :   -0.169431
  13 C :   -0.149423
  14 H :    0.168486
  15 H :    0.174102
  16 H :    0.183746
  17 H :    0.178657
  18 H :    0.177769
  19 H :    0.178656
  20 H :    0.183988
  21 H :    0.182053
  22 H :    0.178910
  23 H :    0.178242
  24 H :    0.178917
  25 H :    0.188465

  Mayer bond orders larger than 0.100000
B(  0-C ,  1-C ) :   1.7793 B(  0-C , 14-H ) :   0.9606 B(  0-C , 15-H ) :   0.9512
B(  1-C ,  2-C ) :   0.7617 B(  1-C ,  8-C ) :   1.0304 B(  2-C ,  3-C ) :   1.3991
B(  2-C ,  7-C ) :   1.3886 B(  3-C ,  4-C ) :   1.3964 B(  3-C , 16-H ) :   0.9528
B(  4-C ,  5-C ) :   1.3875 B(  4-C , 17-H ) :   0.9579 B(  5-C ,  6-C ) :   1.3842
B(  5-C , 18-H ) :   0.9522 B(  6-C ,  7-C ) :   1.4005 B(  6-C , 19-H ) :   0.9577
B(  7-C , 20-H ) :   0.9522 B(  8-C ,  9-C ) :   1.3539 B(  8-C , 13-C ) :   1.3600
B(  9-C , 10-C ) :   1.4152 B(  9-C , 21-H ) :   0.9587 B( 10-C , 11-C ) :   1.3572
B( 10-C , 22-H ) :   0.9559 B( 11-C , 12-C ) :   1.3817 B( 11-C , 23-H ) :   0.9584
B( 12-C , 13-C ) :   1.4017 B( 12-C , 24-H ) :   0.9603 B( 13-C , 25-H ) :   0.9269

Dispersion correction           -0.011215110
FINAL SINGLE POINT ENERGY      -540.548230099638

DIPOLE MOMENT
-------------

Method             : SCF
Type of density    : Electron Density
Multiplicity       :   1
Irrep              :   0
Energy             :  -540.5424729596575162 Eh
Relativity type    :
Basis              : AO
                                X                 Y                 Z
Electronic contribution:      0.258012472       0.526761882       0.024971692
Nuclear contribution   :     -0.164540393      -0.421363034      -0.016488381
                        -----------------------------------------
Total Dipole Moment    :      0.093472080       0.105398848       0.008483311
                        -----------------------------------------
Magnitude (a.u.)       :      0.141130838
Magnitude (Debye)      :      0.358726082

Rotational constants in cm-1:             0.052132             0.014272             0.012664
Rotational constants in MHz :          1562.872763           427.865176           379.663592

                             ****ORCA TERMINATED NORMALLY****
TOTAL RUN TIME: 0 days 0 hours 0 minutes 56 seconds 382 msec
