                         Program Version 6.0.0  -   RELEASE  -
|  1> ! pbe def2-sv(p) def2/J RI DEFGRID1 loosescf d4 GCP(DFT/SV(P)) printgap
|  2> %output
|  3>     printlevel normal
|  4> end
|  5> * xyz 0 1
|  6> C -2.9274801876 1.4359774837 -0.0039514534
|  7> O -2.585433985 0.0611393161 0.0012587363
|  8> C -1.2776369947 -0.3377331525 0.0006644167
|  9> C -1.1017516111 -1.7239816375 -0.0005671237
| 10> C 0.1546596918 -2.2840038757 -0.0009301399
| 11> C 1.2826486789 -1.477762265 -0.000480832
| 12> C 1.1268432419 -0.1041736552 0.0006670287
| 13> C -0.1506070372 0.48404493 0.0016329146
| 14> O -0.2397338002 1.8531338869 0.0036163274
| 15> O 2.1563625663 0.8104844209 0.0010951198
| 16> C 3.484560981 0.3269045199 -0.0027033112
| 17> H -2.5498859025 1.9436779374 0.8849363933
| 18> H -4.0156696564 1.4502850486 -0.0047567319
| 19> H -2.54866321 1.9369999326 -0.8961304144
| 20> H -1.990325438 -2.3333970806 -0.0011924062
| 21> H 0.2654423298 -3.3560656848 -0.0018080322
| 22> H 2.2622316384 -1.9242846938 -0.0009514122
| 23> H 0.6631006785 2.2114855238 0.0037037727
| 24> H 4.1115245131 1.2156849597 -0.0034281174
| 25> H 3.6842991798 -0.2663691211 -0.8982208041
| 26> H 3.6888730012 -0.268102443 0.8906277914
| 27> *
| 28>
| 29>                          ****END OF INPUT****

CARTESIAN COORDINATES (ANGSTROEM)
---------------------------------
  C     -2.927480    1.435977   -0.003951
  O     -2.585434    0.061139    0.001259
  C     -1.277637   -0.337733    0.000664
  C     -1.101752   -1.723982   -0.000567
  C      0.154660   -2.284004   -0.000930
  C      1.282649   -1.477762   -0.000481
  C      1.126843   -0.104174    0.000667
  C     -0.150607    0.484045    0.001633
  O     -0.239734    1.853134    0.003616
  O      2.156363    0.810484    0.001095
  C      3.484561    0.326905   -0.002703
  H     -2.549886    1.943678    0.884936
  H     -4.015670    1.450285   -0.004757
  H     -2.548663    1.937000   -0.896130
  H     -1.990325   -2.333397   -0.001192
  H      0.265442   -3.356066   -0.001808
  H      2.262232   -1.924285   -0.000951
  H      0.663101    2.211486    0.003704
  H      4.111525    1.215685   -0.003428
  H      3.684299   -0.266369   -0.898221
  H      3.688873   -0.268102    0.890628

 Total Charge           Charge          ....    0
 Multiplicity           Mult            ....    1
 Number of Electrons    NEL             ....   82
 Basis Dimension        Dim             ....  174

ORBITAL ENERGIES
----------------

  NO   OCC          E(Eh)            E(eV)
   0   2.0000     -18.798146      -511.5236
   1   2.0000     -18.773788      -510.8607
   2   2.0000     -18.773453      -510.8516
   3   2.0000      -9.948536      -270.7134
   4   2.0000      -9.947064      -270.6734
   5   2.0000      -9.944313      -270.5985
   6   2.0000      -9.942923      -270.5607
   7   2.0000      -9.921888      -269.9883
   8   2.0000      -9.882071      -268.9048
   9   2.0000      -9.881664      -268.8937
  10   2.0000      -9.874461      -268.6977
  11   2.0000      -0.981537       -26.7090
  12   2.0000      -0.957077       -26.0434
  13   2.0000      -0.940561       -25.5940
  14   2.0000      -0.764615       -20.8062
  15   2.0000      -0.684777       -18.6337
  16   2.0000      -0.670168       -18.2362
  17   2.0000      -0.632201       -17.2031
  18   2.0000      -0.611678       -16.6446
  19   2.0000      -0.547678       -14.9031
  20   2.0000      -0.529308       -14.4032
  21   2.0000      -0.502496       -13.6736
  22   2.0000      -0.471251       -12.8234
  23   2.0000      -0.450086       -12.2475
  24   2.0000      -0.430469       -11.7136
  25   2.0000      -0.428192       -11.6517
  26   2.0000      -0.406438       -11.0597
  27   2.0000      -0.405654       -11.0384
  28   2.0000      -0.397501       -10.8166
  29   2.0000      -0.370133       -10.0718
  30   2.0000      -0.357866        -9.7380
  31   2.0000      -0.346739        -9.4352
  32   2.0000      -0.326644        -8.8884
  33   2.0000      -0.313579        -8.5329
  34   2.0000      -0.299939        -8.1618
  35   2.0000      -0.296070        -8.0565
  36   2.0000      -0.294652        -8.0179
  37   2.0000      -0.267403        -7.2764
  38   2.0000      -0.257481        -7.0064
  39   2.0000      -0.184294        -5.0149
  40   2.0000      -0.168914        -4.5964
  41   0.0000      -0.011468        -0.3121
  42   0.0000      -0.008415        -0.2290
  43   0.0000       0.025889         0.7045
  44   0.0000       0.042393         1.1536
  45   0.0000       0.069503         1.8913

MULLIKEN ATOMIC CHARGES
-----------------------
   0 C :   -0.095751
   1 O :   -0.273222
   2 C :    0.144542
   3 C :   -0.125304
   4 C :   -0.052153
   5 C :   -0.217387
   6 C :    0.220020
   7 C :    0.069863
   8 O :   -0.359734
   9 O :   -0.320596
  10 C :   -0.108022
  11 H :    0.109853
  12 H :    0.111460
  13 H :    0.109550
  14 H :    0.037056
  15 H :    0.046409
  16 H :    0.027673
  17 H :    0.319393
  18 H :    0.124059
  19 H :    0.116135
  20 H :    0.116158
Sum of atomic charges:    0.0000000

LOEWDIN ATOMIC CHARGES
----------------------
   0 C :   -0.203350
   1 O :   -0.096617
   2 C :    0.013288
   3 C :   -0.154528
   4 C :   -0.134144
   5 C :   -0.194090
   6 C :    0.002377
   7 C :   -0.024373
   8 O :   -0.247305
   9 O :   -0.113928
  10 C :   -0.198627
  11 H :    0.110407
  12 H :    0.113465
  13 H :    0.110347
  14 H :    0.129601
  15 H :    0.123217
  16 H :    0.124802
  17 H :    0.292860
  18 H :    0.121841
  19 H :    0.112389
  20 H :    0.112370

  Mayer bond orders larger than 0.100000
B(  0-C ,  1-O ) :   0.9676 B(  0-C , 11-H ) :   0.9505 B(  0-C , 12-H ) :   0.9578
B(  0-C , 13-H ) :   0.9506 B(  1-O ,  2-C ) :   1.1535 B(  2-C ,  3-C ) :   1.3548
B(  2-C ,  7-C ) :   1.3375 B(  3-C ,  4-C ) :   1.3623 B(  3-C , 14-H ) :   0.9694
B(  4-C ,  5-C ) :   1.2795 B(  4-C , 15-H ) :   0.9701 B(  5-C ,  6-C ) :   1.3104
B(  5-C , 16-H ) :   0.9776 B(  6-C ,  7-C ) :   1.2902 B(  6-C ,  9-O ) :   1.0709
B(  7-C ,  8-O ) :   1.2125 B(  8-O , 17-H ) :   0.8113 B(  9-O , 10-C ) :   0.9788
B( 10-C , 18-H ) :   0.9587 B( 10-C , 19-H ) :   0.9429 B( 10-C , 20-H ) :   0.9429

Dispersion correction           -0.021628812
FINAL SINGLE POINT ENERGY      -535.372459450520

DIPOLE MOMENT
-------------

Method             : SCF
Type of density    : Electron Density
Multiplicity       :   1
Irrep              :   0
Energy             :  -535.4510800125118521 Eh
Relativity type    :
Basis              : AO
                                X                 Y                 Z
Electronic contribution:     -2.332504829      -0.210652366       0.021656683
Nuclear contribution   :      3.340230271       0.612567449      -0.025448518
                        -----------------------------------------
Total Dipole Moment    :      1.007725442       0.401915083      -0.003791835
                        -----------------------------------------
Magnitude (a.u.)       :      1.084924273
Magnitude (Debye)      :      2.757658348

Rotational constants in cm-1:             0.065473             0.028548             0.020031
Rotational constants in MHz :          1962.817814           855.836131           600.525847

                             ****ORCA TERMINATED NORMALLY****
TOTAL RUN TIME: 0 days 0 hours 0 minutes 11 seconds 550 msec
