                         Program Version 6.0.0  -   RELEASE  -
|  1> ! r2scan-3c def2/J RI DEFGRID2 scfconv6 printgap
|  2> %output
|  3>     printlevel normal
|  4> end
|  5> * xyz 0 1
|  6> C -1.2601578926 0.2461342516 -0.2119836279
|  7> C 0.1368203679 0.6663965457 0.2866851092
|  8> C 1.2305621372 -0.2120403285 -0.3417009701
|  9> O 1.1868081558 -1.5432047196 0.1031997912
| 10> O 0.4227790748 1.9984857726 -0.074615653
| 11> O -1.6005411568 -1.0694038282 0.1636986771
| 12> H -1.2676324467 0.2638784296 -1.3050938293
| 13> H -2.0103021236 0.9610064077 0.148320676
| 14> H 0.1883340549 0.5420136877 1.3803451147
| 15> H 2.2077084923 0.183136688 -0.0542080844
| 16> H 1.1435048776 -0.1551984999 -1.4351265204
| 17> H 0.2961984496 -1.8913080873 -0.0770482814
| 18> H -0.2027230062 2.5975802379 0.3574756718
| 19> H -1.7763804718 -1.10004146 1.1147572691
| 20> *
| 21>
| 22>                          ****END OF INPUT****

CARTESIAN COORDINATES (ANGSTROEM)
---------------------------------
  C     -1.260158    0.246134   -0.211984
  C      0.136820    0.666397    0.286685
  C      1.230562   -0.212040   -0.341701
  O      1.186808   -1.543205    0.103200
  O      0.422779    1.998486   -0.074616
  O     -1.600541   -1.069404    0.163699
  H     -1.267632    0.263878   -1.305094
  H     -2.010302    0.961006    0.148321
  H      0.188334    0.542014    1.380345
  H      2.207708    0.183137   -0.054208
  H      1.143505   -0.155198   -1.435127
  H      0.296198   -1.891308   -0.077048
  H     -0.202723    2.597580    0.357476
  H     -1.776380   -1.100041    1.114757

 Total Charge           Charge          ....    0
 Multiplicity           Mult            ....    1
 Number of Electrons    NEL             ....   50
 Basis Dimension        Dim             ....  169

ORBITAL ENERGIES
----------------

  NO   OCC          E(Eh)            E(eV)
   0   2.0000     -18.976144      -516.3671
   1   2.0000     -18.964383      -516.0471
   2   2.0000     -18.938646      -515.3468
   3   2.0000     -10.091282      -274.5978
   4   2.0000     -10.089283      -274.5433
   5   2.0000     -10.071846      -274.0689
   6   2.0000      -1.016277       -27.6543
   7   2.0000      -1.000111       -27.2144
   8   2.0000      -0.976307       -26.5667
   9   2.0000      -0.725843       -19.7512
  10   2.0000      -0.650709       -17.7067
  11   2.0000      -0.575768       -15.6674
  12   2.0000      -0.512903       -13.9568
  13   2.0000      -0.491382       -13.3712
  14   2.0000      -0.472759       -12.8644
  15   2.0000      -0.424666       -11.5558
  16   2.0000      -0.405459       -11.0331
  17   2.0000      -0.394192       -10.7265
  18   2.0000      -0.372895       -10.1470
  19   2.0000      -0.332863        -9.0577
  20   2.0000      -0.320164        -8.7121
  21   2.0000      -0.308858        -8.4045
  22   2.0000      -0.267614        -7.2821
  23   2.0000      -0.243166        -6.6169
  24   2.0000      -0.226559        -6.1650
  25   0.0000       0.027299         0.7429
  26   0.0000       0.048148         1.3102
  27   0.0000       0.098403         2.6777
  28   0.0000       0.119926         3.2634
  29   0.0000       0.127764         3.4766

MULLIKEN ATOMIC CHARGES
-----------------------
   0 C :   -0.187858
   1 C :    0.031057
   2 C :   -0.189378
   3 O :   -0.422327
   4 O :   -0.419280
   5 O :   -0.432996
   6 H :    0.155528
   7 H :    0.124283
   8 H :    0.135222
   9 H :    0.147383
  10 H :    0.135565
  11 H :    0.319370
  12 H :    0.293202
  13 H :    0.310229
Sum of atomic charges:   -0.0000000

LOEWDIN ATOMIC CHARGES
----------------------
   0 C :    0.021836
   1 C :    0.075221
   2 C :    0.037608
   3 O :   -0.606242
   4 O :   -0.597137
   5 O :   -0.612356
   6 H :    0.186163
   7 H :    0.160095
   8 H :    0.166318
   9 H :    0.185790
  10 H :    0.163157
  11 H :    0.277578
  12 H :    0.271402
  13 H :    0.270568

  Mayer bond orders larger than 0.100000
B(  0-C ,  1-C ) :   0.8999 B(  0-C ,  5-O ) :   0.9553 B(  0-C ,  6-H ) :   0.9712
B(  0-C ,  7-H ) :   0.9718 B(  1-C ,  2-C ) :   0.9256 B(  1-C ,  4-O ) :   0.8893
B(  1-C ,  8-H ) :   0.9562 B(  2-C ,  3-O ) :   0.9830 B(  2-C ,  9-H ) :   0.9639
B(  2-C , 10-H ) :   0.9791 B(  3-O , 11-H ) :   0.8494 B(  4-O , 12-H ) :   0.8954
B(  5-O , 13-H ) :   0.8894

Dispersion correction           -0.003076134
FINAL SINGLE POINT ENERGY      -344.722389295633

DIPOLE MOMENT
-------------

Method             : SCF
Type of density    : Electron Density
Multiplicity       :   1
Irrep              :   0
Energy             :  -344.7301691643349386 Eh
Relativity type    :
Basis              : AO
                                X                 Y                 Z
Electronic contribution:      0.321803832      -0.685182102       0.417126413
Nuclear contribution   :     -1.333284131       1.305323594       0.124275946
                        -----------------------------------------
Total Dipole Moment    :     -1.011480299       0.620141492       0.541402359
                        -----------------------------------------
Magnitude (a.u.)       :      1.304141242
Magnitude (Debye)      :      3.314863601

Rotational constants in cm-1:             0.131108             0.111335             0.064954
Rotational constants in MHz :          3930.517366          3337.740676          1947.280577

                             ****ORCA TERMINATED NORMALLY****
TOTAL RUN TIME: 0 days 0 hours 0 minutes 20 seconds 992 msec
