                         Program Version 6.0.0  -   RELEASE  -
|  1> ! r2scan-3c def2/J RI DEFGRID2 scfconv6 printgap
|  2> %output
|  3>     printlevel normal
|  4> end
|  5> %cpcm
|  6>     smd true
|  7>     smdsolvent "water"
|  8> end
|  9> * xyz 0 1
| 10> C -1.2601578926 0.2461342516 -0.2119836279
| 11> C 0.1368203679 0.6663965457 0.2866851092
| 12> C 1.2305621372 -0.2120403285 -0.3417009701
| 13> O 1.1868081558 -1.5432047196 0.1031997912
| 14> O 0.4227790748 1.9984857726 -0.074615653
| 15> O -1.6005411568 -1.0694038282 0.1636986771
| 16> H -1.2676324467 0.2638784296 -1.3050938293
| 17> H -2.0103021236 0.9610064077 0.148320676
| 18> H 0.1883340549 0.5420136877 1.3803451147
| 19> H 2.2077084923 0.183136688 -0.0542080844
| 20> H 1.1435048776 -0.1551984999 -1.4351265204
| 21> H 0.2961984496 -1.8913080873 -0.0770482814
| 22> H -0.2027230062 2.5975802379 0.3574756718
| 23> H -1.7763804718 -1.10004146 1.1147572691
| 24> *
| 25>
| 26>                          ****END OF INPUT****

CARTESIAN COORDINATES (ANGSTROEM)
---------------------------------
  C     -1.260158    0.246134   -0.211984
  C      0.136820    0.666397    0.286685
  C      1.230562   -0.212040   -0.341701
  O      1.186808   -1.543205    0.103200
  O      0.422779    1.998486   -0.074616
  O     -1.600541   -1.069404    0.163699
  H     -1.267632    0.263878   -1.305094
  H     -2.010302    0.961006    0.148321
  H      0.188334    0.542014    1.380345
  H      2.207708    0.183137   -0.054208
  H      1.143505   -0.155198   -1.435127
  H      0.296198   -1.891308   -0.077048
  H     -0.202723    2.597580    0.357476
  H     -1.776380   -1.100041    1.114757

 Total Charge           Charge          ....    0
 Multiplicity           Mult            ....    1
 Number of Electrons    NEL             ....   50
 Basis Dimension        Dim             ....  169

ORBITAL ENERGIES
----------------

  NO   OCC          E(Eh)            E(eV)
   0   2.0000     -18.961055      -515.9565
   1   2.0000     -18.958610      -515.8900
   2   2.0000     -18.950712      -515.6751
   3   2.0000     -10.079205      -274.2691
   4   2.0000     -10.072983      -274.0998
   5   2.0000     -10.070866      -274.0422
   6   2.0000      -1.005302       -27.3557
   7   2.0000      -0.990569       -26.9547
   8   2.0000      -0.984305       -26.7843
   9   2.0000      -0.716570       -19.4989
  10   2.0000      -0.641460       -17.4550
  11   2.0000      -0.569178       -15.4881
  12   2.0000      -0.502747       -13.6804
  13   2.0000      -0.477312       -12.9883
  14   2.0000      -0.468108       -12.7379
  15   2.0000      -0.419948       -11.4274
  16   2.0000      -0.397046       -10.8042
  17   2.0000      -0.389862       -10.6087
  18   2.0000      -0.374550       -10.1920
  19   2.0000      -0.328033        -8.9262
  20   2.0000      -0.313919        -8.5422
  21   2.0000      -0.307774        -8.3750
  22   2.0000      -0.264252        -7.1907
  23   2.0000      -0.244272        -6.6470
  24   2.0000      -0.226618        -6.1666
  25   0.0000       0.044111         1.2003
  26   0.0000       0.082926         2.2565
  27   0.0000       0.106958         2.9105
  28   0.0000       0.134060         3.6480
  29   0.0000       0.141105         3.8397

MULLIKEN ATOMIC CHARGES
-----------------------
   0 C :   -0.185148
   1 C :    0.038589
   2 C :   -0.201075
   3 O :   -0.499230
   4 O :   -0.499999
   5 O :   -0.495117
   6 H :    0.161838
   7 H :    0.152921
   8 H :    0.155917
   9 H :    0.156952
  10 H :    0.150938
  11 H :    0.354400
  12 H :    0.350767
  13 H :    0.358246
Sum of atomic charges:    0.0000000

LOEWDIN ATOMIC CHARGES
----------------------
   0 C :    0.025489
   1 C :    0.081092
   2 C :    0.029623
   3 O :   -0.643411
   4 O :   -0.624261
   5 O :   -0.629640
   6 H :    0.187027
   7 H :    0.173773
   8 H :    0.176133
   9 H :    0.186811
  10 H :    0.169831
  11 H :    0.286907
  12 H :    0.292326
  13 H :    0.288300

  Mayer bond orders larger than 0.100000
B(  0-C ,  1-C ) :   0.9138 B(  0-C ,  5-O ) :   0.9530 B(  0-C ,  6-H ) :   0.9687
B(  0-C ,  7-H ) :   0.9601 B(  1-C ,  2-C ) :   0.9259 B(  1-C ,  4-O ) :   0.8857
B(  1-C ,  8-H ) :   0.9542 B(  2-C ,  3-O ) :   0.9671 B(  2-C ,  9-H ) :   0.9618
B(  2-C , 10-H ) :   0.9689 B(  3-O , 11-H ) :   0.8317 B(  4-O , 12-H ) :   0.8673
B(  5-O , 13-H ) :   0.8637

Dispersion correction           -0.003076134
FINAL SINGLE POINT ENERGY      -344.743305669064

DIPOLE MOMENT
-------------

Method             : SCF
Type of density    : Electron Density
Multiplicity       :   1
Irrep              :   0
Energy             :  -344.7510855377655616 Eh
Relativity type    :
Basis              : AO
                                X                 Y                 Z
Electronic contribution:     -0.045613935      -0.463070578       0.636792338
Nuclear contribution   :     -1.333284131       1.305323594       0.124275946
                        -----------------------------------------
Total Dipole Moment    :     -1.378898066       0.842253016       0.761068284
                        -----------------------------------------
Magnitude (a.u.)       :      1.786050098
Magnitude (Debye)      :      4.539778566

Rotational constants in cm-1:             0.131108             0.111335             0.064954
Rotational constants in MHz :          3930.517366          3337.740676          1947.280577

                             ****ORCA TERMINATED NORMALLY****
TOTAL RUN TIME: 0 days 0 hours 0 minutes 24 seconds 7 msec
