                         Program Version 6.0.0  -   RELEASE  -
|  1> ! pbe def2-sv(p) def2/J RI DEFGRID1 loosescf d4 GCP(DFT/SV(P)) printgap
|  2> %output
|  3>     printlevel normal
|  4> end
|  5> * xyz 0 1
|  6> C -1.3564000159 -0.4229181944 -0.3784119328
|  7> C 0.0044337443 -0.0763740351 0.2521466517
|  8> C 1.1430218591 -0.7516682801 -0.5191022401
|  9> O 2.3843151905 -0.5763760536 0.1166307347
| 10> O 0.251418324 1.3195760164 0.2137363305
| 11> O -2.4222096555 0.2571486136 0.2453566674
| 12> H -1.5506369916 -1.4880751509 -0.2435738732
| 13> H -1.3266407843 -0.1988510596 -1.4502344246
| 14> H 0.0209872255 -0.4280914455 1.292322941
| 15> H 1.1717867541 -0.3394492979 -1.5360473088
| 16> H 0.9722998264 -1.8276125642 -0.5712867961
| 17> H 2.5295034491 0.3751255242 0.2300647725
| 18> H -0.2898847839 1.7572962135 0.8844173872
| 19> H -2.4269502322 1.1773529772 -0.0540596051
| 20> *
| 21>
| 22>                          ****END OF INPUT****

CARTESIAN COORDINATES (ANGSTROEM)
---------------------------------
  C     -1.356400   -0.422918   -0.378412
  C      0.004434   -0.076374    0.252147
  C      1.143022   -0.751668   -0.519102
  O      2.384315   -0.576376    0.116631
  O      0.251418    1.319576    0.213736
  O     -2.422210    0.257149    0.245357
  H     -1.550637   -1.488075   -0.243574
  H     -1.326641   -0.198851   -1.450234
  H      0.020987   -0.428091    1.292323
  H      1.171787   -0.339449   -1.536047
  H      0.972300   -1.827613   -0.571287
  H      2.529503    0.375126    0.230065
  H     -0.289885    1.757296    0.884417
  H     -2.426950    1.177353   -0.054060

 Total Charge           Charge          ....    0
 Multiplicity           Mult            ....    1
 Number of Electrons    NEL             ....   50
 Basis Dimension        Dim             ....  100

ORBITAL ENERGIES
----------------

  NO   OCC          E(Eh)            E(eV)
   0   2.0000     -18.764577      -510.6101
   1   2.0000     -18.755213      -510.3553
   2   2.0000     -18.738269      -509.8942
   3   2.0000      -9.938296      -270.4348
   4   2.0000      -9.933925      -270.3158
   5   2.0000      -9.930117      -270.2122
   6   2.0000      -0.947488       -25.7825
   7   2.0000      -0.924276       -25.1508
   8   2.0000      -0.910116       -24.7655
   9   2.0000      -0.687666       -18.7123
  10   2.0000      -0.600812       -16.3489
  11   2.0000      -0.545932       -14.8556
  12   2.0000      -0.487472       -13.2648
  13   2.0000      -0.472136       -12.8475
  14   2.0000      -0.439605       -11.9623
  15   2.0000      -0.414054       -11.2670
  16   2.0000      -0.377689       -10.2774
  17   2.0000      -0.371551       -10.1104
  18   2.0000      -0.357739        -9.7346
  19   2.0000      -0.307534        -8.3684
  20   2.0000      -0.290751        -7.9117
  21   2.0000      -0.270427        -7.3587
  22   2.0000      -0.253516        -6.8985
  23   2.0000      -0.224980        -6.1220
  24   2.0000      -0.203193        -5.5292
  25   0.0000       0.002637         0.0718
  26   0.0000       0.046894         1.2761
  27   0.0000       0.054519         1.4835
  28   0.0000       0.060093         1.6352
  29   0.0000       0.087809         2.3894

MULLIKEN ATOMIC CHARGES
-----------------------
   0 C :    0.026695
   1 C :   -0.036132
   2 C :    0.044648
   3 O :   -0.437315
   4 O :   -0.442671
   5 O :   -0.434366
   6 H :    0.087610
   7 H :    0.073369
   8 H :    0.071567
   9 H :    0.072309
  10 H :    0.089958
  11 H :    0.297524
  12 H :    0.296904
  13 H :    0.289900
Sum of atomic charges:    0.0000000

LOEWDIN ATOMIC CHARGES
----------------------
   0 C :   -0.138504
   1 C :   -0.101225
   2 C :   -0.127275
   3 O :   -0.339280
   4 O :   -0.335927
   5 O :   -0.338294
   6 H :    0.116394
   7 H :    0.100263
   8 H :    0.105698
   9 H :    0.099748
  10 H :    0.116801
  11 H :    0.281082
  12 H :    0.282325
  13 H :    0.278192

  Mayer bond orders larger than 0.100000
B(  0-C ,  1-C ) :   1.0185 B(  0-C ,  5-O ) :   1.0739 B(  0-C ,  6-H ) :   0.9184
B(  0-C ,  7-H ) :   0.9177 B(  1-C ,  2-C ) :   1.0456 B(  1-C ,  4-O ) :   1.0374
B(  1-C ,  8-H ) :   0.8951 B(  2-C ,  3-O ) :   1.0761 B(  2-C ,  9-H ) :   0.9053
B(  2-C , 10-H ) :   0.9273 B(  3-O , 11-H ) :   0.8445 B(  4-O , 12-H ) :   0.8423
B(  5-O , 13-H ) :   0.8478

Dispersion correction           -0.008997073
FINAL SINGLE POINT ENERGY      -344.009770474445

DIPOLE MOMENT
-------------

Method             : SCF
Type of density    : Electron Density
Multiplicity       :   1
Irrep              :   0
Energy             :  -344.0832629961236648 Eh
Relativity type    :
Basis              : AO
                                X                 Y                 Z
Electronic contribution:      0.446308890       1.556838423       1.260510741
Nuclear contribution   :     -0.840749177      -0.897333969      -1.350297151
                        -----------------------------------------
Total Dipole Moment    :     -0.394440288       0.659504453      -0.089786410
                        -----------------------------------------
Magnitude (a.u.)       :      0.773686541
Magnitude (Debye)      :      1.966554903

Rotational constants in cm-1:             0.266100             0.065218             0.055973
Rotational constants in MHz :          7977.480214          1955.178851          1678.015045

                             ****ORCA TERMINATED NORMALLY****
TOTAL RUN TIME: 0 days 0 hours 0 minutes 6 seconds 651 msec
