                         Program Version 6.0.0  -   RELEASE  -
|  1> ! wb97x-v def2-tzvp def2/J RIJCOSX DEFGRID2 scfconv7 GCP(DFT/TZ) printgap
|  2> %output
|  3>     printlevel normal
|  4> end
|  5> * xyz 0 1
|  6> C 2.5445577956444665 -0.08064874156626624 0.02877513263295015
|  7> C 1.2810866532897314 0.760339461981696 -0.05032803676062234
|  8> C -2.4420467007524503e-05 -0.03263975274972007 -0.00010807701448299515
|  9> O -2.0483364530202563e-05 -1.2597320607260056 0.000907098736725516
| 10> C -1.2810762387683332 0.7604253108056576 0.050213695999250026
| 11> C -2.544547367353671 -0.08060687839019842 -0.028390375928084334
| 12> H 2.5920418888174126 -0.7997639189643291 -0.7936976640589349
| 13> H 3.4299113841186006 0.5584319477865102 -0.027054726166413974
| 14> H 2.587511671618592 -0.63983343065947 0.9680119638019488
| 15> H 1.240605968766387 1.5064840738980838 0.753759920464574
| 16> H 1.251580851460918 1.344341937186841 -0.9807483529589166
| 17> H -1.2405995942558388 1.5059843228335523 -0.7543989142108701
| 18> H -1.2515191151100953 1.3450960363488003 0.9802321667838677
| 19> H -3.429880458986719 0.5585525897584228 0.026823940584146416
| 20> H -2.5921799025222594 -0.7991261463706533 0.7945886811355826
| 21> H -2.587395133726665 -0.6404687257624093 -0.9672340921105977
| 22> *
| 23>
| 24>                          ****END OF INPUT****

CARTESIAN COORDINATES (ANGSTROEM)
---------------------------------
  C      2.544558   -0.080649    0.028775
  C      1.281087    0.760339   -0.050328
  C     -0.000024   -0.032640   -0.000108
  O     -0.000020   -1.259732    0.000907
  C     -1.281076    0.760425    0.050214
  C     -2.544547   -0.080607   -0.028390
  H      2.592042   -0.799764   -0.793698
  H      3.429911    0.558432   -0.027055
  H      2.587512   -0.639833    0.968012
  H      1.240606    1.506484    0.753760
  H      1.251581    1.344342   -0.980748
  H     -1.240600    1.505984   -0.754399
  H     -1.251519    1.345096    0.980232
  H     -3.429880    0.558553    0.026824
  H     -2.592180   -0.799126    0.794589
  H     -2.587395   -0.640469   -0.967234

 Total Charge           Charge          ....    0
 Multiplicity           Mult            ....    1
 Number of Electrons    NEL             ....   48
 Basis Dimension        Dim             ....  246

ORBITAL ENERGIES
----------------

  NO   OCC          E(Eh)            E(eV)
   0   2.0000     -21.657789      -589.3384
   1   2.0000     -12.134216      -330.1888
   2   2.0000     -12.058065      -328.1166
   3   2.0000     -12.057612      -328.1043
   4   2.0000     -12.037920      -327.5685
   5   2.0000     -12.037842      -327.5663
   6   2.0000      -1.701331       -46.2956
   7   2.0000      -1.313892       -35.7528
   8   2.0000      -1.274363       -34.6772
   9   2.0000      -1.174814       -31.9683
  10   2.0000      -1.109542       -30.1922
  11   2.0000      -1.071534       -29.1579
  12   2.0000      -0.969843       -26.3908
  13   2.0000      -0.946969       -25.7683
  14   2.0000      -0.921028       -25.0625
  15   2.0000      -0.869311       -23.6552
  16   2.0000      -0.855690       -23.2845
  17   2.0000      -0.850740       -23.1498
  18   2.0000      -0.838164       -22.8076
  19   2.0000      -0.819975       -22.3126
  20   2.0000      -0.800355       -21.7788
  21   2.0000      -0.782754       -21.2998
  22   2.0000      -0.773711       -21.0537
  23   2.0000      -0.771539       -20.9946
  24   0.0000      -0.301986        -8.2175
  25   0.0000      -0.059077        -1.6076
  26   0.0000      -0.049010        -1.3336
  27   0.0000      -0.027010        -0.7350
  28   0.0000      -0.003552        -0.0966

MULLIKEN ATOMIC CHARGES
-----------------------
   0 C :   -0.314994
   1 C :   -0.177505
   2 C :    0.171852
   3 O :   -0.327600
   4 C :   -0.177479
   5 C :   -0.314985
   6 H :    0.119852
   7 H :    0.112210
   8 H :    0.114563
   9 H :    0.110667
  10 H :    0.113067
  11 H :    0.110607
  12 H :    0.113119
  13 H :    0.112205
  14 H :    0.119862
  15 H :    0.114559
Sum of atomic charges:   -0.0000000

LOEWDIN ATOMIC CHARGES
----------------------
   0 C :   -0.296704
   1 C :   -0.260932
   2 C :   -0.315620
   3 O :    0.113122
   4 C :   -0.260929
   5 C :   -0.296704
   6 H :    0.123933
   7 H :    0.116476
   8 H :    0.122803
   9 H :    0.146522
  10 H :    0.149150
  11 H :    0.146514
  12 H :    0.149155
  13 H :    0.116476
  14 H :    0.123930
  15 H :    0.122806

  Mayer bond orders larger than 0.100000
B(  0-C ,  1-C ) :   1.0053 B(  0-C ,  6-H ) :   0.9752 B(  0-C ,  7-H ) :   0.9805
B(  0-C ,  8-H ) :   0.9771 B(  1-C ,  2-C ) :   0.9778 B(  1-C ,  9-H ) :   0.9592
B(  1-C , 10-H ) :   0.9495 B(  2-C ,  3-O ) :   2.0920 B(  2-C ,  4-C ) :   0.9779
B(  4-C ,  5-C ) :   1.0053 B(  4-C , 11-H ) :   0.9592 B(  4-C , 12-H ) :   0.9495
B(  5-C , 13-H ) :   0.9805 B(  5-C , 14-H ) :   0.9752 B(  5-C , 15-H ) :   0.9771

FINAL SINGLE POINT ENERGY      -271.794774250909

DIPOLE MOMENT
-------------

Method             : SCF
Type of density    : Electron Density
Multiplicity       :   1
Irrep              :   0
Energy             :  -271.8054125943092458 Eh
Relativity type    :
Basis              : AO
                                X                 Y                 Z
Electronic contribution:     -0.000097325      -2.567298952       0.000923014
Nuclear contribution   :      0.000104372       3.704361297      -0.001548199
                        -----------------------------------------
Total Dipole Moment    :      0.000007047       1.137062345      -0.000625184
                        -----------------------------------------
Magnitude (a.u.)       :      1.137062517
Magnitude (Debye)      :      2.890183231

Rotational constants in cm-1:             0.297135             0.065262             0.055748
Rotational constants in MHz :          8907.869183          1956.517760          1671.283848

                             ****ORCA TERMINATED NORMALLY****
TOTAL RUN TIME: 0 days 0 hours 1 minutes 24 seconds 52 msec
