                         Program Version 6.0.0  -   RELEASE  -
|  1> ! wb97x-v def2-tzvp def2/J RIJCOSX DEFGRID2 scfconv7 GCP(DFT/TZ) printgap
|  2> %output
|  3>     printlevel normal
|  4> end
|  5> %cpcm
|  6>     smd true
|  7>     smdsolvent "water"
|  8> end
|  9> * xyz 0 1
| 10> C 2.5445577956444665 -0.08064874156626624 0.02877513263295015
| 11> C 1.2810866532897314 0.760339461981696 -0.05032803676062234
| 12> C -2.4420467007524503e-05 -0.03263975274972007 -0.00010807701448299515
| 13> O -2.0483364530202563e-05 -1.2597320607260056 0.000907098736725516
| 14> C -1.2810762387683332 0.7604253108056576 0.050213695999250026
| 15> C -2.544547367353671 -0.08060687839019842 -0.028390375928084334
| 16> H 2.5920418888174126 -0.7997639189643291 -0.7936976640589349
| 17> H 3.4299113841186006 0.5584319477865102 -0.027054726166413974
| 18> H 2.587511671618592 -0.63983343065947 0.9680119638019488
| 19> H 1.240605968766387 1.5064840738980838 0.753759920464574
| 20> H 1.251580851460918 1.344341937186841 -0.9807483529589166
| 21> H -1.2405995942558388 1.5059843228335523 -0.7543989142108701
| 22> H -1.2515191151100953 1.3450960363488003 0.9802321667838677
| 23> H -3.429880458986719 0.5585525897584228 0.026823940584146416
| 24> H -2.5921799025222594 -0.7991261463706533 0.7945886811355826
| 25> H -2.587395133726665 -0.6404687257624093 -0.9672340921105977
| 26> *
| 27>
| 28>                          ****END OF INPUT****

CARTESIAN COORDINATES (ANGSTROEM)
---------------------------------
  C      2.544558   -0.080649    0.028775
  C      1.281087    0.760339   -0.050328
  C     -0.000024   -0.032640   -0.000108
  O     -0.000020   -1.259732    0.000907
  C     -1.281076    0.760425    0.050214
  C     -2.544547   -0.080607   -0.028390
  H      2.592042   -0.799764   -0.793698
  H      3.429911    0.558432   -0.027055
  H      2.587512   -0.639833    0.968012
  H      1.240606    1.506484    0.753760
  H      1.251581    1.344342   -0.980748
  H     -1.240600    1.505984   -0.754399
  H     -1.251519    1.345096    0.980232
  H     -3.429880    0.558553    0.026824
  H     -2.592180   -0.799126    0.794589
  H     -2.587395   -0.640469   -0.967234

 Total Charge           Charge          ....    0
 Multiplicity           Mult            ....    1
 Number of Electrons    NEL             ....   48
 Basis Dimension        Dim             ....  246

ORBITAL ENERGIES
----------------

  NO   OCC          E(Eh)            E(eV)
   0   2.0000     -21.666427      -589.5734
   1   2.0000     -12.139526      -330.3333
   2   2.0000     -12.045297      -327.7692
   3   2.0000     -12.044862      -327.7574
   4   2.0000     -12.029981      -327.3524
   5   2.0000     -12.029899      -327.3502
   6   2.0000      -1.713339       -46.6223
   7   2.0000      -1.305711       -35.5302
   8   2.0000      -1.265138       -34.4262
   9   2.0000      -1.169883       -31.8341
  10   2.0000      -1.101359       -29.9695
  11   2.0000      -1.081238       -29.4220
  12   2.0000      -0.972885       -26.4736
  13   2.0000      -0.940710       -25.5980
  14   2.0000      -0.926060       -25.1994
  15   2.0000      -0.857924       -23.3453
  16   2.0000      -0.855440       -23.2777
  17   2.0000      -0.841312       -22.8933
  18   2.0000      -0.836364       -22.7586
  19   2.0000      -0.811142       -22.0723
  20   2.0000      -0.792334       -21.5605
  21   2.0000      -0.774374       -21.0718
  22   2.0000      -0.767678       -20.8896
  23   2.0000      -0.762748       -20.7554
  24   0.0000      -0.297676        -8.1002
  25   0.0000      -0.051037        -1.3888
  26   0.0000      -0.042798        -1.1646
  27   0.0000      -0.007310        -0.1989
  28   0.0000       0.007217         0.1964

MULLIKEN ATOMIC CHARGES
-----------------------
   0 C :   -0.383786
   1 C :   -0.189529
   2 C :    0.264339
   3 O :   -0.469873
   4 C :   -0.189504
   5 C :   -0.383774
   6 H :    0.125190
   7 H :    0.135611
   8 H :    0.126583
   9 H :    0.143050
  10 H :    0.145636
  11 H :    0.142977
  12 H :    0.145699
  13 H :    0.135604
  14 H :    0.125183
  15 H :    0.126596
Sum of atomic charges:    0.0000000

LOEWDIN ATOMIC CHARGES
----------------------
   0 C :   -0.306781
   1 C :   -0.250818
   2 C :   -0.290350
   3 O :    0.033807
   4 C :   -0.250814
   5 C :   -0.306780
   6 H :    0.121039
   7 H :    0.122895
   8 H :    0.121636
   9 H :    0.158783
  10 H :    0.161518
  11 H :    0.158772
  12 H :    0.161525
  13 H :    0.122894
  14 H :    0.121031
  15 H :    0.121644

  Mayer bond orders larger than 0.100000
B(  0-C ,  1-C ) :   0.9820 B(  0-C ,  6-H ) :   0.9751 B(  0-C ,  7-H ) :   0.9783
B(  0-C ,  8-H ) :   0.9769 B(  1-C ,  2-C ) :   1.0010 B(  1-C ,  9-H ) :   0.9497
B(  1-C , 10-H ) :   0.9398 B(  2-C ,  3-O ) :   1.9228 B(  2-C ,  4-C ) :   1.0011
B(  4-C ,  5-C ) :   0.9820 B(  4-C , 11-H ) :   0.9498 B(  4-C , 12-H ) :   0.9397
B(  5-C , 13-H ) :   0.9783 B(  5-C , 14-H ) :   0.9750 B(  5-C , 15-H ) :   0.9769

FINAL SINGLE POINT ENERGY      -271.802094214677

DIPOLE MOMENT
-------------

Method             : SCF
Type of density    : Electron Density
Multiplicity       :   1
Irrep              :   0
Energy             :  -271.8127325580774141 Eh
Relativity type    :
Basis              : AO
                                X                 Y                 Z
Electronic contribution:     -0.000090112      -1.911364316       0.000504162
Nuclear contribution   :      0.000104372       3.704361297      -0.001548199
                        -----------------------------------------
Total Dipole Moment    :      0.000014260       1.792996981      -0.001044037
                        -----------------------------------------
Magnitude (a.u.)       :      1.792997285
Magnitude (Debye)      :      4.557436913

Rotational constants in cm-1:             0.297135             0.065262             0.055748
Rotational constants in MHz :          8907.869183          1956.517760          1671.283848

                             ****ORCA TERMINATED NORMALLY****
TOTAL RUN TIME: 0 days 0 hours 1 minutes 26 seconds 583 msec
