                         Program Version 6.0.0  -   RELEASE  -
|  1> ! r2scan-3c def2/J RI DEFGRID2 scfconv6 printgap
|  2> %output
|  3>     printlevel normal
|  4> end
|  5> * xyz 0 1
|  6> C 1.7162983285 -0.4582397155 1.2070913154
|  7> C 1.1776597909 0.4748415215 0.1234374491
|  8> H 0.8646966029 1.4210239385 0.5763891411
|  9> C 0.0103050867 -0.1443923437 -0.657768903
| 10> C -1.2494756893 -0.4495162581 0.1598509629
| 11> C -1.8616871525 0.8138241869 0.7604782068
| 12> C -2.2734117019 -1.1474934299 -0.7358083362
| 13> O 2.2111130568 0.8602626 -0.7719835532
| 14> H 0.9879130696 -0.5759104815 2.0028444442
| 15> H 1.9428551934 -1.4367219477 0.7885408899
| 16> H 2.6256411835 -0.0369640143 1.6292365579
| 17> H -0.2492202266 0.544431185 -1.4660549934
| 18> H 0.3625854837 -1.0738542877 -1.114525512
| 19> H -0.987275094 -1.1330868679 0.973350463
| 20> H -2.7968196761 0.5747979283 1.2615298437
| 21> H -2.0671480371 1.5424807773 -0.020604465
| 22> H -1.194556559 1.2672695206 1.4883866059
| 23> H -3.165440955 -1.400481175 -0.1680406234
| 24> H -2.5629573461 -0.4961570275 -1.5575282291
| 25> H -1.8613268484 -2.0635972726 -1.1522392644
| 26> H 2.5593697435 0.0669361693 -1.2029127641
| 27> *
| 28>
| 29>                          ****END OF INPUT****

CARTESIAN COORDINATES (ANGSTROEM)
---------------------------------
  C      1.716298   -0.458240    1.207091
  C      1.177660    0.474842    0.123437
  H      0.864697    1.421024    0.576389
  C      0.010305   -0.144392   -0.657769
  C     -1.249476   -0.449516    0.159851
  C     -1.861687    0.813824    0.760478
  C     -2.273412   -1.147493   -0.735808
  O      2.211113    0.860263   -0.771984
  H      0.987913   -0.575910    2.002844
  H      1.942855   -1.436722    0.788541
  H      2.625641   -0.036964    1.629237
  H     -0.249220    0.544431   -1.466055
  H      0.362585   -1.073854   -1.114526
  H     -0.987275   -1.133087    0.973350
  H     -2.796820    0.574798    1.261530
  H     -2.067148    1.542481   -0.020604
  H     -1.194557    1.267270    1.488387
  H     -3.165441   -1.400481   -0.168041
  H     -2.562957   -0.496157   -1.557528
  H     -1.861327   -2.063597   -1.152239
  H      2.559370    0.066936   -1.202913

 Total Charge           Charge          ....    0
 Multiplicity           Mult            ....    1
 Number of Electrons    NEL             ....   58
 Basis Dimension        Dim             ....  208

ORBITAL ENERGIES
----------------

  NO   OCC          E(Eh)            E(eV)
   0   2.0000     -18.941842      -515.4337
   1   2.0000     -10.078691      -274.2551
   2   2.0000     -10.036919      -273.1185
   3   2.0000     -10.023042      -272.7408
   4   2.0000     -10.019268      -272.6382
   5   2.0000     -10.017714      -272.5959
   6   2.0000     -10.017075      -272.5785
   7   2.0000      -0.980202       -26.6727
   8   2.0000      -0.781303       -21.2603
   9   2.0000      -0.718251       -19.5446
  10   2.0000      -0.653700       -17.7881
  11   2.0000      -0.649838       -17.6830
  12   2.0000      -0.576064       -15.6755
  13   2.0000      -0.527036       -14.3414
  14   2.0000      -0.458815       -12.4850
  15   2.0000      -0.442733       -12.0474
  16   2.0000      -0.417574       -11.3628
  17   2.0000      -0.408649       -11.1199
  18   2.0000      -0.388367       -10.5680
  19   2.0000      -0.374391       -10.1877
  20   2.0000      -0.358413        -9.7529
  21   2.0000      -0.346517        -9.4292
  22   2.0000      -0.341145        -9.2830
  23   2.0000      -0.324628        -8.8336
  24   2.0000      -0.316542        -8.6136
  25   2.0000      -0.298655        -8.1268
  26   2.0000      -0.293192        -7.9782
  27   2.0000      -0.277239        -7.5440
  28   2.0000      -0.230445        -6.2707
  29   0.0000       0.067873         1.8469
  30   0.0000       0.080987         2.2038
  31   0.0000       0.109198         2.9714
  32   0.0000       0.119246         3.2449
  33   0.0000       0.121448         3.3048

MULLIKEN ATOMIC CHARGES
-----------------------
   0 C :   -0.500546
   1 C :   -0.018133
   2 H :    0.144653
   3 C :   -0.273351
   4 C :   -0.054399
   5 C :   -0.492430
   6 C :   -0.481742
   7 O :   -0.404890
   8 H :    0.151113
   9 H :    0.144848
  10 H :    0.165888
  11 H :    0.164262
  12 H :    0.129203
  13 H :    0.148939
  14 H :    0.145427
  15 H :    0.156429
  16 H :    0.147313
  17 H :    0.146889
  18 H :    0.148912
  19 H :    0.143973
  20 H :    0.287641
Sum of atomic charges:    0.0000000

LOEWDIN ATOMIC CHARGES
----------------------
   0 C :   -0.401964
   1 C :    0.043414
   2 H :    0.180947
   3 C :   -0.282761
   4 C :   -0.245996
   5 C :   -0.415654
   6 C :   -0.415113
   7 O :   -0.609948
   8 H :    0.157279
   9 H :    0.153877
  10 H :    0.163518
  11 H :    0.169895
  12 H :    0.158773
  13 H :    0.155447
  14 H :    0.154011
  15 H :    0.156143
  16 H :    0.151922
  17 H :    0.152219
  18 H :    0.154806
  19 H :    0.152561
  20 H :    0.266625

  Mayer bond orders larger than 0.100000
B(  0-C ,  1-C ) :   0.9232 B(  0-C ,  8-H ) :   0.9693 B(  0-C ,  9-H ) :   0.9737
B(  0-C , 10-H ) :   0.9705 B(  1-C ,  2-H ) :   0.9691 B(  1-C ,  3-C ) :   0.9120
B(  1-C ,  7-O ) :   0.9532 B(  3-C ,  4-C ) :   0.9003 B(  3-C , 11-H ) :   0.9790
B(  3-C , 12-H ) :   0.9680 B(  4-C ,  5-C ) :   0.8947 B(  4-C ,  6-C ) :   0.9027
B(  4-C , 13-H ) :   0.9548 B(  5-C , 14-H ) :   0.9723 B(  5-C , 15-H ) :   0.9858
B(  5-C , 16-H ) :   0.9704 B(  6-C , 17-H ) :   0.9747 B(  6-C , 18-H ) :   0.9871
B(  6-C , 19-H ) :   0.9782 B(  7-O , 20-H ) :   0.8967

Dispersion correction           -0.005585909
FINAL SINGLE POINT ENERGY      -312.203419095653

DIPOLE MOMENT
-------------

Method             : SCF
Type of density    : Electron Density
Multiplicity       :   1
Irrep              :   0
Energy             :  -312.2089451846456427 Eh
Relativity type    :
Basis              : AO
                                X                 Y                 Z
Electronic contribution:      4.910215709       2.030977317      -1.756424280
Nuclear contribution   :     -5.166190788      -2.613934817       1.900869561
                        -----------------------------------------
Total Dipole Moment    :     -0.255975079      -0.582957500       0.144445281
                        -----------------------------------------
Magnitude (a.u.)       :      0.652860725
Magnitude (Debye)      :      1.659440086

Rotational constants in cm-1:             0.141416             0.045848             0.043828
Rotational constants in MHz :          4239.531916          1374.477341          1313.921265

                             ****ORCA TERMINATED NORMALLY****
TOTAL RUN TIME: 0 days 0 hours 0 minutes 31 seconds 95 msec
