                         Program Version 6.0.0  -   RELEASE  -
|  1> ! r2scan-3c def2/J RI DEFGRID2 scfconv6 printgap
|  2> %output
|  3>     printlevel normal
|  4> end
|  5> %cpcm
|  6>     smd true
|  7>     smdsolvent "water"
|  8> end
|  9> * xyz 0 1
| 10> C 1.7162983285 -0.4582397155 1.2070913154
| 11> C 1.1776597909 0.4748415215 0.1234374491
| 12> H 0.8646966029 1.4210239385 0.5763891411
| 13> C 0.0103050867 -0.1443923437 -0.657768903
| 14> C -1.2494756893 -0.4495162581 0.1598509629
| 15> C -1.8616871525 0.8138241869 0.7604782068
| 16> C -2.2734117019 -1.1474934299 -0.7358083362
| 17> O 2.2111130568 0.8602626 -0.7719835532
| 18> H 0.9879130696 -0.5759104815 2.0028444442
| 19> H 1.9428551934 -1.4367219477 0.7885408899
| 20> H 2.6256411835 -0.0369640143 1.6292365579
| 21> H -0.2492202266 0.544431185 -1.4660549934
| 22> H 0.3625854837 -1.0738542877 -1.114525512
| 23> H -0.987275094 -1.1330868679 0.973350463
| 24> H -2.7968196761 0.5747979283 1.2615298437
| 25> H -2.0671480371 1.5424807773 -0.020604465
| 26> H -1.194556559 1.2672695206 1.4883866059
| 27> H -3.165440955 -1.400481175 -0.1680406234
| 28> H -2.5629573461 -0.4961570275 -1.5575282291
| 29> H -1.8613268484 -2.0635972726 -1.1522392644
| 30> H 2.5593697435 0.0669361693 -1.2029127641
| 31> *
| 32>
| 33>                          ****END OF INPUT****

CARTESIAN COORDINATES (ANGSTROEM)
---------------------------------
  C      1.716298   -0.458240    1.207091
  C      1.177660    0.474842    0.123437
  H      0.864697    1.421024    0.576389
  C      0.010305   -0.144392   -0.657769
  C     -1.249476   -0.449516    0.159851
  C     -1.861687    0.813824    0.760478
  C     -2.273412   -1.147493   -0.735808
  O      2.211113    0.860263   -0.771984
  H      0.987913   -0.575910    2.002844
  H      1.942855   -1.436722    0.788541
  H      2.625641   -0.036964    1.629237
  H     -0.249220    0.544431   -1.466055
  H      0.362585   -1.073854   -1.114526
  H     -0.987275   -1.133087    0.973350
  H     -2.796820    0.574798    1.261530
  H     -2.067148    1.542481   -0.020604
  H     -1.194557    1.267270    1.488387
  H     -3.165441   -1.400481   -0.168041
  H     -2.562957   -0.496157   -1.557528
  H     -1.861327   -2.063597   -1.152239
  H      2.559370    0.066936   -1.202913

 Total Charge           Charge          ....    0
 Multiplicity           Mult            ....    1
 Number of Electrons    NEL             ....   58
 Basis Dimension        Dim             ....  208

ORBITAL ENERGIES
----------------

  NO   OCC          E(Eh)            E(eV)
   0   2.0000     -18.946828      -515.5694
   1   2.0000     -10.073401      -274.1112
   2   2.0000     -10.026178      -272.8262
   3   2.0000     -10.013371      -272.4777
   4   2.0000     -10.008890      -272.3557
   5   2.0000     -10.006263      -272.2843
   6   2.0000     -10.006235      -272.2835
   7   2.0000      -0.983811       -26.7709
   8   2.0000      -0.771227       -20.9861
   9   2.0000      -0.710224       -19.3262
  10   2.0000      -0.643437       -17.5088
  11   2.0000      -0.640276       -17.4228
  12   2.0000      -0.570537       -15.5251
  13   2.0000      -0.517594       -14.0845
  14   2.0000      -0.452393       -12.3102
  15   2.0000      -0.435915       -11.8619
  16   2.0000      -0.409604       -11.1459
  17   2.0000      -0.401234       -10.9181
  18   2.0000      -0.378726       -10.3056
  19   2.0000      -0.366211        -9.9651
  20   2.0000      -0.348335        -9.4787
  21   2.0000      -0.340334        -9.2610
  22   2.0000      -0.334412        -9.0998
  23   2.0000      -0.316582        -8.6146
  24   2.0000      -0.307316        -8.3625
  25   2.0000      -0.289570        -7.8796
  26   2.0000      -0.282889        -7.6978
  27   2.0000      -0.273719        -7.4483
  28   2.0000      -0.234766        -6.3883
  29   0.0000       0.082435         2.2432
  30   0.0000       0.092922         2.5285
  31   0.0000       0.121234         3.2990
  32   0.0000       0.127792         3.4774
  33   0.0000       0.131260         3.5718

MULLIKEN ATOMIC CHARGES
-----------------------
   0 C :   -0.543340
   1 C :    0.013857
   2 H :    0.154685
   3 C :   -0.302623
   4 C :   -0.028366
   5 C :   -0.539827
   6 C :   -0.530261
   7 O :   -0.501129
   8 H :    0.169346
   9 H :    0.167507
  10 H :    0.163684
  11 H :    0.160207
  12 H :    0.154361
  13 H :    0.159495
  14 H :    0.156360
  15 H :    0.165059
  16 H :    0.160999
  17 H :    0.158330
  18 H :    0.159199
  19 H :    0.156716
  20 H :    0.345740
Sum of atomic charges:    0.0000000

LOEWDIN ATOMIC CHARGES
----------------------
   0 C :   -0.405538
   1 C :    0.043618
   2 H :    0.183791
   3 C :   -0.283536
   4 C :   -0.241717
   5 C :   -0.424292
   6 C :   -0.424071
   7 O :   -0.650563
   8 H :    0.163825
   9 H :    0.161453
  10 H :    0.161873
  11 H :    0.167995
  12 H :    0.166685
  13 H :    0.159424
  14 H :    0.156142
  15 H :    0.157447
  16 H :    0.155677
  17 H :    0.154796
  18 H :    0.156496
  19 H :    0.155366
  20 H :    0.285128

  Mayer bond orders larger than 0.100000
B(  0-C ,  1-C ) :   0.9123 B(  0-C ,  8-H ) :   0.9645 B(  0-C ,  9-H ) :   0.9723
B(  0-C , 10-H ) :   0.9681 B(  1-C ,  2-H ) :   0.9698 B(  1-C ,  3-C ) :   0.9155
B(  1-C ,  7-O ) :   0.9362 B(  3-C ,  4-C ) :   0.9020 B(  3-C , 11-H ) :   0.9769
B(  3-C , 12-H ) :   0.9669 B(  4-C ,  5-C ) :   0.8840 B(  4-C ,  6-C ) :   0.8886
B(  4-C , 13-H ) :   0.9558 B(  5-C , 14-H ) :   0.9709 B(  5-C , 15-H ) :   0.9847
B(  5-C , 16-H ) :   0.9676 B(  6-C , 17-H ) :   0.9725 B(  6-C , 18-H ) :   0.9863
B(  6-C , 19-H ) :   0.9759 B(  7-O , 20-H ) :   0.8691

Dispersion correction           -0.005585909
FINAL SINGLE POINT ENERGY      -312.209583316684

DIPOLE MOMENT
-------------

Method             : SCF
Type of density    : Electron Density
Multiplicity       :   1
Irrep              :   0
Energy             :  -312.2151094056760599 Eh
Relativity type    :
Basis              : AO
                                X                 Y                 Z
Electronic contribution:      4.841389959       1.751392085      -1.694505742
Nuclear contribution   :     -5.166190788      -2.613934817       1.900869561
                        -----------------------------------------
Total Dipole Moment    :     -0.324800829      -0.862542731       0.206363819
                        -----------------------------------------
Magnitude (a.u.)       :      0.944490110
Magnitude (Debye)      :      2.400703073

Rotational constants in cm-1:             0.141416             0.045848             0.043828
Rotational constants in MHz :          4239.531916          1374.477341          1313.921265

                             ****ORCA TERMINATED NORMALLY****
TOTAL RUN TIME: 0 days 0 hours 0 minutes 34 seconds 890 msec
