                         Program Version 6.0.0  -   RELEASE  -
|  1> ! r2scan-3c def2/J RI DEFGRID2 scfconv6 printgap
|  2> %output
|  3>     printlevel normal
|  4> end
|  5> * xyz 0 1
|  6> C 2.0509189169 -2.5120987397 0.1957498505
|  7> O 0.8116401097 -1.8491762423 -0.018063707
|  8> C 0.6632450871 -0.5146069137 0.0145925374
|  9> C 1.6377588112 0.4896468076 0.0489702049
| 10> C 1.2799855684 1.8309424558 0.0309690875
| 11> C -0.0398088645 2.2270747784 -0.0369061359
| 12> C -1.0199862629 1.2503952471 -0.0839484
| 13> C -0.6854255456 -0.0960332814 -0.0427942985
| 14> C -1.7555025638 -1.140610371 -0.0785547037
| 15> O -2.6127149118 -1.1963457327 -0.9331363644
| 16> O -1.6816308236 -1.9808537077 0.9308884997
| 17> Cl -2.6831399314 1.7136077823 -0.155559946
| 18> Cl 3.3503876582 0.1756555444 0.1014573962
| 19> H 2.5054062285 -2.2123995402 1.1397679344
| 20> H 2.7423707017 -2.3417429779 -0.6298900525
| 21> H 1.7847738268 -3.5665173224 0.236204265
| 22> H 2.0606984471 2.5736480262 0.0631149144
| 23> H -0.3078852736 3.2687308561 -0.0543649404
| 24> H -2.368455577 -2.6770313072 0.8977168344
| 25> *
| 26>
| 27>                          ****END OF INPUT****

CARTESIAN COORDINATES (ANGSTROEM)
---------------------------------
  C      2.050919   -2.512099    0.195750
  O      0.811640   -1.849176   -0.018064
  C      0.663245   -0.514607    0.014593
  C      1.637759    0.489647    0.048970
  C      1.279986    1.830942    0.030969
  C     -0.039809    2.227075   -0.036906
  C     -1.019986    1.250395   -0.083948
  C     -0.685426   -0.096033   -0.042794
  C     -1.755503   -1.140610   -0.078555
  O     -2.612715   -1.196346   -0.933136
  O     -1.681631   -1.980854    0.930888
  Cl    -2.683140    1.713608   -0.155560
  Cl     3.350388    0.175656    0.101457
  H      2.505406   -2.212400    1.139768
  H      2.742371   -2.341743   -0.629890
  H      1.784774   -3.566517    0.236204
  H      2.060698    2.573648    0.063115
  H     -0.307885    3.268731   -0.054365
  H     -2.368456   -2.677031    0.897717

 Total Charge           Charge          ....    0
 Multiplicity           Mult            ....    1
 Number of Electrons    NEL             ....  112
 Basis Dimension        Dim             ....  308

ORBITAL ENERGIES
----------------

  NO   OCC          E(Eh)            E(eV)
   0   2.0000    -101.233960     -2754.7161
   1   2.0000    -101.224245     -2754.4517
   2   2.0000     -19.010097      -517.2910
   3   2.0000     -19.009552      -517.2762
   4   2.0000     -18.940429      -515.3953
   5   2.0000     -10.174388      -276.8592
   6   2.0000     -10.138190      -275.8742
   7   2.0000     -10.118265      -275.3320
   8   2.0000     -10.116506      -275.2841
   9   2.0000     -10.098195      -274.7858
  10   2.0000     -10.074838      -274.1503
  11   2.0000     -10.067311      -273.9455
  12   2.0000     -10.057962      -273.6911
  13   2.0000      -9.390089      -255.5173
  14   2.0000      -9.380173      -255.2475
  15   2.0000      -7.136506      -194.1942
  16   2.0000      -7.126649      -193.9260
  17   2.0000      -7.126183      -193.9133
  18   2.0000      -7.125792      -193.9026
  19   2.0000      -7.116490      -193.6495
  20   2.0000      -7.115632      -193.6262
  21   2.0000      -1.087468       -29.5915
  22   2.0000      -1.060687       -28.8627
  23   2.0000      -0.986614       -26.8471
  24   2.0000      -0.885126       -24.0855
  25   2.0000      -0.854726       -23.2583
  26   2.0000      -0.803102       -21.8535
  27   2.0000      -0.765170       -20.8213
  28   2.0000      -0.714873       -19.4527
  29   2.0000      -0.683214       -18.5912
  30   2.0000      -0.653243       -17.7757
  31   2.0000      -0.596429       -16.2296
  32   2.0000      -0.574837       -15.6421
  33   2.0000      -0.518972       -14.1219
  34   2.0000      -0.504232       -13.7208
  35   2.0000      -0.492661       -13.4060
  36   2.0000      -0.461538       -12.5591
  37   2.0000      -0.454278       -12.3615
  38   2.0000      -0.446900       -12.1608
  39   2.0000      -0.433354       -11.7922
  40   2.0000      -0.421777       -11.4771
  41   2.0000      -0.418580       -11.3901
  42   2.0000      -0.395568       -10.7640
  43   2.0000      -0.386038       -10.5046
  44   2.0000      -0.372811       -10.1447
  45   2.0000      -0.359608        -9.7854
  46   2.0000      -0.353055        -9.6071
  47   2.0000      -0.339652        -9.2424
  48   2.0000      -0.330363        -8.9896
  49   2.0000      -0.305053        -8.3009
  50   2.0000      -0.292224        -7.9518
  51   2.0000      -0.287895        -7.8340
  52   2.0000      -0.283776        -7.7219
  53   2.0000      -0.254967        -6.9380
  54   2.0000      -0.236444        -6.4340
  55   2.0000      -0.220096        -5.9891
  56   0.0000      -0.075938        -2.0664
  57   0.0000      -0.047550        -1.2939
  58   0.0000      -0.019839        -0.5398
  59   0.0000      -0.006350        -0.1728
  60   0.0000       0.010749         0.2925

MULLIKEN ATOMIC CHARGES
-----------------------
   0 C :   -0.305120
   1 O :   -0.163851
   2 C :    0.364896
   3 C :   -0.079030
   4 C :   -0.162867
   5 C :   -0.275479
   6 C :    0.098341
   7 C :    0.031370
   8 C :    0.261821
   9 O :   -0.374481
  10 O :   -0.306466
  11 Cl:   -0.097857
  12 Cl:   -0.139406
  13 H :    0.162972
  14 H :    0.165050
  15 H :    0.153871
  16 H :    0.164487
  17 H :    0.165180
  18 H :    0.336568
Sum of atomic charges:    0.0000000

LOEWDIN ATOMIC CHARGES
----------------------
   0 C :   -0.049615
   1 O :   -0.660836
   2 C :    0.219639
   3 C :   -0.162000
   4 C :   -0.146206
   5 C :   -0.179799
   6 C :   -0.126357
   7 C :   -0.011655
   8 C :    0.358678
   9 O :   -0.400058
  10 O :   -0.364379
  11 Cl:    0.192798
  12 Cl:    0.141940
  13 H :    0.170660
  14 H :    0.169768
  15 H :    0.178639
  16 H :    0.182812
  17 H :    0.182420
  18 H :    0.303552

  Mayer bond orders larger than 0.100000
B(  0-C ,  1-O ) :   0.8304 B(  0-C , 13-H ) :   0.9585 B(  0-C , 14-H ) :   0.9560
B(  0-C , 15-H ) :   0.9670 B(  1-O ,  2-C ) :   1.1050 B(  2-C ,  3-C ) :   1.2589
B(  2-C ,  7-C ) :   1.2811 B(  3-C ,  4-C ) :   1.2980 B(  3-C , 12-Cl) :   1.0111
B(  4-C ,  5-C ) :   1.3477 B(  4-C , 16-H ) :   0.9511 B(  5-C ,  6-C ) :   1.3019
B(  5-C , 11-Cl) :   0.1004 B(  5-C , 17-H ) :   0.9371 B(  6-C ,  7-C ) :   1.2784
B(  6-C , 11-Cl) :   1.0287 B(  7-C ,  8-C ) :   0.9435 B(  8-C ,  9-O ) :   1.9560
B(  8-C , 10-O ) :   1.0803 B( 10-O , 18-H ) :   0.8550

Dispersion correction           -0.008592664
FINAL SINGLE POINT ENERGY     -1454.380585461918

DIPOLE MOMENT
-------------

Method             : SCF
Type of density    : Electron Density
Multiplicity       :   1
Irrep              :   0
Energy             : -1454.3850200301058067 Eh
Relativity type    :
Basis              : AO
                                X                 Y                 Z
Electronic contribution:     -4.080287090       6.773189405      -0.973327578
Nuclear contribution   :      5.073072929      -7.259097464       1.622696564
                        -----------------------------------------
Total Dipole Moment    :      0.992785839      -0.485908058       0.649368986
                        -----------------------------------------
Magnitude (a.u.)       :      1.281955710
Magnitude (Debye)      :      3.258472460

Rotational constants in cm-1:             0.032218             0.015972             0.011077
Rotational constants in MHz :           965.863175           478.841984           332.074540

                             ****ORCA TERMINATED NORMALLY****
TOTAL RUN TIME: 0 days 0 hours 0 minutes 48 seconds 613 msec
