                         Program Version 6.0.0  -   RELEASE  -
|  1> ! r2scan-3c def2/J RI DEFGRID2 scfconv6 printgap
|  2> %output
|  3>     printlevel normal
|  4> end
|  5> %cpcm
|  6>     smd true
|  7>     smdsolvent "water"
|  8> end
|  9> * xyz 0 1
| 10> C 2.0509189169 -2.5120987397 0.1957498505
| 11> O 0.8116401097 -1.8491762423 -0.018063707
| 12> C 0.6632450871 -0.5146069137 0.0145925374
| 13> C 1.6377588112 0.4896468076 0.0489702049
| 14> C 1.2799855684 1.8309424558 0.0309690875
| 15> C -0.0398088645 2.2270747784 -0.0369061359
| 16> C -1.0199862629 1.2503952471 -0.0839484
| 17> C -0.6854255456 -0.0960332814 -0.0427942985
| 18> C -1.7555025638 -1.140610371 -0.0785547037
| 19> O -2.6127149118 -1.1963457327 -0.9331363644
| 20> O -1.6816308236 -1.9808537077 0.9308884997
| 21> Cl -2.6831399314 1.7136077823 -0.155559946
| 22> Cl 3.3503876582 0.1756555444 0.1014573962
| 23> H 2.5054062285 -2.2123995402 1.1397679344
| 24> H 2.7423707017 -2.3417429779 -0.6298900525
| 25> H 1.7847738268 -3.5665173224 0.236204265
| 26> H 2.0606984471 2.5736480262 0.0631149144
| 27> H -0.3078852736 3.2687308561 -0.0543649404
| 28> H -2.368455577 -2.6770313072 0.8977168344
| 29> *
| 30>
| 31>                          ****END OF INPUT****

CARTESIAN COORDINATES (ANGSTROEM)
---------------------------------
  C      2.050919   -2.512099    0.195750
  O      0.811640   -1.849176   -0.018064
  C      0.663245   -0.514607    0.014593
  C      1.637759    0.489647    0.048970
  C      1.279986    1.830942    0.030969
  C     -0.039809    2.227075   -0.036906
  C     -1.019986    1.250395   -0.083948
  C     -0.685426   -0.096033   -0.042794
  C     -1.755503   -1.140610   -0.078555
  O     -2.612715   -1.196346   -0.933136
  O     -1.681631   -1.980854    0.930888
  Cl    -2.683140    1.713608   -0.155560
  Cl     3.350388    0.175656    0.101457
  H      2.505406   -2.212400    1.139768
  H      2.742371   -2.341743   -0.629890
  H      1.784774   -3.566517    0.236204
  H      2.060698    2.573648    0.063115
  H     -0.307885    3.268731   -0.054365
  H     -2.368456   -2.677031    0.897717

 Total Charge           Charge          ....    0
 Multiplicity           Mult            ....    1
 Number of Electrons    NEL             ....  112
 Basis Dimension        Dim             ....  308

ORBITAL ENERGIES
----------------

  NO   OCC          E(Eh)            E(eV)
   0   2.0000    -101.230888     -2754.6325
   1   2.0000    -101.229099     -2754.5838
   2   2.0000     -19.007938      -517.2323
   3   2.0000     -19.004873      -517.1489
   4   2.0000     -18.954400      -515.7754
   5   2.0000     -10.184524      -277.1350
   6   2.0000     -10.135986      -275.8142
   7   2.0000     -10.118194      -275.3301
   8   2.0000     -10.113312      -275.1972
   9   2.0000     -10.078869      -274.2600
  10   2.0000     -10.073972      -274.1267
  11   2.0000     -10.062019      -273.8015
  12   2.0000     -10.053087      -273.5584
  13   2.0000      -9.387015      -255.4337
  14   2.0000      -9.385240      -255.3854
  15   2.0000      -7.133324      -194.1076
  16   2.0000      -7.131671      -194.0626
  17   2.0000      -7.123366      -193.8367
  18   2.0000      -7.122566      -193.8149
  19   2.0000      -7.121397      -193.7831
  20   2.0000      -7.120860      -193.7684
  21   2.0000      -1.090268       -29.6677
  22   2.0000      -1.055348       -28.7175
  23   2.0000      -0.997056       -27.1313
  24   2.0000      -0.884309       -24.0633
  25   2.0000      -0.854109       -23.2415
  26   2.0000      -0.802929       -21.8488
  27   2.0000      -0.760891       -20.7049
  28   2.0000      -0.711875       -19.3711
  29   2.0000      -0.674392       -18.3511
  30   2.0000      -0.650230       -17.6937
  31   2.0000      -0.591139       -16.0857
  32   2.0000      -0.569355       -15.4929
  33   2.0000      -0.515688       -14.0326
  34   2.0000      -0.499252       -13.5853
  35   2.0000      -0.489865       -13.3299
  36   2.0000      -0.467604       -12.7242
  37   2.0000      -0.449930       -12.2432
  38   2.0000      -0.446116       -12.1394
  39   2.0000      -0.433684       -11.8011
  40   2.0000      -0.424692       -11.5565
  41   2.0000      -0.408551       -11.1172
  42   2.0000      -0.391628       -10.6567
  43   2.0000      -0.383152       -10.4261
  44   2.0000      -0.369362       -10.0509
  45   2.0000      -0.359987        -9.7957
  46   2.0000      -0.353544        -9.6204
  47   2.0000      -0.332348        -9.0436
  48   2.0000      -0.326432        -8.8827
  49   2.0000      -0.311687        -8.4814
  50   2.0000      -0.292232        -7.9520
  51   2.0000      -0.291569        -7.9340
  52   2.0000      -0.281672        -7.6647
  53   2.0000      -0.266092        -7.2407
  54   2.0000      -0.240326        -6.5396
  55   2.0000      -0.217196        -5.9102
  56   0.0000      -0.077508        -2.1091
  57   0.0000      -0.045501        -1.2381
  58   0.0000      -0.021181        -0.5764
  59   0.0000      -0.006532        -0.1777
  60   0.0000       0.008952         0.2436

MULLIKEN ATOMIC CHARGES
-----------------------
   0 C :   -0.330634
   1 O :   -0.188998
   2 C :    0.396334
   3 C :   -0.088486
   4 C :   -0.174264
   5 C :   -0.300210
   6 C :    0.088901
   7 C :    0.024077
   8 C :    0.279912
   9 O :   -0.448532
  10 O :   -0.327388
  11 Cl:   -0.120503
  12 Cl:   -0.139580
  13 H :    0.181052
  14 H :    0.180305
  15 H :    0.176866
  16 H :    0.200933
  17 H :    0.200599
  18 H :    0.389617
Sum of atomic charges:    0.0000000

LOEWDIN ATOMIC CHARGES
----------------------
   0 C :   -0.046655
   1 O :   -0.673805
   2 C :    0.222923
   3 C :   -0.160482
   4 C :   -0.138419
   5 C :   -0.177411
   6 C :   -0.134154
   7 C :   -0.021493
   8 C :    0.364732
   9 O :   -0.459595
  10 O :   -0.352854
  11 Cl:    0.174717
  12 Cl:    0.143003
  13 H :    0.177669
  14 H :    0.175807
  15 H :    0.188035
  16 H :    0.196386
  17 H :    0.195193
  18 H :    0.326403

  Mayer bond orders larger than 0.100000
B(  0-C ,  1-O ) :   0.8182 B(  0-C , 13-H ) :   0.9525 B(  0-C , 14-H ) :   0.9503
B(  0-C , 15-H ) :   0.9582 B(  1-O ,  2-C ) :   1.1058 B(  2-C ,  3-C ) :   1.2393
B(  2-C ,  7-C ) :   1.2759 B(  3-C ,  4-C ) :   1.2734 B(  3-C , 12-Cl) :   1.0249
B(  4-C ,  5-C ) :   1.3627 B(  4-C , 16-H ) :   0.9498 B(  5-C ,  6-C ) :   1.2762
B(  5-C , 17-H ) :   0.9411 B(  6-C ,  7-C ) :   1.2474 B(  6-C , 11-Cl) :   1.0201
B(  7-C ,  8-C ) :   0.9484 B(  8-C ,  9-O ) :   1.9003 B(  8-C , 10-O ) :   1.1195
B( 10-O , 18-H ) :   0.8278

Dispersion correction           -0.008592664
FINAL SINGLE POINT ENERGY     -1454.392305181886

DIPOLE MOMENT
-------------

Method             : SCF
Type of density    : Electron Density
Multiplicity       :   1
Irrep              :   0
Energy             : -1454.3967397500737206 Eh
Relativity type    :
Basis              : AO
                                X                 Y                 Z
Electronic contribution:     -3.589336601       6.722360666      -0.677405499
Nuclear contribution   :      5.073072929      -7.259097464       1.622696564
                        -----------------------------------------
Total Dipole Moment    :      1.483736328      -0.536736798       0.945291065
                        -----------------------------------------
Magnitude (a.u.)       :      1.839330062
Magnitude (Debye)      :      4.675205472

Rotational constants in cm-1:             0.032218             0.015972             0.011077
Rotational constants in MHz :           965.863175           478.841984           332.074540

                             ****ORCA TERMINATED NORMALLY****
TOTAL RUN TIME: 0 days 0 hours 1 minutes 1 seconds 532 msec
