                         Program Version 6.0.0  -   RELEASE  -
|  1> ! r2scan-3c def2/J RI DEFGRID2 scfconv6 printgap
|  2> %output
|  3>     printlevel normal
|  4> end
|  5> * xyz 0 1
|  6> C -3.0326089955 -0.6661270804 2.0505824192
|  7> C -3.0016436706 -1.4576378638 0.7478516767
|  8> C -2.7195569613 -0.5685562268 -0.4662349492
|  9> H -3.4821749524 0.2159885415 -0.5121810585
| 10> C -2.729690769 -1.3518660695 -1.7750438089
| 11> N -1.4483706424 0.162387495 -0.3064427672
| 12> C -0.2575820312 -0.5502337097 -0.2034479974
| 13> O -0.2233111383 -1.7663324496 -0.2559274645
| 14> C 0.9276869687 0.2679047555 -0.0296241159
| 15> C 0.8855853236 1.6214570472 0.0277255124
| 16> N -0.3434346844 2.2039769978 -0.0866908953
| 17> C -1.5277739294 1.5349078838 -0.2500920115
| 18> O -2.5742134931 2.1536410284 -0.3390974171
| 19> C 2.039235618 2.5373767982 0.20223824
| 20> Br 2.5480493938 -0.7174743334 0.1118512708
| 21> H -3.7251826753 0.1696298829 1.9727428012
| 22> H -3.3482927786 -1.3058050736 2.8697900057
| 23> H -2.0462699207 -0.2719662876 2.2906381554
| 24> H -2.2492611439 -2.2449004112 0.8061304529
| 25> H -3.9714706653 -1.9278845554 0.5846003305
| 26> H -3.7116066515 -1.7915321902 -1.9185729975
| 27> H -2.5169886335 -0.6909980627 -2.6123009073
| 28> H -1.98880296 -2.1463220774 -1.7517269733
| 29> H -0.4171667003 3.2159254302 -0.0478943551
| 30> H 2.1031905402 3.2152028568 -0.6464401841
| 31> H 2.9683888281 1.9822421113 0.2823545014
| 32> H 1.903861433 3.1338088869 1.1021273489
| 33> *
| 34>
| 35>                          ****END OF INPUT****

CARTESIAN COORDINATES (ANGSTROEM)
---------------------------------
  C     -3.032609   -0.666127    2.050582
  C     -3.001644   -1.457638    0.747852
  C     -2.719557   -0.568556   -0.466235
  H     -3.482175    0.215989   -0.512181
  C     -2.729691   -1.351866   -1.775044
  N     -1.448371    0.162387   -0.306443
  C     -0.257582   -0.550234   -0.203448
  O     -0.223311   -1.766332   -0.255927
  C      0.927687    0.267905   -0.029624
  C      0.885585    1.621457    0.027726
  N     -0.343435    2.203977   -0.086691
  C     -1.527774    1.534908   -0.250092
  O     -2.574213    2.153641   -0.339097
  C      2.039236    2.537377    0.202238
  Br     2.548049   -0.717474    0.111851
  H     -3.725183    0.169630    1.972743
  H     -3.348293   -1.305805    2.869790
  H     -2.046270   -0.271966    2.290638
  H     -2.249261   -2.244900    0.806130
  H     -3.971471   -1.927885    0.584600
  H     -3.711607   -1.791532   -1.918573
  H     -2.516989   -0.690998   -2.612301
  H     -1.988803   -2.146322   -1.751727
  H     -0.417167    3.215925   -0.047894
  H      2.103191    3.215203   -0.646440
  H      2.968389    1.982242    0.282355
  H      1.903861    3.133809    1.102127

 Total Charge           Charge          ....    0
 Multiplicity           Mult            ....    1
 Number of Electrons    NEL             ....  132
 Basis Dimension        Dim             ....  368

ORBITAL ENERGIES
----------------

  NO   OCC          E(Eh)            E(eV)
   0   2.0000    -482.235444    -13122.2936
   1   2.0000     -62.306628     -1695.4495
   2   2.0000     -56.087232     -1526.2112
   3   2.0000     -56.084403     -1526.1342
   4   2.0000     -56.084234     -1526.1296
   5   2.0000     -18.932438      -515.1778
   6   2.0000     -18.928292      -515.0650
   7   2.0000     -14.239979      -387.4895
   8   2.0000     -14.227829      -387.1589
   9   2.0000     -10.182523      -277.0805
  10   2.0000     -10.153051      -276.2786
  11   2.0000     -10.130587      -275.6673
  12   2.0000     -10.101339      -274.8714
  13   2.0000     -10.076932      -274.2073
  14   2.0000     -10.068997      -273.9913
  15   2.0000     -10.025796      -272.8158
  16   2.0000     -10.018024      -272.6043
  17   2.0000     -10.017241      -272.5830
  18   2.0000      -8.638462      -235.0645
  19   2.0000      -6.446718      -175.4241
  20   2.0000      -6.432131      -175.0272
  21   2.0000      -6.431444      -175.0085
  22   2.0000      -2.544106       -69.2286
  23   2.0000      -2.540522       -69.1311
  24   2.0000      -2.540045       -69.1181
  25   2.0000      -2.529188       -68.8227
  26   2.0000      -2.529177       -68.8224
  27   2.0000      -1.054253       -28.6877
  28   2.0000      -1.016779       -27.6680
  29   2.0000      -0.958641       -26.0859
  30   2.0000      -0.919770       -25.0282
  31   2.0000      -0.814352       -22.1596
  32   2.0000      -0.774860       -21.0850
  33   2.0000      -0.750265       -20.4157
  34   2.0000      -0.709044       -19.2941
  35   2.0000      -0.695389       -18.9225
  36   2.0000      -0.641959       -17.4686
  37   2.0000      -0.636372       -17.3166
  38   2.0000      -0.599358       -16.3094
  39   2.0000      -0.567747       -15.4492
  40   2.0000      -0.553580       -15.0637
  41   2.0000      -0.518746       -14.1158
  42   2.0000      -0.474946       -12.9239
  43   2.0000      -0.458478       -12.4758
  44   2.0000      -0.438227       -11.9248
  45   2.0000      -0.436371       -11.8743
  46   2.0000      -0.414763       -11.2863
  47   2.0000      -0.411332       -11.1929
  48   2.0000      -0.404548       -11.0083
  49   2.0000      -0.398737       -10.8502
  50   2.0000      -0.396994       -10.8028
  51   2.0000      -0.390436       -10.6243
  52   2.0000      -0.383098       -10.4246
  53   2.0000      -0.375329       -10.2132
  54   2.0000      -0.359396        -9.7797
  55   2.0000      -0.338290        -9.2053
  56   2.0000      -0.336013        -9.1434
  57   2.0000      -0.316760        -8.6195
  58   2.0000      -0.309866        -8.4319
  59   2.0000      -0.305465        -8.3121
  60   2.0000      -0.292193        -7.9510
  61   2.0000      -0.269627        -7.3369
  62   2.0000      -0.255822        -6.9613
  63   2.0000      -0.253379        -6.8948
  64   2.0000      -0.234151        -6.3716
  65   2.0000      -0.219544        -5.9741
  66   0.0000      -0.074534        -2.0282
  67   0.0000      -0.034218        -0.9311
  68   0.0000      -0.024890        -0.6773
  69   0.0000       0.037766         1.0277
  70   0.0000       0.066393         1.8066

MULLIKEN ATOMIC CHARGES
-----------------------
   0 C :   -0.517116
   1 C :   -0.275564
   2 C :   -0.067306
   3 H :    0.217074
   4 C :   -0.547343
   5 N :    0.174830
   6 C :    0.197622
   7 O :   -0.429309
   8 C :   -0.176478
   9 C :    0.218036
  10 N :   -0.029204
  11 C :    0.249605
  12 O :   -0.460061
  13 C :   -0.605996
  14 Br:   -0.080863
  15 H :    0.160399
  16 H :    0.152287
  17 H :    0.149135
  18 H :    0.195142
  19 H :    0.148272
  20 H :    0.151002
  21 H :    0.153257
  22 H :    0.199353
  23 H :    0.282065
  24 H :    0.176784
  25 H :    0.187594
  26 H :    0.176782
Sum of atomic charges:   -0.0000000

LOEWDIN ATOMIC CHARGES
----------------------
   0 C :   -0.409413
   1 C :   -0.265547
   2 C :    0.042746
   3 H :    0.221616
   4 C :   -0.363975
   5 N :   -0.625951
   6 C :    0.355711
   7 O :   -0.476334
   8 C :   -0.193009
   9 C :    0.154530
  10 N :   -0.516892
  11 C :    0.458420
  12 O :   -0.423336
  13 C :   -0.350831
  14 Br:    0.256997
  15 H :    0.156054
  16 H :    0.153018
  17 H :    0.153483
  18 H :    0.182564
  19 H :    0.159758
  20 H :    0.158358
  21 H :    0.159577
  22 H :    0.181085
  23 H :    0.299310
  24 H :    0.175928
  25 H :    0.180192
  26 H :    0.175940

  Mayer bond orders larger than 0.100000
B(  0-C ,  1-C ) :   0.8475 B(  0-C , 15-H ) :   0.9783 B(  0-C , 16-H ) :   0.9711
B(  0-C , 17-H ) :   0.9838 B(  1-C ,  2-C ) :   0.8961 B(  1-C , 18-H ) :   0.9754
B(  1-C , 19-H ) :   0.9658 B(  2-C ,  3-H ) :   0.9568 B(  2-C ,  4-C ) :   0.8788
B(  2-C ,  5-N ) :   0.8360 B(  4-C , 20-H ) :   0.9700 B(  4-C , 21-H ) :   0.9769
B(  4-C , 22-H ) :   0.9749 B(  5-N ,  6-C ) :   1.1278 B(  5-N , 11-C ) :   1.1156
B(  6-C ,  7-O ) :   1.9302 B(  6-C ,  8-C ) :   0.9526 B(  6-C , 14-Br) :  -0.1222
B(  8-C ,  9-C ) :   1.4802 B(  8-C , 14-Br) :   1.2148 B(  9-C , 10-N ) :   1.1453
B(  9-C , 13-C ) :   0.8433 B( 10-N , 11-C ) :   1.0519 B( 10-N , 23-H ) :   0.9058
B( 11-C , 12-O ) :   1.8984 B( 13-C , 24-H ) :   0.9671 B( 13-C , 25-H ) :   0.9550
B( 13-C , 26-H ) :   0.9668

Dispersion correction           -0.011557335
FINAL SINGLE POINT ENERGY     -3184.787214391295

DIPOLE MOMENT
-------------

Method             : SCF
Type of density    : Electron Density
Multiplicity       :   1
Irrep              :   0
Energy             : -3184.7970984484218206 Eh
Relativity type    :
Basis              : AO
                                X                 Y                 Z
Electronic contribution:     43.435812748      -6.747208515      -1.064143695
Nuclear contribution   :    -42.925277765       8.137823610       1.220195930
                        -----------------------------------------
Total Dipole Moment    :      0.510534983       1.390615095       0.156052236
                        -----------------------------------------
Magnitude (a.u.)       :      1.489566585
Magnitude (Debye)      :      3.786177367

Rotational constants in cm-1:             0.027000             0.012083             0.009674
Rotational constants in MHz :           809.450523           362.232085           290.018920

                             ****ORCA TERMINATED NORMALLY****
TOTAL RUN TIME: 0 days 0 hours 1 minutes 24 seconds 657 msec
