                         Program Version 6.0.0  -   RELEASE  -
|  1> ! r2scan-3c def2/J RI DEFGRID2 scfconv6 printgap
|  2> %output
|  3>     printlevel normal
|  4> end
|  5> %cpcm
|  6>     smd true
|  7>     smdsolvent "water"
|  8> end
|  9> * xyz 0 1
| 10> C -3.0326089955 -0.6661270804 2.0505824192
| 11> C -3.0016436706 -1.4576378638 0.7478516767
| 12> C -2.7195569613 -0.5685562268 -0.4662349492
| 13> H -3.4821749524 0.2159885415 -0.5121810585
| 14> C -2.729690769 -1.3518660695 -1.7750438089
| 15> N -1.4483706424 0.162387495 -0.3064427672
| 16> C -0.2575820312 -0.5502337097 -0.2034479974
| 17> O -0.2233111383 -1.7663324496 -0.2559274645
| 18> C 0.9276869687 0.2679047555 -0.0296241159
| 19> C 0.8855853236 1.6214570472 0.0277255124
| 20> N -0.3434346844 2.2039769978 -0.0866908953
| 21> C -1.5277739294 1.5349078838 -0.2500920115
| 22> O -2.5742134931 2.1536410284 -0.3390974171
| 23> C 2.039235618 2.5373767982 0.20223824
| 24> Br 2.5480493938 -0.7174743334 0.1118512708
| 25> H -3.7251826753 0.1696298829 1.9727428012
| 26> H -3.3482927786 -1.3058050736 2.8697900057
| 27> H -2.0462699207 -0.2719662876 2.2906381554
| 28> H -2.2492611439 -2.2449004112 0.8061304529
| 29> H -3.9714706653 -1.9278845554 0.5846003305
| 30> H -3.7116066515 -1.7915321902 -1.9185729975
| 31> H -2.5169886335 -0.6909980627 -2.6123009073
| 32> H -1.98880296 -2.1463220774 -1.7517269733
| 33> H -0.4171667003 3.2159254302 -0.0478943551
| 34> H 2.1031905402 3.2152028568 -0.6464401841
| 35> H 2.9683888281 1.9822421113 0.2823545014
| 36> H 1.903861433 3.1338088869 1.1021273489
| 37> *
| 38>
| 39>                          ****END OF INPUT****

CARTESIAN COORDINATES (ANGSTROEM)
---------------------------------
  C     -3.032609   -0.666127    2.050582
  C     -3.001644   -1.457638    0.747852
  C     -2.719557   -0.568556   -0.466235
  H     -3.482175    0.215989   -0.512181
  C     -2.729691   -1.351866   -1.775044
  N     -1.448371    0.162387   -0.306443
  C     -0.257582   -0.550234   -0.203448
  O     -0.223311   -1.766332   -0.255927
  C      0.927687    0.267905   -0.029624
  C      0.885585    1.621457    0.027726
  N     -0.343435    2.203977   -0.086691
  C     -1.527774    1.534908   -0.250092
  O     -2.574213    2.153641   -0.339097
  C      2.039236    2.537377    0.202238
  Br     2.548049   -0.717474    0.111851
  H     -3.725183    0.169630    1.972743
  H     -3.348293   -1.305805    2.869790
  H     -2.046270   -0.271966    2.290638
  H     -2.249261   -2.244900    0.806130
  H     -3.971471   -1.927885    0.584600
  H     -3.711607   -1.791532   -1.918573
  H     -2.516989   -0.690998   -2.612301
  H     -1.988803   -2.146322   -1.751727
  H     -0.417167    3.215925   -0.047894
  H      2.103191    3.215203   -0.646440
  H      2.968389    1.982242    0.282355
  H      1.903861    3.133809    1.102127

 Total Charge           Charge          ....    0
 Multiplicity           Mult            ....    1
 Number of Electrons    NEL             ....  132
 Basis Dimension        Dim             ....  368

ORBITAL ENERGIES
----------------

  NO   OCC          E(Eh)            E(eV)
   0   2.0000    -482.234527    -13122.2686
   1   2.0000     -62.305762     -1695.4260
   2   2.0000     -56.086321     -1526.1864
   3   2.0000     -56.083551     -1526.1110
   4   2.0000     -56.083393     -1526.1067
   5   2.0000     -18.938748      -515.3495
   6   2.0000     -18.934001      -515.2204
   7   2.0000     -14.227448      -387.1485
   8   2.0000     -14.227299      -387.1445
   9   2.0000     -10.183938      -277.1190
  10   2.0000     -10.156252      -276.3657
  11   2.0000     -10.121136      -275.4101
  12   2.0000     -10.094420      -274.6831
  13   2.0000     -10.073787      -274.1217
  14   2.0000     -10.040232      -273.2086
  15   2.0000     -10.021918      -272.7103
  16   2.0000     -10.013825      -272.4900
  17   2.0000     -10.011131      -272.4167
  18   2.0000      -8.637653      -235.0425
  19   2.0000      -6.445684      -175.3960
  20   2.0000      -6.431441      -175.0084
  21   2.0000      -6.430755      -174.9897
  22   2.0000      -2.543144       -69.2025
  23   2.0000      -2.539642       -69.1072
  24   2.0000      -2.539166       -69.0942
  25   2.0000      -2.528558       -68.8056
  26   2.0000      -2.528546       -68.8052
  27   2.0000      -1.055503       -28.7217
  28   2.0000      -1.023092       -27.8397
  29   2.0000      -0.952706       -25.9244
  30   2.0000      -0.917310       -24.9613
  31   2.0000      -0.807994       -21.9866
  32   2.0000      -0.768279       -20.9059
  33   2.0000      -0.739144       -20.1131
  34   2.0000      -0.702666       -19.1205
  35   2.0000      -0.687082       -18.6964
  36   2.0000      -0.637504       -17.3474
  37   2.0000      -0.625847       -17.0302
  38   2.0000      -0.593593       -16.1525
  39   2.0000      -0.562075       -15.2948
  40   2.0000      -0.547496       -14.8981
  41   2.0000      -0.507083       -13.7984
  42   2.0000      -0.468662       -12.7529
  43   2.0000      -0.453189       -12.3319
  44   2.0000      -0.439196       -11.9511
  45   2.0000      -0.420770       -11.4497
  46   2.0000      -0.416913       -11.3448
  47   2.0000      -0.405478       -11.0336
  48   2.0000      -0.398591       -10.8462
  49   2.0000      -0.391913       -10.6645
  50   2.0000      -0.388951       -10.5839
  51   2.0000      -0.385400       -10.4873
  52   2.0000      -0.373660       -10.1678
  53   2.0000      -0.372041       -10.1238
  54   2.0000      -0.353910        -9.6304
  55   2.0000      -0.335507        -9.1296
  56   2.0000      -0.326607        -8.8874
  57   2.0000      -0.311159        -8.4671
  58   2.0000      -0.308587        -8.3971
  59   2.0000      -0.302396        -8.2286
  60   2.0000      -0.291952        -7.9444
  61   2.0000      -0.270000        -7.3471
  62   2.0000      -0.261877        -7.1260
  63   2.0000      -0.256261        -6.9732
  64   2.0000      -0.241115        -6.5611
  65   2.0000      -0.215884        -5.8745
  66   0.0000      -0.066983        -1.8227
  67   0.0000      -0.030474        -0.8292
  68   0.0000      -0.025393        -0.6910
  69   0.0000       0.056649         1.5415
  70   0.0000       0.077369         2.1053

MULLIKEN ATOMIC CHARGES
-----------------------
   0 C :   -0.565676
   1 C :   -0.269139
   2 C :   -0.052264
   3 H :    0.217905
   4 C :   -0.581076
   5 N :    0.199039
   6 C :    0.180250
   7 O :   -0.491129
   8 C :   -0.179386
   9 C :    0.244016
  10 N :   -0.029827
  11 C :    0.280141
  12 O :   -0.541985
  13 C :   -0.615326
  14 Br:   -0.111553
  15 H :    0.166862
  16 H :    0.165302
  17 H :    0.168015
  18 H :    0.179474
  19 H :    0.169236
  20 H :    0.173522
  21 H :    0.172113
  22 H :    0.185892
  23 H :    0.338446
  24 H :    0.208024
  25 H :    0.181259
  26 H :    0.207865
Sum of atomic charges:   -0.0000000

LOEWDIN ATOMIC CHARGES
----------------------
   0 C :   -0.416546
   1 C :   -0.265497
   2 C :    0.045233
   3 H :    0.222331
   4 C :   -0.368483
   5 N :   -0.614417
   6 C :    0.357552
   7 O :   -0.535682
   8 C :   -0.202562
   9 C :    0.180695
  10 N :   -0.477428
  11 C :    0.465693
  12 O :   -0.481447
  13 C :   -0.344356
  14 Br:    0.237010
  15 H :    0.157231
  16 H :    0.156285
  17 H :    0.158204
  18 H :    0.176272
  19 H :    0.166708
  20 H :    0.165502
  21 H :    0.165078
  22 H :    0.174783
  23 H :    0.317870
  24 H :    0.192029
  25 H :    0.175970
  26 H :    0.191973

  Mayer bond orders larger than 0.100000
B(  0-C ,  1-C ) :   0.8362 B(  0-C , 15-H ) :   0.9781 B(  0-C , 16-H ) :   0.9679
B(  0-C , 17-H ) :   0.9808 B(  1-C ,  2-C ) :   0.8956 B(  1-C , 18-H ) :   0.9776
B(  1-C , 19-H ) :   0.9633 B(  2-C ,  3-H ) :   0.9504 B(  2-C ,  4-C ) :   0.8703
B(  2-C ,  5-N ) :   0.8257 B(  4-C , 20-H ) :   0.9668 B(  4-C , 21-H ) :   0.9735
B(  4-C , 22-H ) :   0.9771 B(  5-N ,  6-C ) :   1.1303 B(  5-N , 11-C ) :   1.1298
B(  6-C ,  7-O ) :   1.8960 B(  6-C ,  8-C ) :   0.9671 B(  8-C ,  9-C ) :   1.4576
B(  8-C , 14-Br) :   1.1401 B(  9-C , 10-N ) :   1.1517 B(  9-C , 13-C ) :   0.8570
B( 10-N , 11-C ) :   1.0780 B( 10-N , 23-H ) :   0.8806 B( 11-C , 12-O ) :   1.8286
B( 13-C , 24-H ) :   0.9470 B( 13-C , 25-H ) :   0.9665 B( 13-C , 26-H ) :   0.9463

Dispersion correction           -0.011557335
FINAL SINGLE POINT ENERGY     -3184.803156835040

DIPOLE MOMENT
-------------

Method             : SCF
Type of density    : Electron Density
Multiplicity       :   1
Irrep              :   0
Energy             : -3184.8130408921674643 Eh
Relativity type    :
Basis              : AO
                                X                 Y                 Z
Electronic contribution:     43.647302006      -5.923907433      -0.996687824
Nuclear contribution   :    -42.925277765       8.137823610       1.220195930
                        -----------------------------------------
Total Dipole Moment    :      0.722024241       2.213916177       0.223508106
                        -----------------------------------------
Magnitude (a.u.)       :      2.339380199
Magnitude (Debye)      :      5.946231912

Rotational constants in cm-1:             0.027000             0.012083             0.009674
Rotational constants in MHz :           809.450523           362.232085           290.018920

                             ****ORCA TERMINATED NORMALLY****
TOTAL RUN TIME: 0 days 0 hours 1 minutes 35 seconds 699 msec
