                         Program Version 6.0.0  -   RELEASE  -
|  1> ! pbe def2-sv(p) def2/J RI DEFGRID1 loosescf d4 GCP(DFT/SV(P)) printgap
|  2> %output
|  3>     printlevel normal
|  4> end
|  5> * xyz 0 1
|  6> C -1.3502550352 -0.3582162062 -0.4622479533
|  7> C -0.0063562568 -0.0784560001 0.2150077797
|  8> C 1.1538204043 -0.7284722279 -0.5449023559
|  9> O 2.3739791651 -0.5734274691 0.1348454713
| 10> O 0.2538914007 1.310200617 0.2640368365
| 11> O -2.3540742454 0.2472771629 0.3256835024
| 12> H -1.50092406 -1.4411851627 -0.5300689337
| 13> H -1.3381860902 0.0718517867 -1.471645518
| 14> H -0.0377869546 -0.4812434897 1.2392591561
| 15> H 1.214480357 -0.2812359074 -1.5459467251
| 16> H 0.9885395017 -1.8027467621 -0.638141416
| 17> H 2.4920590376 0.3706321146 0.3185340868
| 18> H -0.5269901498 1.7472890712 0.633514073
| 19> H -3.2207796665 0.0804477059 -0.067537706
| 20> *
| 21>
| 22>                          ****END OF INPUT****

CARTESIAN COORDINATES (ANGSTROEM)
---------------------------------
  C     -1.350255   -0.358216   -0.462248
  C     -0.006356   -0.078456    0.215008
  C      1.153820   -0.728472   -0.544902
  O      2.373979   -0.573427    0.134845
  O      0.253891    1.310201    0.264037
  O     -2.354074    0.247277    0.325684
  H     -1.500924   -1.441185   -0.530069
  H     -1.338186    0.071852   -1.471646
  H     -0.037787   -0.481243    1.239259
  H      1.214480   -0.281236   -1.545947
  H      0.988540   -1.802747   -0.638141
  H      2.492059    0.370632    0.318534
  H     -0.526990    1.747289    0.633514
  H     -3.220780    0.080448   -0.067538

 Total Charge           Charge          ....    0
 Multiplicity           Mult            ....    1
 Number of Electrons    NEL             ....   50
 Basis Dimension        Dim             ....  100

ORBITAL ENERGIES
----------------

  NO   OCC          E(Eh)            E(eV)
   0   2.0000     -18.760948      -510.5113
   1   2.0000     -18.748809      -510.1810
   2   2.0000     -18.734591      -509.7941
   3   2.0000      -9.937674      -270.4179
   4   2.0000      -9.936072      -270.3743
   5   2.0000      -9.927021      -270.1280
   6   2.0000      -0.943062       -25.6620
   7   2.0000      -0.923363       -25.1260
   8   2.0000      -0.904546       -24.6139
   9   2.0000      -0.684748       -18.6330
  10   2.0000      -0.601984       -16.3808
  11   2.0000      -0.538404       -14.6507
  12   2.0000      -0.488011       -13.2794
  13   2.0000      -0.464380       -12.6364
  14   2.0000      -0.437845       -11.9144
  15   2.0000      -0.413855       -11.2616
  16   2.0000      -0.380472       -10.3532
  17   2.0000      -0.365562        -9.9474
  18   2.0000      -0.355849        -9.6832
  19   2.0000      -0.308395        -8.3919
  20   2.0000      -0.293140        -7.9767
  21   2.0000      -0.268562        -7.3079
  22   2.0000      -0.231968        -6.3122
  23   2.0000      -0.220706        -6.0057
  24   2.0000      -0.206978        -5.6322
  25   0.0000       0.013022         0.3543
  26   0.0000       0.048238         1.3126
  27   0.0000       0.054778         1.4906
  28   0.0000       0.070589         1.9208
  29   0.0000       0.088507         2.4084

MULLIKEN ATOMIC CHARGES
-----------------------
   0 C :    0.002033
   1 C :   -0.014824
   2 C :    0.055915
   3 O :   -0.439228
   4 O :   -0.447701
   5 O :   -0.441143
   6 H :    0.072663
   7 H :    0.072555
   8 H :    0.071194
   9 H :    0.069153
  10 H :    0.083239
  11 H :    0.301684
  12 H :    0.307909
  13 H :    0.306551
Sum of atomic charges:    0.0000000

LOEWDIN ATOMIC CHARGES
----------------------
   0 C :   -0.139502
   1 C :   -0.089040
   2 C :   -0.124452
   3 O :   -0.338735
   4 O :   -0.336815
   5 O :   -0.349171
   6 H :    0.100384
   7 H :    0.099054
   8 H :    0.105542
   9 H :    0.098394
  10 H :    0.113527
  11 H :    0.283643
  12 H :    0.286663
  13 H :    0.290508

  Mayer bond orders larger than 0.100000
B(  0-C ,  1-C ) :   1.0612 B(  0-C ,  5-O ) :   1.0801 B(  0-C ,  6-H ) :   0.9136
B(  0-C ,  7-H ) :   0.9062 B(  1-C ,  2-C ) :   1.0558 B(  1-C ,  4-O ) :   1.0423
B(  1-C ,  8-H ) :   0.8884 B(  2-C ,  3-O ) :   1.0808 B(  2-C ,  9-H ) :   0.9060
B(  2-C , 10-H ) :   0.9248 B(  3-O , 11-H ) :   0.8436 B(  4-O , 12-H ) :   0.8364
B(  5-O , 13-H ) :   0.8487

Dispersion correction           -0.008976202
FINAL SINGLE POINT ENERGY      -344.011580583964

DIPOLE MOMENT
-------------

Method             : SCF
Type of density    : Electron Density
Multiplicity       :   1
Irrep              :   0
Energy             :  -344.0851869269709482 Eh
Relativity type    :
Basis              : AO
                                X                 Y                 Z
Electronic contribution:      0.646303088       1.667347373       1.544755152
Nuclear contribution   :     -1.806221871      -1.614233378      -1.923783677
                        -----------------------------------------
Total Dipole Moment    :     -1.159918783       0.053113995      -0.379028524
                        -----------------------------------------
Magnitude (a.u.)       :      1.221431660
Magnitude (Debye)      :      3.104632551

Rotational constants in cm-1:             0.268520             0.065476             0.056603
Rotational constants in MHz :          8050.013842          1962.929087          1696.904618

                             ****ORCA TERMINATED NORMALLY****
TOTAL RUN TIME: 0 days 0 hours 0 minutes 6 seconds 467 msec
