                         Program Version 6.0.0  -   RELEASE  -
|  1> ! r2scan-3c def2/J RI DEFGRID2 scfconv6 printgap
|  2> %output
|  3>     printlevel normal
|  4> end
|  5> * xyz 0 1
|  6> C -2.1902324793 0.6841279204 -1.0038589857
|  7> C -1.8705685809 0.1762015532 0.4038790224
|  8> C -0.4502179876 -0.3238928578 0.4691272925
|  9> O -0.1323236228 -1.4853692876 0.6227049814
| 10> O 0.4223163417 0.6658628593 0.3348750322
| 11> C 1.8231912098 0.3472577702 0.3239377498
| 12> C 2.2855642852 -0.0530635254 -1.0687688279
| 13> H -3.2159956425 1.0380945196 -1.0410357809
| 14> H -1.524525665 1.5013665197 -1.2672971015
| 15> H -2.0707330617 -0.1148079367 -1.7317069317
| 16> H -2.5329549383 -0.644671624 0.6764456354
| 17> H -1.9803302101 0.991164694 1.1193315425
| 18> H 2.3144401117 1.2613040043 0.6584652958
| 19> H 2.0020424397 -0.4639134079 1.036243947
| 20> H 3.3567955938 -0.2251241197 -1.0563318523
| 21> H 1.7849204354 -0.9678607259 -1.3781651905
| 22> H 2.0567150057 0.7347803332 -1.7811724655
| 23> *
| 24>
| 25>                          ****END OF INPUT****

CARTESIAN COORDINATES (ANGSTROEM)
---------------------------------
  C     -2.190232    0.684128   -1.003859
  C     -1.870569    0.176202    0.403879
  C     -0.450218   -0.323893    0.469127
  O     -0.132324   -1.485369    0.622705
  O      0.422316    0.665863    0.334875
  C      1.823191    0.347258    0.323938
  C      2.285564   -0.053064   -1.068769
  H     -3.215996    1.038095   -1.041036
  H     -1.524526    1.501367   -1.267297
  H     -2.070733   -0.114808   -1.731707
  H     -2.532955   -0.644672    0.676446
  H     -1.980330    0.991165    1.119332
  H      2.314440    1.261304    0.658465
  H      2.002042   -0.463913    1.036244
  H      3.356796   -0.225124   -1.056332
  H      1.784920   -0.967861   -1.378165
  H      2.056715    0.734780   -1.781172

 Total Charge           Charge          ....    0
 Multiplicity           Mult            ....    1
 Number of Electrons    NEL             ....   56
 Basis Dimension        Dim             ....  193

ORBITAL ENERGIES
----------------

  NO   OCC          E(Eh)            E(eV)
   0   2.0000     -18.996087      -516.9098
   1   2.0000     -18.927070      -515.0318
   2   2.0000     -10.151052      -276.2242
   3   2.0000     -10.091413      -274.6013
   4   2.0000     -10.043314      -273.2925
   5   2.0000     -10.031063      -272.9591
   6   2.0000     -10.028743      -272.8960
   7   2.0000      -1.071406       -29.1544
   8   2.0000      -0.974444       -26.5160
   9   2.0000      -0.766232       -20.8502
  10   2.0000      -0.729590       -19.8532
  11   2.0000      -0.640939       -17.4408
  12   2.0000      -0.601694       -16.3729
  13   2.0000      -0.521841       -14.2000
  14   2.0000      -0.472258       -12.8508
  15   2.0000      -0.456566       -12.4238
  16   2.0000      -0.432378       -11.7656
  17   2.0000      -0.413013       -11.2387
  18   2.0000      -0.409263       -11.1366
  19   2.0000      -0.377182       -10.2636
  20   2.0000      -0.372922       -10.1477
  21   2.0000      -0.355086        -9.6624
  22   2.0000      -0.336033        -9.1439
  23   2.0000      -0.332270        -9.0415
  24   2.0000      -0.323691        -8.8081
  25   2.0000      -0.306262        -8.3338
  26   2.0000      -0.270787        -7.3685
  27   2.0000      -0.232422        -6.3245
  28   0.0000      -0.014259        -0.3880
  29   0.0000       0.075992         2.0679
  30   0.0000       0.090441         2.4610
  31   0.0000       0.115744         3.1495
  32   0.0000       0.123057         3.3486

MULLIKEN ATOMIC CHARGES
-----------------------
   0 C :   -0.472971
   1 C :   -0.298872
   2 C :    0.413482
   3 O :   -0.429650
   4 O :   -0.183415
   5 C :   -0.136386
   6 C :   -0.467142
   7 H :    0.152160
   8 H :    0.162082
   9 H :    0.152834
  10 H :    0.166070
  11 H :    0.154188
  12 H :    0.147640
  13 H :    0.168301
  14 H :    0.147030
  15 H :    0.173722
  16 H :    0.150928
Sum of atomic charges:    0.0000000

LOEWDIN ATOMIC CHARGES
----------------------
   0 C :   -0.394660
   1 C :   -0.235708
   2 C :    0.356519
   3 O :   -0.432183
   4 O :   -0.598188
   5 C :    0.027598
   6 C :   -0.390936
   7 H :    0.152754
   8 H :    0.160667
   9 H :    0.157106
  10 H :    0.174406
  11 H :    0.175189
  12 H :    0.177641
  13 H :    0.188018
  14 H :    0.159301
  15 H :    0.165867
  16 H :    0.156609

  Mayer bond orders larger than 0.100000
B(  0-C ,  1-C ) :   0.8881 B(  0-C ,  7-H ) :   0.9714 B(  0-C ,  8-H ) :   0.9759
B(  0-C ,  9-H ) :   0.9733 B(  1-C ,  2-C ) :   0.9714 B(  1-C , 10-H ) :   0.9839
B(  1-C , 11-H ) :   0.9602 B(  2-C ,  3-O ) :   1.8480 B(  2-C ,  4-O ) :   1.0358
B(  4-O ,  5-C ) :   0.8239 B(  5-C ,  6-C ) :   0.9315 B(  5-C , 12-H ) :   0.9622
B(  5-C , 13-H ) :   0.9702 B(  6-C , 14-H ) :   0.9648 B(  6-C , 15-H ) :   0.9716
B(  6-C , 16-H ) :   0.9730

Dispersion correction           -0.004073990
FINAL SINGLE POINT ENERGY      -346.936144861031

DIPOLE MOMENT
-------------

Method             : SCF
Type of density    : Electron Density
Multiplicity       :   1
Irrep              :   0
Energy             :  -346.9424729662959521 Eh
Relativity type    :
Basis              : AO
                                X                 Y                 Z
Electronic contribution:     -0.061869012      -2.116510729       4.213901289
Nuclear contribution   :      0.182902185       2.905861578      -4.456378603
                        -----------------------------------------
Total Dipole Moment    :      0.121033173       0.789350849      -0.242477314
                        -----------------------------------------
Magnitude (a.u.)       :      0.834577162
Magnitude (Debye)      :      2.121326561

Rotational constants in cm-1:             0.148714             0.056051             0.049355
Rotational constants in MHz :          4458.337686          1680.363252          1479.632738

                             ****ORCA TERMINATED NORMALLY****
TOTAL RUN TIME: 0 days 0 hours 0 minutes 21 seconds 257 msec
