                         Program Version 6.0.0  -   RELEASE  -
|  1> ! r2scan-3c def2/J RI DEFGRID2 scfconv6 printgap
|  2> %output
|  3>     printlevel normal
|  4> end
|  5> %cpcm
|  6>     smd true
|  7>     smdsolvent "water"
|  8> end
|  9> * xyz 0 1
| 10> C -2.1902324793 0.6841279204 -1.0038589857
| 11> C -1.8705685809 0.1762015532 0.4038790224
| 12> C -0.4502179876 -0.3238928578 0.4691272925
| 13> O -0.1323236228 -1.4853692876 0.6227049814
| 14> O 0.4223163417 0.6658628593 0.3348750322
| 15> C 1.8231912098 0.3472577702 0.3239377498
| 16> C 2.2855642852 -0.0530635254 -1.0687688279
| 17> H -3.2159956425 1.0380945196 -1.0410357809
| 18> H -1.524525665 1.5013665197 -1.2672971015
| 19> H -2.0707330617 -0.1148079367 -1.7317069317
| 20> H -2.5329549383 -0.644671624 0.6764456354
| 21> H -1.9803302101 0.991164694 1.1193315425
| 22> H 2.3144401117 1.2613040043 0.6584652958
| 23> H 2.0020424397 -0.4639134079 1.036243947
| 24> H 3.3567955938 -0.2251241197 -1.0563318523
| 25> H 1.7849204354 -0.9678607259 -1.3781651905
| 26> H 2.0567150057 0.7347803332 -1.7811724655
| 27> *
| 28>
| 29>                          ****END OF INPUT****

CARTESIAN COORDINATES (ANGSTROEM)
---------------------------------
  C     -2.190232    0.684128   -1.003859
  C     -1.870569    0.176202    0.403879
  C     -0.450218   -0.323893    0.469127
  O     -0.132324   -1.485369    0.622705
  O      0.422316    0.665863    0.334875
  C      1.823191    0.347258    0.323938
  C      2.285564   -0.053064   -1.068769
  H     -3.215996    1.038095   -1.041036
  H     -1.524526    1.501367   -1.267297
  H     -2.070733   -0.114808   -1.731707
  H     -2.532955   -0.644672    0.676446
  H     -1.980330    0.991165    1.119332
  H      2.314440    1.261304    0.658465
  H      2.002042   -0.463913    1.036244
  H      3.356796   -0.225124   -1.056332
  H      1.784920   -0.967861   -1.378165
  H      2.056715    0.734780   -1.781172

 Total Charge           Charge          ....    0
 Multiplicity           Mult            ....    1
 Number of Electrons    NEL             ....   56
 Basis Dimension        Dim             ....  193

ORBITAL ENERGIES
----------------

  NO   OCC          E(Eh)            E(eV)
   0   2.0000     -19.001734      -517.0635
   1   2.0000     -18.943241      -515.4718
   2   2.0000     -10.161866      -276.5184
   3   2.0000     -10.083494      -274.3858
   4   2.0000     -10.037402      -273.1316
   5   2.0000     -10.021171      -272.6899
   6   2.0000     -10.018181      -272.6086
   7   2.0000      -1.078802       -29.3557
   8   2.0000      -0.988457       -26.8973
   9   2.0000      -0.761847       -20.7309
  10   2.0000      -0.721831       -19.6420
  11   2.0000      -0.635584       -17.2951
  12   2.0000      -0.595517       -16.2048
  13   2.0000      -0.519478       -14.1357
  14   2.0000      -0.470852       -12.8125
  15   2.0000      -0.461789       -12.5659
  16   2.0000      -0.439542       -11.9605
  17   2.0000      -0.411315       -11.1925
  18   2.0000      -0.403146       -10.9702
  19   2.0000      -0.373951       -10.1757
  20   2.0000      -0.366912        -9.9842
  21   2.0000      -0.347274        -9.4498
  22   2.0000      -0.332101        -9.0369
  23   2.0000      -0.328645        -8.9429
  24   2.0000      -0.318336        -8.6624
  25   2.0000      -0.303852        -8.2682
  26   2.0000      -0.277639        -7.5550
  27   2.0000      -0.248397        -6.7592
  28   0.0000      -0.022620        -0.6155
  29   0.0000       0.078988         2.1494
  30   0.0000       0.097817         2.6617
  31   0.0000       0.124562         3.3895
  32   0.0000       0.133632         3.6363

MULLIKEN ATOMIC CHARGES
-----------------------
   0 C :   -0.496541
   1 C :   -0.314192
   2 C :    0.453547
   3 O :   -0.514844
   4 O :   -0.200913
   5 C :   -0.142552
   6 C :   -0.491871
   7 H :    0.170831
   8 H :    0.167511
   9 H :    0.164188
  10 H :    0.173628
  11 H :    0.180875
  12 H :    0.173769
  13 H :    0.171696
  14 H :    0.170309
  15 H :    0.168726
  16 H :    0.165833
Sum of atomic charges:    0.0000000

LOEWDIN ATOMIC CHARGES
----------------------
   0 C :   -0.395746
   1 C :   -0.233207
   2 C :    0.366003
   3 O :   -0.493048
   4 O :   -0.599583
   5 C :    0.032203
   6 C :   -0.393648
   7 H :    0.159840
   8 H :    0.162108
   9 H :    0.160464
  10 H :    0.178043
  11 H :    0.185931
  12 H :    0.189059
  13 H :    0.189081
  14 H :    0.167837
  15 H :    0.162740
  16 H :    0.161924

  Mayer bond orders larger than 0.100000
B(  0-C ,  1-C ) :   0.8794 B(  0-C ,  7-H ) :   0.9666 B(  0-C ,  8-H ) :   0.9732
B(  0-C ,  9-H ) :   0.9697 B(  1-C ,  2-C ) :   0.9693 B(  1-C , 10-H ) :   0.9801
B(  1-C , 11-H ) :   0.9504 B(  2-C ,  3-O ) :   1.7771 B(  2-C ,  4-O ) :   1.0644
B(  4-O ,  5-C ) :   0.8053 B(  5-C ,  6-C ) :   0.9309 B(  5-C , 12-H ) :   0.9527
B(  5-C , 13-H ) :   0.9663 B(  6-C , 14-H ) :   0.9599 B(  6-C , 15-H ) :   0.9696
B(  6-C , 16-H ) :   0.9689

Dispersion correction           -0.004073990
FINAL SINGLE POINT ENERGY      -346.941223711283

DIPOLE MOMENT
-------------

Method             : SCF
Type of density    : Electron Density
Multiplicity       :   1
Irrep              :   0
Energy             :  -346.9475518165475023 Eh
Relativity type    :
Basis              : AO
                                X                 Y                 Z
Electronic contribution:     -0.041055330      -1.767722826       4.150460611
Nuclear contribution   :      0.182902185       2.905861578      -4.456378603
                        -----------------------------------------
Total Dipole Moment    :      0.141846856       1.138138752      -0.305917991
                        -----------------------------------------
Magnitude (a.u.)       :      1.187040929
Magnitude (Debye)      :      3.017218259

Rotational constants in cm-1:             0.148714             0.056051             0.049355
Rotational constants in MHz :          4458.337686          1680.363252          1479.632738

                             ****ORCA TERMINATED NORMALLY****
TOTAL RUN TIME: 0 days 0 hours 0 minutes 25 seconds 243 msec
