                         Program Version 6.0.0  -   RELEASE  -
|  1> ! pbe def2-sv(p) def2/J RI DEFGRID1 loosescf d4 GCP(DFT/SV(P)) printgap
|  2> %output
|  3>     printlevel normal
|  4> end
|  5> * xyz 0 1
|  6> C -2.3991750181 -0.2694032462 -1.2066969075
|  7> C -1.9327320862 0.1721977587 0.1784076039
|  8> C -1.8312913087 -1.0191765268 1.1281800112
|  9> C -0.5918545363 0.9034718592 0.084590874
| 10> O 0.412893426 0.0155068402 -0.4219945724
| 11> C 1.6546234804 0.1368105982 0.0248625553
| 12> O 1.9963086944 0.9640225345 0.8467570169
| 13> C 2.5735994173 -0.858021764 -0.6190685631
| 14> H -1.6678831319 -0.9404162834 -1.6490652381
| 15> H -2.5211860581 0.590186391 -1.8606256786
| 16> H -3.3511005803 -0.7879219418 -1.1346052657
| 17> H -2.6499844529 0.8915345794 0.5860659344
| 18> H -1.493095257 -0.6985845211 2.1110867902
| 19> H -1.1248017325 -1.7489636108 0.7402017642
| 20> H -2.8002492884 -1.4986114674 1.2347222741
| 21> H -0.6619973843 1.7526632529 -0.6024752965
| 22> H -0.2681421996 1.2700963919 1.0644441589
| 23> H 2.009966705 -1.7170314648 -0.9664708523
| 24> H 3.34403982 -1.1508682018 0.087342189
| 25> H 3.0526420572 -0.379337903 -1.4706705577
| 26> *
| 27>
| 28>                          ****END OF INPUT****

CARTESIAN COORDINATES (ANGSTROEM)
---------------------------------
  C     -2.399175   -0.269403   -1.206697
  C     -1.932732    0.172198    0.178408
  C     -1.831291   -1.019177    1.128180
  C     -0.591855    0.903472    0.084591
  O      0.412893    0.015507   -0.421995
  C      1.654623    0.136811    0.024863
  O      1.996309    0.964023    0.846757
  C      2.573599   -0.858022   -0.619069
  H     -1.667883   -0.940416   -1.649065
  H     -2.521186    0.590186   -1.860626
  H     -3.351101   -0.787922   -1.134605
  H     -2.649984    0.891535    0.586066
  H     -1.493095   -0.698585    2.111087
  H     -1.124802   -1.748964    0.740202
  H     -2.800249   -1.498611    1.234722
  H     -0.661997    1.752663   -0.602475
  H     -0.268142    1.270096    1.064444
  H      2.009967   -1.717031   -0.966471
  H      3.344040   -1.150868    0.087342
  H      3.052642   -0.379338   -1.470671

 Total Charge           Charge          ....    0
 Multiplicity           Mult            ....    1
 Number of Electrons    NEL             ....   64
 Basis Dimension        Dim             ....  136

ORBITAL ENERGIES
----------------

  NO   OCC          E(Eh)            E(eV)
   0   2.0000     -18.798771      -511.5406
   1   2.0000     -18.731385      -509.7069
   2   2.0000     -10.005985      -272.2767
   3   2.0000      -9.939190      -270.4591
   4   2.0000      -9.905045      -269.5300
   5   2.0000      -9.891605      -269.1643
   6   2.0000      -9.878067      -268.7959
   7   2.0000      -9.877424      -268.7784
   8   2.0000      -1.005136       -27.3511
   9   2.0000      -0.907689       -24.6995
  10   2.0000      -0.738596       -20.0982
  11   2.0000      -0.682991       -18.5851
  12   2.0000      -0.623246       -16.9594
  13   2.0000      -0.616232       -16.7685
  14   2.0000      -0.537789       -14.6340
  15   2.0000      -0.484740       -13.1904
  16   2.0000      -0.443349       -12.0641
  17   2.0000      -0.440216       -11.9789
  18   2.0000      -0.414820       -11.2878
  19   2.0000      -0.402989       -10.9659
  20   2.0000      -0.392739       -10.6870
  21   2.0000      -0.382989       -10.4217
  22   2.0000      -0.359249        -9.7757
  23   2.0000      -0.353588        -9.6216
  24   2.0000      -0.339838        -9.2475
  25   2.0000      -0.327676        -8.9165
  26   2.0000      -0.316199        -8.6042
  27   2.0000      -0.299541        -8.1509
  28   2.0000      -0.297004        -8.0819
  29   2.0000      -0.282989        -7.7005
  30   2.0000      -0.253783        -6.9058
  31   2.0000      -0.217193        -5.9101
  32   0.0000      -0.018267        -0.4971
  33   0.0000       0.029931         0.8145
  34   0.0000       0.050421         1.3720
  35   0.0000       0.076200         2.0735
  36   0.0000       0.082306         2.2397

MULLIKEN ATOMIC CHARGES
-----------------------
   0 C :   -0.252329
   1 C :   -0.180305
   2 C :   -0.258255
   3 C :    0.024474
   4 O :   -0.244119
   5 C :    0.083166
   6 O :   -0.212641
   7 C :   -0.251400
   8 H :    0.107759
   9 H :    0.096623
  10 H :    0.101649
  11 H :    0.081973
  12 H :    0.102964
  13 H :    0.106577
  14 H :    0.103172
  15 H :    0.096109
  16 H :    0.110735
  17 H :    0.118679
  18 H :    0.128556
  19 H :    0.136611
Sum of atomic charges:   -0.0000000

LOEWDIN ATOMIC CHARGES
----------------------
   0 C :   -0.332369
   1 C :   -0.168885
   2 C :   -0.332162
   3 C :   -0.098258
   4 O :   -0.064555
   5 C :    0.029094
   6 O :   -0.173911
   7 C :   -0.359500
   8 H :    0.120905
   9 H :    0.117398
  10 H :    0.118705
  11 H :    0.123114
  12 H :    0.120037
  13 H :    0.119587
  14 H :    0.120049
  15 H :    0.113822
  16 H :    0.118700
  17 H :    0.134989
  18 H :    0.143084
  19 H :    0.150157

  Mayer bond orders larger than 0.100000
B(  0-C ,  1-C ) :   1.1034 B(  0-C ,  8-H ) :   0.9486 B(  0-C ,  9-H ) :   0.9511
B(  0-C , 10-H ) :   0.9528 B(  1-C ,  2-C ) :   1.1032 B(  1-C ,  3-C ) :   1.0700
B(  1-C , 11-H ) :   0.8976 B(  2-C , 12-H ) :   0.9512 B(  2-C , 13-H ) :   0.9493
B(  2-C , 14-H ) :   0.9522 B(  3-C ,  4-O ) :   0.9160 B(  3-C , 15-H ) :   0.9303
B(  3-C , 16-H ) :   0.9069 B(  4-O ,  5-C ) :   1.1919 B(  5-C ,  6-O ) :   2.0598
B(  5-C ,  7-C ) :   1.0815 B(  7-C , 17-H ) :   0.9364 B(  7-C , 18-H ) :   0.9376
B(  7-C , 19-H ) :   0.9260

Dispersion correction           -0.015487130
FINAL SINGLE POINT ENERGY      -385.457587220092

DIPOLE MOMENT
-------------

Method             : SCF
Type of density    : Electron Density
Multiplicity       :   1
Irrep              :   0
Energy             :  -385.5325272606514773 Eh
Relativity type    :
Basis              : AO
                                X                 Y                 Z
Electronic contribution:      7.090370155       3.752021980       1.281999783
Nuclear contribution   :     -7.593251939      -4.129596709      -1.738738312
                        -----------------------------------------
Total Dipole Moment    :     -0.502881783      -0.377574729      -0.456738529
                        -----------------------------------------
Magnitude (a.u.)       :      0.777214801
Magnitude (Debye)      :      1.975523028

Rotational constants in cm-1:             0.125378             0.036626             0.035012
Rotational constants in MHz :          3758.746923          1098.013455          1049.626950

                             ****ORCA TERMINATED NORMALLY****
TOTAL RUN TIME: 0 days 0 hours 0 minutes 11 seconds 226 msec
