                         Program Version 6.0.0  -   RELEASE  -
|  1> ! pbe def2-sv(p) def2/J RI DEFGRID1 loosescf d4 GCP(DFT/SV(P)) printgap
|  2> %output
|  3>     printlevel normal
|  4> end
|  5> * xyz 0 1
|  6> C 2.6883847814 0.4093516268 0.4782559153
|  7> C 1.2503261448 0.0711694337 0.8626196271
|  8> C 0.2711878226 0.0721185045 -0.3212467695
|  9> H 0.2800432076 1.0739590769 -0.7676568712
| 10> C 0.7237165815 -0.9329380843 -1.3816286813
| 11> C -1.1715045761 -0.2305425476 0.1404317459
| 12> C -1.6286478058 0.6978145248 1.2684699822
| 13> C -2.1652680927 -0.1064281651 -1.0171843144
| 14> H 3.1503327626 -0.3891668661 -0.0953356189
| 15> H 2.7190324857 1.3236368944 -0.1107169284
| 16> H 3.2832245784 0.5619048131 1.3761180466
| 17> H 0.9235516956 0.8123310066 1.5916151445
| 18> H 1.2253487261 -0.9085375035 1.3456600184
| 19> H 1.7277721877 -0.7011435647 -1.7238838132
| 20> H 0.7211728952 -1.9406618309 -0.9705488553
| 21> H 0.0715594595 -0.9106524689 -2.2491827932
| 22> H -1.2002386574 -1.2618550398 0.5112868143
| 23> H -1.1021403711 0.493336927 2.1960604114
| 24> H -2.6911978131 0.5575274098 1.4546881392
| 25> H -1.4658721373 1.7379117853 0.993598623
| 26> H -3.1804728652 -0.2464715496 -0.6526774762
| 27> H -1.9853564212 -0.8520120275 -1.7855598622
| 28> H -2.0977423822 0.8817318975 -1.4676042345
| 29> *
| 30>
| 31>                          ****END OF INPUT****

CARTESIAN COORDINATES (ANGSTROEM)
---------------------------------
  C      2.688385    0.409352    0.478256
  C      1.250326    0.071169    0.862620
  C      0.271188    0.072119   -0.321247
  H      0.280043    1.073959   -0.767657
  C      0.723717   -0.932938   -1.381629
  C     -1.171505   -0.230543    0.140432
  C     -1.628648    0.697815    1.268470
  C     -2.165268   -0.106428   -1.017184
  H      3.150333   -0.389167   -0.095336
  H      2.719032    1.323637   -0.110717
  H      3.283225    0.561905    1.376118
  H      0.923552    0.812331    1.591615
  H      1.225349   -0.908538    1.345660
  H      1.727772   -0.701144   -1.723884
  H      0.721173   -1.940662   -0.970549
  H      0.071559   -0.910652   -2.249183
  H     -1.200239   -1.261855    0.511287
  H     -1.102140    0.493337    2.196060
  H     -2.691198    0.557527    1.454688
  H     -1.465872    1.737912    0.993599
  H     -3.180473   -0.246472   -0.652677
  H     -1.985356   -0.852012   -1.785560
  H     -2.097742    0.881732   -1.467604

 Total Charge           Charge          ....    0
 Multiplicity           Mult            ....    1
 Number of Electrons    NEL             ....   58
 Basis Dimension        Dim             ....  130

ORBITAL ENERGIES
----------------

  NO   OCC          E(Eh)            E(eV)
   0   2.0000      -9.889176      -269.0982
   1   2.0000      -9.887968      -269.0653
   2   2.0000      -9.877004      -268.7669
   3   2.0000      -9.869211      -268.5549
   4   2.0000      -9.867408      -268.5058
   5   2.0000      -9.867364      -268.5046
   6   2.0000      -9.866735      -268.4875
   7   2.0000      -0.741142       -20.1675
   8   2.0000      -0.684608       -18.6291
   9   2.0000      -0.638961       -17.3870
  10   2.0000      -0.605274       -16.4703
  11   2.0000      -0.568227       -15.4622
  12   2.0000      -0.518165       -14.1000
  13   2.0000      -0.487680       -13.2705
  14   2.0000      -0.416861       -11.3434
  15   2.0000      -0.402856       -10.9623
  16   2.0000      -0.394519       -10.7354
  17   2.0000      -0.376708       -10.2507
  18   2.0000      -0.361065        -9.8251
  19   2.0000      -0.349854        -9.5200
  20   2.0000      -0.336592        -9.1591
  21   2.0000      -0.325892        -8.8680
  22   2.0000      -0.314131        -8.5479
  23   2.0000      -0.312691        -8.5088
  24   2.0000      -0.301216        -8.1965
  25   2.0000      -0.288037        -7.8379
  26   2.0000      -0.274253        -7.4628
  27   2.0000      -0.263166        -7.1611
  28   2.0000      -0.260157        -7.0792
  29   0.0000       0.036268         0.9869
  30   0.0000       0.056016         1.5243
  31   0.0000       0.057891         1.5753
  32   0.0000       0.072894         1.9835
  33   0.0000       0.090948         2.4748

MULLIKEN ATOMIC CHARGES
-----------------------
   0 C :   -0.267173
   1 C :   -0.163995
   2 C :   -0.145072
   3 H :    0.057500
   4 C :   -0.249869
   5 C :   -0.149126
   6 C :   -0.247219
   7 C :   -0.243943
   8 H :    0.107059
   9 H :    0.095582
  10 H :    0.098536
  11 H :    0.088573
  12 H :    0.077057
  13 H :    0.102342
  14 H :    0.089871
  15 H :    0.101698
  16 H :    0.062780
  17 H :    0.109743
  18 H :    0.094078
  19 H :    0.091545
  20 H :    0.095012
  21 H :    0.104795
  22 H :    0.090225
Sum of atomic charges:   -0.0000000

LOEWDIN ATOMIC CHARGES
----------------------
   0 C :   -0.341165
   1 C :   -0.227754
   2 C :   -0.142892
   3 H :    0.110112
   4 C :   -0.331679
   5 C :   -0.149186
   6 C :   -0.331906
   7 C :   -0.330473
   8 H :    0.116262
   9 H :    0.116890
  10 H :    0.119092
  11 H :    0.115832
  12 H :    0.113489
  13 H :    0.117977
  14 H :    0.116881
  15 H :    0.117261
  16 H :    0.111947
  17 H :    0.117343
  18 H :    0.116547
  19 H :    0.116710
  20 H :    0.116370
  21 H :    0.115954
  22 H :    0.116387

  Mayer bond orders larger than 0.100000
B(  0-C ,  1-C ) :   1.1585 B(  0-C ,  8-H ) :   0.9462 B(  0-C ,  9-H ) :   0.9520
B(  0-C , 10-H ) :   0.9499 B(  1-C ,  2-C ) :   1.0957 B(  1-C , 11-H ) :   0.9124
B(  1-C , 12-H ) :   0.9202 B(  2-C ,  3-H ) :   0.8873 B(  2-C ,  4-C ) :   1.1091
B(  2-C ,  5-C ) :   1.0462 B(  4-C , 13-H ) :   0.9414 B(  4-C , 14-H ) :   0.9486
B(  4-C , 15-H ) :   0.9419 B(  5-C ,  6-C ) :   1.1151 B(  5-C ,  7-C ) :   1.1156
B(  5-C , 16-H ) :   0.8953 B(  6-C , 17-H ) :   0.9405 B(  6-C , 18-H ) :   0.9475
B(  6-C , 19-H ) :   0.9480 B(  7-C , 20-H ) :   0.9477 B(  7-C , 21-H ) :   0.9427
B(  7-C , 22-H ) :   0.9491

Dispersion correction           -0.018923073
FINAL SINGLE POINT ENERGY      -275.659309541398

DIPOLE MOMENT
-------------

Method             : SCF
Type of density    : Electron Density
Multiplicity       :   1
Irrep              :   0
Energy             :  -275.7370755923980141 Eh
Relativity type    :
Basis              : AO
                                X                 Y                 Z
Electronic contribution:     -0.353821311      -0.222619478       0.357748556
Nuclear contribution   :      0.355579462       0.217502371      -0.332239793
                        -----------------------------------------
Total Dipole Moment    :      0.001758151      -0.005117106       0.025508764
                        -----------------------------------------
Magnitude (a.u.)       :      0.026076290
Magnitude (Debye)      :      0.066280662

Rotational constants in cm-1:             0.127640             0.055891             0.042247
Rotational constants in MHz :          3826.558964          1675.567558          1266.542442

                             ****ORCA TERMINATED NORMALLY****
TOTAL RUN TIME: 0 days 0 hours 0 minutes 9 seconds 443 msec
