                         Program Version 6.0.0  -   RELEASE  -
|  1> ! r2scan-3c def2/J RI DEFGRID2 scfconv6 printgap
|  2> %output
|  3>     printlevel normal
|  4> end
|  5> * xyz 0 1
|  6> C -3.2239525231 1.0300173091 0.0591282448
|  7> C -2.1787759625 -0.0024131022 -0.3631429634
|  8> C -2.6028191916 -1.3906340418 0.1117515923
|  9> C -0.8037390114 0.3960727432 0.1875978236
| 10> C 0.3332104508 -0.4646896958 -0.3616352174
| 11> C 1.7566820392 0.0040104404 -0.0045051447
| 12> C 2.7430957842 -1.03242102 -0.556257239
| 13> C 2.0672585468 1.360612832 -0.6421332772
| 14> C 1.9368944969 0.0983456469 1.5124343564
| 15> H -3.2991997886 1.0685113105 1.1438353348
| 16> H -4.2008560365 0.7722266427 -0.3432917299
| 17> H -2.9555321641 2.0203167399 -0.3017815961
| 18> H -2.1244283312 -0.0105965153 -1.4581157386
| 19> H -3.6032765752 -1.6219227602 -0.2471224027
| 20> H -1.9265258101 -2.1558590836 -0.2588300198
| 21> H -2.6109232648 -1.431244702 1.1990040578
| 22> H -0.625281876 1.4397376908 -0.0762916615
| 23> H -0.8307408456 0.3249536523 1.2762002782
| 24> H 0.2484207328 -0.4984465453 -1.4512468445
| 25> H 0.2149003114 -1.4852206794 0.0077819967
| 26> H 2.6325474652 -1.130092917 -1.6339871858
| 27> H 3.7676122864 -0.7358322648 -0.3432015007
| 28> H 2.5687185714 -2.0064794075 -0.1045537946
| 29> H 1.4419813962 2.1448193858 -0.2238701905
| 30> H 3.1059819205 1.6289148269 -0.4624939969
| 31> H 1.9038322252 1.3242297786 -1.7168752008
| 32> H 1.3269002391 0.8955231882 1.9284440783
| 33> H 2.976755172 0.3079575582 1.7535677551
| 34> H 1.6571747406 -0.838400605 1.9892508971
| 35> *
| 36>
| 37>                          ****END OF INPUT****

CARTESIAN COORDINATES (ANGSTROEM)
---------------------------------
  C     -3.223953    1.030017    0.059128
  C     -2.178776   -0.002413   -0.363143
  C     -2.602819   -1.390634    0.111752
  C     -0.803739    0.396073    0.187598
  C      0.333210   -0.464690   -0.361635
  C      1.756682    0.004010   -0.004505
  C      2.743096   -1.032421   -0.556257
  C      2.067259    1.360613   -0.642133
  C      1.936894    0.098346    1.512434
  H     -3.299200    1.068511    1.143835
  H     -4.200856    0.772227   -0.343292
  H     -2.955532    2.020317   -0.301782
  H     -2.124428   -0.010597   -1.458116
  H     -3.603277   -1.621923   -0.247122
  H     -1.926526   -2.155859   -0.258830
  H     -2.610923   -1.431245    1.199004
  H     -0.625282    1.439738   -0.076292
  H     -0.830741    0.324954    1.276200
  H      0.248421   -0.498447   -1.451247
  H      0.214900   -1.485221    0.007782
  H      2.632547   -1.130093   -1.633987
  H      3.767612   -0.735832   -0.343202
  H      2.568719   -2.006479   -0.104554
  H      1.441981    2.144819   -0.223870
  H      3.105982    1.628915   -0.462494
  H      1.903832    1.324230   -1.716875
  H      1.326900    0.895523    1.928444
  H      2.976755    0.307958    1.753568
  H      1.657175   -0.838401    1.989251

 Total Charge           Charge          ....    0
 Multiplicity           Mult            ....    1
 Number of Electrons    NEL             ....   74
 Basis Dimension        Dim             ....  271

ORBITAL ENERGIES
----------------

  NO   OCC          E(Eh)            E(eV)
   0   2.0000     -10.038569      -273.1634
   1   2.0000     -10.030101      -272.9329
   2   2.0000     -10.017976      -272.6030
   3   2.0000     -10.017770      -272.5974
   4   2.0000     -10.012145      -272.4443
   5   2.0000     -10.011896      -272.4376
   6   2.0000     -10.011459      -272.4256
   7   2.0000     -10.011431      -272.4249
   8   2.0000     -10.011100      -272.4159
   9   2.0000      -0.795193       -21.6383
  10   2.0000      -0.766358       -20.8537
  11   2.0000      -0.685799       -18.6615
  12   2.0000      -0.649460       -17.6727
  13   2.0000      -0.649254       -17.6671
  14   2.0000      -0.646588       -17.5946
  15   2.0000      -0.593011       -16.1367
  16   2.0000      -0.522859       -14.2277
  17   2.0000      -0.494052       -13.4438
  18   2.0000      -0.439599       -11.9621
  19   2.0000      -0.425234       -11.5712
  20   2.0000      -0.417772       -11.3682
  21   2.0000      -0.406257       -11.0548
  22   2.0000      -0.391181       -10.6446
  23   2.0000      -0.388059       -10.5596
  24   2.0000      -0.369517       -10.0551
  25   2.0000      -0.355404        -9.6710
  26   2.0000      -0.349632        -9.5140
  27   2.0000      -0.342119        -9.3095
  28   2.0000      -0.330199        -8.9852
  29   2.0000      -0.324264        -8.8237
  30   2.0000      -0.314421        -8.5558
  31   2.0000      -0.308996        -8.4082
  32   2.0000      -0.297553        -8.0968
  33   2.0000      -0.290908        -7.9160
  34   2.0000      -0.282754        -7.6941
  35   2.0000      -0.274653        -7.4737
  36   2.0000      -0.266252        -7.2451
  37   0.0000       0.075496         2.0543
  38   0.0000       0.088676         2.4130
  39   0.0000       0.111356         3.0301
  40   0.0000       0.116898         3.1809
  41   0.0000       0.121363         3.3024

MULLIKEN ATOMIC CHARGES
-----------------------
   0 C :   -0.483142
   1 C :   -0.009881
   2 C :   -0.517474
   3 C :   -0.304362
   4 C :   -0.339673
   5 C :    0.170928
   6 C :   -0.489411
   7 C :   -0.522644
   8 C :   -0.518534
   9 H :    0.145381
  10 H :    0.146990
  11 H :    0.144571
  12 H :    0.143531
  13 H :    0.144600
  14 H :    0.151443
  15 H :    0.151535
  16 H :    0.141723
  17 H :    0.153363
  18 H :    0.153162
  19 H :    0.151311
  20 H :    0.151752
  21 H :    0.154966
  22 H :    0.152373
  23 H :    0.154371
  24 H :    0.152592
  25 H :    0.153511
  26 H :    0.159484
  27 H :    0.152098
  28 H :    0.155436
Sum of atomic charges:    0.0000000

LOEWDIN ATOMIC CHARGES
----------------------
   0 C :   -0.418328
   1 C :   -0.246354
   2 C :   -0.417880
   3 C :   -0.299517
   4 C :   -0.293813
   5 C :   -0.213878
   6 C :   -0.409198
   7 C :   -0.408524
   8 C :   -0.408047
   9 H :    0.153461
  10 H :    0.151679
  11 H :    0.151967
  12 H :    0.154395
  13 H :    0.152899
  14 H :    0.152773
  15 H :    0.153605
  16 H :    0.159112
  17 H :    0.158931
  18 H :    0.161038
  19 H :    0.161003
  20 H :    0.156334
  21 H :    0.154458
  22 H :    0.155761
  23 H :    0.154174
  24 H :    0.156672
  25 H :    0.156939
  26 H :    0.156531
  27 H :    0.156457
  28 H :    0.157352

  Mayer bond orders larger than 0.100000
B(  0-C ,  1-C ) :   0.9005 B(  0-C ,  9-H ) :   0.9853 B(  0-C , 10-H ) :   0.9784
B(  0-C , 11-H ) :   0.9801 B(  1-C ,  2-C ) :   0.8954 B(  1-C ,  3-C ) :   0.8951
B(  1-C , 12-H ) :   0.9680 B(  2-C , 13-H ) :   0.9721 B(  2-C , 14-H ) :   0.9752
B(  2-C , 15-H ) :   0.9884 B(  3-C ,  4-C ) :   0.8849 B(  3-C , 16-H ) :   0.9798
B(  3-C , 17-H ) :   0.9796 B(  4-C ,  5-C ) :   0.8777 B(  4-C , 18-H ) :   0.9996
B(  4-C , 19-H ) :   0.9806 B(  5-C ,  6-C ) :   0.9292 B(  5-C ,  7-C ) :   0.9279
B(  5-C ,  8-C ) :   0.9079 B(  6-C , 20-H ) :   0.9784 B(  6-C , 21-H ) :   0.9806
B(  6-C , 22-H ) :   0.9794 B(  7-C , 23-H ) :   0.9767 B(  7-C , 24-H ) :   0.9734
B(  7-C , 25-H ) :   0.9761 B(  8-C , 26-H ) :   0.9753 B(  8-C , 27-H ) :   0.9727
B(  8-C , 28-H ) :   0.9757

Dispersion correction           -0.008904720
FINAL SINGLE POINT ENERGY      -354.889923944379

DIPOLE MOMENT
-------------

Method             : SCF
Type of density    : Electron Density
Multiplicity       :   1
Irrep              :   0
Energy             :  -354.8950844605623729 Eh
Relativity type    :
Basis              : AO
                                X                 Y                 Z
Electronic contribution:      0.307405004      -0.010349586      -0.665748930
Nuclear contribution   :     -0.311413077       0.012285504       0.634593775
                        -----------------------------------------
Total Dipole Moment    :     -0.004008074       0.001935918      -0.031155155
                        -----------------------------------------
Magnitude (a.u.)       :      0.031471513
Magnitude (Debye)      :      0.079994229

Rotational constants in cm-1:             0.094731             0.024578             0.023024
Rotational constants in MHz :          2839.950751           736.822168           690.235509

                             ****ORCA TERMINATED NORMALLY****
TOTAL RUN TIME: 0 days 0 hours 0 minutes 32 seconds 983 msec
