                         Program Version 6.0.0  -   RELEASE  -
|  1> ! r2scan-3c def2/J RI DEFGRID2 scfconv6 printgap
|  2> %output
|  3>     printlevel normal
|  4> end
|  5> %cpcm
|  6>     smd true
|  7>     smdsolvent "water"
|  8> end
|  9> * xyz 0 1
| 10> C -3.2239525231 1.0300173091 0.0591282448
| 11> C -2.1787759625 -0.0024131022 -0.3631429634
| 12> C -2.6028191916 -1.3906340418 0.1117515923
| 13> C -0.8037390114 0.3960727432 0.1875978236
| 14> C 0.3332104508 -0.4646896958 -0.3616352174
| 15> C 1.7566820392 0.0040104404 -0.0045051447
| 16> C 2.7430957842 -1.03242102 -0.556257239
| 17> C 2.0672585468 1.360612832 -0.6421332772
| 18> C 1.9368944969 0.0983456469 1.5124343564
| 19> H -3.2991997886 1.0685113105 1.1438353348
| 20> H -4.2008560365 0.7722266427 -0.3432917299
| 21> H -2.9555321641 2.0203167399 -0.3017815961
| 22> H -2.1244283312 -0.0105965153 -1.4581157386
| 23> H -3.6032765752 -1.6219227602 -0.2471224027
| 24> H -1.9265258101 -2.1558590836 -0.2588300198
| 25> H -2.6109232648 -1.431244702 1.1990040578
| 26> H -0.625281876 1.4397376908 -0.0762916615
| 27> H -0.8307408456 0.3249536523 1.2762002782
| 28> H 0.2484207328 -0.4984465453 -1.4512468445
| 29> H 0.2149003114 -1.4852206794 0.0077819967
| 30> H 2.6325474652 -1.130092917 -1.6339871858
| 31> H 3.7676122864 -0.7358322648 -0.3432015007
| 32> H 2.5687185714 -2.0064794075 -0.1045537946
| 33> H 1.4419813962 2.1448193858 -0.2238701905
| 34> H 3.1059819205 1.6289148269 -0.4624939969
| 35> H 1.9038322252 1.3242297786 -1.7168752008
| 36> H 1.3269002391 0.8955231882 1.9284440783
| 37> H 2.976755172 0.3079575582 1.7535677551
| 38> H 1.6571747406 -0.838400605 1.9892508971
| 39> *
| 40>
| 41>                          ****END OF INPUT****

CARTESIAN COORDINATES (ANGSTROEM)
---------------------------------
  C     -3.223953    1.030017    0.059128
  C     -2.178776   -0.002413   -0.363143
  C     -2.602819   -1.390634    0.111752
  C     -0.803739    0.396073    0.187598
  C      0.333210   -0.464690   -0.361635
  C      1.756682    0.004010   -0.004505
  C      2.743096   -1.032421   -0.556257
  C      2.067259    1.360613   -0.642133
  C      1.936894    0.098346    1.512434
  H     -3.299200    1.068511    1.143835
  H     -4.200856    0.772227   -0.343292
  H     -2.955532    2.020317   -0.301782
  H     -2.124428   -0.010597   -1.458116
  H     -3.603277   -1.621923   -0.247122
  H     -1.926526   -2.155859   -0.258830
  H     -2.610923   -1.431245    1.199004
  H     -0.625282    1.439738   -0.076292
  H     -0.830741    0.324954    1.276200
  H      0.248421   -0.498447   -1.451247
  H      0.214900   -1.485221    0.007782
  H      2.632547   -1.130093   -1.633987
  H      3.767612   -0.735832   -0.343202
  H      2.568719   -2.006479   -0.104554
  H      1.441981    2.144819   -0.223870
  H      3.105982    1.628915   -0.462494
  H      1.903832    1.324230   -1.716875
  H      1.326900    0.895523    1.928444
  H      2.976755    0.307958    1.753568
  H      1.657175   -0.838401    1.989251

 Total Charge           Charge          ....    0
 Multiplicity           Mult            ....    1
 Number of Electrons    NEL             ....   74
 Basis Dimension        Dim             ....  271

ORBITAL ENERGIES
----------------

  NO   OCC          E(Eh)            E(eV)
   0   2.0000     -10.031082      -272.9596
   1   2.0000     -10.022376      -272.7227
   2   2.0000     -10.009006      -272.3589
   3   2.0000     -10.008816      -272.3537
   4   2.0000     -10.004495      -272.2362
   5   2.0000     -10.004416      -272.2340
   6   2.0000     -10.003474      -272.2084
   7   2.0000     -10.003376      -272.2057
   8   2.0000     -10.003221      -272.2015
   9   2.0000      -0.787115       -21.4185
  10   2.0000      -0.758646       -20.6438
  11   2.0000      -0.677806       -18.4440
  12   2.0000      -0.642210       -17.4754
  13   2.0000      -0.641888       -17.4667
  14   2.0000      -0.639623       -17.4050
  15   2.0000      -0.585108       -15.9216
  16   2.0000      -0.515163       -14.0183
  17   2.0000      -0.486539       -13.2394
  18   2.0000      -0.431326       -11.7370
  19   2.0000      -0.417378       -11.3574
  20   2.0000      -0.409881       -11.1534
  21   2.0000      -0.398640       -10.8476
  22   2.0000      -0.383577       -10.4377
  23   2.0000      -0.380239       -10.3468
  24   2.0000      -0.361891        -9.8476
  25   2.0000      -0.347908        -9.4671
  26   2.0000      -0.342339        -9.3155
  27   2.0000      -0.334270        -9.0960
  28   2.0000      -0.322440        -8.7741
  29   2.0000      -0.316426        -8.6104
  30   2.0000      -0.306251        -8.3335
  31   2.0000      -0.301133        -8.1942
  32   2.0000      -0.290015        -7.8917
  33   2.0000      -0.283009        -7.7011
  34   2.0000      -0.274423        -7.4674
  35   2.0000      -0.266662        -7.2562
  36   2.0000      -0.258329        -7.0295
  37   0.0000       0.084494         2.2992
  38   0.0000       0.096874         2.6361
  39   0.0000       0.119381         3.2485
  40   0.0000       0.124767         3.3951
  41   0.0000       0.129106         3.5132

MULLIKEN ATOMIC CHARGES
-----------------------
   0 C :   -0.531157
   1 C :    0.008720
   2 C :   -0.560270
   3 C :   -0.321854
   4 C :   -0.362280
   5 C :    0.223004
   6 C :   -0.541948
   7 C :   -0.571755
   8 C :   -0.564743
   9 H :    0.156656
  10 H :    0.157982
  11 H :    0.155925
  12 H :    0.150481
  13 H :    0.155535
  14 H :    0.161164
  15 H :    0.162647
  16 H :    0.152009
  17 H :    0.160907
  18 H :    0.161742
  19 H :    0.161315
  20 H :    0.162904
  21 H :    0.166610
  22 H :    0.163784
  23 H :    0.166726
  24 H :    0.163565
  25 H :    0.164372
  26 H :    0.168723
  27 H :    0.163214
  28 H :    0.166018
Sum of atomic charges:    0.0000000

LOEWDIN ATOMIC CHARGES
----------------------
   0 C :   -0.427701
   1 C :   -0.245018
   2 C :   -0.426661
   3 C :   -0.301773
   4 C :   -0.296370
   5 C :   -0.209299
   6 C :   -0.418492
   7 C :   -0.417345
   8 C :   -0.416388
   9 H :    0.155558
  10 H :    0.153902
  11 H :    0.154285
  12 H :    0.156193
  13 H :    0.154818
  14 H :    0.154913
  15 H :    0.156109
  16 H :    0.161478
  17 H :    0.160677
  18 H :    0.162970
  19 H :    0.163204
  20 H :    0.158419
  21 H :    0.156928
  22 H :    0.157971
  23 H :    0.157112
  24 H :    0.158629
  25 H :    0.159236
  26 H :    0.158553
  27 H :    0.158429
  28 H :    0.159664

  Mayer bond orders larger than 0.100000
B(  0-C ,  1-C ) :   0.8884 B(  0-C ,  9-H ) :   0.9847 B(  0-C , 10-H ) :   0.9761
B(  0-C , 11-H ) :   0.9777 B(  1-C ,  2-C ) :   0.8884 B(  1-C ,  3-C ) :   0.8906
B(  1-C , 12-H ) :   0.9690 B(  2-C , 13-H ) :   0.9708 B(  2-C , 14-H ) :   0.9722
B(  2-C , 15-H ) :   0.9863 B(  3-C ,  4-C ) :   0.8906 B(  3-C , 16-H ) :   0.9785
B(  3-C , 17-H ) :   0.9774 B(  4-C ,  5-C ) :   0.8765 B(  4-C , 18-H ) :   0.9974
B(  4-C , 19-H ) :   0.9780 B(  5-C ,  6-C ) :   0.9108 B(  5-C ,  7-C ) :   0.9165
B(  5-C ,  8-C ) :   0.8987 B(  6-C , 20-H ) :   0.9777 B(  6-C , 21-H ) :   0.9789
B(  6-C , 22-H ) :   0.9783 B(  7-C , 23-H ) :   0.9736 B(  7-C , 24-H ) :   0.9728
B(  7-C , 25-H ) :   0.9746 B(  8-C , 26-H ) :   0.9730 B(  8-C , 27-H ) :   0.9725
B(  8-C , 28-H ) :   0.9739

Dispersion correction           -0.008904720
FINAL SINGLE POINT ENERGY      -354.885520758332

DIPOLE MOMENT
-------------

Method             : SCF
Type of density    : Electron Density
Multiplicity       :   1
Irrep              :   0
Energy             :  -354.8906812745156003 Eh
Relativity type    :
Basis              : AO
                                X                 Y                 Z
Electronic contribution:      0.306506538      -0.007198513      -0.672966151
Nuclear contribution   :     -0.311413077       0.012285504       0.634593775
                        -----------------------------------------
Total Dipole Moment    :     -0.004906539       0.005086991      -0.038372376
                        -----------------------------------------
Magnitude (a.u.)       :      0.039017827
Magnitude (Debye)      :      0.099175435

Rotational constants in cm-1:             0.094731             0.024578             0.023024
Rotational constants in MHz :          2839.950751           736.822168           690.235509

                             ****ORCA TERMINATED NORMALLY****
TOTAL RUN TIME: 0 days 0 hours 0 minutes 41 seconds 278 msec
