                         Program Version 6.0.0  -   RELEASE  -
|  1> ! pbe def2-sv(p) def2/J RI DEFGRID1 loosescf d4 GCP(DFT/SV(P)) printgap
|  2> %output
|  3>     printlevel normal
|  4> end
|  5> * xyz 0 1
|  6> C -2.2943945525 -0.9600028615 0.1128437363
|  7> C -2.4566563283 0.5488245477 0.2570519866
|  8> C -1.2746896919 1.3564330646 -0.2831828412
|  9> C 0.0187566795 1.1768816246 0.4945483125
| 10> Br 1.0903879332 -0.3720072586 -0.1075790605
| 11> H -1.5025832535 -1.3387467711 0.7534642961
| 12> H -3.2176753054 -1.4618741759 0.3915183875
| 13> H -2.057912374 -1.2242048397 -0.9156156854
| 14> H -2.6102285423 0.7987720499 1.3093746273
| 15> H -3.348718701 0.8606104637 -0.2896260245
| 16> H -1.1114603712 1.1125409168 -1.3349452766
| 17> H -1.5329332411 2.4169889136 -0.2274387852
| 18> H -0.1627404475 1.011806274 1.5550225844
| 19> H 0.6847027875 2.0270057749 0.3600977301
| 20> *
| 21>
| 22>                          ****END OF INPUT****

CARTESIAN COORDINATES (ANGSTROEM)
---------------------------------
  C     -2.294395   -0.960003    0.112844
  C     -2.456656    0.548825    0.257052
  C     -1.274690    1.356433   -0.283183
  C      0.018757    1.176882    0.494548
  Br     1.090388   -0.372007   -0.107579
  H     -1.502583   -1.338747    0.753464
  H     -3.217675   -1.461874    0.391518
  H     -2.057912   -1.224205   -0.915616
  H     -2.610229    0.798772    1.309375
  H     -3.348719    0.860610   -0.289626
  H     -1.111460    1.112541   -1.334945
  H     -1.532933    2.416989   -0.227439
  H     -0.162740    1.011806    1.555023
  H      0.684703    2.027006    0.360098

 Total Charge           Charge          ....    0
 Multiplicity           Mult            ....    1
 Number of Electrons    NEL             ....   68
 Basis Dimension        Dim             ....  106

ORBITAL ENERGIES
----------------

  NO   OCC          E(Eh)            E(eV)
   0   2.0000    -480.918944    -13086.4698
   1   2.0000     -61.761068     -1680.6041
   2   2.0000     -55.691713     -1515.4485
   3   2.0000     -55.688630     -1515.3646
   4   2.0000     -55.688477     -1515.3605
   5   2.0000      -9.939886      -270.4781
   6   2.0000      -9.898752      -269.3587
   7   2.0000      -9.890085      -269.1229
   8   2.0000      -9.870338      -268.5855
   9   2.0000      -8.386034      -228.1956
  10   2.0000      -6.267978      -170.5604
  11   2.0000      -6.253676      -170.1712
  12   2.0000      -6.253475      -170.1657
  13   2.0000      -2.469042       -67.1861
  14   2.0000      -2.465636       -67.0934
  15   2.0000      -2.465471       -67.0889
  16   2.0000      -2.454725       -66.7965
  17   2.0000      -2.454704       -66.7959
  18   2.0000      -0.748341       -20.3634
  19   2.0000      -0.696966       -18.9654
  20   2.0000      -0.639212       -17.3939
  21   2.0000      -0.566917       -15.4266
  22   2.0000      -0.514380       -13.9970
  23   2.0000      -0.429448       -11.6859
  24   2.0000      -0.414472       -11.2784
  25   2.0000      -0.391549       -10.6546
  26   2.0000      -0.357721        -9.7341
  27   2.0000      -0.348763        -9.4903
  28   2.0000      -0.329184        -8.9576
  29   2.0000      -0.299738        -8.1563
  30   2.0000      -0.294793        -8.0217
  31   2.0000      -0.293762        -7.9937
  32   2.0000      -0.232761        -6.3337
  33   2.0000      -0.228041        -6.2053
  34   0.0000      -0.028833        -0.7846
  35   0.0000       0.032917         0.8957
  36   0.0000       0.063202         1.7198
  37   0.0000       0.072071         1.9611
  38   0.0000       0.086901         2.3647

MULLIKEN ATOMIC CHARGES
-----------------------
   0 C :   -0.282139
   1 C :   -0.194399
   2 C :   -0.148425
   3 C :   -0.232556
   4 Br:   -0.129528
   5 H :    0.115139
   6 H :    0.101216
   7 H :    0.102404
   8 H :    0.087034
   9 H :    0.090619
  10 H :    0.108230
  11 H :    0.097257
  12 H :    0.141477
  13 H :    0.143671
Sum of atomic charges:    0.0000000

LOEWDIN ATOMIC CHARGES
----------------------
   0 C :   -0.349324
   1 C :   -0.233236
   2 C :   -0.245752
   3 C :   -0.272510
   4 Br:    0.007071
   5 H :    0.115331
   6 H :    0.118303
   7 H :    0.118556
   8 H :    0.113817
   9 H :    0.117896
  10 H :    0.124332
  11 H :    0.127130
  12 H :    0.128206
  13 H :    0.130180

  Mayer bond orders larger than 0.100000
B(  0-C ,  1-C ) :   1.1590 B(  0-C ,  5-H ) :   0.9461 B(  0-C ,  6-H ) :   0.9497
B(  0-C ,  7-H ) :   0.9533 B(  1-C ,  2-C ) :   1.1330 B(  1-C ,  8-H ) :   0.9266
B(  1-C ,  9-H ) :   0.9265 B(  2-C ,  3-C ) :   1.0856 B(  2-C , 10-H ) :   0.9200
B(  2-C , 11-H ) :   0.9078 B(  3-C ,  4-Br) :   1.0362 B(  3-C , 12-H ) :   0.9260
B(  3-C , 13-H ) :   0.9296

Dispersion correction           -0.010912042
FINAL SINGLE POINT ENERGY     -2730.883441666828

DIPOLE MOMENT
-------------

Method             : SCF
Type of density    : Electron Density
Multiplicity       :   1
Irrep              :   0
Energy             : -2730.9367699090298629 Eh
Relativity type    :
Basis              : AO
                                X                 Y                 Z
Electronic contribution:     23.590338396      -6.833865802      -2.335924362
Nuclear contribution   :    -24.065174374       7.397162414       2.501695537
                        -----------------------------------------
Total Dipole Moment    :     -0.474835977       0.563296612       0.165771176
                        -----------------------------------------
Magnitude (a.u.)       :      0.755150555
Magnitude (Debye)      :      1.919440172

Rotational constants in cm-1:             0.191896             0.054172             0.045024
Rotational constants in MHz :          5752.907213          1624.046408          1349.789040

                             ****ORCA TERMINATED NORMALLY****
TOTAL RUN TIME: 0 days 0 hours 0 minutes 6 seconds 159 msec
