                         Program Version 6.0.0  -   RELEASE  -
|  1> ! pbe def2-sv(p) def2/J RI DEFGRID1 loosescf d4 GCP(DFT/SV(P)) printgap
|  2> %output
|  3>     printlevel normal
|  4> end
|  5> * xyz 0 1
|  6> C -0.0439601156 -3.0619051346 0.1307572434
|  7> C 0.6328045275 -1.7289047504 0.0767599598
|  8> C 2.0248673145 -1.5948951795 0.0736610996
|  9> N 2.6283221423 -0.4157218322 0.0263677617
| 10> C 1.860643645 0.6817044842 -0.0191717891
| 11> N 0.5155413601 0.656296354 -0.0209039672
| 12> C -0.0664003461 -0.5180976569 0.0247017691
| 13> O -1.4373333953 -0.5970785211 0.0238126801
| 14> C -2.2667517257 0.492238401 -0.0355041616
| 15> O -1.9036409083 1.6515102951 -0.0945323561
| 16> N -3.5445889554 0.0912177226 -0.0207178839
| 17> C -4.608308355 1.0719374438 -0.068222939
| 18> C -3.9168536773 -1.3082399003 0.0513662407
| 19> N 2.4537070179 1.8797909175 -0.0660306137
| 20> C 3.8894496908 2.017849298 -0.068922082
| 21> C 1.6926993821 3.1041161932 -0.1178477599
| 22> C 2.9126275903 -2.7955404451 0.1240033848
| 23> H 0.2369683604 -3.6640897345 -0.7319886905
| 24> H 0.2533653799 -3.6007930747 1.0289889775
| 25> H -1.1214406764 -2.9335586818 0.1360685217
| 26> H -5.2227217644 0.9978110375 0.8290344611
| 27> H -5.2255824969 0.9079192087 -0.951395348
| 28> H -4.1582629249 2.0607654873 -0.1188709841
| 29> H -4.9998752384 -1.373892431 0.031296049
| 30> H -3.5431756654 -1.7567639903 0.9726458078
| 31> H -3.5046929096 -1.8565842293 -0.7963011897
| 32> H 4.2060338329 2.6039182375 0.7956227352
| 33> H 4.2099446781 2.5280809303 -0.9789533822
| 34> H 4.334226196 1.0287292887 -0.0257850884
| 35> H 1.9297618321 3.7244251117 0.7484524103
| 36> H 0.6321894591 2.8642928028 -0.1146118348
| 37> H 1.9398797534 3.6551711515 -1.0270314826
| 38> H 2.7198789082 -3.3635084729 1.0314148776
| 39> H 2.7139653839 -3.442021576 -0.7278230061
| 40> H 3.9497246393 -2.4779004011 0.1067417359
| 41> *
| 42>
| 43>                          ****END OF INPUT****

CARTESIAN COORDINATES (ANGSTROEM)
---------------------------------
  C     -0.043960   -3.061905    0.130757
  C      0.632805   -1.728905    0.076760
  C      2.024867   -1.594895    0.073661
  N      2.628322   -0.415722    0.026368
  C      1.860644    0.681704   -0.019172
  N      0.515541    0.656296   -0.020904
  C     -0.066400   -0.518098    0.024702
  O     -1.437333   -0.597079    0.023813
  C     -2.266752    0.492238   -0.035504
  O     -1.903641    1.651510   -0.094532
  N     -3.544589    0.091218   -0.020718
  C     -4.608308    1.071937   -0.068223
  C     -3.916854   -1.308240    0.051366
  N      2.453707    1.879791   -0.066031
  C      3.889450    2.017849   -0.068922
  C      1.692699    3.104116   -0.117848
  C      2.912628   -2.795540    0.124003
  H      0.236968   -3.664090   -0.731989
  H      0.253365   -3.600793    1.028989
  H     -1.121441   -2.933559    0.136069
  H     -5.222722    0.997811    0.829034
  H     -5.225582    0.907919   -0.951395
  H     -4.158263    2.060765   -0.118871
  H     -4.999875   -1.373892    0.031296
  H     -3.543176   -1.756764    0.972646
  H     -3.504693   -1.856584   -0.796301
  H      4.206034    2.603918    0.795623
  H      4.209945    2.528081   -0.978953
  H      4.334226    1.028729   -0.025785
  H      1.929762    3.724425    0.748452
  H      0.632189    2.864293   -0.114612
  H      1.939880    3.655171   -1.027031
  H      2.719879   -3.363508    1.031415
  H      2.713965   -3.442022   -0.727823
  H      3.949725   -2.477900    0.106742

 Total Charge           Charge          ....    0
 Multiplicity           Mult            ....    1
 Number of Electrons    NEL             ....  128
 Basis Dimension        Dim             ....  274

ORBITAL ENERGIES
----------------

  NO   OCC          E(Eh)            E(eV)
   0   2.0000     -18.804621      -511.6997
   1   2.0000     -18.710179      -509.1299
   2   2.0000     -14.026776      -381.6880
   3   2.0000     -14.012687      -381.3046
   4   2.0000     -13.961440      -379.9101
   5   2.0000     -13.960121      -379.8742
   6   2.0000     -10.017833      -272.5991
   7   2.0000      -9.979476      -271.5553
   8   2.0000      -9.968345      -271.2524
   9   2.0000      -9.927409      -270.1385
  10   2.0000      -9.923940      -270.0441
  11   2.0000      -9.917611      -269.8719
  12   2.0000      -9.902258      -269.4541
  13   2.0000      -9.896926      -269.3090
  14   2.0000      -9.887192      -269.0442
  15   2.0000      -9.882274      -268.9103
  16   2.0000      -9.876992      -268.7666
  17   2.0000      -1.010893       -27.5078
  18   2.0000      -0.916510       -24.9395
  19   2.0000      -0.900363       -24.5001
  20   2.0000      -0.856174       -23.2977
  21   2.0000      -0.835430       -22.7332
  22   2.0000      -0.786127       -21.3916
  23   2.0000      -0.723088       -19.6762
  24   2.0000      -0.670449       -18.2438
  25   2.0000      -0.656940       -17.8762
  26   2.0000      -0.651146       -17.7186
  27   2.0000      -0.640683       -17.4339
  28   2.0000      -0.630054       -17.1446
  29   2.0000      -0.590713       -16.0741
  30   2.0000      -0.567750       -15.4493
  31   2.0000      -0.517682       -14.0868
  32   2.0000      -0.509502       -13.8643
  33   2.0000      -0.487840       -13.2748
  34   2.0000      -0.463227       -12.6050
  35   2.0000      -0.445764       -12.1299
  36   2.0000      -0.443386       -12.0651
  37   2.0000      -0.424066       -11.5394
  38   2.0000      -0.422807       -11.5052
  39   2.0000      -0.402749       -10.9594
  40   2.0000      -0.399908       -10.8820
  41   2.0000      -0.386087       -10.5060
  42   2.0000      -0.384142       -10.4530
  43   2.0000      -0.375637       -10.2216
  44   2.0000      -0.368422       -10.0253
  45   2.0000      -0.363190        -9.8829
  46   2.0000      -0.357860        -9.7379
  47   2.0000      -0.355602        -9.6764
  48   2.0000      -0.350169        -9.5286
  49   2.0000      -0.347174        -9.4471
  50   2.0000      -0.345085        -9.3902
  51   2.0000      -0.340662        -9.2699
  52   2.0000      -0.335585        -9.1317
  53   2.0000      -0.332735        -9.0542
  54   2.0000      -0.321889        -8.7590
  55   2.0000      -0.314103        -8.5472
  56   2.0000      -0.301506        -8.2044
  57   2.0000      -0.250449        -6.8151
  58   2.0000      -0.248300        -6.7566
  59   2.0000      -0.233044        -6.3414
  60   2.0000      -0.213497        -5.8096
  61   2.0000      -0.201636        -5.4868
  62   2.0000      -0.173011        -4.7079
  63   2.0000      -0.166129        -4.5206
  64   0.0000      -0.037446        -1.0190
  65   0.0000      -0.011698        -0.3183
  66   0.0000       0.031403         0.8545
  67   0.0000       0.032035         0.8717
  68   0.0000       0.046416         1.2631

MULLIKEN ATOMIC CHARGES
-----------------------
   0 C :   -0.192540
   1 C :   -0.157569
   2 C :   -0.119619
   3 N :   -0.104686
   4 C :    0.035755
   5 N :   -0.079692
   6 C :    0.118398
   7 O :   -0.249891
   8 C :    0.217560
   9 O :   -0.203786
  10 N :   -0.260874
  11 C :   -0.178048
  12 C :   -0.159014
  13 N :   -0.202358
  14 C :   -0.165851
  15 C :   -0.189121
  16 C :   -0.184572
  17 H :    0.103652
  18 H :    0.103190
  19 H :    0.110973
  20 H :    0.112135
  21 H :    0.112321
  22 H :    0.143241
  23 H :    0.111739
  24 H :    0.122318
  25 H :    0.123861
  26 H :    0.099913
  27 H :    0.100038
  28 H :    0.136917
  29 H :    0.097891
  30 H :    0.176230
  31 H :    0.097833
  32 H :    0.109250
  33 H :    0.108960
  34 H :    0.105446
Sum of atomic charges:    0.0000000

LOEWDIN ATOMIC CHARGES
----------------------
   0 C :   -0.325384
   1 C :   -0.139834
   2 C :    0.004141
   3 N :   -0.128129
   4 C :    0.027369
   5 N :   -0.114285
   6 C :    0.067726
   7 O :   -0.043256
   8 C :    0.043953
   9 O :   -0.187628
  10 N :   -0.066785
  11 C :   -0.249563
  12 C :   -0.250004
  13 N :   -0.036549
  14 C :   -0.254576
  15 C :   -0.256506
  16 C :   -0.330551
  17 H :    0.126979
  18 H :    0.126894
  19 H :    0.127286
  20 H :    0.115935
  21 H :    0.116022
  22 H :    0.138250
  23 H :    0.122630
  24 H :    0.120936
  25 H :    0.121524
  26 H :    0.112200
  27 H :    0.112223
  28 H :    0.132184
  29 H :    0.111570
  30 H :    0.146825
  31 H :    0.111620
  32 H :    0.133173
  33 H :    0.133005
  34 H :    0.130606

  Mayer bond orders larger than 0.100000
B(  0-C ,  1-C ) :   1.1561 B(  0-C , 17-H ) :   0.9243 B(  0-C , 18-H ) :   0.9240
B(  0-C , 19-H ) :   0.9253 B(  1-C ,  2-C ) :   1.3446 B(  1-C ,  6-C ) :   1.3145
B(  2-C ,  3-N ) :   1.5880 B(  2-C , 16-C ) :   1.1625 B(  3-N ,  4-C ) :   1.4173
B(  4-C ,  5-N ) :   1.4245 B(  4-C , 13-N ) :   1.2094 B(  5-N ,  6-C ) :   1.5686
B(  6-C ,  7-O ) :   1.0853 B(  7-O ,  8-C ) :   1.0118 B(  8-C ,  9-O ) :   2.0380
B(  8-C , 10-N ) :   1.1859 B( 10-N , 11-C ) :   1.0140 B( 10-N , 12-C ) :   0.9935
B( 11-C , 20-H ) :   0.9536 B( 11-C , 21-H ) :   0.9536 B( 11-C , 22-H ) :   0.9318
B( 12-C , 23-H ) :   0.9476 B( 12-C , 24-H ) :   0.9511 B( 12-C , 25-H ) :   0.9503
B( 13-N , 14-C ) :   1.0195 B( 13-N , 15-C ) :   1.0124 B( 14-C , 26-H ) :   0.9497
B( 14-C , 27-H ) :   0.9497 B( 14-C , 28-H ) :   0.9234 B( 15-C , 29-H ) :   0.9497
B( 15-C , 30-H ) :   0.9166 B( 15-C , 31-H ) :   0.9496 B( 16-C , 32-H ) :   0.9233
B( 16-C , 33-H ) :   0.9233 B( 16-C , 34-H ) :   0.9272

Dispersion correction           -0.039536103
FINAL SINGLE POINT ENERGY      -797.783233089642

DIPOLE MOMENT
-------------

Method             : SCF
Type of density    : Electron Density
Multiplicity       :   1
Irrep              :   0
Energy             :  -797.9031952841630755 Eh
Relativity type    :
Basis              : AO
                                X                 Y                 Z
Electronic contribution:     -0.079309901       3.138399065      -0.158562435
Nuclear contribution   :     -0.647879232      -3.816861654       0.193180640
                        -----------------------------------------
Total Dipole Moment    :     -0.727189133      -0.678462589       0.034618205
                        -----------------------------------------
Magnitude (a.u.)       :      0.995145186
Magnitude (Debye)      :      2.529458043

Rotational constants in cm-1:             0.023119             0.010565             0.007311
Rotational constants in MHz :           693.100156           316.743940           219.187374

                             ****ORCA TERMINATED NORMALLY****
TOTAL RUN TIME: 0 days 0 hours 0 minutes 25 seconds 788 msec
