                         Program Version 6.0.0  -   RELEASE  -
|  1> ! r2scan-3c def2/J RI DEFGRID2 scfconv6 printgap
|  2> %output
|  3>     printlevel normal
|  4> end
|  5> * xyz 0 1
|  6> C 2.5180902336 0.1710170021 0.6261343646
|  7> C 1.1796192771 0.8562039189 0.3687749697
|  8> C -1.53439e-05 -0.069123559 4.79183e-05
|  9> C 0.3696734281 -0.9523548481 -1.1935752809
| 10> C -0.3702429543 -0.9518560843 1.1938577534
| 11> C -1.1791163642 0.8568310753 -0.3689216988
| 12> C -2.5179876293 0.172407881 -0.6263175934
| 13> H 2.4418847574 -0.5633412625 1.4233554722
| 14> H 3.2524135854 0.9156100693 0.9257944435
| 15> H 2.8865344283 -0.3221627891 -0.2688810016
| 16> H 0.9016245375 1.4209731108 1.2623767729
| 17> H 1.315376883 1.5772923145 -0.4415598385
| 18> H 0.7124005015 -0.3438923353 -2.0277920261
| 19> H -0.488242088 -1.5333143258 -1.520857867
| 20> H 1.157486726 -1.6503288228 -0.9243815731
| 21> H -1.1584863821 -1.6494219795 0.9248489736
| 22> H 0.4872926744 -1.5332794756 1.5212935605
| 23> H -0.71256936 -0.3430074973 2.0279558789
| 24> H -1.3144937439 1.5781568503 0.4412701459
| 25> H -0.9007221941 1.4212671953 -1.262601882
| 26> H -2.4421343492 -0.5620470534 -1.4234817838
| 27> H -2.8867148685 -0.3204884466 0.2687274993
| 28> H -3.2518971558 0.9173911249 -0.9260719345
| 29> *
| 30>
| 31>                          ****END OF INPUT****

CARTESIAN COORDINATES (ANGSTROEM)
---------------------------------
  C      2.518090    0.171017    0.626134
  C      1.179619    0.856204    0.368775
  C     -0.000015   -0.069124    0.000048
  C      0.369673   -0.952355   -1.193575
  C     -0.370243   -0.951856    1.193858
  C     -1.179116    0.856831   -0.368922
  C     -2.517988    0.172408   -0.626318
  H      2.441885   -0.563341    1.423355
  H      3.252414    0.915610    0.925794
  H      2.886534   -0.322163   -0.268881
  H      0.901625    1.420973    1.262377
  H      1.315377    1.577292   -0.441560
  H      0.712401   -0.343892   -2.027792
  H     -0.488242   -1.533314   -1.520858
  H      1.157487   -1.650329   -0.924382
  H     -1.158486   -1.649422    0.924849
  H      0.487293   -1.533279    1.521294
  H     -0.712569   -0.343007    2.027956
  H     -1.314494    1.578157    0.441270
  H     -0.900722    1.421267   -1.262602
  H     -2.442134   -0.562047   -1.423482
  H     -2.886715   -0.320488    0.268727
  H     -3.251897    0.917391   -0.926072

 Total Charge           Charge          ....    0
 Multiplicity           Mult            ....    1
 Number of Electrons    NEL             ....   58
 Basis Dimension        Dim             ....  213

ORBITAL ENERGIES
----------------

  NO   OCC          E(Eh)            E(eV)
   0   2.0000     -10.036662      -273.1115
   1   2.0000     -10.019608      -272.6474
   2   2.0000     -10.019608      -272.6474
   3   2.0000     -10.013203      -272.4731
   4   2.0000     -10.013200      -272.4730
   5   2.0000     -10.010876      -272.4098
   6   2.0000     -10.010874      -272.4097
   7   2.0000      -0.793653       -21.5964
   8   2.0000      -0.716300       -19.4915
   9   2.0000      -0.684723       -18.6323
  10   2.0000      -0.649306       -17.6685
  11   2.0000      -0.615013       -16.7354
  12   2.0000      -0.560605       -15.2548
  13   2.0000      -0.489343       -13.3157
  14   2.0000      -0.435570       -11.8525
  15   2.0000      -0.429523       -11.6879
  16   2.0000      -0.410397       -11.1675
  17   2.0000      -0.399086       -10.8597
  18   2.0000      -0.365465        -9.9448
  19   2.0000      -0.363634        -9.8950
  20   2.0000      -0.354368        -9.6428
  21   2.0000      -0.342050        -9.3076
  22   2.0000      -0.337648        -9.1879
  23   2.0000      -0.317727        -8.6458
  24   2.0000      -0.314413        -8.5556
  25   2.0000      -0.301614        -8.2073
  26   2.0000      -0.281982        -7.6731
  27   2.0000      -0.274431        -7.4677
  28   2.0000      -0.271156        -7.3785
  29   0.0000       0.076450         2.0803
  30   0.0000       0.110729         3.0131
  31   0.0000       0.111438         3.0324
  32   0.0000       0.128832         3.5057
  33   0.0000       0.130161         3.5419

MULLIKEN ATOMIC CHARGES
-----------------------
   0 C :   -0.511399
   1 C :   -0.240117
   2 C :    0.159627
   3 C :   -0.547029
   4 C :   -0.547032
   5 C :   -0.240128
   6 C :   -0.511393
   7 H :    0.149105
   8 H :    0.147834
   9 H :    0.155471
  10 H :    0.147618
  11 H :    0.148949
  12 H :    0.156021
  13 H :    0.153500
  14 H :    0.160244
  15 H :    0.160239
  16 H :    0.153501
  17 H :    0.156019
  18 H :    0.148947
  19 H :    0.147617
  20 H :    0.149102
  21 H :    0.155469
  22 H :    0.147834
Sum of atomic charges:    0.0000000

LOEWDIN ATOMIC CHARGES
----------------------
   0 C :   -0.423385
   1 C :   -0.305389
   2 C :   -0.207961
   3 C :   -0.406783
   4 C :   -0.406784
   5 C :   -0.305390
   6 C :   -0.423386
   7 H :    0.149666
   8 H :    0.151882
   9 H :    0.151226
  10 H :    0.157441
  11 H :    0.158329
  12 H :    0.157813
  13 H :    0.155685
  14 H :    0.157501
  15 H :    0.157500
  16 H :    0.155682
  17 H :    0.157812
  18 H :    0.158327
  19 H :    0.157439
  20 H :    0.149666
  21 H :    0.151225
  22 H :    0.151884

  Mayer bond orders larger than 0.100000
B(  0-C ,  1-C ) :   0.8837 B(  0-C ,  7-H ) :   0.9863 B(  0-C ,  8-H ) :   0.9723
B(  0-C ,  9-H ) :   0.9825 B(  1-C ,  2-C ) :   0.9012 B(  1-C , 10-H ) :   0.9782
B(  1-C , 11-H ) :   0.9756 B(  2-C ,  3-C ) :   0.9103 B(  2-C ,  4-C ) :   0.9104
B(  2-C ,  5-C ) :   0.9012 B(  3-C , 12-H ) :   0.9755 B(  3-C , 13-H ) :   0.9741
B(  3-C , 14-H ) :   0.9732 B(  4-C , 15-H ) :   0.9732 B(  4-C , 16-H ) :   0.9741
B(  4-C , 17-H ) :   0.9755 B(  5-C ,  6-C ) :   0.8837 B(  5-C , 18-H ) :   0.9756
B(  5-C , 19-H ) :   0.9782 B(  6-C , 20-H ) :   0.9863 B(  6-C , 21-H ) :   0.9825
B(  6-C , 22-H ) :   0.9723

Dispersion correction           -0.006712371
FINAL SINGLE POINT ENERGY      -276.287667533593

DIPOLE MOMENT
-------------

Method             : SCF
Type of density    : Electron Density
Multiplicity       :   1
Irrep              :   0
Energy             :  -276.2924252619799290 Eh
Relativity type    :
Basis              : AO
                                X                 Y                 Z
Electronic contribution:      0.000262244       0.973919266       0.000007949
Nuclear contribution   :     -0.000230833      -0.929336454      -0.000004841
                        -----------------------------------------
Total Dipole Moment    :      0.000031411       0.044582812       0.000003108
                        -----------------------------------------
Magnitude (a.u.)       :      0.044582823
Magnitude (Debye)      :      0.113320531

Rotational constants in cm-1:             0.138363             0.052738             0.052299
Rotational constants in MHz :          4148.028132          1581.056753          1567.896199

                             ****ORCA TERMINATED NORMALLY****
TOTAL RUN TIME: 0 days 0 hours 0 minutes 21 seconds 511 msec
