                         Program Version 6.0.0  -   RELEASE  -
|  1> ! r2scan-3c def2/J RI DEFGRID2 scfconv6 printgap
|  2> %output
|  3>     printlevel normal
|  4> end
|  5> %cpcm
|  6>     smd true
|  7>     smdsolvent "water"
|  8> end
|  9> * xyz 0 1
| 10> C 2.5180902336 0.1710170021 0.6261343646
| 11> C 1.1796192771 0.8562039189 0.3687749697
| 12> C -1.53439e-05 -0.069123559 4.79183e-05
| 13> C 0.3696734281 -0.9523548481 -1.1935752809
| 14> C -0.3702429543 -0.9518560843 1.1938577534
| 15> C -1.1791163642 0.8568310753 -0.3689216988
| 16> C -2.5179876293 0.172407881 -0.6263175934
| 17> H 2.4418847574 -0.5633412625 1.4233554722
| 18> H 3.2524135854 0.9156100693 0.9257944435
| 19> H 2.8865344283 -0.3221627891 -0.2688810016
| 20> H 0.9016245375 1.4209731108 1.2623767729
| 21> H 1.315376883 1.5772923145 -0.4415598385
| 22> H 0.7124005015 -0.3438923353 -2.0277920261
| 23> H -0.488242088 -1.5333143258 -1.520857867
| 24> H 1.157486726 -1.6503288228 -0.9243815731
| 25> H -1.1584863821 -1.6494219795 0.9248489736
| 26> H 0.4872926744 -1.5332794756 1.5212935605
| 27> H -0.71256936 -0.3430074973 2.0279558789
| 28> H -1.3144937439 1.5781568503 0.4412701459
| 29> H -0.9007221941 1.4212671953 -1.262601882
| 30> H -2.4421343492 -0.5620470534 -1.4234817838
| 31> H -2.8867148685 -0.3204884466 0.2687274993
| 32> H -3.2518971558 0.9173911249 -0.9260719345
| 33> *
| 34>
| 35>                          ****END OF INPUT****

CARTESIAN COORDINATES (ANGSTROEM)
---------------------------------
  C      2.518090    0.171017    0.626134
  C      1.179619    0.856204    0.368775
  C     -0.000015   -0.069124    0.000048
  C      0.369673   -0.952355   -1.193575
  C     -0.370243   -0.951856    1.193858
  C     -1.179116    0.856831   -0.368922
  C     -2.517988    0.172408   -0.626318
  H      2.441885   -0.563341    1.423355
  H      3.252414    0.915610    0.925794
  H      2.886534   -0.322163   -0.268881
  H      0.901625    1.420973    1.262377
  H      1.315377    1.577292   -0.441560
  H      0.712401   -0.343892   -2.027792
  H     -0.488242   -1.533314   -1.520858
  H      1.157487   -1.650329   -0.924382
  H     -1.158486   -1.649422    0.924849
  H      0.487293   -1.533279    1.521294
  H     -0.712569   -0.343007    2.027956
  H     -1.314494    1.578157    0.441270
  H     -0.900722    1.421267   -1.262602
  H     -2.442134   -0.562047   -1.423482
  H     -2.886715   -0.320488    0.268727
  H     -3.251897    0.917391   -0.926072

 Total Charge           Charge          ....    0
 Multiplicity           Mult            ....    1
 Number of Electrons    NEL             ....   58
 Basis Dimension        Dim             ....  213

ORBITAL ENERGIES
----------------

  NO   OCC          E(Eh)            E(eV)
   0   2.0000     -10.029201      -272.9084
   1   2.0000     -10.011867      -272.4368
   2   2.0000     -10.011866      -272.4367
   3   2.0000     -10.005522      -272.2641
   4   2.0000     -10.005518      -272.2640
   5   2.0000     -10.002596      -272.1845
   6   2.0000     -10.002593      -272.1844
   7   2.0000      -0.785880       -21.3849
   8   2.0000      -0.708992       -19.2926
   9   2.0000      -0.677382       -18.4325
  10   2.0000      -0.641632       -17.4597
  11   2.0000      -0.607662       -16.5353
  12   2.0000      -0.553450       -15.0601
  13   2.0000      -0.482066       -13.1177
  14   2.0000      -0.427746       -11.6396
  15   2.0000      -0.421776       -11.4771
  16   2.0000      -0.402666       -10.9571
  17   2.0000      -0.391381       -10.6500
  18   2.0000      -0.358101        -9.7444
  19   2.0000      -0.355899        -9.6845
  20   2.0000      -0.346878        -9.4390
  21   2.0000      -0.334293        -9.0966
  22   2.0000      -0.329553        -8.9676
  23   2.0000      -0.309975        -8.4349
  24   2.0000      -0.306926        -8.3519
  25   2.0000      -0.293742        -7.9931
  26   2.0000      -0.274187        -7.4610
  27   2.0000      -0.266927        -7.2635
  28   2.0000      -0.263566        -7.1720
  29   0.0000       0.085159         2.3173
  30   0.0000       0.117809         3.2058
  31   0.0000       0.118687         3.2296
  32   0.0000       0.135380         3.6839
  33   0.0000       0.136334         3.7098

MULLIKEN ATOMIC CHARGES
-----------------------
   0 C :   -0.545957
   1 C :   -0.263343
   2 C :    0.202574
   3 C :   -0.588533
   4 C :   -0.588538
   5 C :   -0.263354
   6 C :   -0.545953
   7 H :    0.161030
   8 H :    0.156838
   9 H :    0.163652
  10 H :    0.157129
  11 H :    0.156832
  12 H :    0.165805
  13 H :    0.166399
  14 H :    0.168872
  15 H :    0.168870
  16 H :    0.166401
  17 H :    0.165802
  18 H :    0.156829
  19 H :    0.157127
  20 H :    0.161027
  21 H :    0.163650
  22 H :    0.156840
Sum of atomic charges:   -0.0000000

LOEWDIN ATOMIC CHARGES
----------------------
   0 C :   -0.431337
   1 C :   -0.308301
   2 C :   -0.204065
   3 C :   -0.414613
   4 C :   -0.414613
   5 C :   -0.308303
   6 C :   -0.431340
   7 H :    0.152811
   8 H :    0.153380
   9 H :    0.153224
  10 H :    0.159252
  11 H :    0.159866
  12 H :    0.160025
  13 H :    0.158459
  14 H :    0.159271
  15 H :    0.159271
  16 H :    0.158457
  17 H :    0.160024
  18 H :    0.159865
  19 H :    0.159250
  20 H :    0.152811
  21 H :    0.153223
  22 H :    0.153383

  Mayer bond orders larger than 0.100000
B(  0-C ,  1-C ) :   0.8807 B(  0-C ,  7-H ) :   0.9827 B(  0-C ,  8-H ) :   0.9706
B(  0-C ,  9-H ) :   0.9794 B(  1-C ,  2-C ) :   0.8911 B(  1-C , 10-H ) :   0.9797
B(  1-C , 11-H ) :   0.9766 B(  2-C ,  3-C ) :   0.9042 B(  2-C ,  4-C ) :   0.9042
B(  2-C ,  5-C ) :   0.8911 B(  3-C , 12-H ) :   0.9738 B(  3-C , 13-H ) :   0.9716
B(  3-C , 14-H ) :   0.9710 B(  4-C , 15-H ) :   0.9710 B(  4-C , 16-H ) :   0.9716
B(  4-C , 17-H ) :   0.9738 B(  5-C ,  6-C ) :   0.8807 B(  5-C , 18-H ) :   0.9766
B(  5-C , 19-H ) :   0.9797 B(  6-C , 20-H ) :   0.9827 B(  6-C , 21-H ) :   0.9794
B(  6-C , 22-H ) :   0.9706

Dispersion correction           -0.006712371
FINAL SINGLE POINT ENERGY      -276.284002656501

DIPOLE MOMENT
-------------

Method             : SCF
Type of density    : Electron Density
Multiplicity       :   1
Irrep              :   0
Energy             :  -276.2887603848879507 Eh
Relativity type    :
Basis              : AO
                                X                 Y                 Z
Electronic contribution:      0.000268254       0.972206545       0.000008948
Nuclear contribution   :     -0.000230833      -0.929336454      -0.000004841
                        -----------------------------------------
Total Dipole Moment    :      0.000037421       0.042870091       0.000004107
                        -----------------------------------------
Magnitude (a.u.)       :      0.042870107
Magnitude (Debye)      :      0.108967153

Rotational constants in cm-1:             0.138363             0.052738             0.052299
Rotational constants in MHz :          4148.028132          1581.056753          1567.896199

                             ****ORCA TERMINATED NORMALLY****
TOTAL RUN TIME: 0 days 0 hours 0 minutes 27 seconds 180 msec
