                         Program Version 6.0.0  -   RELEASE  -
|  1> ! pbe def2-sv(p) def2/J RI DEFGRID1 loosescf d4 GCP(DFT/SV(P)) printgap
|  2> %output
|  3>     printlevel normal
|  4> end
|  5> * xyz 0 1
|  6> C 2.7132071568 0.2226747494 0.0929689023
|  7> C 1.2498181338 0.0426457801 0.4819494014
|  8> C 0.3401549124 0.1323255799 -0.7421389512
|  9> C -1.1606221454 -0.037097224 -0.4630722239
| 10> C -1.7032054494 1.0603648992 0.4507424471
| 11> C -1.486839192 -1.415321637 0.1096803256
| 12> H 3.3529965868 0.1574498478 0.9698772172
| 13> H 3.0178730387 -0.547346134 -0.6126852153
| 14> H 2.8676635253 1.1932777506 -0.3737174839
| 15> H 1.1275254652 -0.9287581398 0.9630390401
| 16> H 0.9768849799 0.8144845214 1.2028979915
| 17> H 0.4942538862 1.1038408928 -1.2193882863
| 18> H 0.6457748194 -0.6342168702 -1.4593477728
| 19> H -1.6693415203 0.0518240102 -1.4312241807
| 20> H -1.4408376895 2.0434710882 0.0667684824
| 21> H -1.3012624242 0.9610414325 1.4557586414
| 22> H -2.7870918196 0.9943665926 0.5129288044
| 23> H -1.0860236592 -1.5215528685 1.1144902375
| 24> H -2.5643940666 -1.5547917557 0.1598499895
| 25> H -1.0681303015 -2.1997311908 -0.5166155001
| 26> *
| 27>
| 28>                          ****END OF INPUT****

CARTESIAN COORDINATES (ANGSTROEM)
---------------------------------
  C      2.713207    0.222675    0.092969
  C      1.249818    0.042646    0.481949
  C      0.340155    0.132326   -0.742139
  C     -1.160622   -0.037097   -0.463072
  C     -1.703205    1.060365    0.450742
  C     -1.486839   -1.415322    0.109680
  H      3.352997    0.157450    0.969877
  H      3.017873   -0.547346   -0.612685
  H      2.867664    1.193278   -0.373717
  H      1.127525   -0.928758    0.963039
  H      0.976885    0.814485    1.202898
  H      0.494254    1.103841   -1.219388
  H      0.645775   -0.634217   -1.459348
  H     -1.669342    0.051824   -1.431224
  H     -1.440838    2.043471    0.066768
  H     -1.301262    0.961041    1.455759
  H     -2.787092    0.994367    0.512929
  H     -1.086024   -1.521553    1.114490
  H     -2.564394   -1.554792    0.159850
  H     -1.068130   -2.199731   -0.516616

 Total Charge           Charge          ....    0
 Multiplicity           Mult            ....    1
 Number of Electrons    NEL             ....   50
 Basis Dimension        Dim             ....  112

ORBITAL ENERGIES
----------------

  NO   OCC          E(Eh)            E(eV)
   0   2.0000      -9.889169      -269.0980
   1   2.0000      -9.878093      -268.7966
   2   2.0000      -9.875939      -268.7380
   3   2.0000      -9.869348      -268.5586
   4   2.0000      -9.867976      -268.5213
   5   2.0000      -9.867962      -268.5209
   6   2.0000      -0.731596       -19.9077
   7   2.0000      -0.681173       -18.5357
   8   2.0000      -0.606646       -16.5077
   9   2.0000      -0.599909       -16.3244
  10   2.0000      -0.533100       -14.5064
  11   2.0000      -0.478487       -13.0203
  12   2.0000      -0.415670       -11.3109
  13   2.0000      -0.410820       -11.1790
  14   2.0000      -0.390568       -10.6279
  15   2.0000      -0.366475        -9.9723
  16   2.0000      -0.357906        -9.7391
  17   2.0000      -0.336835        -9.1658
  18   2.0000      -0.322686        -8.7807
  19   2.0000      -0.317144        -8.6299
  20   2.0000      -0.308729        -8.4009
  21   2.0000      -0.291151        -7.9226
  22   2.0000      -0.274706        -7.4751
  23   2.0000      -0.271245        -7.3809
  24   2.0000      -0.263161        -7.1610
  25   0.0000       0.032929         0.8960
  26   0.0000       0.058739         1.5984
  27   0.0000       0.066739         1.8161
  28   0.0000       0.068802         1.8722
  29   0.0000       0.095597         2.6013

MULLIKEN ATOMIC CHARGES
-----------------------
   0 C :   -0.258547
   1 C :   -0.214610
   2 C :   -0.148355
   3 C :   -0.139824
   4 C :   -0.258604
   5 C :   -0.259039
   6 H :    0.099960
   7 H :    0.095394
   8 H :    0.095447
   9 H :    0.089828
  10 H :    0.090091
  11 H :    0.075028
  12 H :    0.075221
  13 H :    0.067466
  14 H :    0.095669
  15 H :    0.102790
  16 H :    0.096710
  17 H :    0.102868
  18 H :    0.096789
  19 H :    0.095717
Sum of atomic charges:    0.0000000

LOEWDIN ATOMIC CHARGES
----------------------
   0 C :   -0.337699
   1 C :   -0.237989
   2 C :   -0.218860
   3 C :   -0.157070
   4 C :   -0.331493
   5 C :   -0.331533
   6 H :    0.117332
   7 H :    0.115739
   8 H :    0.115739
   9 H :    0.115025
  10 H :    0.115035
  11 H :    0.111622
  12 H :    0.111628
  13 H :    0.113778
  14 H :    0.116108
  15 H :    0.115720
  16 H :    0.117539
  17 H :    0.115715
  18 H :    0.117563
  19 H :    0.116103

  Mayer bond orders larger than 0.100000
B(  0-C ,  1-C ) :   1.1557 B(  0-C ,  6-H ) :   0.9533 B(  0-C ,  7-H ) :   0.9547
B(  0-C ,  8-H ) :   0.9547 B(  1-C ,  2-C ) :   1.1278 B(  1-C ,  9-H ) :   0.9215
B(  1-C , 10-H ) :   0.9215 B(  2-C ,  3-C ) :   1.0852 B(  2-C , 11-H ) :   0.9202
B(  2-C , 12-H ) :   0.9203 B(  3-C ,  4-C ) :   1.1092 B(  3-C ,  5-C ) :   1.1084
B(  3-C , 13-H ) :   0.9023 B(  4-C , 14-H ) :   0.9518 B(  4-C , 15-H ) :   0.9451
B(  4-C , 16-H ) :   0.9508 B(  5-C , 17-H ) :   0.9452 B(  5-C , 18-H ) :   0.9508
B(  5-C , 19-H ) :   0.9517

Dispersion correction           -0.014760633
FINAL SINGLE POINT ENERGY      -236.449316405910

DIPOLE MOMENT
-------------

Method             : SCF
Type of density    : Electron Density
Multiplicity       :   1
Irrep              :   0
Energy             :  -236.5172088077974877 Eh
Relativity type    :
Basis              : AO
                                X                 Y                 Z
Electronic contribution:     -0.555259538       0.061446141      -0.788544602
Nuclear contribution   :      0.530896797      -0.062519833       0.781142982
                        -----------------------------------------
Total Dipole Moment    :     -0.024362741      -0.001073692      -0.007401619
                        -----------------------------------------
Magnitude (a.u.)       :      0.025484896
Magnitude (Debye)      :      0.064777458

Rotational constants in cm-1:             0.196092             0.062383             0.056010
Rotational constants in MHz :          5878.703500          1870.183980          1679.134906

                             ****ORCA TERMINATED NORMALLY****
TOTAL RUN TIME: 0 days 0 hours 0 minutes 8 seconds 20 msec
