                         Program Version 6.0.0  -   RELEASE  -
|  1> ! pbe def2-sv(p) def2/J RI DEFGRID1 loosescf d4 GCP(DFT/SV(P)) printgap
|  2> %output
|  3>     printlevel normal
|  4> end
|  5> * xyz 0 1
|  6> C -2.7774633487 1.0434002573 0.2642278924
|  7> C -2.2386866205 -0.1278100095 -0.5555565132
|  8> C -2.5988413996 -1.4541947997 0.1115371432
|  9> C -0.730918988 -0.0033904888 -0.8286794587
| 10> C 0.144787063 -0.0185316224 0.4232215714
| 11> C 1.6598089564 0.1093518309 0.1729309166
| 12> C 2.1802946099 -1.0554973286 -0.6728828929
| 13> C 1.9953872947 1.4331507092 -0.518589993
| 14> C 2.3608762176 0.0769428291 1.5366909491
| 15> H -2.4018436212 1.0092117567 1.2836281573
| 16> H -3.8637195154 1.0038350358 0.3046569795
| 17> H -2.4852373748 1.9908330346 -0.1827913164
| 18> H -2.7325111714 -0.1031337474 -1.5353850759
| 19> H -2.223336969 -1.4905602016 1.1309379906
| 20> H -3.6793790025 -1.5743622159 0.1466047861
| 21> H -2.1786954514 -2.2893507077 -0.4442851529
| 22> H -0.4409725803 -0.8279392295 -1.4824462794
| 23> H -0.566350461 0.9278973712 -1.3736080797
| 24> H -0.026066417 -0.9513359725 0.9636933722
| 25> H -0.1554751866 0.8037030096 1.0752388936
| 26> H 1.7832541043 -1.0141801272 -1.6836149441
| 27> H 3.2655707262 -1.0155888925 -0.7365794737
| 28> H 1.8983462501 -2.0071498816 -0.2278071194
| 29> H 1.6036519516 1.4562957847 -1.5320697993
| 30> H 1.576284092 2.2706075879 0.034973472
| 31> H 3.0741429339 1.5636952799 -0.5723924482
| 32> H 2.1485135938 -0.8556689436 2.0547718932
| 33> H 2.0221319747 0.9005381802 2.1613617488
| 34> H 3.4383712596 0.1618808123 1.4147380776
| 35> *
| 36>
| 37>                          ****END OF INPUT****

CARTESIAN COORDINATES (ANGSTROEM)
---------------------------------
  C     -2.777463    1.043400    0.264228
  C     -2.238687   -0.127810   -0.555557
  C     -2.598841   -1.454195    0.111537
  C     -0.730919   -0.003390   -0.828679
  C      0.144787   -0.018532    0.423222
  C      1.659809    0.109352    0.172931
  C      2.180295   -1.055497   -0.672883
  C      1.995387    1.433151   -0.518590
  C      2.360876    0.076943    1.536691
  H     -2.401844    1.009212    1.283628
  H     -3.863720    1.003835    0.304657
  H     -2.485237    1.990833   -0.182791
  H     -2.732511   -0.103134   -1.535385
  H     -2.223337   -1.490560    1.130938
  H     -3.679379   -1.574362    0.146605
  H     -2.178695   -2.289351   -0.444285
  H     -0.440973   -0.827939   -1.482446
  H     -0.566350    0.927897   -1.373608
  H     -0.026066   -0.951336    0.963693
  H     -0.155475    0.803703    1.075239
  H      1.783254   -1.014180   -1.683615
  H      3.265571   -1.015589   -0.736579
  H      1.898346   -2.007150   -0.227807
  H      1.603652    1.456296   -1.532070
  H      1.576284    2.270608    0.034973
  H      3.074143    1.563695   -0.572392
  H      2.148514   -0.855669    2.054772
  H      2.022132    0.900538    2.161362
  H      3.438371    0.161881    1.414738

 Total Charge           Charge          ....    0
 Multiplicity           Mult            ....    1
 Number of Electrons    NEL             ....   74
 Basis Dimension        Dim             ....  166

ORBITAL ENERGIES
----------------

  NO   OCC          E(Eh)            E(eV)
   0   2.0000      -9.901151      -269.4240
   1   2.0000      -9.889753      -269.1138
   2   2.0000      -9.875219      -268.7184
   3   2.0000      -9.875187      -268.7175
   4   2.0000      -9.868049      -268.5233
   5   2.0000      -9.868043      -268.5231
   6   2.0000      -9.867575      -268.5104
   7   2.0000      -9.867519      -268.5088
   8   2.0000      -9.866840      -268.4904
   9   2.0000      -0.747378       -20.3372
  10   2.0000      -0.718730       -19.5576
  11   2.0000      -0.640952       -17.4412
  12   2.0000      -0.609300       -16.5799
  13   2.0000      -0.608508       -16.5584
  14   2.0000      -0.606413       -16.5013
  15   2.0000      -0.564181       -15.3521
  16   2.0000      -0.485986       -13.2243
  17   2.0000      -0.463272       -12.6063
  18   2.0000      -0.419789       -11.4231
  19   2.0000      -0.413823       -11.2607
  20   2.0000      -0.394192       -10.7265
  21   2.0000      -0.385461       -10.4889
  22   2.0000      -0.384490       -10.4625
  23   2.0000      -0.374510       -10.1909
  24   2.0000      -0.352723        -9.5981
  25   2.0000      -0.345762        -9.4087
  26   2.0000      -0.336277        -9.1506
  27   2.0000      -0.321898        -8.7593
  28   2.0000      -0.318865        -8.6768
  29   2.0000      -0.315760        -8.5923
  30   2.0000      -0.299993        -8.1632
  31   2.0000      -0.292544        -7.9605
  32   2.0000      -0.286819        -7.8048
  33   2.0000      -0.281508        -7.6602
  34   2.0000      -0.270190        -7.3522
  35   2.0000      -0.261791        -7.1237
  36   2.0000      -0.256427        -6.9777
  37   0.0000       0.026964         0.7337
  38   0.0000       0.046615         1.2685
  39   0.0000       0.062839         1.7099
  40   0.0000       0.063359         1.7241
  41   0.0000       0.082596         2.2476

MULLIKEN ATOMIC CHARGES
-----------------------
   0 C :   -0.258405
   1 C :   -0.144329
   2 C :   -0.258557
   3 C :   -0.135083
   4 C :   -0.139498
   5 C :   -0.238862
   6 C :   -0.222657
   7 C :   -0.222889
   8 C :   -0.199511
   9 H :    0.105065
  10 H :    0.096612
  11 H :    0.095452
  12 H :    0.066203
  13 H :    0.104909
  14 H :    0.096721
  15 H :    0.095475
  16 H :    0.080051
  17 H :    0.079936
  18 H :    0.076706
  19 H :    0.076658
  20 H :    0.104627
  21 H :    0.091514
  22 H :    0.091067
  23 H :    0.104577
  24 H :    0.091125
  25 H :    0.091628
  26 H :    0.090013
  27 H :    0.090077
  28 H :    0.091377
Sum of atomic charges:    0.0000000

LOEWDIN ATOMIC CHARGES
----------------------
   0 C :   -0.331989
   1 C :   -0.154747
   2 C :   -0.331927
   3 C :   -0.220171
   4 C :   -0.209412
   5 C :   -0.105350
   6 C :   -0.317822
   7 C :   -0.317795
   8 C :   -0.315220
   9 H :    0.115957
  10 H :    0.117725
  11 H :    0.116111
  12 H :    0.113627
  13 H :    0.115924
  14 H :    0.117719
  15 H :    0.116109
  16 H :    0.113707
  17 H :    0.113747
  18 H :    0.113279
  19 H :    0.113233
  20 H :    0.115411
  21 H :    0.116392
  22 H :    0.115561
  23 H :    0.115398
  24 H :    0.115570
  25 H :    0.116402
  26 H :    0.114335
  27 H :    0.114368
  28 H :    0.113861

  Mayer bond orders larger than 0.100000
B(  0-C ,  1-C ) :   1.1098 B(  0-C ,  9-H ) :   0.9430 B(  0-C , 10-H ) :   0.9501
B(  0-C , 11-H ) :   0.9513 B(  1-C ,  2-C ) :   1.1093 B(  1-C ,  3-C ) :   1.0875
B(  1-C , 12-H ) :   0.9015 B(  2-C , 13-H ) :   0.9432 B(  2-C , 14-H ) :   0.9502
B(  2-C , 15-H ) :   0.9513 B(  3-C ,  4-C ) :   1.1323 B(  3-C , 16-H ) :   0.9069
B(  3-C , 17-H ) :   0.9068 B(  4-C ,  5-C ) :   1.0440 B(  4-C , 18-H ) :   0.9076
B(  4-C , 19-H ) :   0.9076 B(  5-C ,  6-C ) :   1.0730 B(  5-C ,  7-C ) :   1.0728
B(  5-C ,  8-C ) :   1.0805 B(  6-C , 20-H ) :   0.9412 B(  6-C , 21-H ) :   0.9472
B(  6-C , 22-H ) :   0.9485 B(  7-C , 23-H ) :   0.9412 B(  7-C , 24-H ) :   0.9485
B(  7-C , 25-H ) :   0.9472 B(  8-C , 26-H ) :   0.9466 B(  8-C , 27-H ) :   0.9465
B(  8-C , 28-H ) :   0.9466

Dispersion correction           -0.026221053
FINAL SINGLE POINT ENERGY      -354.087687739786

DIPOLE MOMENT
-------------

Method             : SCF
Type of density    : Electron Density
Multiplicity       :   1
Irrep              :   0
Energy             :  -354.1845891004838904 Eh
Relativity type    :
Basis              : AO
                                X                 Y                 Z
Electronic contribution:     -0.085223971       0.038261964      -0.789347798
Nuclear contribution   :      0.053174199      -0.038250795       0.750178259
                        -----------------------------------------
Total Dipole Moment    :     -0.032049772       0.000011170      -0.039169540
                        -----------------------------------------
Magnitude (a.u.)       :      0.050610679
Magnitude (Debye)      :      0.128642122

Rotational constants in cm-1:             0.088217             0.026318             0.025054
Rotational constants in MHz :          2644.686129           789.004125           751.095330

                             ****ORCA TERMINATED NORMALLY****
TOTAL RUN TIME: 0 days 0 hours 0 minutes 14 seconds 369 msec
