                         Program Version 6.0.0  -   RELEASE  -
|  1> ! r2scan-3c def2/J RI DEFGRID2 scfconv6 printgap
|  2> %output
|  3>     printlevel normal
|  4> end
|  5> * xyz 0 1
|  6> C -1.4463176106 0.1435035411 0.5985121286
|  7> C 0.0744785273 0.3434893333 0.4861755559
|  8> C 0.791603383 -0.8928886597 -0.0674353637
|  9> O 2.1814132074 -0.6548500477 0.0328765942
| 10> O 0.3196110798 1.4696742762 -0.3275515351
| 11> O -2.0656929109 -0.3328000957 -0.5709204999
| 12> H -1.8920600648 1.1220332875 0.7885564061
| 13> H -1.6549470302 -0.517116793 1.4477919938
| 14> H 0.4607800357 0.5364261908 1.5003307483
| 15> H 0.5023353346 -1.0313813422 -1.1161565462
| 16> H 0.5063893574 -1.7727961166 0.5224217914
| 17> H 2.665822793 -1.4026389116 -0.3415194437
| 18> H 1.2738031575 1.5194463545 -0.4880639538
| 19> H -1.8581404207 -1.2686145046 -0.6951478363
| 20> *
| 21>
| 22>                          ****END OF INPUT****

CARTESIAN COORDINATES (ANGSTROEM)
---------------------------------
  C     -1.446318    0.143504    0.598512
  C      0.074479    0.343489    0.486176
  C      0.791603   -0.892889   -0.067435
  O      2.181413   -0.654850    0.032877
  O      0.319611    1.469674   -0.327552
  O     -2.065693   -0.332800   -0.570920
  H     -1.892060    1.122033    0.788556
  H     -1.654947   -0.517117    1.447792
  H      0.460780    0.536426    1.500331
  H      0.502335   -1.031381   -1.116157
  H      0.506389   -1.772796    0.522422
  H      2.665823   -1.402639   -0.341519
  H      1.273803    1.519446   -0.488064
  H     -1.858140   -1.268615   -0.695148

 Total Charge           Charge          ....    0
 Multiplicity           Mult            ....    1
 Number of Electrons    NEL             ....   50
 Basis Dimension        Dim             ....  169

ORBITAL ENERGIES
----------------

  NO   OCC          E(Eh)            E(eV)
   0   2.0000     -18.966731      -516.1110
   1   2.0000     -18.952588      -515.7261
   2   2.0000     -18.943702      -515.4843
   3   2.0000     -10.087607      -274.4977
   4   2.0000     -10.084285      -274.4073
   5   2.0000     -10.079887      -274.2877
   6   2.0000      -1.008319       -27.4377
   7   2.0000      -0.992401       -27.0046
   8   2.0000      -0.975679       -26.5496
   9   2.0000      -0.727635       -19.7999
  10   2.0000      -0.653789       -17.7905
  11   2.0000      -0.561177       -15.2704
  12   2.0000      -0.507205       -13.8018
  13   2.0000      -0.497186       -13.5291
  14   2.0000      -0.452107       -12.3025
  15   2.0000      -0.441890       -12.0244
  16   2.0000      -0.408723       -11.1219
  17   2.0000      -0.390590       -10.6285
  18   2.0000      -0.368550       -10.0287
  19   2.0000      -0.330645        -8.9973
  20   2.0000      -0.319519        -8.6946
  21   2.0000      -0.290710        -7.9106
  22   2.0000      -0.257251        -7.0001
  23   2.0000      -0.240520        -6.5449
  24   2.0000      -0.234571        -6.3830
  25   0.0000       0.039549         1.0762
  26   0.0000       0.046361         1.2616
  27   0.0000       0.087884         2.3914
  28   0.0000       0.113327         3.0838
  29   0.0000       0.133382         3.6295

MULLIKEN ATOMIC CHARGES
-----------------------
   0 C :   -0.231898
   1 C :    0.150078
   2 C :   -0.238124
   3 O :   -0.441154
   4 O :   -0.429682
   5 O :   -0.409258
   6 H :    0.152482
   7 H :    0.131232
   8 H :    0.134004
   9 H :    0.147360
  10 H :    0.126148
  11 H :    0.298463
  12 H :    0.309072
  13 H :    0.301277
Sum of atomic charges:    0.0000000

LOEWDIN ATOMIC CHARGES
----------------------
   0 C :    0.028695
   1 C :    0.076275
   2 C :    0.016992
   3 O :   -0.621074
   4 O :   -0.579742
   5 O :   -0.595574
   6 H :    0.193617
   7 H :    0.161857
   8 H :    0.174989
   9 H :    0.169590
  10 H :    0.161037
  11 H :    0.270452
  12 H :    0.278686
  13 H :    0.264198

  Mayer bond orders larger than 0.100000
B(  0-C ,  1-C ) :   0.9134 B(  0-C ,  5-O ) :   0.9919 B(  0-C ,  6-H ) :   0.9691
B(  0-C ,  7-H ) :   0.9776 B(  1-C ,  2-C ) :   0.8700 B(  1-C ,  4-O ) :   0.8925
B(  1-C ,  8-H ) :   0.9457 B(  2-C ,  3-O ) :   0.9463 B(  2-C ,  9-H ) :   0.9743
B(  2-C , 10-H ) :   0.9610 B(  3-O , 11-H ) :   0.8975 B(  4-O , 12-H ) :   0.8782
B(  5-O , 13-H ) :   0.8938

Dispersion correction           -0.003013431
FINAL SINGLE POINT ENERGY      -344.720726111130

DIPOLE MOMENT
-------------

Method             : SCF
Type of density    : Electron Density
Multiplicity       :   1
Irrep              :   0
Energy             :  -344.7281733069657434 Eh
Relativity type    :
Basis              : AO
                                X                 Y                 Z
Electronic contribution:      0.586677380       1.416179671      -1.237782033
Nuclear contribution   :      0.010202148      -2.633463332       1.505309256
                        -----------------------------------------
Total Dipole Moment    :      0.596879528      -1.217283661       0.267527224
                        -----------------------------------------
Magnitude (a.u.)       :      1.381888381
Magnitude (Debye)      :      3.512481123

Rotational constants in cm-1:             0.196615             0.076014             0.063693
Rotational constants in MHz :          5894.374162          2278.841686          1909.468520

                             ****ORCA TERMINATED NORMALLY****
TOTAL RUN TIME: 0 days 0 hours 0 minutes 20 seconds 209 msec
