                         Program Version 6.0.0  -   RELEASE  -
|  1> ! r2scan-3c def2/J RI DEFGRID2 scfconv6 printgap
|  2> %output
|  3>     printlevel normal
|  4> end
|  5> %cpcm
|  6>     smd true
|  7>     smdsolvent "water"
|  8> end
|  9> * xyz 0 1
| 10> C -1.4463176106 0.1435035411 0.5985121286
| 11> C 0.0744785273 0.3434893333 0.4861755559
| 12> C 0.791603383 -0.8928886597 -0.0674353637
| 13> O 2.1814132074 -0.6548500477 0.0328765942
| 14> O 0.3196110798 1.4696742762 -0.3275515351
| 15> O -2.0656929109 -0.3328000957 -0.5709204999
| 16> H -1.8920600648 1.1220332875 0.7885564061
| 17> H -1.6549470302 -0.517116793 1.4477919938
| 18> H 0.4607800357 0.5364261908 1.5003307483
| 19> H 0.5023353346 -1.0313813422 -1.1161565462
| 20> H 0.5063893574 -1.7727961166 0.5224217914
| 21> H 2.665822793 -1.4026389116 -0.3415194437
| 22> H 1.2738031575 1.5194463545 -0.4880639538
| 23> H -1.8581404207 -1.2686145046 -0.6951478363
| 24> *
| 25>
| 26>                          ****END OF INPUT****

CARTESIAN COORDINATES (ANGSTROEM)
---------------------------------
  C     -1.446318    0.143504    0.598512
  C      0.074479    0.343489    0.486176
  C      0.791603   -0.892889   -0.067435
  O      2.181413   -0.654850    0.032877
  O      0.319611    1.469674   -0.327552
  O     -2.065693   -0.332800   -0.570920
  H     -1.892060    1.122033    0.788556
  H     -1.654947   -0.517117    1.447792
  H      0.460780    0.536426    1.500331
  H      0.502335   -1.031381   -1.116157
  H      0.506389   -1.772796    0.522422
  H      2.665823   -1.402639   -0.341519
  H      1.273803    1.519446   -0.488064
  H     -1.858140   -1.268615   -0.695148

 Total Charge           Charge          ....    0
 Multiplicity           Mult            ....    1
 Number of Electrons    NEL             ....   50
 Basis Dimension        Dim             ....  169

ORBITAL ENERGIES
----------------

  NO   OCC          E(Eh)            E(eV)
   0   2.0000     -18.955909      -515.8165
   1   2.0000     -18.955645      -515.8093
   2   2.0000     -18.953359      -515.7471
   3   2.0000     -10.080133      -274.2944
   4   2.0000     -10.074874      -274.1513
   5   2.0000     -10.073153      -274.1044
   6   2.0000      -1.005589       -27.3635
   7   2.0000      -0.990668       -26.9575
   8   2.0000      -0.979053       -26.6414
   9   2.0000      -0.721761       -19.6401
  10   2.0000      -0.645477       -17.5643
  11   2.0000      -0.558019       -15.1845
  12   2.0000      -0.497349       -13.5336
  13   2.0000      -0.493401       -13.4261
  14   2.0000      -0.448009       -12.1910
  15   2.0000      -0.434163       -11.8142
  16   2.0000      -0.405371       -11.0307
  17   2.0000      -0.391455       -10.6520
  18   2.0000      -0.365369        -9.9422
  19   2.0000      -0.330959        -9.0058
  20   2.0000      -0.323745        -8.8096
  21   2.0000      -0.292920        -7.9707
  22   2.0000      -0.250711        -6.8222
  23   2.0000      -0.244585        -6.6555
  24   2.0000      -0.241020        -6.5585
  25   0.0000       0.062746         1.7074
  26   0.0000       0.065436         1.7806
  27   0.0000       0.101161         2.7527
  28   0.0000       0.126714         3.4481
  29   0.0000       0.142845         3.8870

MULLIKEN ATOMIC CHARGES
-----------------------
   0 C :   -0.221615
   1 C :    0.115755
   2 C :   -0.212323
   3 O :   -0.506901
   4 O :   -0.507803
   5 O :   -0.499441
   6 H :    0.159144
   7 H :    0.156993
   8 H :    0.146974
   9 H :    0.155314
  10 H :    0.154954
  11 H :    0.349457
  12 H :    0.347953
  13 H :    0.361540
Sum of atomic charges:    0.0000000

LOEWDIN ATOMIC CHARGES
----------------------
   0 C :    0.028919
   1 C :    0.074175
   2 C :    0.027452
   3 O :   -0.644682
   4 O :   -0.621811
   5 O :   -0.632964
   6 H :    0.192633
   7 H :    0.176850
   8 H :    0.182751
   9 H :    0.174951
  10 H :    0.176302
  11 H :    0.288673
  12 H :    0.290924
  13 H :    0.285827

  Mayer bond orders larger than 0.100000
B(  0-C ,  1-C ) :   0.9291 B(  0-C ,  5-O ) :   0.9791 B(  0-C ,  6-H ) :   0.9694
B(  0-C ,  7-H ) :   0.9641 B(  1-C ,  2-C ) :   0.9164 B(  1-C ,  4-O ) :   0.8738
B(  1-C ,  8-H ) :   0.9341 B(  2-C ,  3-O ) :   0.9321 B(  2-C ,  9-H ) :   0.9634
B(  2-C , 10-H ) :   0.9579 B(  3-O , 11-H ) :   0.8715 B(  4-O , 12-H ) :   0.8601
B(  5-O , 13-H ) :   0.8630

Dispersion correction           -0.003013431
FINAL SINGLE POINT ENERGY      -344.744305888001

DIPOLE MOMENT
-------------

Method             : SCF
Type of density    : Electron Density
Multiplicity       :   1
Irrep              :   0
Energy             :  -344.7517530838369453 Eh
Relativity type    :
Basis              : AO
                                X                 Y                 Z
Electronic contribution:      0.756691810       0.866251704      -1.065590382
Nuclear contribution   :      0.010202148      -2.633463332       1.505309256
                        -----------------------------------------
Total Dipole Moment    :      0.766893958      -1.767211627       0.439718874
                        -----------------------------------------
Magnitude (a.u.)       :      1.975984809
Magnitude (Debye)      :      5.022554237

Rotational constants in cm-1:             0.196615             0.076014             0.063693
Rotational constants in MHz :          5894.374162          2278.841686          1909.468520

                             ****ORCA TERMINATED NORMALLY****
TOTAL RUN TIME: 0 days 0 hours 0 minutes 23 seconds 332 msec
