                         Program Version 6.0.0  -   RELEASE  -
|  1> ! r2scan-3c def2/J RI DEFGRID2 scfconv6 printgap
|  2> %output
|  3>     printlevel normal
|  4> end
|  5> * xyz 0 1
|  6> C 1.8738885392 -1.0442820868 0.3677712924
|  7> C 1.2739858811 0.2729291261 0.845613438
|  8> C 0.1713505854 0.8634814319 -0.0461768787
|  9> H -0.0437057646 1.8661586827 0.3685124299
| 10> C -1.1861999188 0.1219921174 -0.0960098849
| 11> C -1.1356718165 -1.2139759164 -0.8368962887
| 12> C -1.7867138546 -0.0485388214 1.2965964376
| 13> O 0.7167046614 1.0197827924 -1.3465363273
| 14> H 2.0976406812 -0.983168965 -0.6935606182
| 15> H 1.2008873081 -1.8776591301 0.539061562
| 16> H 2.7985081798 -1.2389700978 0.9061983062
| 17> H 0.887684385 0.1703830394 1.8591666163
| 18> H 2.071771864 1.0193436933 0.8675228365
| 19> H -1.8514217082 0.7857044216 -0.6656974748
| 20> H -2.1301245598 -1.4811522401 -1.1871780709
| 21> H -0.4710300535 -1.1468253408 -1.6943456634
| 22> H -0.7843535379 -2.0094510903 -0.1871849053
| 23> H -1.2113561835 -0.7614257757 1.8811066893
| 24> H -2.8050603793 -0.4204216676 1.2147803321
| 25> H -1.8070276088 0.9010066136 1.8269223024
| 26> H 0.0773179246 1.4820134425 -1.9038864954
| 27> *
| 28>
| 29>                          ****END OF INPUT****

CARTESIAN COORDINATES (ANGSTROEM)
---------------------------------
  C      1.873889   -1.044282    0.367771
  C      1.273986    0.272929    0.845613
  C      0.171351    0.863481   -0.046177
  H     -0.043706    1.866159    0.368512
  C     -1.186200    0.121992   -0.096010
  C     -1.135672   -1.213976   -0.836896
  C     -1.786714   -0.048539    1.296596
  O      0.716705    1.019783   -1.346536
  H      2.097641   -0.983169   -0.693561
  H      1.200887   -1.877659    0.539062
  H      2.798508   -1.238970    0.906198
  H      0.887684    0.170383    1.859167
  H      2.071772    1.019344    0.867523
  H     -1.851422    0.785704   -0.665697
  H     -2.130125   -1.481152   -1.187178
  H     -0.471030   -1.146825   -1.694346
  H     -0.784354   -2.009451   -0.187185
  H     -1.211356   -0.761426    1.881107
  H     -2.805060   -0.420422    1.214780
  H     -1.807028    0.901007    1.826922
  H      0.077318    1.482013   -1.903886

 Total Charge           Charge          ....    0
 Multiplicity           Mult            ....    1
 Number of Electrons    NEL             ....   58
 Basis Dimension        Dim             ....  208

ORBITAL ENERGIES
----------------

  NO   OCC          E(Eh)            E(eV)
   0   2.0000     -18.945456      -515.5321
   1   2.0000     -10.077127      -274.2126
   2   2.0000     -10.035090      -273.0687
   3   2.0000     -10.022525      -272.7268
   4   2.0000     -10.019759      -272.6515
   5   2.0000     -10.010865      -272.4095
   6   2.0000     -10.008342      -272.3408
   7   2.0000      -0.983845       -26.7718
   8   2.0000      -0.771337       -20.9892
   9   2.0000      -0.725351       -19.7378
  10   2.0000      -0.652337       -17.7510
  11   2.0000      -0.638245       -17.3675
  12   2.0000      -0.568066       -15.4579
  13   2.0000      -0.521363       -14.1870
  14   2.0000      -0.468739       -12.7550
  15   2.0000      -0.448745       -12.2110
  16   2.0000      -0.410085       -11.1590
  17   2.0000      -0.393451       -10.7064
  18   2.0000      -0.385585       -10.4923
  19   2.0000      -0.371715       -10.1149
  20   2.0000      -0.355770        -9.6810
  21   2.0000      -0.345945        -9.4136
  22   2.0000      -0.333187        -9.0665
  23   2.0000      -0.313638        -8.5345
  24   2.0000      -0.311961        -8.4889
  25   2.0000      -0.298528        -8.1234
  26   2.0000      -0.294839        -8.0230
  27   2.0000      -0.269288        -7.3277
  28   2.0000      -0.230856        -6.2819
  29   0.0000       0.058449         1.5905
  30   0.0000       0.091743         2.4965
  31   0.0000       0.110804         3.0151
  32   0.0000       0.120213         3.2712
  33   0.0000       0.129390         3.5209

MULLIKEN ATOMIC CHARGES
-----------------------
   0 C :   -0.497577
   1 C :   -0.278138
   2 C :    0.038406
   3 H :    0.131525
   4 C :   -0.008891
   5 C :   -0.526903
   6 C :   -0.526979
   7 O :   -0.436388
   8 H :    0.179250
   9 H :    0.135172
  10 H :    0.143867
  11 H :    0.145801
  12 H :    0.146266
  13 H :    0.137839
  14 H :    0.148223
  15 H :    0.177158
  16 H :    0.144189
  17 H :    0.160229
  18 H :    0.149039
  19 H :    0.149560
  20 H :    0.288353
Sum of atomic charges:   -0.0000000

LOEWDIN ATOMIC CHARGES
----------------------
   0 C :   -0.416049
   1 C :   -0.276755
   2 C :    0.056584
   3 H :    0.166519
   4 C :   -0.225808
   5 C :   -0.411835
   6 C :   -0.412472
   7 O :   -0.626670
   8 H :    0.166503
   9 H :    0.147221
  10 H :    0.149374
  11 H :    0.159146
  12 H :    0.164063
  13 H :    0.155743
  14 H :    0.151850
  15 H :    0.167956
  16 H :    0.151709
  17 H :    0.153739
  18 H :    0.155771
  19 H :    0.154805
  20 H :    0.268607

  Mayer bond orders larger than 0.100000
B(  0-C ,  1-C ) :   0.8815 B(  0-C ,  8-H ) :   0.9844 B(  0-C ,  9-H ) :   0.9735
B(  0-C , 10-H ) :   0.9690 B(  1-C ,  2-C ) :   0.9480 B(  1-C , 11-H ) :   0.9761
B(  1-C , 12-H ) :   0.9571 B(  2-C ,  3-H ) :   0.9652 B(  2-C ,  4-C ) :   0.9078
B(  2-C ,  7-O ) :   0.9004 B(  4-C ,  5-C ) :   0.8726 B(  4-C ,  6-C ) :   0.8983
B(  4-C , 13-H ) :   0.9607 B(  5-C , 14-H ) :   0.9671 B(  5-C , 15-H ) :   0.9750
B(  5-C , 16-H ) :   0.9790 B(  6-C , 17-H ) :   0.9854 B(  6-C , 18-H ) :   0.9654
B(  6-C , 19-H ) :   0.9737 B(  7-O , 20-H ) :   0.8988

Dispersion correction           -0.005904278
FINAL SINGLE POINT ENERGY      -312.198600486725

DIPOLE MOMENT
-------------

Method             : SCF
Type of density    : Electron Density
Multiplicity       :   1
Irrep              :   0
Energy             :  -312.2040835771184106 Eh
Relativity type    :
Basis              : AO
                                X                 Y                 Z
Electronic contribution:      1.317301614       3.656575368      -2.795134088
Nuclear contribution   :     -1.837798527      -3.450877474       2.917798433
                        -----------------------------------------
Total Dipole Moment    :     -0.520496913       0.205697894       0.122664345
                        -----------------------------------------
Magnitude (a.u.)       :      0.572953054
Magnitude (Debye)      :      1.456330926

Rotational constants in cm-1:             0.099618             0.065992             0.060152
Rotational constants in MHz :          2986.464332          1978.395107          1803.311164

                             ****ORCA TERMINATED NORMALLY****
TOTAL RUN TIME: 0 days 0 hours 0 minutes 28 seconds 449 msec
