                         Program Version 6.0.0  -   RELEASE  -
|  1> ! r2scan-3c def2/J RI DEFGRID2 scfconv6 printgap
|  2> %output
|  3>     printlevel normal
|  4> end
|  5> %cpcm
|  6>     smd true
|  7>     smdsolvent "water"
|  8> end
|  9> * xyz 0 1
| 10> C 1.8738885392 -1.0442820868 0.3677712924
| 11> C 1.2739858811 0.2729291261 0.845613438
| 12> C 0.1713505854 0.8634814319 -0.0461768787
| 13> H -0.0437057646 1.8661586827 0.3685124299
| 14> C -1.1861999188 0.1219921174 -0.0960098849
| 15> C -1.1356718165 -1.2139759164 -0.8368962887
| 16> C -1.7867138546 -0.0485388214 1.2965964376
| 17> O 0.7167046614 1.0197827924 -1.3465363273
| 18> H 2.0976406812 -0.983168965 -0.6935606182
| 19> H 1.2008873081 -1.8776591301 0.539061562
| 20> H 2.7985081798 -1.2389700978 0.9061983062
| 21> H 0.887684385 0.1703830394 1.8591666163
| 22> H 2.071771864 1.0193436933 0.8675228365
| 23> H -1.8514217082 0.7857044216 -0.6656974748
| 24> H -2.1301245598 -1.4811522401 -1.1871780709
| 25> H -0.4710300535 -1.1468253408 -1.6943456634
| 26> H -0.7843535379 -2.0094510903 -0.1871849053
| 27> H -1.2113561835 -0.7614257757 1.8811066893
| 28> H -2.8050603793 -0.4204216676 1.2147803321
| 29> H -1.8070276088 0.9010066136 1.8269223024
| 30> H 0.0773179246 1.4820134425 -1.9038864954
| 31> *
| 32>
| 33>                          ****END OF INPUT****

CARTESIAN COORDINATES (ANGSTROEM)
---------------------------------
  C      1.873889   -1.044282    0.367771
  C      1.273986    0.272929    0.845613
  C      0.171351    0.863481   -0.046177
  H     -0.043706    1.866159    0.368512
  C     -1.186200    0.121992   -0.096010
  C     -1.135672   -1.213976   -0.836896
  C     -1.786714   -0.048539    1.296596
  O      0.716705    1.019783   -1.346536
  H      2.097641   -0.983169   -0.693561
  H      1.200887   -1.877659    0.539062
  H      2.798508   -1.238970    0.906198
  H      0.887684    0.170383    1.859167
  H      2.071772    1.019344    0.867523
  H     -1.851422    0.785704   -0.665697
  H     -2.130125   -1.481152   -1.187178
  H     -0.471030   -1.146825   -1.694346
  H     -0.784354   -2.009451   -0.187185
  H     -1.211356   -0.761426    1.881107
  H     -2.805060   -0.420422    1.214780
  H     -1.807028    0.901007    1.826922
  H      0.077318    1.482013   -1.903886

 Total Charge           Charge          ....    0
 Multiplicity           Mult            ....    1
 Number of Electrons    NEL             ....   58
 Basis Dimension        Dim             ....  208

ORBITAL ENERGIES
----------------

  NO   OCC          E(Eh)            E(eV)
   0   2.0000     -18.946765      -515.5677
   1   2.0000     -10.071344      -274.0552
   2   2.0000     -10.025287      -272.8019
   3   2.0000     -10.017596      -272.5926
   4   2.0000     -10.008543      -272.3463
   5   2.0000     -10.006443      -272.2892
   6   2.0000     -10.004332      -272.2317
   7   2.0000      -0.984079       -26.7781
   8   2.0000      -0.763727       -20.7821
   9   2.0000      -0.720646       -19.6098
  10   2.0000      -0.645475       -17.5643
  11   2.0000      -0.632732       -17.2175
  12   2.0000      -0.562130       -15.2963
  13   2.0000      -0.516448       -14.0533
  14   2.0000      -0.462994       -12.5987
  15   2.0000      -0.442022       -12.0280
  16   2.0000      -0.403893       -10.9905
  17   2.0000      -0.391452       -10.6519
  18   2.0000      -0.380289       -10.3482
  19   2.0000      -0.364984        -9.9317
  20   2.0000      -0.348922        -9.4946
  21   2.0000      -0.342230        -9.3126
  22   2.0000      -0.327087        -8.9005
  23   2.0000      -0.311053        -8.4642
  24   2.0000      -0.306000        -8.3267
  25   2.0000      -0.294020        -8.0007
  26   2.0000      -0.290231        -7.8976
  27   2.0000      -0.263455        -7.1690
  28   2.0000      -0.231576        -6.3015
  29   0.0000       0.074046         2.0149
  30   0.0000       0.103324         2.8116
  31   0.0000       0.119015         3.2386
  32   0.0000       0.128593         3.4992
  33   0.0000       0.134470         3.6591

MULLIKEN ATOMIC CHARGES
-----------------------
   0 C :   -0.534651
   1 C :   -0.291107
   2 C :    0.043761
   3 H :    0.143459
   4 C :    0.015815
   5 C :   -0.579058
   6 C :   -0.563780
   7 O :   -0.519004
   8 H :    0.168576
   9 H :    0.157158
  10 H :    0.157168
  11 H :    0.162321
  12 H :    0.155022
  13 H :    0.158316
  14 H :    0.161575
  15 H :    0.167897
  16 H :    0.161794
  17 H :    0.171699
  18 H :    0.159701
  19 H :    0.161047
  20 H :    0.342292
Sum of atomic charges:    0.0000000

LOEWDIN ATOMIC CHARGES
----------------------
   0 C :   -0.425071
   1 C :   -0.280644
   2 C :    0.058210
   3 H :    0.173585
   4 C :   -0.220408
   5 C :   -0.419794
   6 C :   -0.418681
   7 O :   -0.659993
   8 H :    0.159989
   9 H :    0.153510
  10 H :    0.152833
  11 H :    0.165838
  12 H :    0.163443
  13 H :    0.163949
  14 H :    0.155595
  15 H :    0.162697
  16 H :    0.155351
  17 H :    0.156743
  18 H :    0.158160
  19 H :    0.158222
  20 H :    0.286466

  Mayer bond orders larger than 0.100000
B(  0-C ,  1-C ) :   0.8600 B(  0-C ,  8-H ) :   0.9870 B(  0-C ,  9-H ) :   0.9719
B(  0-C , 10-H ) :   0.9658 B(  1-C ,  2-C ) :   0.9401 B(  1-C , 11-H ) :   0.9704
B(  1-C , 12-H ) :   0.9644 B(  2-C ,  3-H ) :   0.9607 B(  2-C ,  4-C ) :   0.9174
B(  2-C ,  7-O ) :   0.8890 B(  4-C ,  5-C ) :   0.8557 B(  4-C ,  6-C ) :   0.8899
B(  4-C , 13-H ) :   0.9590 B(  5-C , 14-H ) :   0.9647 B(  5-C , 15-H ) :   0.9773
B(  5-C , 16-H ) :   0.9784 B(  6-C , 17-H ) :   0.9807 B(  6-C , 18-H ) :   0.9641
B(  6-C , 19-H ) :   0.9710 B(  7-O , 20-H ) :   0.8733

Dispersion correction           -0.005904278
FINAL SINGLE POINT ENERGY      -312.203427563674

DIPOLE MOMENT
-------------

Method             : SCF
Type of density    : Electron Density
Multiplicity       :   1
Irrep              :   0
Energy             :  -312.2089106540678358 Eh
Relativity type    :
Basis              : AO
                                X                 Y                 Z
Electronic contribution:      1.038601957       3.751214507      -2.669037905
Nuclear contribution   :     -1.837798527      -3.450877474       2.917798433
                        -----------------------------------------
Total Dipole Moment    :     -0.799196570       0.300337033       0.248760528
                        -----------------------------------------
Magnitude (a.u.)       :      0.889268964
Magnitude (Debye)      :      2.260342075

Rotational constants in cm-1:             0.099618             0.065992             0.060152
Rotational constants in MHz :          2986.464332          1978.395107          1803.311164

                             ****ORCA TERMINATED NORMALLY****
TOTAL RUN TIME: 0 days 0 hours 0 minutes 33 seconds 859 msec
