                         Program Version 6.0.0  -   RELEASE  -
|  1> ! pbe def2-sv(p) def2/J RI DEFGRID1 loosescf d4 GCP(DFT/SV(P)) printgap
|  2> %output
|  3>     printlevel normal
|  4> end
|  5> * xyz 0 1
|  6> C 1.6499851974 -0.9713049669 -0.0479426568
|  7> C 1.3529287821 0.5074925534 0.168681266
|  8> C -0.0328328074 0.8929372994 -0.3604448451
|  9> C -1.1254564392 0.2151317518 0.4025338819
| 10> C -2.0468886435 -0.5636740956 -0.1325924036
| 11> H 1.6277901535 -1.2114847605 -1.108568741
| 12> H 0.9066688817 -1.5850674635 0.4560901229
| 13> H 2.6325677884 -1.2252023111 0.3423766412
| 14> H 1.407249905 0.7373060657 1.2350942968
| 15> H 2.1086380699 1.108204679 -0.3415324978
| 16> H -0.1057201101 0.6367930689 -1.4189751899
| 17> H -0.1564591521 1.975276296 -0.2617335096
| 18> H -1.1218925103 0.3986381624 1.4698621192
| 19> H -2.8172386118 -1.029509991 0.4582662974
| 20> H -2.0714047952 -0.7651844246 -1.1911661057
| 21> *
| 22>
| 23>                          ****END OF INPUT****

CARTESIAN COORDINATES (ANGSTROEM)
---------------------------------
  C      1.649985   -0.971305   -0.047943
  C      1.352929    0.507493    0.168681
  C     -0.032833    0.892937   -0.360445
  C     -1.125456    0.215132    0.402534
  C     -2.046889   -0.563674   -0.132592
  H      1.627790   -1.211485   -1.108569
  H      0.906669   -1.585067    0.456090
  H      2.632568   -1.225202    0.342377
  H      1.407250    0.737306    1.235094
  H      2.108638    1.108205   -0.341532
  H     -0.105720    0.636793   -1.418975
  H     -0.156459    1.975276   -0.261734
  H     -1.121893    0.398638    1.469862
  H     -2.817239   -1.029510    0.458266
  H     -2.071405   -0.765184   -1.191166

 Total Charge           Charge          ....    0
 Multiplicity           Mult            ....    1
 Number of Electrons    NEL             ....   40
 Basis Dimension        Dim             ....   90

ORBITAL ENERGIES
----------------

  NO   OCC          E(Eh)            E(eV)
   0   2.0000      -9.889072      -269.0953
   1   2.0000      -9.885842      -269.0074
   2   2.0000      -9.885535      -268.9991
   3   2.0000      -9.873948      -268.6838
   4   2.0000      -9.869730      -268.5690
   5   2.0000      -0.728385       -19.8204
   6   2.0000      -0.671560       -18.2741
   7   2.0000      -0.605036       -16.4639
   8   2.0000      -0.526533       -14.3277
   9   2.0000      -0.492044       -13.3892
  10   2.0000      -0.413193       -11.2436
  11   2.0000      -0.408069       -11.1041
  12   2.0000      -0.394534       -10.7358
  13   2.0000      -0.358391        -9.7523
  14   2.0000      -0.340907        -9.2766
  15   2.0000      -0.309537        -8.4229
  16   2.0000      -0.304216        -8.2781
  17   2.0000      -0.291586        -7.9345
  18   2.0000      -0.282761        -7.6943
  19   2.0000      -0.225337        -6.1317
  20   0.0000      -0.013504        -0.3675
  21   0.0000       0.046978         1.2783
  22   0.0000       0.061741         1.6800
  23   0.0000       0.079201         2.1552
  24   0.0000       0.086333         2.3492

MULLIKEN ATOMIC CHARGES
-----------------------
   0 C :   -0.279157
   1 C :   -0.204990
   2 C :   -0.104498
   3 C :   -0.131941
   4 C :   -0.197327
   5 H :    0.095806
   6 H :    0.111439
   7 H :    0.102490
   8 H :    0.088029
   9 H :    0.088254
  10 H :    0.080034
  11 H :    0.095591
  12 H :    0.069772
  13 H :    0.095265
  14 H :    0.091234
Sum of atomic charges:   -0.0000000

LOEWDIN ATOMIC CHARGES
----------------------
   0 C :   -0.343187
   1 C :   -0.231127
   2 C :   -0.221806
   3 C :   -0.132368
   4 C :   -0.258056
   5 H :    0.116717
   6 H :    0.120670
   7 H :    0.118259
   8 H :    0.114233
   9 H :    0.115718
  10 H :    0.118158
  11 H :    0.126039
  12 H :    0.118741
  13 H :    0.119910
  14 H :    0.118097

  Mayer bond orders larger than 0.100000
B(  0-C ,  1-C ) :   1.1507 B(  0-C ,  5-H ) :   0.9550 B(  0-C ,  6-H ) :   0.9493
B(  0-C ,  7-H ) :   0.9533 B(  1-C ,  2-C ) :   1.0967 B(  1-C ,  8-H ) :   0.9304
B(  1-C ,  9-H ) :   0.9270 B(  2-C ,  3-C ) :   1.0869 B(  2-C , 10-H ) :   0.9190
B(  2-C , 11-H ) :   0.9045 B(  3-C ,  4-C ) :   2.0586 B(  3-C , 12-H ) :   0.9324
B(  4-C , 13-H ) :   0.9242 B(  4-C , 14-H ) :   0.9201

Dispersion correction           -0.010113441
FINAL SINGLE POINT ENERGY      -196.026752069869

DIPOLE MOMENT
-------------

Method             : SCF
Type of density    : Electron Density
Multiplicity       :   1
Irrep              :   0
Energy             :  -196.0751477939446374 Eh
Relativity type    :
Basis              : AO
                                X                 Y                 Z
Electronic contribution:     -2.145219264       0.987721779       0.360687055
Nuclear contribution   :      2.261180484      -0.900861013      -0.338010572
                        -----------------------------------------
Total Dipole Moment    :      0.115961220       0.086860766       0.022676483
                        -----------------------------------------
Magnitude (a.u.)       :      0.146649310
Magnitude (Debye)      :      0.372752922

Rotational constants in cm-1:             0.306098             0.102756             0.087493
Rotational constants in MHz :          9176.580957          3080.545079          2622.987593

                             ****ORCA TERMINATED NORMALLY****
TOTAL RUN TIME: 0 days 0 hours 0 minutes 6 seconds 610 msec
