                         Program Version 6.0.0  -   RELEASE  -
|  1> ! r2scan-3c def2/J RI DEFGRID2 scfconv6 printgap
|  2> %output
|  3>     printlevel normal
|  4> end
|  5> * xyz 0 1
|  6> C 2.3642082665 0.5836274419 -0.7420112515
|  7> C 1.0690688815 -0.1148530277 -0.3210307675
|  8> H 0.672568482 -0.6705086944 -1.1846574917
|  9> C 0.0370567399 0.9175944314 0.1487976232
| 10> C -1.4287622688 0.4586911578 0.1814965992
| 11> C -1.9505273717 0.0931171962 -1.2077430791
| 12> C -1.6519723219 -0.6923165504 1.1581838689
| 13> O 1.3104225132 -1.0220901362 0.744026953
| 14> H 2.1734515397 1.2588026644 -1.5708003469
| 15> H 2.7649067538 1.1523380091 0.0939144959
| 16> H 3.107366298 -0.1462899047 -1.0564765132
| 17> H 0.3292529548 1.2277822987 1.1543280226
| 18> H 0.1061583719 1.7863578258 -0.5079980283
| 19> H -2.0078427895 1.3199546791 0.5376082784
| 20> H -1.7404412187 0.888305781 -1.919213816
| 21> H -3.0263067037 -0.0612778797 -1.1715442073
| 22> H -1.4930891694 -0.8252107859 -1.5669341527
| 23> H -2.7084984771 -0.9464103862 1.2075183535
| 24> H -1.0954730054 -1.5716688653 0.8470165961
| 25> H -1.312546458 -0.4174355414 2.153748351
| 26> H 2.0302088153 -1.6168280316 0.495450601
| 27> *
| 28>
| 29>                          ****END OF INPUT****

CARTESIAN COORDINATES (ANGSTROEM)
---------------------------------
  C      2.364208    0.583627   -0.742011
  C      1.069069   -0.114853   -0.321031
  H      0.672568   -0.670509   -1.184657
  C      0.037057    0.917594    0.148798
  C     -1.428762    0.458691    0.181497
  C     -1.950527    0.093117   -1.207743
  C     -1.651972   -0.692317    1.158184
  O      1.310423   -1.022090    0.744027
  H      2.173452    1.258803   -1.570800
  H      2.764907    1.152338    0.093914
  H      3.107366   -0.146290   -1.056477
  H      0.329253    1.227782    1.154328
  H      0.106158    1.786358   -0.507998
  H     -2.007843    1.319955    0.537608
  H     -1.740441    0.888306   -1.919214
  H     -3.026307   -0.061278   -1.171544
  H     -1.493089   -0.825211   -1.566934
  H     -2.708498   -0.946410    1.207518
  H     -1.095473   -1.571669    0.847017
  H     -1.312546   -0.417436    2.153748
  H      2.030209   -1.616828    0.495451

 Total Charge           Charge          ....    0
 Multiplicity           Mult            ....    1
 Number of Electrons    NEL             ....   58
 Basis Dimension        Dim             ....  208

ORBITAL ENERGIES
----------------

  NO   OCC          E(Eh)            E(eV)
   0   2.0000     -18.944821      -515.5148
   1   2.0000     -10.080266      -274.2980
   2   2.0000     -10.028347      -272.8852
   3   2.0000     -10.020599      -272.6744
   4   2.0000     -10.020035      -272.6590
   5   2.0000     -10.011387      -272.4237
   6   2.0000     -10.001065      -272.1428
   7   2.0000      -0.983218       -26.7547
   8   2.0000      -0.772670       -21.0254
   9   2.0000      -0.720273       -19.5996
  10   2.0000      -0.648390       -17.6436
  11   2.0000      -0.640721       -17.4349
  12   2.0000      -0.571596       -15.5539
  13   2.0000      -0.509396       -13.8614
  14   2.0000      -0.479477       -13.0472
  15   2.0000      -0.433644       -11.8000
  16   2.0000      -0.410227       -11.1628
  17   2.0000      -0.398301       -10.8383
  18   2.0000      -0.386674       -10.5219
  19   2.0000      -0.375279       -10.2119
  20   2.0000      -0.346891        -9.4394
  21   2.0000      -0.345421        -9.3994
  22   2.0000      -0.336297        -9.1511
  23   2.0000      -0.325228        -8.8499
  24   2.0000      -0.309241        -8.4149
  25   2.0000      -0.289608        -7.8806
  26   2.0000      -0.287031        -7.8105
  27   2.0000      -0.266291        -7.2461
  28   2.0000      -0.233095        -6.3428
  29   0.0000       0.058389         1.5888
  30   0.0000       0.092881         2.5274
  31   0.0000       0.110853         3.0165
  32   0.0000       0.120467         3.2781
  33   0.0000       0.139235         3.7888

MULLIKEN ATOMIC CHARGES
-----------------------
   0 C :   -0.499461
   1 C :    0.029169
   2 H :    0.129861
   3 C :   -0.295332
   4 C :   -0.027812
   5 C :   -0.517133
   6 C :   -0.493655
   7 O :   -0.407783
   8 H :    0.148865
   9 H :    0.160097
  10 H :    0.134246
  11 H :    0.159310
  12 H :    0.143370
  13 H :    0.149601
  14 H :    0.146827
  15 H :    0.147337
  16 H :    0.149630
  17 H :    0.136027
  18 H :    0.174651
  19 H :    0.146914
  20 H :    0.285272
Sum of atomic charges:   -0.0000000

LOEWDIN ATOMIC CHARGES
----------------------
   0 C :   -0.399979
   1 C :    0.048989
   2 H :    0.161629
   3 C :   -0.271165
   4 C :   -0.241885
   5 C :   -0.420967
   6 C :   -0.412857
   7 O :   -0.619853
   8 H :    0.157382
   9 H :    0.162350
  10 H :    0.149717
  11 H :    0.174136
  12 H :    0.163664
  13 H :    0.154794
  14 H :    0.152165
  15 H :    0.153895
  16 H :    0.150578
  17 H :    0.147637
  18 H :    0.165813
  19 H :    0.156630
  20 H :    0.267326

  Mayer bond orders larger than 0.100000
B(  0-C ,  1-C ) :   0.9122 B(  0-C ,  8-H ) :   0.9744 B(  0-C ,  9-H ) :   0.9815
B(  0-C , 10-H ) :   0.9725 B(  1-C ,  2-H ) :   0.9626 B(  1-C ,  3-C ) :   0.9144
B(  1-C ,  7-O ) :   0.8567 B(  3-C ,  4-C ) :   0.9090 B(  3-C , 11-H ) :   0.9694
B(  3-C , 12-H ) :   0.9825 B(  4-C ,  5-C ) :   0.9056 B(  4-C ,  6-C ) :   0.9144
B(  4-C , 13-H ) :   0.9722 B(  5-C , 14-H ) :   0.9778 B(  5-C , 15-H ) :   0.9693
B(  5-C , 16-H ) :   0.9824 B(  6-C , 17-H ) :   0.9700 B(  6-C , 18-H ) :   0.9781
B(  6-C , 19-H ) :   0.9713 B(  7-O , 20-H ) :   0.9018

Dispersion correction           -0.005629671
FINAL SINGLE POINT ENERGY      -312.201157903888

DIPOLE MOMENT
-------------

Method             : SCF
Type of density    : Electron Density
Multiplicity       :   1
Irrep              :   0
Energy             :  -312.2066869383357357 Eh
Relativity type    :
Basis              : AO
                                X                 Y                 Z
Electronic contribution:      2.373411475      -1.232544337       1.865423813
Nuclear contribution   :     -2.044779126       1.277537421      -2.323146363
                        -----------------------------------------
Total Dipole Moment    :      0.328632348       0.044993084      -0.457722550
                        -----------------------------------------
Magnitude (a.u.)       :      0.565272970
Magnitude (Debye)      :      1.436809704

Rotational constants in cm-1:             0.130840             0.055779             0.046476
Rotational constants in MHz :          3922.495414          1672.216565          1393.319018

                             ****ORCA TERMINATED NORMALLY****
TOTAL RUN TIME: 0 days 0 hours 0 minutes 30 seconds 370 msec
