                         Program Version 6.0.0  -   RELEASE  -
|  1> ! r2scan-3c def2/J RI DEFGRID2 scfconv6 printgap
|  2> %output
|  3>     printlevel normal
|  4> end
|  5> %cpcm
|  6>     smd true
|  7>     smdsolvent "water"
|  8> end
|  9> * xyz 0 1
| 10> C 2.3642082665 0.5836274419 -0.7420112515
| 11> C 1.0690688815 -0.1148530277 -0.3210307675
| 12> H 0.672568482 -0.6705086944 -1.1846574917
| 13> C 0.0370567399 0.9175944314 0.1487976232
| 14> C -1.4287622688 0.4586911578 0.1814965992
| 15> C -1.9505273717 0.0931171962 -1.2077430791
| 16> C -1.6519723219 -0.6923165504 1.1581838689
| 17> O 1.3104225132 -1.0220901362 0.744026953
| 18> H 2.1734515397 1.2588026644 -1.5708003469
| 19> H 2.7649067538 1.1523380091 0.0939144959
| 20> H 3.107366298 -0.1462899047 -1.0564765132
| 21> H 0.3292529548 1.2277822987 1.1543280226
| 22> H 0.1061583719 1.7863578258 -0.5079980283
| 23> H -2.0078427895 1.3199546791 0.5376082784
| 24> H -1.7404412187 0.888305781 -1.919213816
| 25> H -3.0263067037 -0.0612778797 -1.1715442073
| 26> H -1.4930891694 -0.8252107859 -1.5669341527
| 27> H -2.7084984771 -0.9464103862 1.2075183535
| 28> H -1.0954730054 -1.5716688653 0.8470165961
| 29> H -1.312546458 -0.4174355414 2.153748351
| 30> H 2.0302088153 -1.6168280316 0.495450601
| 31> *
| 32>
| 33>                          ****END OF INPUT****

CARTESIAN COORDINATES (ANGSTROEM)
---------------------------------
  C      2.364208    0.583627   -0.742011
  C      1.069069   -0.114853   -0.321031
  H      0.672568   -0.670509   -1.184657
  C      0.037057    0.917594    0.148798
  C     -1.428762    0.458691    0.181497
  C     -1.950527    0.093117   -1.207743
  C     -1.651972   -0.692317    1.158184
  O      1.310423   -1.022090    0.744027
  H      2.173452    1.258803   -1.570800
  H      2.764907    1.152338    0.093914
  H      3.107366   -0.146290   -1.056477
  H      0.329253    1.227782    1.154328
  H      0.106158    1.786358   -0.507998
  H     -2.007843    1.319955    0.537608
  H     -1.740441    0.888306   -1.919214
  H     -3.026307   -0.061278   -1.171544
  H     -1.493089   -0.825211   -1.566934
  H     -2.708498   -0.946410    1.207518
  H     -1.095473   -1.571669    0.847017
  H     -1.312546   -0.417436    2.153748
  H      2.030209   -1.616828    0.495451

 Total Charge           Charge          ....    0
 Multiplicity           Mult            ....    1
 Number of Electrons    NEL             ....   58
 Basis Dimension        Dim             ....  208

ORBITAL ENERGIES
----------------

  NO   OCC          E(Eh)            E(eV)
   0   2.0000     -18.945936      -515.5451
   1   2.0000     -10.073872      -274.1240
   2   2.0000     -10.024668      -272.7851
   3   2.0000     -10.014032      -272.4957
   4   2.0000     -10.009203      -272.3643
   5   2.0000     -10.005278      -272.2574
   6   2.0000     -10.002850      -272.1914
   7   2.0000      -0.983334       -26.7579
   8   2.0000      -0.768610       -20.9149
   9   2.0000      -0.713698       -19.4207
  10   2.0000      -0.641772       -17.4635
  11   2.0000      -0.639157       -17.3923
  12   2.0000      -0.566507       -15.4154
  13   2.0000      -0.505884       -13.7658
  14   2.0000      -0.474569       -12.9137
  15   2.0000      -0.429829       -11.6962
  16   2.0000      -0.405436       -11.0325
  17   2.0000      -0.393087       -10.6964
  18   2.0000      -0.381666       -10.3857
  19   2.0000      -0.370707       -10.0874
  20   2.0000      -0.343514        -9.3475
  21   2.0000      -0.338597        -9.2137
  22   2.0000      -0.332644        -9.0517
  23   2.0000      -0.321753        -8.7553
  24   2.0000      -0.308594        -8.3973
  25   2.0000      -0.286851        -7.8056
  26   2.0000      -0.283768        -7.7217
  27   2.0000      -0.262446        -7.1415
  28   2.0000      -0.234603        -6.3839
  29   0.0000       0.073012         1.9868
  30   0.0000       0.102262         2.7827
  31   0.0000       0.119983         3.2649
  32   0.0000       0.128974         3.5096
  33   0.0000       0.141096         3.8394

MULLIKEN ATOMIC CHARGES
-----------------------
   0 C :   -0.541545
   1 C :    0.040325
   2 H :    0.144854
   3 C :   -0.316632
   4 C :   -0.000929
   5 C :   -0.556282
   6 C :   -0.548663
   7 O :   -0.490348
   8 H :    0.165465
   9 H :    0.161662
  10 H :    0.159642
  11 H :    0.161452
  12 H :    0.162048
  13 H :    0.158557
  14 H :    0.160078
  15 H :    0.157703
  16 H :    0.162465
  17 H :    0.151716
  18 H :    0.170490
  19 H :    0.158224
  20 H :    0.339720
Sum of atomic charges:   -0.0000000

LOEWDIN ATOMIC CHARGES
----------------------
   0 C :   -0.404495
   1 C :    0.051457
   2 H :    0.168876
   3 C :   -0.274918
   4 C :   -0.240206
   5 C :   -0.427780
   6 C :   -0.424343
   7 O :   -0.653801
   8 H :    0.163049
   9 H :    0.161758
  10 H :    0.158142
  11 H :    0.172327
  12 H :    0.170642
  13 H :    0.157901
  14 H :    0.156592
  15 H :    0.155725
  16 H :    0.154127
  17 H :    0.152072
  18 H :    0.161710
  19 H :    0.156186
  20 H :    0.284981

  Mayer bond orders larger than 0.100000
B(  0-C ,  1-C ) :   0.9137 B(  0-C ,  8-H ) :   0.9702 B(  0-C ,  9-H ) :   0.9774
B(  0-C , 10-H ) :   0.9689 B(  1-C ,  2-H ) :   0.9598 B(  1-C ,  3-C ) :   0.9095
B(  1-C ,  7-O ) :   0.8457 B(  3-C ,  4-C ) :   0.9041 B(  3-C , 11-H ) :   0.9739
B(  3-C , 12-H ) :   0.9759 B(  4-C ,  5-C ) :   0.9024 B(  4-C ,  6-C ) :   0.8924
B(  4-C , 13-H ) :   0.9729 B(  5-C , 14-H ) :   0.9737 B(  5-C , 15-H ) :   0.9679
B(  5-C , 16-H ) :   0.9786 B(  6-C , 17-H ) :   0.9679 B(  6-C , 18-H ) :   0.9785
B(  6-C , 19-H ) :   0.9744 B(  7-O , 20-H ) :   0.8767

Dispersion correction           -0.005629671
FINAL SINGLE POINT ENERGY      -312.206133887926

DIPOLE MOMENT
-------------

Method             : SCF
Type of density    : Electron Density
Multiplicity       :   1
Irrep              :   0
Energy             :  -312.2116629223737618 Eh
Relativity type    :
Basis              : AO
                                X                 Y                 Z
Electronic contribution:      2.460285692      -1.187642590       1.580670735
Nuclear contribution   :     -2.044779126       1.277537421      -2.323146363
                        -----------------------------------------
Total Dipole Moment    :      0.415506565       0.089894831      -0.742475628
                        -----------------------------------------
Magnitude (a.u.)       :      0.855568141
Magnitude (Debye)      :      2.174681390

Rotational constants in cm-1:             0.130840             0.055779             0.046476
Rotational constants in MHz :          3922.495414          1672.216565          1393.319018

                             ****ORCA TERMINATED NORMALLY****
TOTAL RUN TIME: 0 days 0 hours 0 minutes 37 seconds 14 msec
