                         Program Version 6.0.0  -   RELEASE  -
|  1> ! r2scan-3c def2/J RI DEFGRID2 scfconv6 printgap
|  2> %output
|  3>     printlevel normal
|  4> end
|  5> * xyz 0 1
|  6> C 1.878585064 -1.0646057183 0.3387469166
|  7> C 1.274875278 0.2351605312 0.8625829658
|  8> C 0.1806779123 0.8592461278 -0.0225467003
|  9> H -0.0361303614 1.8529480542 0.4127833459
| 10> C -1.1798604175 0.1338039011 -0.0999200474
| 11> C -1.1358030276 -1.1943232051 -0.8523600644
| 12> C -1.8052598729 -0.0435414341 1.2805232395
| 13> O 0.6318717351 1.0394664135 -1.3552692374
| 14> H 2.8513578548 -1.2315492695 0.7955470098
| 15> H 2.0058182979 -1.0124291885 -0.7396466765
| 16> H 1.2491829527 -1.9179593937 0.5694807044
| 17> H 0.8729941024 0.0909204782 1.8647327434
| 18> H 2.0736565403 0.9788606895 0.9404982206
| 19> H -1.8153578114 0.8116758997 -0.683298296
| 20> H -0.5497271575 -1.0866684896 -1.760534675
| 21> H -0.7052701688 -1.9809981117 -0.2413757503
| 22> H -2.1458416509 -1.4915217684 -1.1249410827
| 23> H -1.8178733394 0.8983523482 1.8243527661
| 24> H -1.2537670079 -0.7765663708 1.8634984922
| 25> H -2.8284930239 -0.3948633227 1.1757571111
| 26> H 1.4451266942 1.5611135456 -1.342332998
| 27> *
| 28>
| 29>                          ****END OF INPUT****

CARTESIAN COORDINATES (ANGSTROEM)
---------------------------------
  C      1.878585   -1.064606    0.338747
  C      1.274875    0.235161    0.862583
  C      0.180678    0.859246   -0.022547
  H     -0.036130    1.852948    0.412783
  C     -1.179860    0.133804   -0.099920
  C     -1.135803   -1.194323   -0.852360
  C     -1.805260   -0.043541    1.280523
  O      0.631872    1.039466   -1.355269
  H      2.851358   -1.231549    0.795547
  H      2.005818   -1.012429   -0.739647
  H      1.249183   -1.917959    0.569481
  H      0.872994    0.090920    1.864733
  H      2.073657    0.978861    0.940498
  H     -1.815358    0.811676   -0.683298
  H     -0.549727   -1.086668   -1.760535
  H     -0.705270   -1.980998   -0.241376
  H     -2.145842   -1.491522   -1.124941
  H     -1.817873    0.898352    1.824353
  H     -1.253767   -0.776566    1.863498
  H     -2.828493   -0.394863    1.175757
  H      1.445127    1.561114   -1.342333

 Total Charge           Charge          ....    0
 Multiplicity           Mult            ....    1
 Number of Electrons    NEL             ....   58
 Basis Dimension        Dim             ....  208

ORBITAL ENERGIES
----------------

  NO   OCC          E(Eh)            E(eV)
   0   2.0000     -18.945815      -515.5418
   1   2.0000     -10.077215      -274.2150
   2   2.0000     -10.030695      -272.9491
   3   2.0000     -10.027004      -272.8487
   4   2.0000     -10.017127      -272.5799
   5   2.0000     -10.013283      -272.4753
   6   2.0000     -10.006260      -272.2842
   7   2.0000      -0.984254       -26.7829
   8   2.0000      -0.770293       -20.9607
   9   2.0000      -0.725840       -19.7511
  10   2.0000      -0.649037       -17.6612
  11   2.0000      -0.640254       -17.4222
  12   2.0000      -0.575569       -15.6620
  13   2.0000      -0.508499       -13.8370
  14   2.0000      -0.465086       -12.6556
  15   2.0000      -0.447560       -12.1787
  16   2.0000      -0.426184       -11.5971
  17   2.0000      -0.398786       -10.8515
  18   2.0000      -0.387223       -10.5369
  19   2.0000      -0.360176        -9.8009
  20   2.0000      -0.349606        -9.5132
  21   2.0000      -0.340942        -9.2775
  22   2.0000      -0.334435        -9.1004
  23   2.0000      -0.331240        -9.0135
  24   2.0000      -0.302688        -8.2366
  25   2.0000      -0.299733        -8.1561
  26   2.0000      -0.291738        -7.9386
  27   2.0000      -0.267086        -7.2678
  28   2.0000      -0.232948        -6.3388
  29   0.0000       0.058833         1.6009
  30   0.0000       0.091643         2.4937
  31   0.0000       0.110597         3.0095
  32   0.0000       0.123351         3.3566
  33   0.0000       0.127974         3.4824

MULLIKEN ATOMIC CHARGES
-----------------------
   0 C :   -0.478709
   1 C :   -0.309351
   2 C :    0.045678
   3 H :    0.129745
   4 C :    0.009082
   5 C :   -0.551977
   6 C :   -0.516919
   7 O :   -0.438206
   8 H :    0.144523
   9 H :    0.175122
  10 H :    0.140961
  11 H :    0.153265
  12 H :    0.138670
  13 H :    0.151636
  14 H :    0.179874
  15 H :    0.139565
  16 H :    0.146893
  17 H :    0.148511
  18 H :    0.155441
  19 H :    0.149015
  20 H :    0.287180
Sum of atomic charges:   -0.0000000

LOEWDIN ATOMIC CHARGES
----------------------
   0 C :   -0.420724
   1 C :   -0.294176
   2 C :    0.057553
   3 H :    0.166153
   4 C :   -0.209517
   5 C :   -0.406949
   6 C :   -0.412468
   7 O :   -0.628756
   8 H :    0.149046
   9 H :    0.163191
  10 H :    0.149224
  11 H :    0.161832
  12 H :    0.153822
  13 H :    0.167024
  14 H :    0.170812
  15 H :    0.149922
  16 H :    0.152168
  17 H :    0.154445
  18 H :    0.152033
  19 H :    0.156269
  20 H :    0.269098

  Mayer bond orders larger than 0.100000
B(  0-C ,  1-C ) :   0.8611 B(  0-C ,  8-H ) :   0.9675 B(  0-C ,  9-H ) :   0.9881
B(  0-C , 10-H ) :   0.9739 B(  1-C ,  2-C ) :   0.9124 B(  1-C , 11-H ) :   0.9709
B(  1-C , 12-H ) :   0.9723 B(  2-C ,  3-H ) :   0.9619 B(  2-C ,  4-C ) :   0.9405
B(  2-C ,  7-O ) :   0.8977 B(  4-C ,  5-C ) :   0.8986 B(  4-C ,  6-C ) :   0.8846
B(  4-C , 13-H ) :   0.9529 B(  5-C , 14-H ) :   0.9717 B(  5-C , 15-H ) :   0.9799
B(  5-C , 16-H ) :   0.9681 B(  6-C , 17-H ) :   0.9747 B(  6-C , 18-H ) :   0.9827
B(  6-C , 19-H ) :   0.9665 B(  7-O , 20-H ) :   0.9002

Dispersion correction           -0.005895387
FINAL SINGLE POINT ENERGY      -312.198530290361

DIPOLE MOMENT
-------------

Method             : SCF
Type of density    : Electron Density
Multiplicity       :   1
Irrep              :   0
Energy             :  -312.2040229506288824 Eh
Relativity type    :
Basis              : AO
                                X                 Y                 Z
Electronic contribution:      0.864130411       3.687697785      -2.899106661
Nuclear contribution   :     -0.604485533      -3.454544859       3.314608705
                        -----------------------------------------
Total Dipole Moment    :      0.259644878       0.233152926       0.415502045
                        -----------------------------------------
Magnitude (a.u.)       :      0.542602708
Magnitude (Debye)      :      1.379186478

Rotational constants in cm-1:             0.100132             0.065603             0.060166
Rotational constants in MHz :          3001.877780          1966.735022          1803.727025

                             ****ORCA TERMINATED NORMALLY****
TOTAL RUN TIME: 0 days 0 hours 0 minutes 28 seconds 329 msec
