                         Program Version 6.0.0  -   RELEASE  -
|  1> ! r2scan-3c def2/J RI DEFGRID2 scfconv6 printgap
|  2> %output
|  3>     printlevel normal
|  4> end
|  5> %cpcm
|  6>     smd true
|  7>     smdsolvent "water"
|  8> end
|  9> * xyz 0 1
| 10> C 1.878585064 -1.0646057183 0.3387469166
| 11> C 1.274875278 0.2351605312 0.8625829658
| 12> C 0.1806779123 0.8592461278 -0.0225467003
| 13> H -0.0361303614 1.8529480542 0.4127833459
| 14> C -1.1798604175 0.1338039011 -0.0999200474
| 15> C -1.1358030276 -1.1943232051 -0.8523600644
| 16> C -1.8052598729 -0.0435414341 1.2805232395
| 17> O 0.6318717351 1.0394664135 -1.3552692374
| 18> H 2.8513578548 -1.2315492695 0.7955470098
| 19> H 2.0058182979 -1.0124291885 -0.7396466765
| 20> H 1.2491829527 -1.9179593937 0.5694807044
| 21> H 0.8729941024 0.0909204782 1.8647327434
| 22> H 2.0736565403 0.9788606895 0.9404982206
| 23> H -1.8153578114 0.8116758997 -0.683298296
| 24> H -0.5497271575 -1.0866684896 -1.760534675
| 25> H -0.7052701688 -1.9809981117 -0.2413757503
| 26> H -2.1458416509 -1.4915217684 -1.1249410827
| 27> H -1.8178733394 0.8983523482 1.8243527661
| 28> H -1.2537670079 -0.7765663708 1.8634984922
| 29> H -2.8284930239 -0.3948633227 1.1757571111
| 30> H 1.4451266942 1.5611135456 -1.342332998
| 31> *
| 32>
| 33>                          ****END OF INPUT****

CARTESIAN COORDINATES (ANGSTROEM)
---------------------------------
  C      1.878585   -1.064606    0.338747
  C      1.274875    0.235161    0.862583
  C      0.180678    0.859246   -0.022547
  H     -0.036130    1.852948    0.412783
  C     -1.179860    0.133804   -0.099920
  C     -1.135803   -1.194323   -0.852360
  C     -1.805260   -0.043541    1.280523
  O      0.631872    1.039466   -1.355269
  H      2.851358   -1.231549    0.795547
  H      2.005818   -1.012429   -0.739647
  H      1.249183   -1.917959    0.569481
  H      0.872994    0.090920    1.864733
  H      2.073657    0.978861    0.940498
  H     -1.815358    0.811676   -0.683298
  H     -0.549727   -1.086668   -1.760535
  H     -0.705270   -1.980998   -0.241376
  H     -2.145842   -1.491522   -1.124941
  H     -1.817873    0.898352    1.824353
  H     -1.253767   -0.776566    1.863498
  H     -2.828493   -0.394863    1.175757
  H      1.445127    1.561114   -1.342333

 Total Charge           Charge          ....    0
 Multiplicity           Mult            ....    1
 Number of Electrons    NEL             ....   58
 Basis Dimension        Dim             ....  208

ORBITAL ENERGIES
----------------

  NO   OCC          E(Eh)            E(eV)
   0   2.0000     -18.947032      -515.5750
   1   2.0000     -10.071417      -274.0572
   2   2.0000     -10.026312      -272.8298
   3   2.0000     -10.016688      -272.5679
   4   2.0000     -10.008659      -272.3495
   5   2.0000     -10.006463      -272.2897
   6   2.0000     -10.004468      -272.2354
   7   2.0000      -0.984439       -26.7879
   8   2.0000      -0.764907       -20.8142
   9   2.0000      -0.718450       -19.5500
  10   2.0000      -0.645344       -17.5607
  11   2.0000      -0.634106       -17.2549
  12   2.0000      -0.569339       -15.4925
  13   2.0000      -0.504105       -13.7174
  14   2.0000      -0.460241       -12.5238
  15   2.0000      -0.441147       -12.0042
  16   2.0000      -0.420908       -11.4535
  17   2.0000      -0.395121       -10.7518
  18   2.0000      -0.379320       -10.3218
  19   2.0000      -0.355322        -9.6688
  20   2.0000      -0.344769        -9.3816
  21   2.0000      -0.340391        -9.2625
  22   2.0000      -0.328576        -8.9410
  23   2.0000      -0.323829        -8.8118
  24   2.0000      -0.297785        -8.1031
  25   2.0000      -0.295603        -8.0438
  26   2.0000      -0.288412        -7.8481
  27   2.0000      -0.261866        -7.1257
  28   2.0000      -0.234123        -6.3708
  29   0.0000       0.074471         2.0265
  30   0.0000       0.102430         2.7873
  31   0.0000       0.119153         3.2423
  32   0.0000       0.130084         3.5398
  33   0.0000       0.134653         3.6641

MULLIKEN ATOMIC CHARGES
-----------------------
   0 C :   -0.529359
   1 C :   -0.302078
   2 C :    0.050019
   3 H :    0.142554
   4 C :    0.017273
   5 C :   -0.586380
   6 C :   -0.557515
   7 O :   -0.520424
   8 H :    0.156875
   9 H :    0.168954
  10 H :    0.158304
  11 H :    0.163749
  12 H :    0.157649
  13 H :    0.156845
  14 H :    0.167299
  15 H :    0.161729
  16 H :    0.161572
  17 H :    0.160990
  18 H :    0.170990
  19 H :    0.159840
  20 H :    0.341113
Sum of atomic charges:    0.0000000

LOEWDIN ATOMIC CHARGES
----------------------
   0 C :   -0.428192
   1 C :   -0.291795
   2 C :    0.059279
   3 H :    0.173232
   4 C :   -0.210640
   5 C :   -0.416590
   6 C :   -0.417860
   7 O :   -0.662256
   8 H :    0.152670
   9 H :    0.158823
  10 H :    0.152667
  11 H :    0.165984
  12 H :    0.161579
  13 H :    0.166143
  14 H :    0.163846
  15 H :    0.156218
  16 H :    0.155775
  17 H :    0.158544
  18 H :    0.157008
  19 H :    0.158481
  20 H :    0.287083

  Mayer bond orders larger than 0.100000
B(  0-C ,  1-C ) :   0.8439 B(  0-C ,  8-H ) :   0.9643 B(  0-C ,  9-H ) :   0.9895
B(  0-C , 10-H ) :   0.9740 B(  1-C ,  2-C ) :   0.9236 B(  1-C , 11-H ) :   0.9699
B(  1-C , 12-H ) :   0.9679 B(  2-C ,  3-H ) :   0.9586 B(  2-C ,  4-C ) :   0.9309
B(  2-C ,  7-O ) :   0.8865 B(  4-C ,  5-C ) :   0.8763 B(  4-C ,  6-C ) :   0.8873
B(  4-C , 13-H ) :   0.9578 B(  5-C , 14-H ) :   0.9742 B(  5-C , 15-H ) :   0.9775
B(  5-C , 16-H ) :   0.9664 B(  6-C , 17-H ) :   0.9709 B(  6-C , 18-H ) :   0.9801
B(  6-C , 19-H ) :   0.9643 B(  7-O , 20-H ) :   0.8750

Dispersion correction           -0.005895387
FINAL SINGLE POINT ENERGY      -312.203392080556

DIPOLE MOMENT
-------------

Method             : SCF
Type of density    : Electron Density
Multiplicity       :   1
Irrep              :   0
Energy             :  -312.2088847408240326 Eh
Relativity type    :
Basis              : AO
                                X                 Y                 Z
Electronic contribution:      0.976222223       3.788964170      -2.608994965
Nuclear contribution   :     -0.604485533      -3.454544859       3.314608705
                        -----------------------------------------
Total Dipole Moment    :      0.371736690       0.334419311       0.705613740
                        -----------------------------------------
Magnitude (a.u.)       :      0.864820902
Magnitude (Debye)      :      2.198200039

Rotational constants in cm-1:             0.100132             0.065603             0.060166
Rotational constants in MHz :          3001.877780          1966.735022          1803.727025

                             ****ORCA TERMINATED NORMALLY****
TOTAL RUN TIME: 0 days 0 hours 0 minutes 33 seconds 595 msec
