                         Program Version 6.0.0  -   RELEASE  -
|  1> ! pbe def2-sv(p) def2/J RI DEFGRID1 loosescf d4 GCP(DFT/SV(P)) printgap
|  2> %output
|  3>     printlevel normal
|  4> end
|  5> * xyz 0 1
|  6> C -3.2179083908 1.3911398736 -0.0026111768
|  7> C -2.5641897108 0.0359088292 8.34437e-05
|  8> O -3.2378090924 -0.9879192679 0.002646107
|  9> C -1.092872288 -0.0167710324 -0.0001454102
| 10> C -0.2843437553 1.120016095 -0.0021155598
| 11> C 1.0920846063 1.0143964557 -0.0020100162
| 12> C 1.699976883 -0.2410516864 0.000189898
| 13> C 0.8962083469 -1.3876459999 0.0020046851
| 14> C -0.4712490906 -1.2724549579 0.0018303479
| 15> O 3.0342903733 -0.456380077 0.0008618704
| 16> C 3.9136772029 0.6562821564 -0.0007519584
| 17> H -2.9180668426 1.9489876514 0.8805452853
| 18> H -4.2974766365 1.2655054551 -0.0027095697
| 19> H -2.9174479746 1.9458749896 -0.8874918294
| 20> H -0.7238729653 2.1037836389 -0.0037351813
| 21> H 1.6860806966 1.9135697926 -0.0035969197
| 22> H 1.3790955786 -2.3515976749 0.0035239834
| 23> H -1.0990555452 -2.1510887854 0.0031252539
| 24> H 4.9133565298 0.2285148206 0.0016343744
| 25> H 3.773395996 1.269016071 0.8925030463
| 26> H 3.7756614984 1.2644695835 -0.8974682436
| 27> *
| 28>
| 29>                          ****END OF INPUT****

CARTESIAN COORDINATES (ANGSTROEM)
---------------------------------
  C     -3.217908    1.391140   -0.002611
  C     -2.564190    0.035909    0.000083
  O     -3.237809   -0.987919    0.002646
  C     -1.092872   -0.016771   -0.000145
  C     -0.284344    1.120016   -0.002116
  C      1.092085    1.014396   -0.002010
  C      1.699977   -0.241052    0.000190
  C      0.896208   -1.387646    0.002005
  C     -0.471249   -1.272455    0.001830
  O      3.034290   -0.456380    0.000862
  C      3.913677    0.656282   -0.000752
  H     -2.918067    1.948988    0.880545
  H     -4.297477    1.265505   -0.002710
  H     -2.917448    1.945875   -0.887492
  H     -0.723873    2.103784   -0.003735
  H      1.686081    1.913570   -0.003597
  H      1.379096   -2.351598    0.003524
  H     -1.099056   -2.151089    0.003125
  H      4.913357    0.228515    0.001634
  H      3.773396    1.269016    0.892503
  H      3.775661    1.264470   -0.897468

 Total Charge           Charge          ....    0
 Multiplicity           Mult            ....    1
 Number of Electrons    NEL             ....   80
 Basis Dimension        Dim             ....  174

ORBITAL ENERGIES
----------------

  NO   OCC          E(Eh)            E(eV)
   0   2.0000     -18.805361      -511.7199
   1   2.0000     -18.729209      -509.6477
   2   2.0000      -9.967016      -271.2163
   3   2.0000      -9.965698      -271.1804
   4   2.0000      -9.952676      -270.8261
   5   2.0000      -9.908067      -269.6122
   6   2.0000      -9.902854      -269.4704
   7   2.0000      -9.897150      -269.3151
   8   2.0000      -9.896737      -269.3039
   9   2.0000      -9.895624      -269.2736
  10   2.0000      -9.882522      -268.9171
  11   2.0000      -0.986453       -26.8428
  12   2.0000      -0.923205       -25.1217
  13   2.0000      -0.784131       -21.3373
  14   2.0000      -0.705966       -19.2103
  15   2.0000      -0.681922       -18.5560
  16   2.0000      -0.669087       -18.2068
  17   2.0000      -0.633521       -17.2390
  18   2.0000      -0.562096       -15.2954
  19   2.0000      -0.548596       -14.9281
  20   2.0000      -0.502895       -13.6845
  21   2.0000      -0.486581       -13.2405
  22   2.0000      -0.446325       -12.1451
  23   2.0000      -0.435001       -11.8370
  24   2.0000      -0.421455       -11.4684
  25   2.0000      -0.405167       -11.0251
  26   2.0000      -0.398019       -10.8307
  27   2.0000      -0.391341       -10.6489
  28   2.0000      -0.383093       -10.4245
  29   2.0000      -0.364590        -9.9210
  30   2.0000      -0.353775        -9.6267
  31   2.0000      -0.352908        -9.6031
  32   2.0000      -0.327952        -8.9240
  33   2.0000      -0.318901        -8.6777
  34   2.0000      -0.318600        -8.6695
  35   2.0000      -0.290491        -7.9047
  36   2.0000      -0.286922        -7.8075
  37   2.0000      -0.239876        -6.5273
  38   2.0000      -0.207278        -5.6403
  39   2.0000      -0.192387        -5.2351
  40   0.0000      -0.077127        -2.0987
  41   0.0000      -0.042613        -1.1596
  42   0.0000       0.013002         0.3538
  43   0.0000       0.033322         0.9067
  44   0.0000       0.046794         1.2733

MULLIKEN ATOMIC CHARGES
-----------------------
   0 C :   -0.239659
   1 C :   -0.024620
   2 O :   -0.173427
   3 C :    0.118823
   4 C :   -0.127601
   5 C :   -0.175348
   6 C :    0.276518
   7 C :   -0.099412
   8 C :   -0.110003
   9 O :   -0.254114
  10 C :   -0.118778
  11 H :    0.121855
  12 H :    0.115171
  13 H :    0.121831
  14 H :    0.046541
  15 H :    0.039862
  16 H :    0.050193
  17 H :    0.065931
  18 H :    0.131921
  19 H :    0.117173
  20 H :    0.117141
Sum of atomic charges:   -0.0000000

LOEWDIN ATOMIC CHARGES
----------------------
   0 C :   -0.361899
   1 C :    0.042099
   2 O :   -0.145153
   3 C :   -0.097916
   4 C :   -0.097989
   5 C :   -0.175759
   6 C :    0.040965
   7 C :   -0.137955
   8 C :   -0.077768
   9 O :   -0.075818
  10 C :   -0.200652
  11 H :    0.139108
  12 H :    0.135088
  13 H :    0.139073
  14 H :    0.126150
  15 H :    0.127349
  16 H :    0.132777
  17 H :    0.135575
  18 H :    0.125907
  19 H :    0.113407
  20 H :    0.113413

  Mayer bond orders larger than 0.100000
B(  0-C ,  1-C ) :   1.1236 B(  0-C , 11-H ) :   0.9167 B(  0-C , 12-H ) :   0.9301
B(  0-C , 13-H ) :   0.9168 B(  1-C ,  2-O ) :   2.1477 B(  1-C ,  3-C ) :   0.9519
B(  3-C ,  4-C ) :   1.3436 B(  3-C ,  8-C ) :   1.3226 B(  4-C ,  5-C ) :   1.3604
B(  4-C , 14-H ) :   0.9458 B(  5-C ,  6-C ) :   1.2785 B(  5-C , 15-H ) :   0.9595
B(  6-C ,  7-C ) :   1.3080 B(  6-C ,  9-O ) :   1.1675 B(  7-C ,  8-C ) :   1.3791
B(  7-C , 16-H ) :   0.9693 B(  8-C , 17-H ) :   0.9584 B(  9-O , 10-C ) :   0.9780
B( 10-C , 18-H ) :   0.9583 B( 10-C , 19-H ) :   0.9422 B( 10-C , 20-H ) :   0.9423

Dispersion correction           -0.021906551
FINAL SINGLE POINT ENERGY      -498.356427349982

DIPOLE MOMENT
-------------

Method             : SCF
Type of density    : Electron Density
Multiplicity       :   1
Irrep              :   0
Energy             :  -498.4211660947412383 Eh
Relativity type    :
Basis              : AO
                                X                 Y                 Z
Electronic contribution:     -1.919234725      -5.738097384       0.010299333
Nuclear contribution   :      3.347819492       6.955808369      -0.012772630
                        -----------------------------------------
Total Dipole Moment    :      1.428584767       1.217710984      -0.002473297
                        -----------------------------------------
Magnitude (a.u.)       :      1.877146929
Magnitude (Debye)      :      4.771328311

Rotational constants in cm-1:             0.110762             0.019209             0.016472
Rotational constants in MHz :          3320.548043           575.879467           493.826166

                             ****ORCA TERMINATED NORMALLY****
TOTAL RUN TIME: 0 days 0 hours 0 minutes 12 seconds 670 msec
