                         Program Version 6.0.0  -   RELEASE  -
|  1> ! pbe def2-sv(p) def2/J RI DEFGRID1 loosescf d4 GCP(DFT/SV(P)) printgap
|  2> %output
|  3>     printlevel normal
|  4> end
|  5> * xyz 0 1
|  6> C -0.2256458691 -2.8457033098 -0.1630704652
|  7> C 0.5331192262 -1.5635756132 -0.0428261574
|  8> C 1.9019048649 -1.4610336836 -0.3396514325
|  9> N 2.5632439724 -0.3243460217 -0.2254989387
| 10> C 1.8975830204 0.7666765364 0.1863616443
| 11> N 0.5810414455 0.7759070789 0.4731138763
| 12> C -0.0556434646 -0.3690429287 0.3481384344
| 13> O -1.4074088671 -0.3269221957 0.6853310218
| 14> C -2.2624656261 -0.0094007551 -0.3294526641
| 15> O -1.8867143237 0.0973684658 -1.4879940855
| 16> N -3.5210456472 0.1422830855 0.0842561371
| 17> C -4.5687211904 0.4203152629 -0.8753864674
| 18> C -3.9435182774 0.0163033775 1.4624524514
| 19> N 2.5797533759 1.9077164182 0.3227940108
| 20> C 1.9485300846 3.1348079608 0.7414742158
| 21> C 3.989872056 1.9910020614 0.027724907
| 22> C 2.6791916759 -2.6473420326 -0.8049713824
| 23> H -0.3181947905 -3.1308708659 -1.2109975617
| 24> H 0.2898645402 -3.644515349 0.3660268059
| 25> H -1.2235679641 -2.7322371989 0.2533855873
| 26> H -4.1263686504 0.467235473 -1.8674754577
| 27> H -5.0408016097 1.3741935144 -0.6401924982
| 28> H -5.3164369758 -0.3723888529 -0.8432236294
| 29> H -4.5312206531 0.8928495316 1.73419108
| 30> H -3.0746703571 -0.0528125299 2.1092641398
| 31> H -4.5582891257 -0.8773063953 1.5816057936
| 32> H 2.0643471916 3.8938806512 -0.034228126
| 33> H 2.4131196057 3.4935235916 1.6615532883
| 34> H 0.8933538492 2.9476975521 0.9127572023
| 35> H 4.5287442575 2.3375580959 0.9107474257
| 36> H 4.1566340612 2.6955031006 -0.7889564535
| 37> H 4.3465855441 1.007244349 -0.2593130994
| 38> H 3.6981827281 -2.3478367361 -1.0255720922
| 39> H 2.6845051832 -3.4135588234 -0.0325971107
| 40> H 2.217314859 -3.0677076272 -1.6953211225
| 41> *
| 42>
| 43>                          ****END OF INPUT****

CARTESIAN COORDINATES (ANGSTROEM)
---------------------------------
  C     -0.225646   -2.845703   -0.163070
  C      0.533119   -1.563576   -0.042826
  C      1.901905   -1.461034   -0.339651
  N      2.563244   -0.324346   -0.225499
  C      1.897583    0.766677    0.186362
  N      0.581041    0.775907    0.473114
  C     -0.055643   -0.369043    0.348138
  O     -1.407409   -0.326922    0.685331
  C     -2.262466   -0.009401   -0.329453
  O     -1.886714    0.097368   -1.487994
  N     -3.521046    0.142283    0.084256
  C     -4.568721    0.420315   -0.875386
  C     -3.943518    0.016303    1.462452
  N      2.579753    1.907716    0.322794
  C      1.948530    3.134808    0.741474
  C      3.989872    1.991002    0.027725
  C      2.679192   -2.647342   -0.804971
  H     -0.318195   -3.130871   -1.210998
  H      0.289865   -3.644515    0.366027
  H     -1.223568   -2.732237    0.253386
  H     -4.126369    0.467235   -1.867475
  H     -5.040802    1.374194   -0.640192
  H     -5.316437   -0.372389   -0.843224
  H     -4.531221    0.892850    1.734191
  H     -3.074670   -0.052813    2.109264
  H     -4.558289   -0.877306    1.581606
  H      2.064347    3.893881   -0.034228
  H      2.413120    3.493524    1.661553
  H      0.893354    2.947698    0.912757
  H      4.528744    2.337558    0.910747
  H      4.156634    2.695503   -0.788956
  H      4.346586    1.007244   -0.259313
  H      3.698183   -2.347837   -1.025572
  H      2.684505   -3.413559   -0.032597
  H      2.217315   -3.067708   -1.695321

 Total Charge           Charge          ....    0
 Multiplicity           Mult            ....    1
 Number of Electrons    NEL             ....  128
 Basis Dimension        Dim             ....  274

ORBITAL ENERGIES
----------------

  NO   OCC          E(Eh)            E(eV)
   0   2.0000     -18.792495      -511.3698
   1   2.0000     -18.709086      -509.1001
   2   2.0000     -14.027297      -381.7022
   3   2.0000     -14.018435      -381.4610
   4   2.0000     -13.970079      -380.1452
   5   2.0000     -13.966064      -380.0359
   6   2.0000     -10.016173      -272.5539
   7   2.0000      -9.975581      -271.4494
   8   2.0000      -9.973371      -271.3892
   9   2.0000      -9.931514      -270.2502
  10   2.0000      -9.920038      -269.9379
  11   2.0000      -9.916285      -269.8358
  12   2.0000      -9.906945      -269.5817
  13   2.0000      -9.906365      -269.5659
  14   2.0000      -9.889699      -269.1124
  15   2.0000      -9.881484      -268.8889
  16   2.0000      -9.878652      -268.8118
  17   2.0000      -1.005805       -27.3694
  18   2.0000      -0.914332       -24.8802
  19   2.0000      -0.900125       -24.4936
  20   2.0000      -0.855757       -23.2863
  21   2.0000      -0.840470       -22.8704
  22   2.0000      -0.790105       -21.4998
  23   2.0000      -0.722436       -19.6585
  24   2.0000      -0.666687       -18.1415
  25   2.0000      -0.658180       -17.9100
  26   2.0000      -0.651613       -17.7313
  27   2.0000      -0.643045       -17.4982
  28   2.0000      -0.635182       -17.2842
  29   2.0000      -0.587504       -15.9868
  30   2.0000      -0.567659       -15.4468
  31   2.0000      -0.522536       -14.2189
  32   2.0000      -0.503896       -13.7117
  33   2.0000      -0.483112       -13.1461
  34   2.0000      -0.478522       -13.0212
  35   2.0000      -0.453701       -12.3458
  36   2.0000      -0.436267       -11.8714
  37   2.0000      -0.430766       -11.7217
  38   2.0000      -0.425552       -11.5799
  39   2.0000      -0.404777       -11.0145
  40   2.0000      -0.399377       -10.8676
  41   2.0000      -0.391083       -10.6419
  42   2.0000      -0.375284       -10.2120
  43   2.0000      -0.368943       -10.0395
  44   2.0000      -0.366545        -9.9742
  45   2.0000      -0.363361        -9.8875
  46   2.0000      -0.358150        -9.7457
  47   2.0000      -0.357691        -9.7333
  48   2.0000      -0.353014        -9.6060
  49   2.0000      -0.352783        -9.5997
  50   2.0000      -0.347295        -9.4504
  51   2.0000      -0.343928        -9.3588
  52   2.0000      -0.337638        -9.1876
  53   2.0000      -0.336942        -9.1686
  54   2.0000      -0.330062        -8.9814
  55   2.0000      -0.322317        -8.7707
  56   2.0000      -0.258457        -7.0330
  57   2.0000      -0.253306        -6.8928
  58   2.0000      -0.251690        -6.8488
  59   2.0000      -0.248211        -6.7542
  60   2.0000      -0.211887        -5.7657
  61   2.0000      -0.203761        -5.5446
  62   2.0000      -0.190295        -5.1782
  63   2.0000      -0.171000        -4.6531
  64   0.0000      -0.042641        -1.1603
  65   0.0000      -0.014009        -0.3812
  66   0.0000       0.026687         0.7262
  67   0.0000       0.033520         0.9121
  68   0.0000       0.045077         1.2266

MULLIKEN ATOMIC CHARGES
-----------------------
   0 C :   -0.188966
   1 C :   -0.104817
   2 C :   -0.126202
   3 N :   -0.102825
   4 C :    0.055090
   5 N :   -0.085787
   6 C :    0.084688
   7 O :   -0.259026
   8 C :    0.228669
   9 O :   -0.251080
  10 N :   -0.245243
  11 C :   -0.169681
  12 C :   -0.172809
  13 N :   -0.206598
  14 C :   -0.167037
  15 C :   -0.167502
  16 C :   -0.187577
  17 H :    0.114265
  18 H :    0.101021
  19 H :    0.106752
  20 H :    0.145232
  21 H :    0.109366
  22 H :    0.106057
  23 H :    0.107006
  24 H :    0.146914
  25 H :    0.107372
  26 H :    0.103281
  27 H :    0.101115
  28 H :    0.142508
  29 H :    0.100436
  30 H :    0.102591
  31 H :    0.140071
  32 H :    0.106267
  33 H :    0.113188
  34 H :    0.113262
Sum of atomic charges:    0.0000000

LOEWDIN ATOMIC CHARGES
----------------------
   0 C :   -0.322315
   1 C :   -0.124597
   2 C :    0.009634
   3 N :   -0.119189
   4 C :    0.032133
   5 N :   -0.117936
   6 C :    0.068729
   7 O :   -0.061792
   8 C :    0.042409
   9 O :   -0.217598
  10 N :   -0.060321
  11 C :   -0.246557
  12 C :   -0.250960
  13 N :   -0.037377
  14 C :   -0.253012
  15 C :   -0.254257
  16 C :   -0.330657
  17 H :    0.133121
  18 H :    0.125520
  19 H :    0.127286
  20 H :    0.138759
  21 H :    0.116091
  22 H :    0.114752
  23 H :    0.116352
  24 H :    0.134584
  25 H :    0.114098
  26 H :    0.114075
  27 H :    0.112723
  28 H :    0.135181
  29 H :    0.112604
  30 H :    0.113411
  31 H :    0.133593
  32 H :    0.131170
  33 H :    0.134928
  34 H :    0.135413

  Mayer bond orders larger than 0.100000
B(  0-C ,  1-C ) :   1.1672 B(  0-C , 17-H ) :   0.9203 B(  0-C , 18-H ) :   0.9235
B(  0-C , 19-H ) :   0.9252 B(  1-C ,  2-C ) :   1.2983 B(  1-C ,  6-C ) :   1.3758
B(  2-C ,  3-N ) :   1.6114 B(  2-C , 16-C ) :   1.1600 B(  3-N ,  4-C ) :   1.4157
B(  4-C ,  5-N ) :   1.4000 B(  4-C , 13-N ) :   1.2119 B(  5-N ,  6-C ) :   1.5818
B(  6-C ,  7-O ) :   1.0109 B(  7-O ,  8-C ) :   1.0462 B(  8-C ,  9-O ) :   1.9861
B(  8-C , 10-N ) :   1.2003 B( 10-N , 11-C ) :   1.0124 B( 10-N , 12-C ) :   1.0073
B( 11-C , 20-H ) :   0.9327 B( 11-C , 21-H ) :   0.9528 B( 11-C , 22-H ) :   0.9522
B( 12-C , 23-H ) :   0.9491 B( 12-C , 24-H ) :   0.9397 B( 12-C , 25-H ) :   0.9504
B( 13-N , 14-C ) :   1.0181 B( 13-N , 15-C ) :   1.0178 B( 14-C , 26-H ) :   0.9493
B( 14-C , 27-H ) :   0.9500 B( 14-C , 28-H ) :   0.9247 B( 15-C , 29-H ) :   0.9498
B( 15-C , 30-H ) :   0.9495 B( 15-C , 31-H ) :   0.9228 B( 16-C , 32-H ) :   0.9274
B( 16-C , 33-H ) :   0.9229 B( 16-C , 34-H ) :   0.9218

Dispersion correction           -0.039491662
FINAL SINGLE POINT ENERGY      -797.788855299950

DIPOLE MOMENT
-------------

Method             : SCF
Type of density    : Electron Density
Multiplicity       :   1
Irrep              :   0
Energy             :  -797.9081299910176313 Eh
Relativity type    :
Basis              : AO
                                X                 Y                 Z
Electronic contribution:      0.436061782       0.496959709      -0.353040952
Nuclear contribution   :     -0.878169757      -0.486485753       1.053380618
                        -----------------------------------------
Total Dipole Moment    :     -0.442107974       0.010473956       0.700339666
                        -----------------------------------------
Magnitude (a.u.)       :      0.828278222
Magnitude (Debye)      :      2.105315927

Rotational constants in cm-1:             0.024043             0.009863             0.007707
Rotational constants in MHz :           720.776545           295.695815           231.038339

                             ****ORCA TERMINATED NORMALLY****
TOTAL RUN TIME: 0 days 0 hours 0 minutes 24 seconds 540 msec
