                         Program Version 6.0.0  -   RELEASE  -
|  1> ! pbe def2-sv(p) def2/J RI DEFGRID1 loosescf d4 GCP(DFT/SV(P)) printgap
|  2> %output
|  3>     printlevel normal
|  4> end
|  5> * xyz 0 1
|  6> C -2.2800730203 0.3724984926 -1.0517198788
|  7> C -1.8257228086 0.3879853049 0.411134604
|  8> C -0.4464503987 -0.211198967 0.5020242675
|  9> O -0.2139560319 -1.387250056 0.6919627261
| 10> O 0.4941090675 0.7069143571 0.3237211155
| 11> C 1.8690126909 0.2884499981 0.3059072789
| 12> C 2.2973875054 -0.1206619801 -1.0950530334
| 13> H -1.6102448507 0.9737683632 -1.6609623531
| 14> H -2.283297034 -0.6456056955 -1.4339140227
| 15> H -3.2841661767 0.7784400561 -1.1277780907
| 16> H -2.5039208514 -0.2103635963 1.0182738164
| 17> H -1.7911722022 1.412193956 0.7789697414
| 18> H 2.426962304 1.1582110107 0.6539852522
| 19> H 1.9883047408 -0.5451840686 1.0046572425
| 20> H 3.3520559901 -0.3755760419 -1.0886235919
| 21> H 1.7266931971 -0.9876911972 -1.420471923
| 22> H 2.1297087892 0.6961985213 -1.7917480747
| 23> *
| 24>
| 25>                          ****END OF INPUT****

CARTESIAN COORDINATES (ANGSTROEM)
---------------------------------
  C     -2.280073    0.372498   -1.051720
  C     -1.825723    0.387985    0.411135
  C     -0.446450   -0.211199    0.502024
  O     -0.213956   -1.387250    0.691963
  O      0.494109    0.706914    0.323721
  C      1.869013    0.288450    0.305907
  C      2.297388   -0.120662   -1.095053
  H     -1.610245    0.973768   -1.660962
  H     -2.283297   -0.645606   -1.433914
  H     -3.284166    0.778440   -1.127778
  H     -2.503921   -0.210364    1.018274
  H     -1.791172    1.412194    0.778970
  H      2.426962    1.158211    0.653985
  H      1.988305   -0.545184    1.004657
  H      3.352056   -0.375576   -1.088624
  H      1.726693   -0.987691   -1.420472
  H      2.129709    0.696199   -1.791748

 Total Charge           Charge          ....    0
 Multiplicity           Mult            ....    1
 Number of Electrons    NEL             ....   56
 Basis Dimension        Dim             ....  118

ORBITAL ENERGIES
----------------

  NO   OCC          E(Eh)            E(eV)
   0   2.0000     -18.796877      -511.4890
   1   2.0000     -18.729676      -509.6604
   2   2.0000     -10.003654      -272.2133
   3   2.0000      -9.945967      -270.6435
   4   2.0000      -9.898150      -269.3423
   5   2.0000      -9.888362      -269.0760
   6   2.0000      -9.887226      -269.0451
   7   2.0000      -1.003439       -27.3050
   8   2.0000      -0.907055       -24.6822
   9   2.0000      -0.721335       -19.6285
  10   2.0000      -0.687027       -18.6950
  11   2.0000      -0.606042       -16.4912
  12   2.0000      -0.564518       -15.3613
  13   2.0000      -0.494843       -13.4654
  14   2.0000      -0.451295       -12.2804
  15   2.0000      -0.433262       -11.7897
  16   2.0000      -0.415966       -11.3190
  17   2.0000      -0.392079       -10.6690
  18   2.0000      -0.386534       -10.5181
  19   2.0000      -0.365730        -9.9520
  20   2.0000      -0.356074        -9.6893
  21   2.0000      -0.341092        -9.2816
  22   2.0000      -0.323164        -8.7937
  23   2.0000      -0.315524        -8.5858
  24   2.0000      -0.312278        -8.4975
  25   2.0000      -0.289604        -7.8805
  26   2.0000      -0.254416        -6.9230
  27   2.0000      -0.214720        -5.8428
  28   0.0000      -0.018675        -0.5082
  29   0.0000       0.040176         1.0932
  30   0.0000       0.062338         1.6963
  31   0.0000       0.077417         2.1066
  32   0.0000       0.086902         2.3647

MULLIKEN ATOMIC CHARGES
-----------------------
   0 C :   -0.304614
   1 C :   -0.130193
   2 C :    0.098649
   3 O :   -0.214424
   4 O :   -0.242276
   5 C :   -0.014078
   6 C :   -0.303666
   7 H :    0.111323
   8 H :    0.117414
   9 H :    0.116790
  10 H :    0.105328
  11 H :    0.100286
  12 H :    0.101065
  13 H :    0.108551
  14 H :    0.112291
  15 H :    0.125071
  16 H :    0.112484
Sum of atomic charges:    0.0000000

LOEWDIN ATOMIC CHARGES
----------------------
   0 C :   -0.330586
   1 C :   -0.249193
   2 C :    0.036946
   3 O :   -0.174808
   4 O :   -0.069325
   5 C :   -0.113388
   6 C :   -0.356108
   7 H :    0.121700
   8 H :    0.125376
   9 H :    0.124070
  10 H :    0.134874
  11 H :    0.130550
  12 H :    0.116632
  13 H :    0.119567
  14 H :    0.130219
  15 H :    0.129914
  16 H :    0.123560

  Mayer bond orders larger than 0.100000
B(  0-C ,  1-C ) :   1.1414 B(  0-C ,  7-H ) :   0.9536 B(  0-C ,  8-H ) :   0.9531
B(  0-C ,  9-H ) :   0.9525 B(  1-C ,  2-C ) :   1.0259 B(  1-C , 10-H ) :   0.9102
B(  1-C , 11-H ) :   0.9072 B(  2-C ,  3-O ) :   2.0428 B(  2-C ,  4-O ) :   1.2040
B(  4-O ,  5-C ) :   0.9222 B(  5-C ,  6-C ) :   1.1732 B(  5-C , 12-H ) :   0.9372
B(  5-C , 13-H ) :   0.9123 B(  6-C , 14-H ) :   0.9446 B(  6-C , 15-H ) :   0.9465
B(  6-C , 16-H ) :   0.9493

Dispersion correction           -0.012119516
FINAL SINGLE POINT ENERGY      -346.244391979876

DIPOLE MOMENT
-------------

Method             : SCF
Type of density    : Electron Density
Multiplicity       :   1
Irrep              :   0
Energy             :  -346.3088522278004575 Eh
Relativity type    :
Basis              : AO
                                X                 Y                 Z
Electronic contribution:      0.040456315      -1.443834099       4.469068337
Nuclear contribution   :      0.145745452       2.104909220      -4.739208684
                        -----------------------------------------
Total Dipole Moment    :      0.186201766       0.661075121      -0.270140346
                        -----------------------------------------
Magnitude (a.u.)       :      0.738015732
Magnitude (Debye)      :      1.875886911

Rotational constants in cm-1:             0.153699             0.053771             0.049413
Rotational constants in MHz :          4607.791263          1612.022636          1481.378178

                             ****ORCA TERMINATED NORMALLY****
TOTAL RUN TIME: 0 days 0 hours 0 minutes 8 seconds 919 msec
