                         Program Version 6.0.0  -   RELEASE  -
|  1> ! wb97x-v def2-tzvp def2/J RIJCOSX DEFGRID2 scfconv7 GCP(DFT/TZ) printgap
|  2> %output
|  3>     printlevel normal
|  4> end
|  5> * xyz 0 1
|  6> C 2.6136436543885004 -0.8132441153144739 -0.131255645726556
|  7> C 1.9920135799794745 0.5819296837143405 -0.12784723573629905
|  8> C 0.5510564384400257 0.6165414989158706 0.3930234657386095
|  9> C -0.39692204477480986 -0.20995962653940903 -0.4669926402063779
| 10> S -2.1295688658319856 0.010156442790523464 0.15571962633765102
| 11> H 3.67087101559012 -0.7686646188824021 -0.4116066572842003
| 12> H 2.11417022549382 -1.4795703716044044 -0.8416500764448546
| 13> H 2.5484092720223184 -1.2721803954568018 0.8620627749776775
| 14> H 2.0193846158717252 1.0017577739909678 -1.141295905955564
| 15> H 2.5964475090865897 1.2456849254697056 0.5012019106323916
| 16> H 0.20561497236247592 1.6574847437890594 0.41693568935916314
| 17> H 0.526966368114877 0.24504575352190847 1.4254708378971792
| 18> H -0.3537980637819839 0.11770705067229274 -1.5102746137148755
| 19> H -0.1513202599790334 -1.2731933522326344 -0.4187940922661024
| 20> H -2.717284919869201 -0.8663516500419974 -0.6790707442120653
| 21> *
| 22>
| 23>                          ****END OF INPUT****

CARTESIAN COORDINATES (ANGSTROEM)
---------------------------------
  C      2.613644   -0.813244   -0.131256
  C      1.992014    0.581930   -0.127847
  C      0.551056    0.616541    0.393023
  C     -0.396922   -0.209960   -0.466993
  S     -2.129569    0.010156    0.155720
  H      3.670871   -0.768665   -0.411607
  H      2.114170   -1.479570   -0.841650
  H      2.548409   -1.272180    0.862063
  H      2.019385    1.001758   -1.141296
  H      2.596448    1.245685    0.501202
  H      0.205615    1.657485    0.416936
  H      0.526966    0.245046    1.425471
  H     -0.353798    0.117707   -1.510275
  H     -0.151320   -1.273193   -0.418794
  H     -2.717285   -0.866352   -0.679071

 Total Charge           Charge          ....    0
 Multiplicity           Mult            ....    1
 Number of Electrons    NEL             ....   50
 Basis Dimension        Dim             ....  221

ORBITAL ENERGIES
----------------

  NO   OCC          E(Eh)            E(eV)
   0   2.0000     -94.117475     -2561.0667
   1   2.0000     -12.078979      -328.6857
   2   2.0000     -12.051413      -327.9356
   3   2.0000     -12.048447      -327.8549
   4   2.0000     -12.039358      -327.6076
   5   2.0000      -9.628716      -262.0107
   6   2.0000      -7.606235      -206.9762
   7   2.0000      -7.605283      -206.9503
   8   2.0000      -7.604776      -206.9365
   9   2.0000      -1.320117       -35.9222
  10   2.0000      -1.260657       -34.3042
  11   2.0000      -1.190351       -32.3911
  12   2.0000      -1.112960       -30.2852
  13   2.0000      -1.044566       -28.4241
  14   2.0000      -0.903036       -24.5729
  15   2.0000      -0.887345       -24.1459
  16   2.0000      -0.874181       -23.7877
  17   2.0000      -0.845852       -23.0168
  18   2.0000      -0.825271       -22.4568
  19   2.0000      -0.814301       -22.1583
  20   2.0000      -0.782891       -21.3035
  21   2.0000      -0.771187       -20.9851
  22   2.0000      -0.759435       -20.6653
  23   2.0000      -0.742846       -20.2139
  24   2.0000      -0.640189       -17.4204
  25   0.0000      -0.198404        -5.3988
  26   0.0000      -0.111451        -3.0327
  27   0.0000      -0.025704        -0.6994
  28   0.0000      -0.018804        -0.5117
  29   0.0000      -0.006795        -0.1849

MULLIKEN ATOMIC CHARGES
-----------------------
   0 C :   -0.362823
   1 C :   -0.160615
   2 C :   -0.184626
   3 C :   -0.188658
   4 S :   -0.219988
   5 H :    0.117582
   6 H :    0.110521
   7 H :    0.109245
   8 H :    0.094489
   9 H :    0.100768
  10 H :    0.110163
  11 H :    0.106890
  12 H :    0.113202
  13 H :    0.121765
  14 H :    0.132085
Sum of atomic charges:    0.0000000

LOEWDIN ATOMIC CHARGES
----------------------
   0 C :   -0.308855
   1 C :   -0.291328
   2 C :   -0.302802
   3 C :   -0.459493
   4 S :    0.210694
   5 H :    0.117350
   6 H :    0.114006
   7 H :    0.118036
   8 H :    0.131377
   9 H :    0.133328
  10 H :    0.135179
  11 H :    0.135083
  12 H :    0.119298
  13 H :    0.118897
  14 H :    0.029229

  Mayer bond orders larger than 0.100000
B(  0-C ,  1-C ) :   0.9705 B(  0-C ,  5-H ) :   0.9808 B(  0-C ,  6-H ) :   0.9834
B(  0-C ,  7-H ) :   0.9768 B(  1-C ,  2-C ) :   0.9739 B(  1-C ,  8-H ) :   0.9787
B(  1-C ,  9-H ) :   0.9786 B(  2-C ,  3-C ) :   0.9794 B(  2-C , 10-H ) :   0.9717
B(  2-C , 11-H ) :   0.9759 B(  3-C ,  4-S ) :   1.0733 B(  3-C , 12-H ) :   0.9647
B(  3-C , 13-H ) :   0.9743 B(  4-S , 14-H ) :   0.9744

FINAL SINGLE POINT ENERGY      -556.594073155548

DIPOLE MOMENT
-------------

Method             : SCF
Type of density    : Electron Density
Multiplicity       :   1
Irrep              :   0
Energy             :  -556.6045581430480524 Eh
Relativity type    :
Basis              : AO
                                X                 Y                 Z
Electronic contribution:     -9.380956951       1.191685164       1.242587232
Nuclear contribution   :      9.932647465      -1.413041355      -1.605436124
                        -----------------------------------------
Total Dipole Moment    :      0.551690514      -0.221356191      -0.362848892
                        -----------------------------------------
Magnitude (a.u.)       :      0.696433992
Magnitude (Debye)      :      1.770194528

Rotational constants in cm-1:             0.395111             0.050142             0.047348
Rotational constants in MHz :         11845.131576          1503.215601          1419.470621

                             ****ORCA TERMINATED NORMALLY****
TOTAL RUN TIME: 0 days 0 hours 1 minutes 3 seconds 926 msec
