                         Program Version 6.0.0  -   RELEASE  -
|  1> ! wb97x-v def2-tzvp def2/J RIJCOSX DEFGRID2 scfconv7 GCP(DFT/TZ) printgap
|  2> %output
|  3>     printlevel normal
|  4> end
|  5> %cpcm
|  6>     smd true
|  7>     smdsolvent "water"
|  8> end
|  9> * xyz 0 1
| 10> C 2.6136436543885004 -0.8132441153144739 -0.131255645726556
| 11> C 1.9920135799794745 0.5819296837143405 -0.12784723573629905
| 12> C 0.5510564384400257 0.6165414989158706 0.3930234657386095
| 13> C -0.39692204477480986 -0.20995962653940903 -0.4669926402063779
| 14> S -2.1295688658319856 0.010156442790523464 0.15571962633765102
| 15> H 3.67087101559012 -0.7686646188824021 -0.4116066572842003
| 16> H 2.11417022549382 -1.4795703716044044 -0.8416500764448546
| 17> H 2.5484092720223184 -1.2721803954568018 0.8620627749776775
| 18> H 2.0193846158717252 1.0017577739909678 -1.141295905955564
| 19> H 2.5964475090865897 1.2456849254697056 0.5012019106323916
| 20> H 0.20561497236247592 1.6574847437890594 0.41693568935916314
| 21> H 0.526966368114877 0.24504575352190847 1.4254708378971792
| 22> H -0.3537980637819839 0.11770705067229274 -1.5102746137148755
| 23> H -0.1513202599790334 -1.2731933522326344 -0.4187940922661024
| 24> H -2.717284919869201 -0.8663516500419974 -0.6790707442120653
| 25> *
| 26>
| 27>                          ****END OF INPUT****

CARTESIAN COORDINATES (ANGSTROEM)
---------------------------------
  C      2.613644   -0.813244   -0.131256
  C      1.992014    0.581930   -0.127847
  C      0.551056    0.616541    0.393023
  C     -0.396922   -0.209960   -0.466993
  S     -2.129569    0.010156    0.155720
  H      3.670871   -0.768665   -0.411607
  H      2.114170   -1.479570   -0.841650
  H      2.548409   -1.272180    0.862063
  H      2.019385    1.001758   -1.141296
  H      2.596448    1.245685    0.501202
  H      0.205615    1.657485    0.416936
  H      0.526966    0.245046    1.425471
  H     -0.353798    0.117707   -1.510275
  H     -0.151320   -1.273193   -0.418794
  H     -2.717285   -0.866352   -0.679071

 Total Charge           Charge          ....    0
 Multiplicity           Mult            ....    1
 Number of Electrons    NEL             ....   50
 Basis Dimension        Dim             ....  221

ORBITAL ENERGIES
----------------

  NO   OCC          E(Eh)            E(eV)
   0   2.0000     -94.115756     -2561.0199
   1   2.0000     -12.068499      -328.4005
   2   2.0000     -12.039171      -327.6025
   3   2.0000     -12.034637      -327.4791
   4   2.0000     -12.024784      -327.2110
   5   2.0000      -9.627170      -261.9686
   6   2.0000      -7.604702      -206.9345
   7   2.0000      -7.603769      -206.9091
   8   2.0000      -7.603475      -206.9011
   9   2.0000      -1.308858       -35.6158
  10   2.0000      -1.251381       -34.0518
  11   2.0000      -1.181466       -32.1493
  12   2.0000      -1.102130       -29.9905
  13   2.0000      -1.032192       -28.0874
  14   2.0000      -0.890722       -24.2378
  15   2.0000      -0.875932       -23.8353
  16   2.0000      -0.862165       -23.4607
  17   2.0000      -0.833612       -22.6837
  18   2.0000      -0.815549       -22.1922
  19   2.0000      -0.801762       -21.8171
  20   2.0000      -0.771424       -20.9915
  21   2.0000      -0.758316       -20.6348
  22   2.0000      -0.746535       -20.3143
  23   2.0000      -0.737897       -20.0792
  24   2.0000      -0.639490       -17.4014
  25   0.0000      -0.193555        -5.2669
  26   0.0000      -0.103999        -2.8299
  27   0.0000      -0.013841        -0.3766
  28   0.0000      -0.004944        -0.1345
  29   0.0000       0.006137         0.1670

MULLIKEN ATOMIC CHARGES
-----------------------
   0 C :   -0.408040
   1 C :   -0.177713
   2 C :   -0.187690
   3 C :   -0.204683
   4 S :   -0.297144
   5 H :    0.130246
   6 H :    0.128218
   7 H :    0.120012
   8 H :    0.106441
   9 H :    0.110942
  10 H :    0.115869
  11 H :    0.112496
  12 H :    0.136216
  13 H :    0.147315
  14 H :    0.167514
Sum of atomic charges:    0.0000000

LOEWDIN ATOMIC CHARGES
----------------------
   0 C :   -0.314651
   1 C :   -0.291511
   2 C :   -0.304529
   3 C :   -0.453210
   4 S :    0.174352
   5 H :    0.118445
   6 H :    0.117677
   7 H :    0.119476
   8 H :    0.134241
   9 H :    0.135099
  10 H :    0.135547
  11 H :    0.135755
  12 H :    0.125879
  13 H :    0.125960
  14 H :    0.041469

  Mayer bond orders larger than 0.100000
B(  0-C ,  1-C ) :   0.9705 B(  0-C ,  5-H ) :   0.9782 B(  0-C ,  6-H ) :   0.9795
B(  0-C ,  7-H ) :   0.9752 B(  1-C ,  2-C ) :   0.9772 B(  1-C ,  8-H ) :   0.9779
B(  1-C ,  9-H ) :   0.9765 B(  2-C ,  3-C ) :   0.9760 B(  2-C , 10-H ) :   0.9684
B(  2-C , 11-H ) :   0.9726 B(  3-C ,  4-S ) :   1.0498 B(  3-C , 12-H ) :   0.9655
B(  3-C , 13-H ) :   0.9724 B(  4-S , 14-H ) :   0.9696

FINAL SINGLE POINT ENERGY      -556.595817834764

DIPOLE MOMENT
-------------

Method             : SCF
Type of density    : Electron Density
Multiplicity       :   1
Irrep              :   0
Energy             :  -556.6063028222636149 Eh
Relativity type    :
Basis              : AO
                                X                 Y                 Z
Electronic contribution:     -9.231766729       1.097255901       1.088644211
Nuclear contribution   :      9.932647465      -1.413041355      -1.605436124
                        -----------------------------------------
Total Dipole Moment    :      0.700880737      -0.315785453      -0.516791914
                        -----------------------------------------
Magnitude (a.u.)       :      0.926298085
Magnitude (Debye)      :      2.354462619

Rotational constants in cm-1:             0.395111             0.050142             0.047348
Rotational constants in MHz :         11845.131576          1503.215601          1419.470621

                             ****ORCA TERMINATED NORMALLY****
TOTAL RUN TIME: 0 days 0 hours 1 minutes 12 seconds 480 msec
