                         Program Version 6.0.0  -   RELEASE  -
|  1> ! r2scan-3c def2/J RI DEFGRID2 scfconv6 printgap
|  2> %output
|  3>     printlevel normal
|  4> end
|  5> * xyz 0 1
|  6> C 1.1016836094 1.4357531547 0.2616411102
|  7> C 0.7449884286 0.0594058235 -0.2848476005
|  8> C 1.9376290627 -0.8829882935 -0.3169910947
|  9> O -0.2495669456 -0.5500216751 0.5852067887
| 10> C -1.511875948 -0.35859063 0.3290797919
| 11> O -1.9865309217 0.2809599737 -0.5770807612
| 12> H 1.4837582195 1.3448431887 1.274972521
| 13> H 1.8593009173 1.8907086996 -0.3679614241
| 14> H 0.22182591 2.0753755425 0.2700536617
| 15> H 0.2920145124 0.1575913267 -1.2789668132
| 16> H 2.3465435239 -0.9919534588 0.6832797673
| 17> H 2.7001706463 -0.4796329605 -0.9749781854
| 18> H 1.6359897861 -1.8612507376 -0.6805590875
| 19> H -2.1236952782 -0.8864573364 1.0776530925
| 20> *
| 21>
| 22>                          ****END OF INPUT****

CARTESIAN COORDINATES (ANGSTROEM)
---------------------------------
  C      1.101684    1.435753    0.261641
  C      0.744988    0.059406   -0.284848
  C      1.937629   -0.882988   -0.316991
  O     -0.249567   -0.550022    0.585207
  C     -1.511876   -0.358591    0.329080
  O     -1.986531    0.280960   -0.577081
  H      1.483758    1.344843    1.274973
  H      1.859301    1.890709   -0.367961
  H      0.221826    2.075376    0.270054
  H      0.292015    0.157591   -1.278967
  H      2.346544   -0.991953    0.683280
  H      2.700171   -0.479633   -0.974978
  H      1.635990   -1.861251   -0.680559
  H     -2.123695   -0.886457    1.077653

 Total Charge           Charge          ....    0
 Multiplicity           Mult            ....    1
 Number of Electrons    NEL             ....   48
 Basis Dimension        Dim             ....  164

ORBITAL ENERGIES
----------------

  NO   OCC          E(Eh)            E(eV)
   0   2.0000     -19.006807      -517.2015
   1   2.0000     -18.937258      -515.3090
   2   2.0000     -10.154286      -276.3122
   3   2.0000     -10.104785      -274.9652
   4   2.0000     -10.034265      -273.0462
   5   2.0000     -10.032451      -272.9969
   6   2.0000      -1.082231       -29.4490
   7   2.0000      -0.986391       -26.8411
   8   2.0000      -0.775816       -21.1110
   9   2.0000      -0.672681       -18.3046
  10   2.0000      -0.632533       -17.2121
  11   2.0000      -0.532865       -14.5000
  12   2.0000      -0.501031       -13.6337
  13   2.0000      -0.446917       -12.1612
  14   2.0000      -0.439841       -11.9687
  15   2.0000      -0.418494       -11.3878
  16   2.0000      -0.385946       -10.5021
  17   2.0000      -0.377998       -10.2858
  18   2.0000      -0.370977       -10.0948
  19   2.0000      -0.344105        -9.3636
  20   2.0000      -0.335792        -9.1374
  21   2.0000      -0.310314        -8.4441
  22   2.0000      -0.279099        -7.5947
  23   2.0000      -0.245571        -6.6823
  24   0.0000      -0.021241        -0.5780
  25   0.0000       0.080132         2.1805
  26   0.0000       0.085715         2.3324
  27   0.0000       0.120723         3.2850
  28   0.0000       0.125554         3.4165

MULLIKEN ATOMIC CHARGES
-----------------------
   0 C :   -0.471743
   1 C :    0.013423
   2 C :   -0.445190
   3 O :   -0.147854
   4 C :    0.242431
   5 O :   -0.416487
   6 H :    0.155626
   7 H :    0.150003
   8 H :    0.166353
   9 H :    0.175384
  10 H :    0.154619
  11 H :    0.148645
  12 H :    0.154844
  13 H :    0.119947
Sum of atomic charges:    0.0000000

LOEWDIN ATOMIC CHARGES
----------------------
   0 C :   -0.376306
   1 C :    0.064902
   2 C :   -0.374662
   3 O :   -0.574662
   4 C :    0.333752
   5 O :   -0.430897
   6 H :    0.161489
   7 H :    0.161524
   8 H :    0.167679
   9 H :    0.192940
  10 H :    0.162771
  11 H :    0.161600
  12 H :    0.163295
  13 H :    0.186577

  Mayer bond orders larger than 0.100000
B(  0-C ,  1-C ) :   0.9526 B(  0-C ,  6-H ) :   0.9769 B(  0-C ,  7-H ) :   0.9702
B(  0-C ,  8-H ) :   0.9614 B(  1-C ,  2-C ) :   0.9416 B(  1-C ,  3-O ) :   0.7245
B(  1-C ,  9-H ) :   0.9430 B(  2-C , 10-H ) :   0.9739 B(  2-C , 11-H ) :   0.9712
B(  2-C , 12-H ) :   0.9695 B(  3-O ,  4-C ) :   1.1548 B(  4-C ,  5-O ) :   1.8501
B(  4-C , 13-H ) :   0.9876

Dispersion correction           -0.003140558
FINAL SINGLE POINT ENERGY      -307.631202233204

DIPOLE MOMENT
-------------

Method             : SCF
Type of density    : Electron Density
Multiplicity       :   1
Irrep              :   0
Energy             :  -307.6373438076279285 Eh
Relativity type    :
Basis              : AO
                                X                 Y                 Z
Electronic contribution:     -6.934956613      -1.346868081       0.290808912
Nuclear contribution   :      7.862364907       1.167992135       0.003398243
                        -----------------------------------------
Total Dipole Moment    :      0.927408294      -0.178875946       0.294207155
                        -----------------------------------------
Magnitude (a.u.)       :      0.989262654
Magnitude (Debye)      :      2.514505835

Rotational constants in cm-1:             0.213957             0.081999             0.069942
Rotational constants in MHz :          6414.265275          2458.260595          2096.804523

                             ****ORCA TERMINATED NORMALLY****
TOTAL RUN TIME: 0 days 0 hours 0 minutes 17 seconds 497 msec
