                         Program Version 6.0.0  -   RELEASE  -
|  1> ! r2scan-3c def2/J RI DEFGRID2 scfconv6 printgap
|  2> %output
|  3>     printlevel normal
|  4> end
|  5> %cpcm
|  6>     smd true
|  7>     smdsolvent "water"
|  8> end
|  9> * xyz 0 1
| 10> C 1.1016836094 1.4357531547 0.2616411102
| 11> C 0.7449884286 0.0594058235 -0.2848476005
| 12> C 1.9376290627 -0.8829882935 -0.3169910947
| 13> O -0.2495669456 -0.5500216751 0.5852067887
| 14> C -1.511875948 -0.35859063 0.3290797919
| 15> O -1.9865309217 0.2809599737 -0.5770807612
| 16> H 1.4837582195 1.3448431887 1.274972521
| 17> H 1.8593009173 1.8907086996 -0.3679614241
| 18> H 0.22182591 2.0753755425 0.2700536617
| 19> H 0.2920145124 0.1575913267 -1.2789668132
| 20> H 2.3465435239 -0.9919534588 0.6832797673
| 21> H 2.7001706463 -0.4796329605 -0.9749781854
| 22> H 1.6359897861 -1.8612507376 -0.6805590875
| 23> H -2.1236952782 -0.8864573364 1.0776530925
| 24> *
| 25>
| 26>                          ****END OF INPUT****

CARTESIAN COORDINATES (ANGSTROEM)
---------------------------------
  C      1.101684    1.435753    0.261641
  C      0.744988    0.059406   -0.284848
  C      1.937629   -0.882988   -0.316991
  O     -0.249567   -0.550022    0.585207
  C     -1.511876   -0.358591    0.329080
  O     -1.986531    0.280960   -0.577081
  H      1.483758    1.344843    1.274973
  H      1.859301    1.890709   -0.367961
  H      0.221826    2.075376    0.270054
  H      0.292015    0.157591   -1.278967
  H      2.346544   -0.991953    0.683280
  H      2.700171   -0.479633   -0.974978
  H      1.635990   -1.861251   -0.680559
  H     -2.123695   -0.886457    1.077653

 Total Charge           Charge          ....    0
 Multiplicity           Mult            ....    1
 Number of Electrons    NEL             ....   48
 Basis Dimension        Dim             ....  164

ORBITAL ENERGIES
----------------

  NO   OCC          E(Eh)            E(eV)
   0   2.0000     -19.008386      -517.2445
   1   2.0000     -18.949755      -515.6491
   2   2.0000     -10.161400      -276.5057
   3   2.0000     -10.094941      -274.6973
   4   2.0000     -10.017894      -272.6007
   5   2.0000     -10.017636      -272.5937
   6   2.0000      -1.085977       -29.5509
   7   2.0000      -0.997534       -27.1443
   8   2.0000      -0.765359       -20.8265
   9   2.0000      -0.658426       -17.9167
  10   2.0000      -0.626448       -17.0465
  11   2.0000      -0.525442       -14.2980
  12   2.0000      -0.500987       -13.6326
  13   2.0000      -0.453214       -12.3326
  14   2.0000      -0.441537       -12.0148
  15   2.0000      -0.411029       -11.1847
  16   2.0000      -0.379306       -10.3214
  17   2.0000      -0.367583       -10.0024
  18   2.0000      -0.356299        -9.6954
  19   2.0000      -0.339903        -9.2492
  20   2.0000      -0.326326        -8.8798
  21   2.0000      -0.302938        -8.2434
  22   2.0000      -0.281920        -7.6714
  23   2.0000      -0.258972        -7.0470
  24   0.0000      -0.026955        -0.7335
  25   0.0000       0.089306         2.4301
  26   0.0000       0.096105         2.6152
  27   0.0000       0.129933         3.5357
  28   0.0000       0.138220         3.7612

MULLIKEN ATOMIC CHARGES
-----------------------
   0 C :   -0.502840
   1 C :    0.039378
   2 C :   -0.496099
   3 O :   -0.166486
   4 C :    0.268416
   5 O :   -0.499012
   6 H :    0.171165
   7 H :    0.174694
   8 H :    0.165634
   9 H :    0.177256
  10 H :    0.168979
  11 H :    0.171942
  12 H :    0.166651
  13 H :    0.160324
Sum of atomic charges:    0.0000000

LOEWDIN ATOMIC CHARGES
----------------------
   0 C :   -0.380008
   1 C :    0.069937
   2 C :   -0.378655
   3 O :   -0.573701
   4 C :    0.348781
   5 O :   -0.491737
   6 H :    0.166377
   7 H :    0.170290
   8 H :    0.166022
   9 H :    0.194547
  10 H :    0.166350
  11 H :    0.170483
  12 H :    0.165934
  13 H :    0.205380

  Mayer bond orders larger than 0.100000
B(  0-C ,  1-C ) :   0.9472 B(  0-C ,  6-H ) :   0.9734 B(  0-C ,  7-H ) :   0.9653
B(  0-C ,  8-H ) :   0.9586 B(  1-C ,  2-C ) :   0.9351 B(  1-C ,  3-O ) :   0.7128
B(  1-C ,  9-H ) :   0.9393 B(  2-C , 10-H ) :   0.9721 B(  2-C , 11-H ) :   0.9647
B(  2-C , 12-H ) :   0.9674 B(  3-O ,  4-C ) :   1.1898 B(  4-C ,  5-O ) :   1.7905
B(  4-C , 13-H ) :   0.9726

Dispersion correction           -0.003140558
FINAL SINGLE POINT ENERGY      -307.635173979620

DIPOLE MOMENT
-------------

Method             : SCF
Type of density    : Electron Density
Multiplicity       :   1
Irrep              :   0
Energy             :  -307.6413155540435014 Eh
Relativity type    :
Basis              : AO
                                X                 Y                 Z
Electronic contribution:     -6.651638075      -1.446655976       0.425247628
Nuclear contribution   :      7.862364907       1.167992135       0.003398243
                        -----------------------------------------
Total Dipole Moment    :      1.210726832      -0.278663841       0.428645870
                        -----------------------------------------
Magnitude (a.u.)       :      1.314248941
Magnitude (Debye)      :      3.340555330

Rotational constants in cm-1:             0.213957             0.081999             0.069942
Rotational constants in MHz :          6414.265275          2458.260595          2096.804523

                             ****ORCA TERMINATED NORMALLY****
TOTAL RUN TIME: 0 days 0 hours 0 minutes 21 seconds 906 msec
