                         Program Version 6.0.0  -   RELEASE  -
|  1> ! pbe def2-sv(p) def2/J RI DEFGRID1 loosescf d4 GCP(DFT/SV(P)) printgap
|  2> %output
|  3>     printlevel normal
|  4> end
|  5> * xyz 0 1
|  6> C -2.780850023 0.3128831595 0.000275819
|  7> C -1.3009736399 0.6764472565 -0.002446671
|  8> C -0.4287880742 -0.5758930154 0.0016744334
|  9> C 1.0505860623 -0.3054497932 0.0006213705
| 10> O 1.8938337702 -1.1813930142 0.0024682091
| 11> O 1.3677021239 0.9768186543 -0.0024034556
| 12> H -3.3902679867 1.2123925656 -0.003092746
| 13> H -3.0304144885 -0.2681414341 0.8847910872
| 14> H -3.0317461606 -0.2756071799 -0.8789072228
| 15> H -1.0704406203 1.2743515181 -0.885277793
| 16> H -1.068879016 1.2811811287 0.8752975928
| 17> H -0.6414899461 -1.1909481748 0.8795913523
| 18> H -0.6416719676 -1.1970130816 -0.8718888352
| 19> H 2.3334385335 1.1242742886 -0.0030302323
| 20> *
| 21>
| 22>                          ****END OF INPUT****

CARTESIAN COORDINATES (ANGSTROEM)
---------------------------------
  C     -2.780850    0.312883    0.000276
  C     -1.300974    0.676447   -0.002447
  C     -0.428788   -0.575893    0.001674
  C      1.050586   -0.305450    0.000621
  O      1.893834   -1.181393    0.002468
  O      1.367702    0.976819   -0.002403
  H     -3.390268    1.212393   -0.003093
  H     -3.030414   -0.268141    0.884791
  H     -3.031746   -0.275607   -0.878907
  H     -1.070441    1.274352   -0.885278
  H     -1.068879    1.281181    0.875298
  H     -0.641490   -1.190948    0.879591
  H     -0.641672   -1.197013   -0.871889
  H      2.333439    1.124274   -0.003030

 Total Charge           Charge          ....    0
 Multiplicity           Mult            ....    1
 Number of Electrons    NEL             ....   48
 Basis Dimension        Dim             ....  100

ORBITAL ENERGIES
----------------

  NO   OCC          E(Eh)            E(eV)
   0   2.0000     -18.800545      -511.5888
   1   2.0000     -18.731702      -509.7155
   2   2.0000     -10.009894      -272.3831
   3   2.0000      -9.900619      -269.4095
   4   2.0000      -9.890698      -269.1396
   5   2.0000      -9.879190      -268.8264
   6   2.0000      -1.009019       -27.4568
   7   2.0000      -0.905845       -24.6493
   8   2.0000      -0.725915       -19.7531
   9   2.0000      -0.647731       -17.6256
  10   2.0000      -0.569844       -15.5062
  11   2.0000      -0.536127       -14.5888
  12   2.0000      -0.439450       -11.9580
  13   2.0000      -0.435318       -11.8456
  14   2.0000      -0.407928       -11.1003
  15   2.0000      -0.390849       -10.6355
  16   2.0000      -0.366678        -9.9778
  17   2.0000      -0.341768        -9.3000
  18   2.0000      -0.340747        -9.2722
  19   2.0000      -0.317835        -8.6487
  20   2.0000      -0.304130        -8.2758
  21   2.0000      -0.300056        -8.1649
  22   2.0000      -0.266324        -7.2470
  23   2.0000      -0.215558        -5.8656
  24   0.0000      -0.019419        -0.5284
  25   0.0000       0.020697         0.5632
  26   0.0000       0.043303         1.1783
  27   0.0000       0.078541         2.1372
  28   0.0000       0.080137         2.1806

MULLIKEN ATOMIC CHARGES
-----------------------
   0 C :   -0.260398
   1 C :   -0.186212
   2 C :   -0.223462
   3 C :    0.105337
   4 O :   -0.202222
   5 O :   -0.283147
   6 H :    0.105530
   7 H :    0.098002
   8 H :    0.097983
   9 H :    0.095788
  10 H :    0.095842
  11 H :    0.121285
  12 H :    0.121286
  13 H :    0.314389
Sum of atomic charges:   -0.0000000

LOEWDIN ATOMIC CHARGES
----------------------
   0 C :   -0.339617
   1 C :   -0.236926
   2 C :   -0.248813
   3 C :    0.023006
   4 O :   -0.181791
   5 O :   -0.197761
   6 H :    0.120916
   7 H :    0.117354
   8 H :    0.117352
   9 H :    0.119666
  10 H :    0.119675
  11 H :    0.144104
  12 H :    0.144092
  13 H :    0.298744

  Mayer bond orders larger than 0.100000
B(  0-C ,  1-C ) :   1.1497 B(  0-C ,  6-H ) :   0.9534 B(  0-C ,  7-H ) :   0.9542
B(  0-C ,  8-H ) :   0.9541 B(  1-C ,  2-C ) :   1.1206 B(  1-C ,  9-H ) :   0.9268
B(  1-C , 10-H ) :   0.9268 B(  2-C ,  3-C ) :   1.0173 B(  2-C , 11-H ) :   0.9043
B(  2-C , 12-H ) :   0.9043 B(  3-C ,  4-O ) :   2.0978 B(  3-C ,  5-O ) :   1.2845
B(  5-O , 13-H ) :   0.8187

Dispersion correction           -0.009156089
FINAL SINGLE POINT ENERGY      -307.030948667920

DIPOLE MOMENT
-------------

Method             : SCF
Type of density    : Electron Density
Multiplicity       :   1
Irrep              :   0
Energy             :  -307.0862107123997475 Eh
Relativity type    :
Basis              : AO
                                X                 Y                 Z
Electronic contribution:      9.516825021      -1.192887150       0.000975033
Nuclear contribution   :     -9.841279762       1.836240167      -0.002360230
                        -----------------------------------------
Total Dipole Moment    :     -0.324454741       0.643353018      -0.001385197
                        -----------------------------------------
Magnitude (a.u.)       :      0.720538620
Magnitude (Debye)      :      1.831463623

Rotational constants in cm-1:             0.299740             0.063310             0.053830
Rotational constants in MHz :          8985.974972          1897.974383          1613.797515

                             ****ORCA TERMINATED NORMALLY****
TOTAL RUN TIME: 0 days 0 hours 0 minutes 6 seconds 738 msec
