                         Program Version 6.0.0  -   RELEASE  -
|  1> ! r2scan-3c def2/J RI DEFGRID2 scfconv6 printgap
|  2> %output
|  3>     printlevel normal
|  4> end
|  5> * xyz 0 1
|  6> C -2.6345683892 -0.8531001463 -0.8988585097
|  7> C -2.2420993365 -0.102328939 0.3699668807
|  8> C -0.9866450678 0.7665218695 0.1866643375
|  9> C 0.247256791 0.232725173 0.9215191295
| 10> C 0.7553305068 -1.1008250836 0.3693968751
| 11> C 1.5502571649 -0.7242773259 -0.8848529205
| 12> C 2.0523272579 0.7115605097 -0.6426307577
| 13> C 1.4615467596 1.1428453017 0.7071918439
| 14> H -3.5150770372 -1.4666508185 -0.7202897042
| 15> H -2.8638529638 -0.1515545026 -1.698098968
| 16> H -1.8292300826 -1.5013943707 -1.2352239449
| 17> H -3.0824552389 0.527369188 0.6688367456
| 18> H -2.0757230996 -0.8190369051 1.1767996062
| 19> H -0.7612221015 0.8578009353 -0.8756744588
| 20> H -1.1848897337 1.7725645046 0.5630171933
| 21> H 0.0036263203 0.1496219149 1.985170762
| 22> H 1.4191721439 -1.5587362187 1.1050043974
| 23> H -0.045973428 -1.8046127497 0.1568805928
| 24> H 2.3728681364 -1.4177515841 -1.054657868
| 25> H 0.9061460299 -0.7583341069 -1.763651683
| 26> H 3.1404965003 0.757226933 -0.6237837857
| 27> H 1.7111459738 1.3747746571 -1.4372573378
| 28> H 2.186649178 0.9686535411 1.503492466
| 29> H 1.1943629546 2.1986828151 0.7193487647
| 30> *
| 31>
| 32>                          ****END OF INPUT****

CARTESIAN COORDINATES (ANGSTROEM)
---------------------------------
  C     -2.634568   -0.853100   -0.898859
  C     -2.242099   -0.102329    0.369967
  C     -0.986645    0.766522    0.186664
  C      0.247257    0.232725    0.921519
  C      0.755331   -1.100825    0.369397
  C      1.550257   -0.724277   -0.884853
  C      2.052327    0.711561   -0.642631
  C      1.461547    1.142845    0.707192
  H     -3.515077   -1.466651   -0.720290
  H     -2.863853   -0.151555   -1.698099
  H     -1.829230   -1.501394   -1.235224
  H     -3.082455    0.527369    0.668837
  H     -2.075723   -0.819037    1.176800
  H     -0.761222    0.857801   -0.875674
  H     -1.184890    1.772565    0.563017
  H      0.003626    0.149622    1.985171
  H      1.419172   -1.558736    1.105004
  H     -0.045973   -1.804613    0.156881
  H      2.372868   -1.417752   -1.054658
  H      0.906146   -0.758334   -1.763652
  H      3.140497    0.757227   -0.623784
  H      1.711146    1.374775   -1.437257
  H      2.186649    0.968654    1.503492
  H      1.194363    2.198683    0.719349

 Total Charge           Charge          ....    0
 Multiplicity           Mult            ....    1
 Number of Electrons    NEL             ....   64
 Basis Dimension        Dim             ....  232

ORBITAL ENERGIES
----------------

  NO   OCC          E(Eh)            E(eV)
   0   2.0000     -10.024467      -272.7796
   1   2.0000     -10.021326      -272.6941
   2   2.0000     -10.018063      -272.6054
   3   2.0000     -10.017701      -272.5955
   4   2.0000     -10.017682      -272.5950
   5   2.0000     -10.016828      -272.5717
   6   2.0000     -10.016153      -272.5534
   7   2.0000     -10.014185      -272.4998
   8   2.0000      -0.806523       -21.9466
   9   2.0000      -0.745573       -20.2881
  10   2.0000      -0.685119       -18.6430
  11   2.0000      -0.670806       -18.2536
  12   2.0000      -0.626868       -17.0580
  13   2.0000      -0.555748       -15.1227
  14   2.0000      -0.524263       -14.2659
  15   2.0000      -0.506571       -13.7845
  16   2.0000      -0.452101       -12.3023
  17   2.0000      -0.445156       -12.1133
  18   2.0000      -0.418982       -11.4011
  19   2.0000      -0.399910       -10.8821
  20   2.0000      -0.373926       -10.1750
  21   2.0000      -0.366897        -9.9838
  22   2.0000      -0.360677        -9.8145
  23   2.0000      -0.330831        -9.0024
  24   2.0000      -0.312099        -8.4926
  25   2.0000      -0.307104        -8.3567
  26   2.0000      -0.302344        -8.2272
  27   2.0000      -0.300136        -8.1671
  28   2.0000      -0.285470        -7.7680
  29   2.0000      -0.281286        -7.6542
  30   2.0000      -0.272732        -7.4214
  31   2.0000      -0.266516        -7.2523
  32   0.0000       0.074670         2.0319
  33   0.0000       0.093398         2.5415
  34   0.0000       0.101040         2.7494
  35   0.0000       0.114656         3.1200
  36   0.0000       0.118951         3.2368

MULLIKEN ATOMIC CHARGES
-----------------------
   0 C :   -0.494913
   1 C :   -0.245076
   2 C :   -0.326158
   3 C :    0.008850
   4 C :   -0.350411
   5 C :   -0.340870
   6 C :   -0.321092
   7 C :   -0.375616
   8 H :    0.144829
   9 H :    0.147215
  10 H :    0.143947
  11 H :    0.140048
  12 H :    0.153218
  13 H :    0.157741
  14 H :    0.148636
  15 H :    0.162968
  16 H :    0.155482
  17 H :    0.156946
  18 H :    0.152887
  19 H :    0.159586
  20 H :    0.150226
  21 H :    0.161749
  22 H :    0.159599
  23 H :    0.150210
Sum of atomic charges:   -0.0000000

LOEWDIN ATOMIC CHARGES
----------------------
   0 C :   -0.427225
   1 C :   -0.316672
   2 C :   -0.295128
   3 C :   -0.228244
   4 C :   -0.298950
   5 C :   -0.309696
   6 C :   -0.310005
   7 C :   -0.299747
   8 H :    0.149288
   9 H :    0.148914
  10 H :    0.147351
  11 H :    0.152193
  12 H :    0.154858
  13 H :    0.160994
  14 H :    0.158189
  15 H :    0.159540
  16 H :    0.157839
  17 H :    0.159436
  18 H :    0.156029
  19 H :    0.154163
  20 H :    0.155719
  21 H :    0.155289
  22 H :    0.157191
  23 H :    0.158673

  Mayer bond orders larger than 0.100000
B(  0-C ,  1-C ) :   0.9030 B(  0-C ,  8-H ) :   0.9743 B(  0-C ,  9-H ) :   0.9831
B(  0-C , 10-H ) :   0.9812 B(  1-C ,  2-C ) :   0.8266 B(  1-C , 11-H ) :   0.9645
B(  1-C , 12-H ) :   0.9895 B(  2-C ,  3-C ) :   0.9452 B(  2-C , 13-H ) :   0.9923
B(  2-C , 14-H ) :   0.9652 B(  3-C ,  4-C ) :   0.8491 B(  3-C ,  7-C ) :   0.8802
B(  3-C , 15-H ) :   0.9467 B(  4-C ,  5-C ) :   0.9087 B(  4-C , 16-H ) :   0.9712
B(  4-C , 17-H ) :   0.9698 B(  5-C ,  6-C ) :   0.9232 B(  5-C , 18-H ) :   0.9620
B(  5-C , 19-H ) :   0.9959 B(  6-C ,  7-C ) :   0.9169 B(  6-C , 20-H ) :   0.9688
B(  6-C , 21-H ) :   0.9949 B(  7-C , 22-H ) :   0.9817 B(  7-C , 23-H ) :   0.9725

Dispersion correction           -0.007278113
FINAL SINGLE POINT ENERGY      -314.377913769014

DIPOLE MOMENT
-------------

Method             : SCF
Type of density    : Electron Density
Multiplicity       :   1
Irrep              :   0
Energy             :  -314.3809610709184312 Eh
Relativity type    :
Basis              : AO
                                X                 Y                 Z
Electronic contribution:      2.259697034       0.833300598       1.481594895
Nuclear contribution   :     -2.274066349      -0.817493477      -1.435471279
                        -----------------------------------------
Total Dipole Moment    :     -0.014369315       0.015807121       0.046123615
                        -----------------------------------------
Magnitude (a.u.)       :      0.050830406
Magnitude (Debye)      :      0.129200625

Rotational constants in cm-1:             0.117170             0.043044             0.038327
Rotational constants in MHz :          3512.661738          1290.426131          1149.014355

                             ****ORCA TERMINATED NORMALLY****
TOTAL RUN TIME: 0 days 0 hours 0 minutes 25 seconds 500 msec
