                         Program Version 6.0.0  -   RELEASE  -
|  1> ! r2scan-3c def2/J RI DEFGRID2 scfconv6 printgap
|  2> %output
|  3>     printlevel normal
|  4> end
|  5> %cpcm
|  6>     smd true
|  7>     smdsolvent "water"
|  8> end
|  9> * xyz 0 1
| 10> C -2.6345683892 -0.8531001463 -0.8988585097
| 11> C -2.2420993365 -0.102328939 0.3699668807
| 12> C -0.9866450678 0.7665218695 0.1866643375
| 13> C 0.247256791 0.232725173 0.9215191295
| 14> C 0.7553305068 -1.1008250836 0.3693968751
| 15> C 1.5502571649 -0.7242773259 -0.8848529205
| 16> C 2.0523272579 0.7115605097 -0.6426307577
| 17> C 1.4615467596 1.1428453017 0.7071918439
| 18> H -3.5150770372 -1.4666508185 -0.7202897042
| 19> H -2.8638529638 -0.1515545026 -1.698098968
| 20> H -1.8292300826 -1.5013943707 -1.2352239449
| 21> H -3.0824552389 0.527369188 0.6688367456
| 22> H -2.0757230996 -0.8190369051 1.1767996062
| 23> H -0.7612221015 0.8578009353 -0.8756744588
| 24> H -1.1848897337 1.7725645046 0.5630171933
| 25> H 0.0036263203 0.1496219149 1.985170762
| 26> H 1.4191721439 -1.5587362187 1.1050043974
| 27> H -0.045973428 -1.8046127497 0.1568805928
| 28> H 2.3728681364 -1.4177515841 -1.054657868
| 29> H 0.9061460299 -0.7583341069 -1.763651683
| 30> H 3.1404965003 0.757226933 -0.6237837857
| 31> H 1.7111459738 1.3747746571 -1.4372573378
| 32> H 2.186649178 0.9686535411 1.503492466
| 33> H 1.1943629546 2.1986828151 0.7193487647
| 34> *
| 35>
| 36>                          ****END OF INPUT****

CARTESIAN COORDINATES (ANGSTROEM)
---------------------------------
  C     -2.634568   -0.853100   -0.898859
  C     -2.242099   -0.102329    0.369967
  C     -0.986645    0.766522    0.186664
  C      0.247257    0.232725    0.921519
  C      0.755331   -1.100825    0.369397
  C      1.550257   -0.724277   -0.884853
  C      2.052327    0.711561   -0.642631
  C      1.461547    1.142845    0.707192
  H     -3.515077   -1.466651   -0.720290
  H     -2.863853   -0.151555   -1.698099
  H     -1.829230   -1.501394   -1.235224
  H     -3.082455    0.527369    0.668837
  H     -2.075723   -0.819037    1.176800
  H     -0.761222    0.857801   -0.875674
  H     -1.184890    1.772565    0.563017
  H      0.003626    0.149622    1.985171
  H      1.419172   -1.558736    1.105004
  H     -0.045973   -1.804613    0.156881
  H      2.372868   -1.417752   -1.054658
  H      0.906146   -0.758334   -1.763652
  H      3.140497    0.757227   -0.623784
  H      1.711146    1.374775   -1.437257
  H      2.186649    0.968654    1.503492
  H      1.194363    2.198683    0.719349

 Total Charge           Charge          ....    0
 Multiplicity           Mult            ....    1
 Number of Electrons    NEL             ....   64
 Basis Dimension        Dim             ....  232

ORBITAL ENERGIES
----------------

  NO   OCC          E(Eh)            E(eV)
   0   2.0000     -10.017409      -272.5875
   1   2.0000     -10.013911      -272.4924
   2   2.0000     -10.011143      -272.4170
   3   2.0000     -10.011019      -272.4137
   4   2.0000     -10.009850      -272.3819
   5   2.0000     -10.009369      -272.3688
   6   2.0000     -10.009358      -272.3685
   7   2.0000     -10.006581      -272.2929
   8   2.0000      -0.799551       -21.7569
   9   2.0000      -0.738399       -20.0929
  10   2.0000      -0.678275       -18.4568
  11   2.0000      -0.664200       -18.0738
  12   2.0000      -0.619941       -16.8694
  13   2.0000      -0.548731       -14.9317
  14   2.0000      -0.517902       -14.0928
  15   2.0000      -0.499642       -13.5959
  16   2.0000      -0.445232       -12.1154
  17   2.0000      -0.437956       -11.9174
  18   2.0000      -0.411637       -11.2012
  19   2.0000      -0.392702       -10.6860
  20   2.0000      -0.366683        -9.9779
  21   2.0000      -0.359590        -9.7849
  22   2.0000      -0.353475        -9.6186
  23   2.0000      -0.323443        -8.8013
  24   2.0000      -0.305045        -8.3007
  25   2.0000      -0.299982        -8.1629
  26   2.0000      -0.295857        -8.0507
  27   2.0000      -0.293482        -7.9861
  28   2.0000      -0.278470        -7.5776
  29   2.0000      -0.273876        -7.4525
  30   2.0000      -0.265279        -7.2186
  31   2.0000      -0.259355        -7.0574
  32   0.0000       0.083187         2.2636
  33   0.0000       0.101165         2.7528
  34   0.0000       0.108376         2.9491
  35   0.0000       0.121213         3.2984
  36   0.0000       0.125076         3.4035

MULLIKEN ATOMIC CHARGES
-----------------------
   0 C :   -0.531967
   1 C :   -0.255079
   2 C :   -0.339951
   3 C :    0.007077
   4 C :   -0.369244
   5 C :   -0.355622
   6 C :   -0.337329
   7 C :   -0.397002
   8 H :    0.153293
   9 H :    0.156897
  10 H :    0.156112
  11 H :    0.148639
  12 H :    0.159291
  13 H :    0.166168
  14 H :    0.157303
  15 H :    0.168876
  16 H :    0.163753
  17 H :    0.166791
  18 H :    0.160405
  19 H :    0.167429
  20 H :    0.158344
  21 H :    0.169143
  22 H :    0.168181
  23 H :    0.158491
Sum of atomic charges:   -0.0000000

LOEWDIN ATOMIC CHARGES
----------------------
   0 C :   -0.435126
   1 C :   -0.319318
   2 C :   -0.298107
   3 C :   -0.228263
   4 C :   -0.302682
   5 C :   -0.313608
   6 C :   -0.314303
   7 C :   -0.304338
   8 H :    0.150802
   9 H :    0.151068
  10 H :    0.150523
  11 H :    0.153891
  12 H :    0.156274
  13 H :    0.163196
  14 H :    0.159941
  15 H :    0.160963
  16 H :    0.159541
  17 H :    0.162077
  18 H :    0.157512
  19 H :    0.156290
  20 H :    0.157304
  21 H :    0.157026
  22 H :    0.159136
  23 H :    0.160202

  Mayer bond orders larger than 0.100000
B(  0-C ,  1-C ) :   0.8957 B(  0-C ,  8-H ) :   0.9727 B(  0-C ,  9-H ) :   0.9800
B(  0-C , 10-H ) :   0.9790 B(  1-C ,  2-C ) :   0.8184 B(  1-C , 11-H ) :   0.9655
B(  1-C , 12-H ) :   0.9895 B(  2-C ,  3-C ) :   0.9412 B(  2-C , 13-H ) :   0.9905
B(  2-C , 14-H ) :   0.9648 B(  3-C ,  4-C ) :   0.8487 B(  3-C ,  7-C ) :   0.8764
B(  3-C , 15-H ) :   0.9475 B(  4-C ,  5-C ) :   0.9064 B(  4-C , 16-H ) :   0.9707
B(  4-C , 17-H ) :   0.9677 B(  5-C ,  6-C ) :   0.9194 B(  5-C , 18-H ) :   0.9614
B(  5-C , 19-H ) :   0.9941 B(  6-C ,  7-C ) :   0.9140 B(  6-C , 20-H ) :   0.9683
B(  6-C , 21-H ) :   0.9928 B(  7-C , 22-H ) :   0.9801 B(  7-C , 23-H ) :   0.9720

Dispersion correction           -0.007278113
FINAL SINGLE POINT ENERGY      -314.375253932627

DIPOLE MOMENT
-------------

Method             : SCF
Type of density    : Electron Density
Multiplicity       :   1
Irrep              :   0
Energy             :  -314.3783012345309658 Eh
Relativity type    :
Basis              : AO
                                X                 Y                 Z
Electronic contribution:      2.253653704       0.828812681       1.486952455
Nuclear contribution   :     -2.274066349      -0.817493477      -1.435471279
                        -----------------------------------------
Total Dipole Moment    :     -0.020412645       0.011319204       0.051481176
                        -----------------------------------------
Magnitude (a.u.)       :      0.056525321
Magnitude (Debye)      :      0.143675948

Rotational constants in cm-1:             0.117170             0.043044             0.038327
Rotational constants in MHz :          3512.661738          1290.426131          1149.014355

                             ****ORCA TERMINATED NORMALLY****
TOTAL RUN TIME: 0 days 0 hours 0 minutes 31 seconds 45 msec
