                         Program Version 6.0.0  -   RELEASE  -
|  1> ! r2scan-3c def2/J RI DEFGRID2 scfconv6 printgap
|  2> %output
|  3>     printlevel normal
|  4> end
|  5> * xyz 0 1
|  6> C 2.0025271202 1.1295720788 -1.0405688003
|  7> C 2.0973045206 -0.2025357393 -0.3019062312
|  8> C 3.5314514521 -0.4572276279 0.1557472256
|  9> C 1.1447825292 -0.2269893314 0.9065896176
| 10> C -0.2934213254 -0.1365656652 0.4866464727
| 11> C -1.0044409393 1.0508844478 0.60477704
| 12> C -2.3216693975 1.1324873869 0.1872166876
| 13> C -2.9478287185 0.0244940141 -0.3570541492
| 14> C -2.2496225977 -1.1655906391 -0.4779777799
| 15> C -0.9339918116 -1.2435344678 -0.058714155
| 16> H 2.2941333943 1.9475115435 -0.3850109289
| 17> H 0.985323532 1.3065913267 -1.3826641114
| 18> H 2.661795872 1.1315797546 -1.9054409839
| 19> H 1.7997002818 -1.0023224197 -0.9893307865
| 20> H 3.849865266 0.3173276309 0.8501643856
| 21> H 3.612420965 -1.4204124079 0.6542641908
| 22> H 4.2078039491 -0.4535673077 -0.6957147228
| 23> H 1.3918315132 0.6047642883 1.5689428624
| 24> H 1.3020845699 -1.1585962538 1.4550034147
| 25> H -0.5225773425 1.920157972 1.0289329201
| 26> H -2.8606182803 2.0633564712 0.2867313564
| 27> H -3.9752799674 0.0867180582 -0.6835181277
| 28> H -2.7331866183 -2.0349975778 -0.8989034051
| 29> H -0.3954441569 -2.175943623 -0.1518174598
| 30> *
| 31>
| 32>                          ****END OF INPUT****

CARTESIAN COORDINATES (ANGSTROEM)
---------------------------------
  C      2.002527    1.129572   -1.040569
  C      2.097305   -0.202536   -0.301906
  C      3.531451   -0.457228    0.155747
  C      1.144783   -0.226989    0.906590
  C     -0.293421   -0.136566    0.486646
  C     -1.004441    1.050884    0.604777
  C     -2.321669    1.132487    0.187217
  C     -2.947829    0.024494   -0.357054
  C     -2.249623   -1.165591   -0.477978
  C     -0.933992   -1.243534   -0.058714
  H      2.294133    1.947512   -0.385011
  H      0.985324    1.306591   -1.382664
  H      2.661796    1.131580   -1.905441
  H      1.799700   -1.002322   -0.989331
  H      3.849865    0.317328    0.850164
  H      3.612421   -1.420412    0.654264
  H      4.207804   -0.453567   -0.695715
  H      1.391832    0.604764    1.568943
  H      1.302085   -1.158596    1.455003
  H     -0.522577    1.920158    1.028933
  H     -2.860618    2.063356    0.286731
  H     -3.975280    0.086718   -0.683518
  H     -2.733187   -2.034998   -0.898903
  H     -0.395444   -2.175944   -0.151817

 Total Charge           Charge          ....    0
 Multiplicity           Mult            ....    1
 Number of Electrons    NEL             ....   74
 Basis Dimension        Dim             ....  260

ORBITAL ENERGIES
----------------

  NO   OCC          E(Eh)            E(eV)
   0   2.0000     -10.039502      -273.1887
   1   2.0000     -10.036629      -273.1106
   2   2.0000     -10.032039      -272.9857
   3   2.0000     -10.031585      -272.9733
   4   2.0000     -10.029961      -272.9291
   5   2.0000     -10.029786      -272.9244
   6   2.0000     -10.029556      -272.9181
   7   2.0000     -10.029487      -272.9162
   8   2.0000     -10.016343      -272.5586
   9   2.0000     -10.012421      -272.4518
  10   2.0000      -0.828443       -22.5431
  11   2.0000      -0.778849       -21.1936
  12   2.0000      -0.723061       -19.6755
  13   2.0000      -0.713495       -19.4152
  14   2.0000      -0.649887       -17.6843
  15   2.0000      -0.645602       -17.5677
  16   2.0000      -0.574679       -15.6378
  17   2.0000      -0.557207       -15.1624
  18   2.0000      -0.526290       -14.3211
  19   2.0000      -0.481538       -13.1033
  20   2.0000      -0.440305       -11.9813
  21   2.0000      -0.425516       -11.5789
  22   2.0000      -0.414542       -11.2803
  23   2.0000      -0.408627       -11.1193
  24   2.0000      -0.392961       -10.6930
  25   2.0000      -0.386963       -10.5298
  26   2.0000      -0.359191        -9.7741
  27   2.0000      -0.352755        -9.5990
  28   2.0000      -0.342616        -9.3231
  29   2.0000      -0.339862        -9.2481
  30   2.0000      -0.319329        -8.6894
  31   2.0000      -0.307528        -8.3683
  32   2.0000      -0.300408        -8.1745
  33   2.0000      -0.294848        -8.0232
  34   2.0000      -0.288587        -7.8528
  35   2.0000      -0.234546        -6.3823
  36   2.0000      -0.223796        -6.0898
  37   0.0000      -0.030311        -0.8248
  38   0.0000      -0.026883        -0.7315
  39   0.0000       0.076604         2.0845
  40   0.0000       0.094015         2.5583
  41   0.0000       0.103769         2.8237

MULLIKEN ATOMIC CHARGES
-----------------------
   0 C :   -0.527409
   1 C :    0.000339
   2 C :   -0.479501
   3 C :   -0.379600
   4 C :    0.169498
   5 C :   -0.210181
   6 C :   -0.166202
   7 C :   -0.146019
   8 C :   -0.162074
   9 C :   -0.215449
  10 H :    0.148440
  11 H :    0.170205
  12 H :    0.144489
  13 H :    0.155577
  14 H :    0.148086
  15 H :    0.144898
  16 H :    0.148457
  17 H :    0.162618
  18 H :    0.160376
  19 H :    0.149731
  20 H :    0.144671
  21 H :    0.145886
  22 H :    0.144505
  23 H :    0.148659
Sum of atomic charges:    0.0000000

LOEWDIN ATOMIC CHARGES
----------------------
   0 C :   -0.412546
   1 C :   -0.233671
   2 C :   -0.416099
   3 C :   -0.274973
   4 C :   -0.093368
   5 C :   -0.167240
   6 C :   -0.163203
   7 C :   -0.173970
   8 C :   -0.161891
   9 C :   -0.162776
  10 H :    0.152650
  11 H :    0.163517
  12 H :    0.153159
  13 H :    0.158337
  14 H :    0.153913
  15 H :    0.152332
  16 H :    0.154009
  17 H :    0.166312
  18 H :    0.168743
  19 H :    0.168905
  20 H :    0.166378
  21 H :    0.166179
  22 H :    0.166339
  23 H :    0.168965

  Mayer bond orders larger than 0.100000
B(  0-C ,  1-C ) :   0.8863 B(  0-C , 10-H ) :   0.9851 B(  0-C , 11-H ) :   0.9689
B(  0-C , 12-H ) :   0.9687 B(  1-C ,  2-C ) :   0.8997 B(  1-C ,  3-C ) :   0.8856
B(  1-C , 13-H ) :   0.9633 B(  2-C , 14-H ) :   0.9867 B(  2-C , 15-H ) :   0.9780
B(  2-C , 16-H ) :   0.9765 B(  3-C ,  4-C ) :   0.7804 B(  3-C , 17-H ) :   1.0255
B(  3-C , 18-H ) :   0.9867 B(  4-C ,  5-C ) :   1.4149 B(  4-C ,  9-C ) :   1.3965
B(  5-C ,  6-C ) :   1.4382 B(  5-C , 19-H ) :   0.9456 B(  6-C ,  7-C ) :   1.4313
B(  6-C , 20-H ) :   0.9475 B(  7-C ,  8-C ) :   1.4231 B(  7-C , 21-H ) :   0.9480
B(  8-C ,  9-C ) :   1.4529 B(  8-C , 22-H ) :   0.9489 B(  9-C , 23-H ) :   0.9464

Dispersion correction           -0.008276882
FINAL SINGLE POINT ENERGY      -389.381852803896

DIPOLE MOMENT
-------------

Method             : SCF
Type of density    : Electron Density
Multiplicity       :   1
Irrep              :   0
Energy             :  -389.3817544549845024 Eh
Relativity type    :
Basis              : AO
                                X                 Y                 Z
Electronic contribution:    -10.755787522      -1.092576408       1.137248410
Nuclear contribution   :     10.899481984       1.062161727      -1.171171005
                        -----------------------------------------
Total Dipole Moment    :      0.143694463      -0.030414681      -0.033922595
                        -----------------------------------------
Magnitude (a.u.)       :      0.150744465
Magnitude (Debye)      :      0.383161981

Rotational constants in cm-1:             0.103233             0.025154             0.023089
Rotational constants in MHz :          3094.844901           754.100291           692.200239

                             ****ORCA TERMINATED NORMALLY****
TOTAL RUN TIME: 0 days 0 hours 0 minutes 32 seconds 109 msec
