                         Program Version 6.0.0  -   RELEASE  -
|  1> ! r2scan-3c def2/J RI DEFGRID2 scfconv6 printgap
|  2> %output
|  3>     printlevel normal
|  4> end
|  5> %cpcm
|  6>     smd true
|  7>     smdsolvent "water"
|  8> end
|  9> * xyz 0 1
| 10> C 2.0025271202 1.1295720788 -1.0405688003
| 11> C 2.0973045206 -0.2025357393 -0.3019062312
| 12> C 3.5314514521 -0.4572276279 0.1557472256
| 13> C 1.1447825292 -0.2269893314 0.9065896176
| 14> C -0.2934213254 -0.1365656652 0.4866464727
| 15> C -1.0044409393 1.0508844478 0.60477704
| 16> C -2.3216693975 1.1324873869 0.1872166876
| 17> C -2.9478287185 0.0244940141 -0.3570541492
| 18> C -2.2496225977 -1.1655906391 -0.4779777799
| 19> C -0.9339918116 -1.2435344678 -0.058714155
| 20> H 2.2941333943 1.9475115435 -0.3850109289
| 21> H 0.985323532 1.3065913267 -1.3826641114
| 22> H 2.661795872 1.1315797546 -1.9054409839
| 23> H 1.7997002818 -1.0023224197 -0.9893307865
| 24> H 3.849865266 0.3173276309 0.8501643856
| 25> H 3.612420965 -1.4204124079 0.6542641908
| 26> H 4.2078039491 -0.4535673077 -0.6957147228
| 27> H 1.3918315132 0.6047642883 1.5689428624
| 28> H 1.3020845699 -1.1585962538 1.4550034147
| 29> H -0.5225773425 1.920157972 1.0289329201
| 30> H -2.8606182803 2.0633564712 0.2867313564
| 31> H -3.9752799674 0.0867180582 -0.6835181277
| 32> H -2.7331866183 -2.0349975778 -0.8989034051
| 33> H -0.3954441569 -2.175943623 -0.1518174598
| 34> *
| 35>
| 36>                          ****END OF INPUT****

CARTESIAN COORDINATES (ANGSTROEM)
---------------------------------
  C      2.002527    1.129572   -1.040569
  C      2.097305   -0.202536   -0.301906
  C      3.531451   -0.457228    0.155747
  C      1.144783   -0.226989    0.906590
  C     -0.293421   -0.136566    0.486646
  C     -1.004441    1.050884    0.604777
  C     -2.321669    1.132487    0.187217
  C     -2.947829    0.024494   -0.357054
  C     -2.249623   -1.165591   -0.477978
  C     -0.933992   -1.243534   -0.058714
  H      2.294133    1.947512   -0.385011
  H      0.985324    1.306591   -1.382664
  H      2.661796    1.131580   -1.905441
  H      1.799700   -1.002322   -0.989331
  H      3.849865    0.317328    0.850164
  H      3.612421   -1.420412    0.654264
  H      4.207804   -0.453567   -0.695715
  H      1.391832    0.604764    1.568943
  H      1.302085   -1.158596    1.455003
  H     -0.522577    1.920158    1.028933
  H     -2.860618    2.063356    0.286731
  H     -3.975280    0.086718   -0.683518
  H     -2.733187   -2.034998   -0.898903
  H     -0.395444   -2.175944   -0.151817

 Total Charge           Charge          ....    0
 Multiplicity           Mult            ....    1
 Number of Electrons    NEL             ....   74
 Basis Dimension        Dim             ....  260

ORBITAL ENERGIES
----------------

  NO   OCC          E(Eh)            E(eV)
   0   2.0000     -10.038231      -273.1542
   1   2.0000     -10.030450      -272.9424
   2   2.0000     -10.030099      -272.9329
   3   2.0000     -10.029352      -272.9125
   4   2.0000     -10.028082      -272.8780
   5   2.0000     -10.027699      -272.8676
   6   2.0000     -10.027450      -272.8608
   7   2.0000     -10.021406      -272.6963
   8   2.0000     -10.007148      -272.3083
   9   2.0000     -10.005991      -272.2769
  10   2.0000      -0.828102       -22.5338
  11   2.0000      -0.772730       -21.0270
  12   2.0000      -0.719963       -19.5912
  13   2.0000      -0.712627       -19.3916
  14   2.0000      -0.643349       -17.5064
  15   2.0000      -0.639928       -17.4133
  16   2.0000      -0.571953       -15.5636
  17   2.0000      -0.553822       -15.0703
  18   2.0000      -0.519578       -14.1384
  19   2.0000      -0.477345       -12.9892
  20   2.0000      -0.434776       -11.8309
  21   2.0000      -0.420314       -11.4373
  22   2.0000      -0.409449       -11.1417
  23   2.0000      -0.402762       -10.9597
  24   2.0000      -0.387566       -10.5462
  25   2.0000      -0.383072       -10.4239
  26   2.0000      -0.353365        -9.6156
  27   2.0000      -0.344620        -9.3776
  28   2.0000      -0.343209        -9.3392
  29   2.0000      -0.333114        -9.0645
  30   2.0000      -0.314504        -8.5581
  31   2.0000      -0.302739        -8.2380
  32   2.0000      -0.294381        -8.0105
  33   2.0000      -0.286951        -7.8083
  34   2.0000      -0.282459        -7.6861
  35   2.0000      -0.237076        -6.4512
  36   2.0000      -0.224924        -6.1205
  37   0.0000      -0.031610        -0.8602
  38   0.0000      -0.028134        -0.7656
  39   0.0000       0.086072         2.3421
  40   0.0000       0.101654         2.7661
  41   0.0000       0.109106         2.9689

MULLIKEN ATOMIC CHARGES
-----------------------
   0 C :   -0.564011
   1 C :    0.011882
   2 C :   -0.530191
   3 C :   -0.342643
   4 C :    0.107090
   5 C :   -0.229273
   6 C :   -0.205776
   7 C :   -0.180997
   8 C :   -0.202777
   9 C :   -0.233251
  10 H :    0.164288
  11 H :    0.165864
  12 H :    0.158103
  13 H :    0.165024
  14 H :    0.161566
  15 H :    0.158193
  16 H :    0.159951
  17 H :    0.177355
  18 H :    0.171512
  19 H :    0.179316
  20 H :    0.175863
  21 H :    0.177748
  22 H :    0.175917
  23 H :    0.179248
Sum of atomic charges:    0.0000000

LOEWDIN ATOMIC CHARGES
----------------------
   0 C :   -0.420332
   1 C :   -0.229982
   2 C :   -0.423427
   3 C :   -0.276040
   4 C :   -0.100223
   5 C :   -0.176001
   6 C :   -0.176035
   7 C :   -0.188482
   8 C :   -0.174879
   9 C :   -0.171632
  10 H :    0.157205
  11 H :    0.160092
  12 H :    0.156095
  13 H :    0.160576
  14 H :    0.157006
  15 H :    0.155830
  16 H :    0.156623
  17 H :    0.171883
  18 H :    0.173788
  19 H :    0.179063
  20 H :    0.176490
  21 H :    0.176003
  22 H :    0.176545
  23 H :    0.179831

  Mayer bond orders larger than 0.100000
B(  0-C ,  1-C ) :   0.8770 B(  0-C , 10-H ) :   0.9807 B(  0-C , 11-H ) :   0.9697
B(  0-C , 12-H ) :   0.9677 B(  1-C ,  2-C ) :   0.8925 B(  1-C ,  3-C ) :   0.8857
B(  1-C , 13-H ) :   0.9663 B(  2-C , 14-H ) :   0.9858 B(  2-C , 15-H ) :   0.9754
B(  2-C , 16-H ) :   0.9740 B(  3-C ,  4-C ) :   0.7946 B(  3-C , 17-H ) :   1.0170
B(  3-C , 18-H ) :   0.9763 B(  4-C ,  5-C ) :   1.3866 B(  4-C ,  9-C ) :   1.3773
B(  5-C ,  6-C ) :   1.4032 B(  5-C , 19-H ) :   0.9536 B(  6-C ,  7-C ) :   1.3909
B(  6-C , 20-H ) :   0.9576 B(  7-C ,  8-C ) :   1.3820 B(  7-C , 21-H ) :   0.9551
B(  8-C ,  9-C ) :   1.4148 B(  8-C , 22-H ) :   0.9595 B(  9-C , 23-H ) :   0.9532

Dispersion correction           -0.008276882
FINAL SINGLE POINT ENERGY      -389.382377397998

DIPOLE MOMENT
-------------

Method             : SCF
Type of density    : Electron Density
Multiplicity       :   1
Irrep              :   0
Energy             :  -389.3822790490868329 Eh
Relativity type    :
Basis              : AO
                                X                 Y                 Z
Electronic contribution:    -10.629827224      -1.113115853       1.165124082
Nuclear contribution   :     10.899481984       1.062161727      -1.171171005
                        -----------------------------------------
Total Dipole Moment    :      0.269654760      -0.050954126      -0.006046923
                        -----------------------------------------
Magnitude (a.u.)       :      0.274493311
Magnitude (Debye)      :      0.697706549

Rotational constants in cm-1:             0.103233             0.025154             0.023089
Rotational constants in MHz :          3094.844901           754.100291           692.200239

                             ****ORCA TERMINATED NORMALLY****
TOTAL RUN TIME: 0 days 0 hours 0 minutes 39 seconds 529 msec
