                         Program Version 6.0.0  -   RELEASE  -
|  1> ! wb97x-v def2-tzvp def2/J RIJCOSX DEFGRID2 scfconv7 GCP(DFT/TZ) printgap
|  2> %output
|  3>     printlevel normal
|  4> end
|  5> * xyz 0 1
|  6> C 2.627157449158794 -0.8277287442104038 -0.03307535548355039
|  7> C 1.9895164620248362 0.5392972062879348 -0.274987941536318
|  8> C 0.5676767401053745 0.6718439098644471 0.2844569392732069
|  9> C -0.41936060953355075 -0.26945996014748097 -0.3921030442740554
| 10> S -2.163428590403449 -0.03807515291809183 0.18218249470341197
| 11> H 2.6139507769417376 -1.0810426435325586 1.033413668369793
| 12> H 3.670034226192261 -0.8367433373630347 -0.3661767935800665
| 13> H 2.1038772236410743 -1.6233534190722811 -0.5727568039529304
| 14> H 1.9755148851523994 0.7565724812368194 -1.3508736117996951
| 15> H 2.611099270113496 1.313569472875304 0.19039022172339604
| 16> H 0.22084984121511192 1.7032366633907972 0.15488673840739145
| 17> H 0.5799410622591072 0.4697154974779168 1.3635316022802493
| 18> H -0.4543746136366477 -0.08443639934434553 -1.471311266763104
| 19> H -0.15193628305061366 -1.3184071282073937 -0.24345061168380758
| 20> H -1.9457167726271796 -0.38799796898897376 1.4636539431263873
| 21> *
| 22>
| 23>                          ****END OF INPUT****

CARTESIAN COORDINATES (ANGSTROEM)
---------------------------------
  C      2.627157   -0.827729   -0.033075
  C      1.989516    0.539297   -0.274988
  C      0.567677    0.671844    0.284457
  C     -0.419361   -0.269460   -0.392103
  S     -2.163429   -0.038075    0.182182
  H      2.613951   -1.081043    1.033414
  H      3.670034   -0.836743   -0.366177
  H      2.103877   -1.623353   -0.572757
  H      1.975515    0.756572   -1.350874
  H      2.611099    1.313569    0.190390
  H      0.220850    1.703237    0.154887
  H      0.579941    0.469715    1.363532
  H     -0.454375   -0.084436   -1.471311
  H     -0.151936   -1.318407   -0.243451
  H     -1.945717   -0.387998    1.463654

 Total Charge           Charge          ....    0
 Multiplicity           Mult            ....    1
 Number of Electrons    NEL             ....   50
 Basis Dimension        Dim             ....  221

ORBITAL ENERGIES
----------------

  NO   OCC          E(Eh)            E(eV)
   0   2.0000     -94.117987     -2561.0806
   1   2.0000     -12.080008      -328.7137
   2   2.0000     -12.049732      -327.8899
   3   2.0000     -12.048141      -327.8466
   4   2.0000     -12.039629      -327.6150
   5   2.0000      -9.629229      -262.0246
   6   2.0000      -7.606876      -206.9936
   7   2.0000      -7.605731      -206.9625
   8   2.0000      -7.605241      -206.9491
   9   2.0000      -1.319399       -35.9027
  10   2.0000      -1.261600       -34.3299
  11   2.0000      -1.190459       -32.3940
  12   2.0000      -1.113252       -30.2931
  13   2.0000      -1.047127       -28.4938
  14   2.0000      -0.903821       -24.5942
  15   2.0000      -0.887554       -24.1516
  16   2.0000      -0.869173       -23.6514
  17   2.0000      -0.844182       -22.9714
  18   2.0000      -0.833041       -22.6682
  19   2.0000      -0.804153       -21.8821
  20   2.0000      -0.787377       -21.4256
  21   2.0000      -0.772548       -21.0221
  22   2.0000      -0.758074       -20.6282
  23   2.0000      -0.744528       -20.2596
  24   2.0000      -0.643035       -17.4979
  25   0.0000      -0.200433        -5.4541
  26   0.0000      -0.105039        -2.8583
  27   0.0000      -0.026618        -0.7243
  28   0.0000      -0.021347        -0.5809
  29   0.0000      -0.008601        -0.2341

MULLIKEN ATOMIC CHARGES
-----------------------
   0 C :   -0.361040
   1 C :   -0.155126
   2 C :   -0.172399
   3 C :   -0.198449
   4 S :   -0.219169
   5 H :    0.105858
   6 H :    0.117439
   7 H :    0.110735
   8 H :    0.093125
   9 H :    0.099753
  10 H :    0.112924
  11 H :    0.089746
  12 H :    0.117516
  13 H :    0.129782
  14 H :    0.129304
Sum of atomic charges:    0.0000000

LOEWDIN ATOMIC CHARGES
----------------------
   0 C :   -0.309500
   1 C :   -0.291125
   2 C :   -0.304066
   3 C :   -0.468500
   4 S :    0.216517
   5 H :    0.117081
   6 H :    0.117404
   7 H :    0.113805
   8 H :    0.131381
   9 H :    0.133156
  10 H :    0.135291
  11 H :    0.131163
  12 H :    0.126742
  13 H :    0.119833
  14 H :    0.030819

  Mayer bond orders larger than 0.100000
B(  0-C ,  1-C ) :   0.9710 B(  0-C ,  5-H ) :   0.9770 B(  0-C ,  6-H ) :   0.9810
B(  0-C ,  7-H ) :   0.9837 B(  1-C ,  2-C ) :   0.9699 B(  1-C ,  8-H ) :   0.9799
B(  1-C ,  9-H ) :   0.9765 B(  2-C ,  3-C ) :   0.9605 B(  2-C , 10-H ) :   0.9732
B(  2-C , 11-H ) :   0.9763 B(  3-C ,  4-S ) :   1.0386 B(  3-C , 12-H ) :   0.9582
B(  3-C , 13-H ) :   0.9772 B(  4-S , 14-H ) :   0.9726

FINAL SINGLE POINT ENERGY      -556.594809631345

DIPOLE MOMENT
-------------

Method             : SCF
Type of density    : Electron Density
Multiplicity       :   1
Irrep              :   0
Energy             :  -556.6053104546449504 Eh
Relativity type    :
Basis              : AO
                                X                 Y                 Z
Electronic contribution:     -9.957386210       0.834231706       0.024877504
Nuclear contribution   :     10.676447523      -0.921983897       0.074631460
                        -----------------------------------------
Total Dipole Moment    :      0.719061313      -0.087752191       0.099508964
                        -----------------------------------------
Magnitude (a.u.)       :      0.731198778
Magnitude (Debye)      :      1.858559591

Rotational constants in cm-1:             0.391600             0.049408             0.047090
Rotational constants in MHz :         11739.883740          1481.212476          1411.718606

                             ****ORCA TERMINATED NORMALLY****
TOTAL RUN TIME: 0 days 0 hours 1 minutes 9 seconds 451 msec
