                         Program Version 6.0.0  -   RELEASE  -
|  1> ! wb97x-v def2-tzvp def2/J RIJCOSX DEFGRID2 scfconv7 GCP(DFT/TZ) printgap
|  2> %output
|  3>     printlevel normal
|  4> end
|  5> %cpcm
|  6>     smd true
|  7>     smdsolvent "water"
|  8> end
|  9> * xyz 0 1
| 10> C 2.627157449158794 -0.8277287442104038 -0.03307535548355039
| 11> C 1.9895164620248362 0.5392972062879348 -0.274987941536318
| 12> C 0.5676767401053745 0.6718439098644471 0.2844569392732069
| 13> C -0.41936060953355075 -0.26945996014748097 -0.3921030442740554
| 14> S -2.163428590403449 -0.03807515291809183 0.18218249470341197
| 15> H 2.6139507769417376 -1.0810426435325586 1.033413668369793
| 16> H 3.670034226192261 -0.8367433373630347 -0.3661767935800665
| 17> H 2.1038772236410743 -1.6233534190722811 -0.5727568039529304
| 18> H 1.9755148851523994 0.7565724812368194 -1.3508736117996951
| 19> H 2.611099270113496 1.313569472875304 0.19039022172339604
| 20> H 0.22084984121511192 1.7032366633907972 0.15488673840739145
| 21> H 0.5799410622591072 0.4697154974779168 1.3635316022802493
| 22> H -0.4543746136366477 -0.08443639934434553 -1.471311266763104
| 23> H -0.15193628305061366 -1.3184071282073937 -0.24345061168380758
| 24> H -1.9457167726271796 -0.38799796898897376 1.4636539431263873
| 25> *
| 26>
| 27>                          ****END OF INPUT****

CARTESIAN COORDINATES (ANGSTROEM)
---------------------------------
  C      2.627157   -0.827729   -0.033075
  C      1.989516    0.539297   -0.274988
  C      0.567677    0.671844    0.284457
  C     -0.419361   -0.269460   -0.392103
  S     -2.163429   -0.038075    0.182182
  H      2.613951   -1.081043    1.033414
  H      3.670034   -0.836743   -0.366177
  H      2.103877   -1.623353   -0.572757
  H      1.975515    0.756572   -1.350874
  H      2.611099    1.313569    0.190390
  H      0.220850    1.703237    0.154887
  H      0.579941    0.469715    1.363532
  H     -0.454375   -0.084436   -1.471311
  H     -0.151936   -1.318407   -0.243451
  H     -1.945717   -0.387998    1.463654

 Total Charge           Charge          ....    0
 Multiplicity           Mult            ....    1
 Number of Electrons    NEL             ....   50
 Basis Dimension        Dim             ....  221

ORBITAL ENERGIES
----------------

  NO   OCC          E(Eh)            E(eV)
   0   2.0000     -94.115891     -2561.0236
   1   2.0000     -12.068681      -328.4055
   2   2.0000     -12.036641      -327.5337
   3   2.0000     -12.033898      -327.4590
   4   2.0000     -12.024660      -327.2076
   5   2.0000      -9.627277      -261.9715
   6   2.0000      -7.604945      -206.9411
   7   2.0000      -7.603811      -206.9102
   8   2.0000      -7.603542      -206.9029
   9   2.0000      -1.307437       -35.5772
  10   2.0000      -1.251761       -34.0622
  11   2.0000      -1.180872       -32.1332
  12   2.0000      -1.101989       -29.9866
  13   2.0000      -1.034115       -28.1397
  14   2.0000      -0.891153       -24.2495
  15   2.0000      -0.874598       -23.7990
  16   2.0000      -0.856194       -23.2982
  17   2.0000      -0.831545       -22.6275
  18   2.0000      -0.822201       -22.3732
  19   2.0000      -0.791571       -21.5397
  20   2.0000      -0.776409       -21.1272
  21   2.0000      -0.758872       -20.6499
  22   2.0000      -0.744208       -20.2509
  23   2.0000      -0.738548       -20.0969
  24   2.0000      -0.641961       -17.4686
  25   0.0000      -0.195170        -5.3108
  26   0.0000      -0.096915        -2.6372
  27   0.0000      -0.013151        -0.3578
  28   0.0000      -0.009021        -0.2455
  29   0.0000       0.005815         0.1582

MULLIKEN ATOMIC CHARGES
-----------------------
   0 C :   -0.406387
   1 C :   -0.174513
   2 C :   -0.186282
   3 C :   -0.202684
   4 S :   -0.299378
   5 H :    0.119061
   6 H :    0.129508
   7 H :    0.127081
   8 H :    0.104907
   9 H :    0.109974
  10 H :    0.112089
  11 H :    0.108532
  12 H :    0.142743
  13 H :    0.150880
  14 H :    0.164469
Sum of atomic charges:    0.0000000

LOEWDIN ATOMIC CHARGES
----------------------
   0 C :   -0.315320
   1 C :   -0.291535
   2 C :   -0.304558
   3 C :   -0.462590
   4 S :    0.178813
   5 H :    0.119171
   6 H :    0.118286
   7 H :    0.117121
   8 H :    0.134007
   9 H :    0.134898
  10 H :    0.134051
  11 H :    0.135351
  12 H :    0.133002
  13 H :    0.126110
  14 H :    0.043194

  Mayer bond orders larger than 0.100000
B(  0-C ,  1-C ) :   0.9722 B(  0-C ,  5-H ) :   0.9752 B(  0-C ,  6-H ) :   0.9786
B(  0-C ,  7-H ) :   0.9799 B(  1-C ,  2-C ) :   0.9750 B(  1-C ,  8-H ) :   0.9788
B(  1-C ,  9-H ) :   0.9748 B(  2-C ,  3-C ) :   0.9649 B(  2-C , 10-H ) :   0.9700
B(  2-C , 11-H ) :   0.9742 B(  3-C ,  4-S ) :   1.0120 B(  3-C , 12-H ) :   0.9532
B(  3-C , 13-H ) :   0.9722 B(  4-S , 14-H ) :   0.9673

FINAL SINGLE POINT ENERGY      -556.596694690197

DIPOLE MOMENT
-------------

Method             : SCF
Type of density    : Electron Density
Multiplicity       :   1
Irrep              :   0
Energy             :  -556.6071955134970040 Eh
Relativity type    :
Basis              : AO
                                X                 Y                 Z
Electronic contribution:     -9.750685431       0.768718794       0.046343114
Nuclear contribution   :     10.676447523      -0.921983897       0.074631460
                        -----------------------------------------
Total Dipole Moment    :      0.925762092      -0.153265103       0.120974574
                        -----------------------------------------
Magnitude (a.u.)       :      0.946129214
Magnitude (Debye)      :      2.404869344

Rotational constants in cm-1:             0.391600             0.049408             0.047090
Rotational constants in MHz :         11739.883740          1481.212476          1411.718606

                             ****ORCA TERMINATED NORMALLY****
TOTAL RUN TIME: 0 days 0 hours 1 minutes 12 seconds 202 msec
