                         Program Version 6.0.0  -   RELEASE  -
|  1> ! r2scan-3c def2/J RI DEFGRID2 scfconv6 printgap
|  2> %output
|  3>     printlevel normal
|  4> end
|  5> * xyz 0 1
|  6> C -2.5927188337 0.6756583625 -0.497036673
|  7> C -1.7387796433 0.2007578909 0.6823432225
|  8> C -0.428829433 -0.3343658045 0.1645452458
|  9> O -0.1860980449 -1.5086158832 -0.0240081794
| 10> O 0.4227583334 0.6463651222 -0.1038628883
| 11> C 1.7120972761 0.3095733656 -0.6417254524
| 12> C 2.7101068335 0.0213409037 0.4693048894
| 13> H -2.7787283457 -0.1468441686 -1.1837235221
| 14> H -3.5449674979 1.0489982628 -0.1327835639
| 15> H -2.0831140808 1.471848167 -1.0333839701
| 16> H -2.2495165306 -0.5974439022 1.2195130269
| 17> H -1.5372701382 1.0363586426 1.3511268513
| 18> H 1.6013538089 -0.5609894298 -1.2953751551
| 19> H 2.0059961756 1.1850637874 -1.2215866539
| 20> H 2.7706036845 0.8686205543 1.146960742
| 21> H 2.4005051836 -0.8587477903 1.0286608636
| 22> H 3.6877663211 -0.1624950449 0.0359935336
| 23> *
| 24>
| 25>                          ****END OF INPUT****

CARTESIAN COORDINATES (ANGSTROEM)
---------------------------------
  C     -2.592719    0.675658   -0.497037
  C     -1.738780    0.200758    0.682343
  C     -0.428829   -0.334366    0.164545
  O     -0.186098   -1.508616   -0.024008
  O      0.422758    0.646365   -0.103863
  C      1.712097    0.309573   -0.641725
  C      2.710107    0.021341    0.469305
  H     -2.778728   -0.146844   -1.183724
  H     -3.544967    1.048998   -0.132784
  H     -2.083114    1.471848   -1.033384
  H     -2.249517   -0.597444    1.219513
  H     -1.537270    1.036359    1.351127
  H      1.601354   -0.560989   -1.295375
  H      2.005996    1.185064   -1.221587
  H      2.770604    0.868621    1.146961
  H      2.400505   -0.858748    1.028661
  H      3.687766   -0.162495    0.035994

 Total Charge           Charge          ....    0
 Multiplicity           Mult            ....    1
 Number of Electrons    NEL             ....   56
 Basis Dimension        Dim             ....  193

ORBITAL ENERGIES
----------------

  NO   OCC          E(Eh)            E(eV)
   0   2.0000     -18.996056      -516.9090
   1   2.0000     -18.926873      -515.0264
   2   2.0000     -10.150869      -276.2192
   3   2.0000     -10.091051      -274.5915
   4   2.0000     -10.043030      -273.2847
   5   2.0000     -10.031573      -272.9730
   6   2.0000     -10.028510      -272.8896
   7   2.0000      -1.071107       -29.1463
   8   2.0000      -0.974415       -26.5152
   9   2.0000      -0.765997       -20.8438
  10   2.0000      -0.729644       -19.8546
  11   2.0000      -0.642104       -17.4725
  12   2.0000      -0.598665       -16.2905
  13   2.0000      -0.523692       -14.2504
  14   2.0000      -0.472826       -12.8663
  15   2.0000      -0.450620       -12.2620
  16   2.0000      -0.436269       -11.8715
  17   2.0000      -0.414010       -11.2658
  18   2.0000      -0.407294       -11.0830
  19   2.0000      -0.385572       -10.4920
  20   2.0000      -0.362773        -9.8716
  21   2.0000      -0.356103        -9.6901
  22   2.0000      -0.338051        -9.1988
  23   2.0000      -0.328086        -8.9277
  24   2.0000      -0.326322        -8.8797
  25   2.0000      -0.305656        -8.3173
  26   2.0000      -0.270282        -7.3547
  27   2.0000      -0.232976        -6.3396
  28   0.0000      -0.014064        -0.3827
  29   0.0000       0.074877         2.0375
  30   0.0000       0.091523         2.4905
  31   0.0000       0.121600         3.3089
  32   0.0000       0.122560         3.3350

MULLIKEN ATOMIC CHARGES
-----------------------
   0 C :   -0.473323
   1 C :   -0.296228
   2 C :    0.418455
   3 O :   -0.431632
   4 O :   -0.183506
   5 C :   -0.136448
   6 C :   -0.466086
   7 H :    0.157993
   8 H :    0.153655
   9 H :    0.158065
  10 H :    0.162165
  11 H :    0.152640
  12 H :    0.167720
  13 H :    0.147093
  14 H :    0.151011
  15 H :    0.171830
  16 H :    0.146596
Sum of atomic charges:    0.0000000

LOEWDIN ATOMIC CHARGES
----------------------
   0 C :   -0.392289
   1 C :   -0.236286
   2 C :    0.356189
   3 O :   -0.432824
   4 O :   -0.597172
   5 C :    0.027287
   6 C :   -0.390144
   7 H :    0.159027
   8 H :    0.152948
   9 H :    0.158361
  10 H :    0.174196
  11 H :    0.173998
  12 H :    0.188326
  13 H :    0.177215
  14 H :    0.156922
  15 H :    0.165190
  16 H :    0.159056

  Mayer bond orders larger than 0.100000
B(  0-C ,  1-C ) :   0.8962 B(  0-C ,  7-H ) :   0.9741 B(  0-C ,  8-H ) :   0.9710
B(  0-C ,  9-H ) :   0.9773 B(  1-C ,  2-C ) :   0.9539 B(  1-C , 10-H ) :   0.9775
B(  1-C , 11-H ) :   0.9706 B(  2-C ,  3-O ) :   1.8403 B(  2-C ,  4-O ) :   1.0417
B(  4-O ,  5-C ) :   0.8194 B(  5-C ,  6-C ) :   0.9389 B(  5-C , 12-H ) :   0.9657
B(  5-C , 13-H ) :   0.9609 B(  6-C , 14-H ) :   0.9736 B(  6-C , 15-H ) :   0.9712
B(  6-C , 16-H ) :   0.9657

Dispersion correction           -0.003998167
FINAL SINGLE POINT ENERGY      -346.936025303079

DIPOLE MOMENT
-------------

Method             : SCF
Type of density    : Electron Density
Multiplicity       :   1
Irrep              :   0
Energy             :  -346.9424123810435390 Eh
Relativity type    :
Basis              : AO
                                X                 Y                 Z
Electronic contribution:     -0.117403404      -2.271635807       0.080146214
Nuclear contribution   :      0.259279955       3.068503482      -0.081262763
                        -----------------------------------------
Total Dipole Moment    :      0.141876551       0.796867675      -0.001116549
                        -----------------------------------------
Magnitude (a.u.)       :      0.809399959
Magnitude (Debye)      :      2.057331197

Rotational constants in cm-1:             0.193913             0.049648             0.045136
Rotational constants in MHz :          5813.365640          1488.399804          1353.155289

                             ****ORCA TERMINATED NORMALLY****
TOTAL RUN TIME: 0 days 0 hours 0 minutes 22 seconds 826 msec
