                         Program Version 6.0.0  -   RELEASE  -
|  1> ! r2scan-3c def2/J RI DEFGRID2 scfconv6 printgap
|  2> %output
|  3>     printlevel normal
|  4> end
|  5> %cpcm
|  6>     smd true
|  7>     smdsolvent "water"
|  8> end
|  9> * xyz 0 1
| 10> C -2.5927188337 0.6756583625 -0.497036673
| 11> C -1.7387796433 0.2007578909 0.6823432225
| 12> C -0.428829433 -0.3343658045 0.1645452458
| 13> O -0.1860980449 -1.5086158832 -0.0240081794
| 14> O 0.4227583334 0.6463651222 -0.1038628883
| 15> C 1.7120972761 0.3095733656 -0.6417254524
| 16> C 2.7101068335 0.0213409037 0.4693048894
| 17> H -2.7787283457 -0.1468441686 -1.1837235221
| 18> H -3.5449674979 1.0489982628 -0.1327835639
| 19> H -2.0831140808 1.471848167 -1.0333839701
| 20> H -2.2495165306 -0.5974439022 1.2195130269
| 21> H -1.5372701382 1.0363586426 1.3511268513
| 22> H 1.6013538089 -0.5609894298 -1.2953751551
| 23> H 2.0059961756 1.1850637874 -1.2215866539
| 24> H 2.7706036845 0.8686205543 1.146960742
| 25> H 2.4005051836 -0.8587477903 1.0286608636
| 26> H 3.6877663211 -0.1624950449 0.0359935336
| 27> *
| 28>
| 29>                          ****END OF INPUT****

CARTESIAN COORDINATES (ANGSTROEM)
---------------------------------
  C     -2.592719    0.675658   -0.497037
  C     -1.738780    0.200758    0.682343
  C     -0.428829   -0.334366    0.164545
  O     -0.186098   -1.508616   -0.024008
  O      0.422758    0.646365   -0.103863
  C      1.712097    0.309573   -0.641725
  C      2.710107    0.021341    0.469305
  H     -2.778728   -0.146844   -1.183724
  H     -3.544967    1.048998   -0.132784
  H     -2.083114    1.471848   -1.033384
  H     -2.249517   -0.597444    1.219513
  H     -1.537270    1.036359    1.351127
  H      1.601354   -0.560989   -1.295375
  H      2.005996    1.185064   -1.221587
  H      2.770604    0.868621    1.146961
  H      2.400505   -0.858748    1.028661
  H      3.687766   -0.162495    0.035994

 Total Charge           Charge          ....    0
 Multiplicity           Mult            ....    1
 Number of Electrons    NEL             ....   56
 Basis Dimension        Dim             ....  193

ORBITAL ENERGIES
----------------

  NO   OCC          E(Eh)            E(eV)
   0   2.0000     -19.001866      -517.0671
   1   2.0000     -18.943170      -515.4699
   2   2.0000     -10.161806      -276.5168
   3   2.0000     -10.083230      -274.3786
   4   2.0000     -10.037324      -273.1295
   5   2.0000     -10.022226      -272.7186
   6   2.0000     -10.018206      -272.6093
   7   2.0000      -1.078632       -29.3511
   8   2.0000      -0.988537       -26.8995
   9   2.0000      -0.761916       -20.7328
  10   2.0000      -0.722177       -19.6514
  11   2.0000      -0.637009       -17.3339
  12   2.0000      -0.592507       -16.1229
  13   2.0000      -0.521606       -14.1936
  14   2.0000      -0.471699       -12.8356
  15   2.0000      -0.460117       -12.5204
  16   2.0000      -0.437278       -11.8989
  17   2.0000      -0.411597       -11.2001
  18   2.0000      -0.405394       -11.0313
  19   2.0000      -0.381535       -10.3821
  20   2.0000      -0.355896        -9.6844
  21   2.0000      -0.349800        -9.5185
  22   2.0000      -0.335126        -9.1192
  23   2.0000      -0.326825        -8.8934
  24   2.0000      -0.318293        -8.6612
  25   2.0000      -0.303782        -8.2663
  26   2.0000      -0.277343        -7.5469
  27   2.0000      -0.249142        -6.7795
  28   0.0000      -0.022546        -0.6135
  29   0.0000       0.077900         2.1198
  30   0.0000       0.098648         2.6843
  31   0.0000       0.130581         3.5533
  32   0.0000       0.133082         3.6213

MULLIKEN ATOMIC CHARGES
-----------------------
   0 C :   -0.494460
   1 C :   -0.312529
   2 C :    0.455966
   3 O :   -0.516183
   4 O :   -0.200310
   5 C :   -0.142142
   6 C :   -0.491389
   7 H :    0.164473
   8 H :    0.172988
   9 H :    0.166793
  10 H :    0.173554
  11 H :    0.175761
  12 H :    0.171111
  13 H :    0.173549
  14 H :    0.165271
  15 H :    0.167533
  16 H :    0.170014
Sum of atomic charges:   -0.0000000

LOEWDIN ATOMIC CHARGES
----------------------
   0 C :   -0.393734
   1 C :   -0.233601
   2 C :    0.365412
   3 O :   -0.493407
   4 O :   -0.598348
   5 C :    0.032110
   6 C :   -0.393091
   7 H :    0.160643
   8 H :    0.160351
   9 H :    0.161042
  10 H :    0.178849
  11 H :    0.183765
  12 H :    0.189437
  13 H :    0.188771
  14 H :    0.161889
  15 H :    0.162205
  16 H :    0.167706

  Mayer bond orders larger than 0.100000
B(  0-C ,  1-C ) :   0.8873 B(  0-C ,  7-H ) :   0.9709 B(  0-C ,  8-H ) :   0.9659
B(  0-C ,  9-H ) :   0.9737 B(  1-C ,  2-C ) :   0.9536 B(  1-C , 10-H ) :   0.9735
B(  1-C , 11-H ) :   0.9612 B(  2-C ,  3-O ) :   1.7686 B(  2-C ,  4-O ) :   1.0687
B(  4-O ,  5-C ) :   0.8011 B(  5-C ,  6-C ) :   0.9372 B(  5-C , 12-H ) :   0.9623
B(  5-C , 13-H ) :   0.9516 B(  6-C , 14-H ) :   0.9698 B(  6-C , 15-H ) :   0.9690
B(  6-C , 16-H ) :   0.9607

Dispersion correction           -0.003998167
FINAL SINGLE POINT ENERGY      -346.941102194183

DIPOLE MOMENT
-------------

Method             : SCF
Type of density    : Electron Density
Multiplicity       :   1
Irrep              :   0
Energy             :  -346.9474892721473793 Eh
Relativity type    :
Basis              : AO
                                X                 Y                 Z
Electronic contribution:     -0.084859130      -1.917061284       0.079528266
Nuclear contribution   :      0.259279955       3.068503482      -0.081262763
                        -----------------------------------------
Total Dipole Moment    :      0.174420825       1.151442197      -0.001734497
                        -----------------------------------------
Magnitude (a.u.)       :      1.164579223
Magnitude (Debye)      :      2.960125140

Rotational constants in cm-1:             0.193913             0.049648             0.045136
Rotational constants in MHz :          5813.365640          1488.399804          1353.155289

                             ****ORCA TERMINATED NORMALLY****
TOTAL RUN TIME: 0 days 0 hours 0 minutes 24 seconds 821 msec
