                         Program Version 6.0.0  -   RELEASE  -
|  1> ! wb97x-v def2-tzvp def2/J RIJCOSX DEFGRID2 scfconv7 GCP(DFT/TZ) printgap
|  2> %output
|  3>     printlevel normal
|  4> end
|  5> * xyz 0 1
|  6> C 2.255024094700308 -0.5504593648824557 0.5672877356995314
|  7> C 1.5132797775271576 -0.13847699908753253 -0.7012975892437938
|  8> C 0.5592213199534893 1.0423731796427391 -0.4994964793312663
|  9> C -0.5207088320848106 0.8327385348225521 0.5539341090748022
| 10> S -1.5939030681888078 -0.6187375190210087 0.10653848351515152
| 11> H 1.570403237917894 -0.9348887936788097 1.3304621573308126
| 12> H 2.795362240009427 0.29987674643079193 0.9991157208146693
| 13> H 2.9841651840221797 -1.3387919420195153 0.35503579847994887
| 14> H 0.9615670701957446 -0.9995999791204956 -1.100752651084508
| 15> H 2.2396673945304517 0.14124863925466574 -1.473789111476785
| 16> H 0.0877561932921326 1.3007909782833327 -1.4554299387693512
| 17> H 1.1401436711594493 1.9201394703576034 -0.18511719718741154
| 18> H -0.08342941378408136 0.6509987045640884 1.5391865681462422
| 19> H -1.160411562016269 1.7162887526350914 0.6149691963186303
| 20> H -2.5202570681032124 -0.41918202978518204 1.0622773895463449
| 21> *
| 22>
| 23>                          ****END OF INPUT****

CARTESIAN COORDINATES (ANGSTROEM)
---------------------------------
  C      2.255024   -0.550459    0.567288
  C      1.513280   -0.138477   -0.701298
  C      0.559221    1.042373   -0.499496
  C     -0.520709    0.832739    0.553934
  S     -1.593903   -0.618738    0.106538
  H      1.570403   -0.934889    1.330462
  H      2.795362    0.299877    0.999116
  H      2.984165   -1.338792    0.355036
  H      0.961567   -0.999600   -1.100753
  H      2.239667    0.141249   -1.473789
  H      0.087756    1.300791   -1.455430
  H      1.140144    1.920139   -0.185117
  H     -0.083429    0.650999    1.539187
  H     -1.160412    1.716289    0.614969
  H     -2.520257   -0.419182    1.062277

 Total Charge           Charge          ....    0
 Multiplicity           Mult            ....    1
 Number of Electrons    NEL             ....   50
 Basis Dimension        Dim             ....  221

ORBITAL ENERGIES
----------------

  NO   OCC          E(Eh)            E(eV)
   0   2.0000     -94.117663     -2561.0718
   1   2.0000     -12.079563      -328.7016
   2   2.0000     -12.051315      -327.9329
   3   2.0000     -12.043470      -327.7195
   4   2.0000     -12.034272      -327.4692
   5   2.0000      -9.628938      -262.0167
   6   2.0000      -7.606535      -206.9843
   7   2.0000      -7.605471      -206.9554
   8   2.0000      -7.604972      -206.9418
   9   2.0000      -1.318311       -35.8731
  10   2.0000      -1.256669       -34.1957
  11   2.0000      -1.190863       -32.4050
  12   2.0000      -1.114986       -30.3403
  13   2.0000      -1.035799       -28.1855
  14   2.0000      -0.900713       -24.5096
  15   2.0000      -0.898964       -24.4621
  16   2.0000      -0.854412       -23.2497
  17   2.0000      -0.845246       -23.0003
  18   2.0000      -0.832504       -22.6536
  19   2.0000      -0.802611       -21.8402
  20   2.0000      -0.781333       -21.2612
  21   2.0000      -0.775348       -21.0983
  22   2.0000      -0.757541       -20.6137
  23   2.0000      -0.738855       -20.1053
  24   2.0000      -0.640572       -17.4308
  25   0.0000      -0.197239        -5.3671
  26   0.0000      -0.110411        -3.0044
  27   0.0000      -0.026761        -0.7282
  28   0.0000      -0.018511        -0.5037
  29   0.0000      -0.010208        -0.2778

MULLIKEN ATOMIC CHARGES
-----------------------
   0 C :   -0.365657
   1 C :   -0.166816
   2 C :   -0.183254
   3 C :   -0.197964
   4 S :   -0.229543
   5 H :    0.121151
   6 H :    0.103913
   7 H :    0.116418
   8 H :    0.110678
   9 H :    0.097129
  10 H :    0.110755
  11 H :    0.099178
  12 H :    0.125304
  13 H :    0.124844
  14 H :    0.133866
Sum of atomic charges:    0.0000000

LOEWDIN ATOMIC CHARGES
----------------------
   0 C :   -0.308539
   1 C :   -0.298893
   2 C :   -0.300824
   3 C :   -0.456387
   4 S :    0.208006
   5 H :    0.117275
   6 H :    0.115744
   7 H :    0.117595
   8 H :    0.131669
   9 H :    0.132381
  10 H :    0.136058
  11 H :    0.137917
  12 H :    0.117856
  13 H :    0.119978
  14 H :    0.030163

  Mayer bond orders larger than 0.100000
B(  0-C ,  1-C ) :   0.9692 B(  0-C ,  5-H ) :   0.9798 B(  0-C ,  6-H ) :   0.9780
B(  0-C ,  7-H ) :   0.9813 B(  1-C ,  2-C ) :   0.9832 B(  1-C ,  8-H ) :   0.9736
B(  1-C ,  9-H ) :   0.9762 B(  2-C ,  3-C ) :   0.9848 B(  2-C , 10-H ) :   0.9743
B(  2-C , 11-H ) :   0.9725 B(  3-C ,  4-S ) :   1.0487 B(  3-C , 12-H ) :   0.9707
B(  3-C , 13-H ) :   0.9701 B(  4-S , 14-H ) :   0.9728

FINAL SINGLE POINT ENERGY      -556.594300719234

DIPOLE MOMENT
-------------

Method             : SCF
Type of density    : Electron Density
Multiplicity       :   1
Irrep              :   0
Energy             :  -556.6048154776342471 Eh
Relativity type    :
Basis              : AO
                                X                 Y                 Z
Electronic contribution:     -7.067725363      -2.033789571      -0.853792073
Nuclear contribution   :      7.285352495       2.545710040       1.147285652
                        -----------------------------------------
Total Dipole Moment    :      0.217627132       0.511920469       0.293493579
                        -----------------------------------------
Magnitude (a.u.)       :      0.628937689
Magnitude (Debye)      :      1.598632559

Rotational constants in cm-1:             0.217556             0.070251             0.063907
Rotational constants in MHz :          6522.159941          2106.082175          1915.886053

                             ****ORCA TERMINATED NORMALLY****
TOTAL RUN TIME: 0 days 0 hours 1 minutes 10 seconds 597 msec
