                         Program Version 6.0.0  -   RELEASE  -
|  1> ! wb97x-v def2-tzvp def2/J RIJCOSX DEFGRID2 scfconv7 GCP(DFT/TZ) printgap
|  2> %output
|  3>     printlevel normal
|  4> end
|  5> %cpcm
|  6>     smd true
|  7>     smdsolvent "water"
|  8> end
|  9> * xyz 0 1
| 10> C 2.255024094700308 -0.5504593648824557 0.5672877356995314
| 11> C 1.5132797775271576 -0.13847699908753253 -0.7012975892437938
| 12> C 0.5592213199534893 1.0423731796427391 -0.4994964793312663
| 13> C -0.5207088320848106 0.8327385348225521 0.5539341090748022
| 14> S -1.5939030681888078 -0.6187375190210087 0.10653848351515152
| 15> H 1.570403237917894 -0.9348887936788097 1.3304621573308126
| 16> H 2.795362240009427 0.29987674643079193 0.9991157208146693
| 17> H 2.9841651840221797 -1.3387919420195153 0.35503579847994887
| 18> H 0.9615670701957446 -0.9995999791204956 -1.100752651084508
| 19> H 2.2396673945304517 0.14124863925466574 -1.473789111476785
| 20> H 0.0877561932921326 1.3007909782833327 -1.4554299387693512
| 21> H 1.1401436711594493 1.9201394703576034 -0.18511719718741154
| 22> H -0.08342941378408136 0.6509987045640884 1.5391865681462422
| 23> H -1.160411562016269 1.7162887526350914 0.6149691963186303
| 24> H -2.5202570681032124 -0.41918202978518204 1.0622773895463449
| 25> *
| 26>
| 27>                          ****END OF INPUT****

CARTESIAN COORDINATES (ANGSTROEM)
---------------------------------
  C      2.255024   -0.550459    0.567288
  C      1.513280   -0.138477   -0.701298
  C      0.559221    1.042373   -0.499496
  C     -0.520709    0.832739    0.553934
  S     -1.593903   -0.618738    0.106538
  H      1.570403   -0.934889    1.330462
  H      2.795362    0.299877    0.999116
  H      2.984165   -1.338792    0.355036
  H      0.961567   -0.999600   -1.100753
  H      2.239667    0.141249   -1.473789
  H      0.087756    1.300791   -1.455430
  H      1.140144    1.920139   -0.185117
  H     -0.083429    0.650999    1.539187
  H     -1.160412    1.716289    0.614969
  H     -2.520257   -0.419182    1.062277

 Total Charge           Charge          ....    0
 Multiplicity           Mult            ....    1
 Number of Electrons    NEL             ....   50
 Basis Dimension        Dim             ....  221

ORBITAL ENERGIES
----------------

  NO   OCC          E(Eh)            E(eV)
   0   2.0000     -94.115138     -2561.0031
   1   2.0000     -12.068860      -328.4104
   2   2.0000     -12.039290      -327.6057
   3   2.0000     -12.033965      -327.4608
   4   2.0000     -12.024640      -327.2071
   5   2.0000      -9.626555      -261.9519
   6   2.0000      -7.604160      -206.9197
   7   2.0000      -7.603124      -206.8915
   8   2.0000      -7.602821      -206.8833
   9   2.0000      -1.308510       -35.6064
  10   2.0000      -1.249195       -33.9923
  11   2.0000      -1.183389       -32.2017
  12   2.0000      -1.105923       -30.0937
  13   2.0000      -1.025635       -27.9089
  14   2.0000      -0.890895       -24.2425
  15   2.0000      -0.888061       -24.1654
  16   2.0000      -0.845300       -23.0018
  17   2.0000      -0.836020       -22.7493
  18   2.0000      -0.822269       -22.3751
  19   2.0000      -0.793923       -21.6037
  20   2.0000      -0.772595       -21.0234
  21   2.0000      -0.764976       -20.8160
  22   2.0000      -0.748655       -20.3719
  23   2.0000      -0.732730       -19.9386
  24   2.0000      -0.638975       -17.3874
  25   0.0000      -0.192005        -5.2247
  26   0.0000      -0.102326        -2.7844
  27   0.0000      -0.015732        -0.4281
  28   0.0000      -0.006939        -0.1888
  29   0.0000       0.000019         0.0005

MULLIKEN ATOMIC CHARGES
-----------------------
   0 C :   -0.403781
   1 C :   -0.184999
   2 C :   -0.191454
   3 C :   -0.213325
   4 S :   -0.305466
   5 H :    0.125293
   6 H :    0.121301
   7 H :    0.130427
   8 H :    0.108268
   9 H :    0.111533
  10 H :    0.117064
  11 H :    0.117656
  12 H :    0.148786
  13 H :    0.150633
  14 H :    0.168064
Sum of atomic charges:    0.0000000

LOEWDIN ATOMIC CHARGES
----------------------
   0 C :   -0.314578
   1 C :   -0.302048
   2 C :   -0.300676
   3 C :   -0.449709
   4 S :    0.173752
   5 H :    0.117320
   6 H :    0.119668
   7 H :    0.118661
   8 H :    0.128943
   9 H :    0.135277
  10 H :    0.136660
  11 H :    0.143734
  12 H :    0.124351
  13 H :    0.126925
  14 H :    0.041720

  Mayer bond orders larger than 0.100000
B(  0-C ,  1-C ) :   0.9691 B(  0-C ,  5-H ) :   0.9775 B(  0-C ,  6-H ) :   0.9762
B(  0-C ,  7-H ) :   0.9787 B(  1-C ,  2-C ) :   0.9784 B(  1-C ,  8-H ) :   0.9749
B(  1-C ,  9-H ) :   0.9749 B(  2-C ,  3-C ) :   0.9809 B(  2-C , 10-H ) :   0.9733
B(  2-C , 11-H ) :   0.9687 B(  3-C ,  4-S ) :   1.0245 B(  3-C , 12-H ) :   0.9692
B(  3-C , 13-H ) :   0.9686 B(  4-S , 14-H ) :   0.9680

FINAL SINGLE POINT ENERGY      -556.595679804980

DIPOLE MOMENT
-------------

Method             : SCF
Type of density    : Electron Density
Multiplicity       :   1
Irrep              :   0
Energy             :  -556.6061945633796313 Eh
Relativity type    :
Basis              : AO
                                X                 Y                 Z
Electronic contribution:     -6.994907820      -1.796299650      -0.723256577
Nuclear contribution   :      7.285352495       2.545710040       1.147285652
                        -----------------------------------------
Total Dipole Moment    :      0.290444676       0.749410390       0.424029075
                        -----------------------------------------
Magnitude (a.u.)       :      0.908721464
Magnitude (Debye)      :      2.309786400

Rotational constants in cm-1:             0.217556             0.070251             0.063907
Rotational constants in MHz :          6522.159941          2106.082175          1915.886053

                             ****ORCA TERMINATED NORMALLY****
TOTAL RUN TIME: 0 days 0 hours 1 minutes 14 seconds 134 msec
