                         Program Version 6.0.0  -   RELEASE  -
|  1> ! pbe def2-sv(p) def2/J RI DEFGRID1 loosescf d4 GCP(DFT/SV(P)) printgap
|  2> %output
|  3>     printlevel normal
|  4> end
|  5> * xyz 0 1
|  6> C -1.1055340326 -0.1853109802 -0.5053570672
|  7> C 0.1168889102 0.378441058 0.2292476592
|  8> C 1.4370866747 -0.1426001259 -0.3737630825
|  9> O 1.7635714069 -1.4413249278 0.0559977349
| 10> O 0.0442512377 1.7858504545 0.1395255992
| 11> O -2.1592869491 -0.3453087711 0.4176503099
| 12> H -0.857236143 -1.1525298732 -0.9627361741
| 13> H -1.3718025702 0.5270556406 -1.2943787113
| 14> H 0.0556428631 0.0525452398 1.2776181289
| 15> H 2.2608233775 0.4892397313 -0.0340699781
| 16> H 1.3879088296 -0.0863981682 -1.4690280252
| 17> H 1.0685025162 -2.0597392632 -0.208098246
| 18> H 0.668486064 2.1886976352 0.7581649747
| 19> H -2.9770862383 -0.5485588408 -0.056643024
| 20> *
| 21>
| 22>                          ****END OF INPUT****

CARTESIAN COORDINATES (ANGSTROEM)
---------------------------------
  C     -1.105534   -0.185311   -0.505357
  C      0.116889    0.378441    0.229248
  C      1.437087   -0.142600   -0.373763
  O      1.763571   -1.441325    0.055998
  O      0.044251    1.785850    0.139526
  O     -2.159287   -0.345309    0.417650
  H     -0.857236   -1.152530   -0.962736
  H     -1.371803    0.527056   -1.294379
  H      0.055643    0.052545    1.277618
  H      2.260823    0.489240   -0.034070
  H      1.387909   -0.086398   -1.469028
  H      1.068503   -2.059739   -0.208098
  H      0.668486    2.188698    0.758165
  H     -2.977086   -0.548559   -0.056643

 Total Charge           Charge          ....    0
 Multiplicity           Mult            ....    1
 Number of Electrons    NEL             ....   50
 Basis Dimension        Dim             ....  100

ORBITAL ENERGIES
----------------

  NO   OCC          E(Eh)            E(eV)
   0   2.0000     -18.746990      -510.1315
   1   2.0000     -18.746663      -510.1226
   2   2.0000     -18.746607      -510.1211
   3   2.0000      -9.935790      -270.3666
   4   2.0000      -9.935685      -270.3637
   5   2.0000      -9.928876      -270.1784
   6   2.0000      -0.933603       -25.4046
   7   2.0000      -0.921022       -25.0623
   8   2.0000      -0.914288       -24.8790
   9   2.0000      -0.680425       -18.5153
  10   2.0000      -0.608471       -16.5573
  11   2.0000      -0.532153       -14.4806
  12   2.0000      -0.488001       -13.2792
  13   2.0000      -0.472966       -12.8700
  14   2.0000      -0.442359       -12.0372
  15   2.0000      -0.405774       -11.0417
  16   2.0000      -0.381721       -10.3872
  17   2.0000      -0.361945        -9.8490
  18   2.0000      -0.350772        -9.5450
  19   2.0000      -0.304498        -8.2858
  20   2.0000      -0.290647        -7.9089
  21   2.0000      -0.264616        -7.2006
  22   2.0000      -0.237134        -6.4527
  23   2.0000      -0.218039        -5.9331
  24   2.0000      -0.203123        -5.5272
  25   0.0000       0.018732         0.5097
  26   0.0000       0.027671         0.7530
  27   0.0000       0.032863         0.8942
  28   0.0000       0.078346         2.1319
  29   0.0000       0.090586         2.4650

MULLIKEN ATOMIC CHARGES
-----------------------
   0 C :    0.014218
   1 C :   -0.004429
   2 C :    0.012841
   3 O :   -0.432788
   4 O :   -0.422865
   5 O :   -0.431392
   6 H :    0.052809
   7 H :    0.085572
   8 H :    0.080224
   9 H :    0.074224
  10 H :    0.074735
  11 H :    0.298145
  12 H :    0.300019
  13 H :    0.298688
Sum of atomic charges:   -0.0000000

LOEWDIN ATOMIC CHARGES
----------------------
   0 C :   -0.125696
   1 C :   -0.088776
   2 C :   -0.137751
   3 O :   -0.335602
   4 O :   -0.324851
   5 O :   -0.342280
   6 H :    0.082614
   7 H :    0.108548
   8 H :    0.106949
   9 H :    0.108903
  10 H :    0.096954
  11 H :    0.279465
  12 H :    0.285851
  13 H :    0.285672

  Mayer bond orders larger than 0.100000
B(  0-C ,  1-C ) :   1.0369 B(  0-C ,  5-O ) :   1.0949 B(  0-C ,  6-H ) :   0.9195
B(  0-C ,  7-H ) :   0.9037 B(  1-C ,  2-C ) :   1.0107 B(  1-C ,  4-O ) :   1.0640
B(  1-C ,  8-H ) :   0.9079 B(  2-C ,  3-O ) :   1.0594 B(  2-C ,  9-H ) :   0.9246
B(  2-C , 10-H ) :   0.9146 B(  3-O , 11-H ) :   0.8485 B(  4-O , 12-H ) :   0.8497
B(  5-O , 13-H ) :   0.8516

Dispersion correction           -0.008929108
FINAL SINGLE POINT ENERGY      -344.000412924447

DIPOLE MOMENT
-------------

Method             : SCF
Type of density    : Electron Density
Multiplicity       :   1
Irrep              :   0
Energy             :  -344.0730257969536865 Eh
Relativity type    :
Basis              : AO
                                X                 Y                 Z
Electronic contribution:     -0.568428969       0.397371320       1.421681660
Nuclear contribution   :      0.215474971      -0.553241119      -1.857080878
                        -----------------------------------------
Total Dipole Moment    :     -0.352953998      -0.155869799      -0.435399217
                        -----------------------------------------
Magnitude (a.u.)       :      0.581759742
Magnitude (Debye)      :      1.478715748

Rotational constants in cm-1:             0.156330             0.081620             0.059131
Rotational constants in MHz :          4686.649259          2446.920615          1772.687908

                             ****ORCA TERMINATED NORMALLY****
TOTAL RUN TIME: 0 days 0 hours 0 minutes 6 seconds 926 msec
