                         Program Version 6.0.0  -   RELEASE  -
|  1> ! pbe def2-sv(p) def2/J RI DEFGRID1 loosescf d4 GCP(DFT/SV(P)) printgap
|  2> %output
|  3>     printlevel normal
|  4> end
|  5> * xyz 0 1
|  6> C 0.5494761289 1.4235343843 1.0435137333
|  7> C 1.8948696055 1.6500984442 1.2125870035
|  8> C 2.8445894601 0.8680467475 0.5485912036
|  9> C 2.3940655707 -0.1573454455 -0.3072842543
| 10> C 1.0232241827 -0.368628824 -0.4717720958
| 11> C 0.0921893794 0.4073186669 0.1962332549
| 12> C -1.3462800123 0.1648865089 0.001742234
| 13> C -1.8629174146 -0.0818338404 -1.2705657002
| 14> C -3.2102849938 -0.3113183812 -1.4764057374
| 15> C -4.0578906561 -0.2982818955 -0.3850518498
| 16> C -3.6014360148 -0.0670654242 0.8980381285
| 17> C -2.2491056588 0.1622738293 1.0626909502
| 18> F -1.804025674 0.3641846571 2.3299483871
| 19> F -5.3846819153 -0.5213732045 -0.5713428654
| 20> C 3.3608233388 -0.9976963708 -1.0178015333
| 21> O 4.5780214012 -0.8726101969 -0.9120565386
| 22> O 2.8276614476 -1.9194637043 -1.800785899
| 23> O 4.1382280255 1.1352871274 0.7587819131
| 24> H -0.1596300179 2.0487502369 1.5628117861
| 25> H 2.251832545 2.4343562084 1.8600801479
| 26> H 0.701961295 -1.1700753202 -1.1176879072
| 27> H -1.1908238126 -0.0748128679 -2.1128341642
| 28> H -3.6053082049 -0.4953581798 -2.4613876
| 29> H -4.2696306005 -0.0684542421 1.7427188922
| 30> H 3.5075562534 -2.4552157214 -2.2533578701
| 31> H 4.6970468903 0.5147423627 0.23827473
| 32> *
| 33>
| 34>                          ****END OF INPUT****

CARTESIAN COORDINATES (ANGSTROEM)
---------------------------------
  C      0.549476    1.423534    1.043514
  C      1.894870    1.650098    1.212587
  C      2.844589    0.868047    0.548591
  C      2.394066   -0.157345   -0.307284
  C      1.023224   -0.368629   -0.471772
  C      0.092189    0.407319    0.196233
  C     -1.346280    0.164887    0.001742
  C     -1.862917   -0.081834   -1.270566
  C     -3.210285   -0.311318   -1.476406
  C     -4.057891   -0.298282   -0.385052
  C     -3.601436   -0.067065    0.898038
  C     -2.249106    0.162274    1.062691
  F     -1.804026    0.364185    2.329948
  F     -5.384682   -0.521373   -0.571343
  C      3.360823   -0.997696   -1.017802
  O      4.578021   -0.872610   -0.912057
  O      2.827661   -1.919464   -1.800786
  O      4.138228    1.135287    0.758782
  H     -0.159630    2.048750    1.562812
  H      2.251833    2.434356    1.860080
  H      0.701961   -1.170075   -1.117688
  H     -1.190824   -0.074813   -2.112834
  H     -3.605308   -0.495358   -2.461388
  H     -4.269631   -0.068454    1.742719
  H      3.507556   -2.455216   -2.253358
  H      4.697047    0.514742    0.238275

 Total Charge           Charge          ....    0
 Multiplicity           Mult            ....    1
 Number of Electrons    NEL             ....  128
 Basis Dimension        Dim             ....  268

ORBITAL ENERGIES
----------------

  NO   OCC          E(Eh)            E(eV)
   0   2.0000     -24.281755      -660.7402
   1   2.0000     -24.276805      -660.6054
   2   2.0000     -18.817308      -512.0450
   3   2.0000     -18.783536      -511.1260
   4   2.0000     -18.763307      -510.5755
   5   2.0000     -10.034424      -273.0506
   6   2.0000      -9.988390      -271.7979
   7   2.0000      -9.986718      -271.7524
   8   2.0000      -9.972633      -271.3691
   9   2.0000      -9.919341      -269.9190
  10   2.0000      -9.917188      -269.8604
  11   2.0000      -9.915918      -269.8259
  12   2.0000      -9.913790      -269.7679
  13   2.0000      -9.910806      -269.6867
  14   2.0000      -9.910056      -269.6663
  15   2.0000      -9.909870      -269.6613
  16   2.0000      -9.907985      -269.6100
  17   2.0000      -9.899495      -269.3790
  18   2.0000      -1.108734       -30.1702
  19   2.0000      -1.103730       -30.0340
  20   2.0000      -1.029247       -28.0072
  21   2.0000      -0.973067       -26.4785
  22   2.0000      -0.928990       -25.2791
  23   2.0000      -0.807239       -21.9661
  24   2.0000      -0.786964       -21.4144
  25   2.0000      -0.719346       -19.5744
  26   2.0000      -0.704336       -19.1660
  27   2.0000      -0.691589       -18.8191
  28   2.0000      -0.658817       -17.9273
  29   2.0000      -0.618894       -16.8410
  30   2.0000      -0.583726       -15.8840
  31   2.0000      -0.578427       -15.7398
  32   2.0000      -0.566437       -15.4135
  33   2.0000      -0.541346       -14.7308
  34   2.0000      -0.510928       -13.9030
  35   2.0000      -0.504366       -13.7245
  36   2.0000      -0.482499       -13.1295
  37   2.0000      -0.467691       -12.7265
  38   2.0000      -0.453875       -12.3506
  39   2.0000      -0.442303       -12.0357
  40   2.0000      -0.436985       -11.8910
  41   2.0000      -0.430460       -11.7134
  42   2.0000      -0.425061       -11.5665
  43   2.0000      -0.419192       -11.4068
  44   2.0000      -0.407903       -11.0996
  45   2.0000      -0.401497       -10.9253
  46   2.0000      -0.397162       -10.8073
  47   2.0000      -0.389126       -10.5886
  48   2.0000      -0.377046       -10.2600
  49   2.0000      -0.371425       -10.1070
  50   2.0000      -0.358066        -9.7435
  51   2.0000      -0.347180        -9.4473
  52   2.0000      -0.344120        -9.3640
  53   2.0000      -0.326773        -8.8919
  54   2.0000      -0.320428        -8.7193
  55   2.0000      -0.317366        -8.6360
  56   2.0000      -0.309436        -8.4202
  57   2.0000      -0.306408        -8.3378
  58   2.0000      -0.293117        -7.9761
  59   2.0000      -0.248217        -6.7543
  60   2.0000      -0.247092        -6.7237
  61   2.0000      -0.244012        -6.6399
  62   2.0000      -0.235344        -6.4040
  63   2.0000      -0.198742        -5.4081
  64   0.0000      -0.084452        -2.2981
  65   0.0000      -0.060508        -1.6465
  66   0.0000      -0.049030        -1.3342
  67   0.0000      -0.019523        -0.5312
  68   0.0000       0.013614         0.3705

MULLIKEN ATOMIC CHARGES
-----------------------
   0 C :   -0.082642
   1 C :   -0.131554
   2 C :    0.156980
   3 C :   -0.014795
   4 C :   -0.193280
   5 C :    0.151118
   6 C :    0.039803
   7 C :   -0.122366
   8 C :   -0.139455
   9 C :    0.355279
  10 C :   -0.260105
  11 C :    0.256993
  12 F :   -0.163528
  13 F :   -0.173405
  14 C :    0.136692
  15 O :   -0.238118
  16 O :   -0.278721
  17 O :   -0.302029
  18 H :    0.057545
  19 H :    0.051723
  20 H :    0.058058
  21 H :    0.060799
  22 H :    0.060374
  23 H :    0.064369
  24 H :    0.325872
  25 H :    0.324392
Sum of atomic charges:   -0.0000000

LOEWDIN ATOMIC CHARGES
----------------------
   0 C :   -0.083703
   1 C :   -0.141036
   2 C :    0.054540
   3 C :   -0.126565
   4 C :   -0.084064
   5 C :   -0.051218
   6 C :   -0.064493
   7 C :   -0.097228
   8 C :   -0.158938
   9 C :    0.074016
  10 C :   -0.173606
  11 C :    0.082107
  12 F :   -0.044677
  13 F :   -0.053708
  14 C :    0.048492
  15 O :   -0.199068
  16 O :   -0.189538
  17 O :   -0.210830
  18 H :    0.130604
  19 H :    0.136480
  20 H :    0.133580
  21 H :    0.132930
  22 H :    0.138558
  23 H :    0.148641
  24 H :    0.307036
  25 H :    0.291691

  Mayer bond orders larger than 0.100000
B(  0-C ,  1-C ) :   1.3882 B(  0-C ,  5-C ) :   1.3082 B(  0-C , 18-H ) :   0.9627
B(  1-C ,  2-C ) :   1.3220 B(  1-C , 19-H ) :   0.9628 B(  2-C ,  3-C ) :   1.2305
B(  2-C , 17-O ) :   1.3434 B(  3-C ,  4-C ) :   1.2988 B(  3-C , 14-C ) :   0.9850
B(  4-C ,  5-C ) :   1.3570 B(  4-C , 20-H ) :   0.9556 B(  5-C ,  6-C ) :   0.9773
B(  6-C ,  7-C ) :   1.3687 B(  6-C , 11-C ) :   1.3317 B(  7-C ,  8-C ) :   1.3289
B(  7-C , 21-H ) :   0.9557 B(  8-C ,  9-C ) :   1.3428 B(  8-C , 22-H ) :   0.9685
B(  9-C , 10-C ) :   1.2885 B(  9-C , 13-F ) :   1.0869 B( 10-C , 11-C ) :   1.3021
B( 10-C , 23-H ) :   0.9753 B( 11-C , 12-F ) :   1.1063 B( 14-C , 15-O ) :   1.9286
B( 14-C , 16-O ) :   1.3324 B( 15-O , 25-H ) :   0.1374 B( 16-O , 24-H ) :   0.8161
B( 17-O , 25-H ) :   0.7587

Dispersion correction           -0.034693088
FINAL SINGLE POINT ENERGY      -923.765423328700

DIPOLE MOMENT
-------------

Method             : SCF
Type of density    : Electron Density
Multiplicity       :   1
Irrep              :   0
Energy             :  -923.8504879272968537 Eh
Relativity type    :
Basis              : AO
                                X                 Y                 Z
Electronic contribution:     -8.668291663      -1.260075169       3.310047399
Nuclear contribution   :      8.644841090       0.809677734      -4.042567238
                        -----------------------------------------
Total Dipole Moment    :     -0.023450572      -0.450397435      -0.732519839
                        -----------------------------------------
Magnitude (a.u.)       :      0.860228512
Magnitude (Debye)      :      2.186527111

Rotational constants in cm-1:             0.031776             0.006877             0.005899
Rotational constants in MHz :           952.614420           206.152613           176.852586

                             ****ORCA TERMINATED NORMALLY****
TOTAL RUN TIME: 0 days 0 hours 0 minutes 23 seconds 634 msec
