                         Program Version 6.0.0  -   RELEASE  -
|  1> ! pbe def2-sv(p) def2/J RI DEFGRID1 loosescf d4 GCP(DFT/SV(P)) printgap
|  2> %output
|  3>     printlevel normal
|  4> end
|  5> * xyz 0 1
|  6> C -1.9758215147 1.4465077851 0.0761770383
|  7> C -1.4845287154 0.0832729865 -0.3995606412
|  8> C -0.1599713028 -0.3511028013 0.2382655187
|  9> H -0.2102348465 -0.153906282 1.3158478811
| 10> C 0.0739324893 -1.846474532 0.0273362451
| 11> C 1.0223287919 0.4397350623 -0.3380796586
| 12> O 2.2450559649 0.164973994 0.3139747637
| 13> H -2.942356105 1.6701864557 -0.3682871709
| 14> H -2.0868618033 1.4544596834 1.1580960828
| 15> H -1.2847847586 2.2366816774 -0.2052667156
| 16> H -1.3704490031 0.0931691096 -1.4856524999
| 17> H -2.241753411 -0.6640625457 -0.1537503113
| 18> H -0.664159775 -2.4324438048 0.5689843236
| 19> H 1.0662635709 -2.1223296011 0.3764731101
| 20> H 0.0043722377 -2.0908209632 -1.0304206963
| 21> H 0.8167479697 1.5168396066 -0.300781939
| 22> H 1.1823451956 0.156864952 -1.3817898941
| 23> H 2.1717272399 0.4343415225 1.2399386569
| 24> *
| 25>
| 26>                          ****END OF INPUT****

CARTESIAN COORDINATES (ANGSTROEM)
---------------------------------
  C     -1.975822    1.446508    0.076177
  C     -1.484529    0.083273   -0.399561
  C     -0.159971   -0.351103    0.238266
  H     -0.210235   -0.153906    1.315848
  C      0.073932   -1.846475    0.027336
  C      1.022329    0.439735   -0.338080
  O      2.245056    0.164974    0.313975
  H     -2.942356    1.670186   -0.368287
  H     -2.086862    1.454460    1.158096
  H     -1.284785    2.236682   -0.205267
  H     -1.370449    0.093169   -1.485652
  H     -2.241753   -0.664063   -0.153750
  H     -0.664160   -2.432444    0.568984
  H      1.066264   -2.122330    0.376473
  H      0.004372   -2.090821   -1.030421
  H      0.816748    1.516840   -0.300782
  H      1.182345    0.156865   -1.381790
  H      2.171727    0.434342    1.239939

 Total Charge           Charge          ....    0
 Multiplicity           Mult            ....    1
 Number of Electrons    NEL             ....   50
 Basis Dimension        Dim             ....  108

ORBITAL ENERGIES
----------------

  NO   OCC          E(Eh)            E(eV)
   0   2.0000     -18.739162      -509.9185
   1   2.0000      -9.924565      -270.0612
   2   2.0000      -9.892699      -269.1940
   3   2.0000      -9.885818      -269.0068
   4   2.0000      -9.875931      -268.7377
   5   2.0000      -9.867616      -268.5115
   6   2.0000      -0.915861       -24.9219
   7   2.0000      -0.729117       -19.8403
   8   2.0000      -0.656004       -17.8508
   9   2.0000      -0.601344       -16.3634
  10   2.0000      -0.556614       -15.1462
  11   2.0000      -0.510678       -13.8963
  12   2.0000      -0.448141       -12.1945
  13   2.0000      -0.419762       -11.4223
  14   2.0000      -0.394069       -10.7232
  15   2.0000      -0.383340       -10.4312
  16   2.0000      -0.367249        -9.9934
  17   2.0000      -0.355620        -9.6769
  18   2.0000      -0.323311        -8.7977
  19   2.0000      -0.315762        -8.5923
  20   2.0000      -0.302858        -8.2412
  21   2.0000      -0.289997        -7.8912
  22   2.0000      -0.285138        -7.7590
  23   2.0000      -0.262936        -7.1549
  24   2.0000      -0.209677        -5.7056
  25   0.0000       0.028398         0.7727
  26   0.0000       0.041228         1.1219
  27   0.0000       0.062042         1.6883
  28   0.0000       0.067845         1.8462
  29   0.0000       0.092073         2.5054

MULLIKEN ATOMIC CHARGES
-----------------------
   0 C :   -0.270959
   1 C :   -0.167898
   2 C :   -0.206526
   3 H :    0.054602
   4 C :   -0.228313
   5 C :    0.038769
   6 O :   -0.432291
   7 H :    0.103519
   8 H :    0.096647
   9 H :    0.104536
  10 H :    0.083166
  11 H :    0.084833
  12 H :    0.096549
  13 H :    0.103989
  14 H :    0.090526
  15 H :    0.076760
  16 H :    0.078831
  17 H :    0.293261
Sum of atomic charges:    0.0000000

LOEWDIN ATOMIC CHARGES
----------------------
   0 C :   -0.342670
   1 C :   -0.224901
   2 C :   -0.175917
   3 H :    0.106183
   4 C :   -0.332319
   5 C :   -0.116643
   6 O :   -0.337566
   7 H :    0.120933
   8 H :    0.116647
   9 H :    0.114859
  10 H :    0.116006
  11 H :    0.116707
  12 H :    0.115774
  13 H :    0.119302
  14 H :    0.116989
  15 H :    0.093651
  16 H :    0.112012
  17 H :    0.280954

  Mayer bond orders larger than 0.100000
B(  0-C ,  1-C ) :   1.1547 B(  0-C ,  7-H ) :   0.9499 B(  0-C ,  8-H ) :   0.9535
B(  0-C ,  9-H ) :   0.9477 B(  1-C ,  2-C ) :   1.0629 B(  1-C , 10-H ) :   0.9207
B(  1-C , 11-H ) :   0.9248 B(  2-C ,  3-H ) :   0.8998 B(  2-C ,  4-C ) :   1.1045
B(  2-C ,  5-C ) :   1.0491 B(  4-C , 12-H ) :   0.9492 B(  4-C , 13-H ) :   0.9404
B(  4-C , 14-H ) :   0.9505 B(  5-C ,  6-O ) :   1.0602 B(  5-C , 15-H ) :   0.9280
B(  5-C , 16-H ) :   0.9194 B(  6-O , 17-H ) :   0.8541

Dispersion correction           -0.012824361
FINAL SINGLE POINT ENERGY      -272.300748357016

DIPOLE MOMENT
-------------

Method             : SCF
Type of density    : Electron Density
Multiplicity       :   1
Irrep              :   0
Energy             :  -272.3706091557463083 Eh
Relativity type    :
Basis              : AO
                                X                 Y                 Z
Electronic contribution:      4.710873659       0.151958676       0.585118552
Nuclear contribution   :     -5.182068581       0.095307546      -0.245463502
                        -----------------------------------------
Total Dipole Moment    :     -0.471194922       0.247266222       0.339655051
                        -----------------------------------------
Magnitude (a.u.)       :      0.631292953
Magnitude (Debye)      :      1.604619165

Rotational constants in cm-1:             0.162943             0.075449             0.056851
Rotational constants in MHz :          4884.923086          2261.890139          1704.336515

                             ****ORCA TERMINATED NORMALLY****
TOTAL RUN TIME: 0 days 0 hours 0 minutes 7 seconds 658 msec
