                         Program Version 6.0.0  -   RELEASE  -
|  1> ! pbe def2-sv(p) def2/J RI DEFGRID1 loosescf d4 GCP(DFT/SV(P)) printgap
|  2> %output
|  3>     printlevel normal
|  4> end
|  5> * xyz 0 1
|  6> C -2.0971741424 1.0906206277 -0.6064449204
|  7> C -2.0792080289 -0.2594138887 0.1001906572
|  8> C -0.8375608825 -0.4180830186 0.9858022611
|  9> C 0.4111353116 -0.4403635842 0.1443374164
| 10> O 0.6449496355 -1.2392103233 -0.7383883677
| 11> O 1.2473272321 0.5375963571 0.4763855274
| 12> C 2.4755663386 0.6356473225 -0.2486507964
| 13> H -2.0574515086 1.9014697215 0.1168747713
| 14> H -1.2417843827 1.1827783641 -1.273161642
| 15> H -3.0028895577 1.1965382451 -1.1974848533
| 16> H -2.085360128 -1.0620300021 -0.6397308219
| 17> H -2.9682043738 -0.3591979907 0.7233047514
| 18> H -0.8945890627 -1.3673792544 1.5203454663
| 19> H -0.7617808758 0.4006318551 1.7001046254
| 20> H 3.0141647522 1.465481002 0.1974518677
| 21> H 2.2716151391 0.8227369781 -1.3036390918
| 22> H 3.0383168905 -0.2939166021 -0.1566504004
| 23> *
| 24>
| 25>                          ****END OF INPUT****

CARTESIAN COORDINATES (ANGSTROEM)
---------------------------------
  C     -2.097174    1.090621   -0.606445
  C     -2.079208   -0.259414    0.100191
  C     -0.837561   -0.418083    0.985802
  C      0.411135   -0.440364    0.144337
  O      0.644950   -1.239210   -0.738388
  O      1.247327    0.537596    0.476386
  C      2.475566    0.635647   -0.248651
  H     -2.057452    1.901470    0.116875
  H     -1.241784    1.182778   -1.273162
  H     -3.002890    1.196538   -1.197485
  H     -2.085360   -1.062030   -0.639731
  H     -2.968204   -0.359198    0.723305
  H     -0.894589   -1.367379    1.520345
  H     -0.761781    0.400632    1.700105
  H      3.014165    1.465481    0.197452
  H      2.271615    0.822737   -1.303639
  H      3.038317   -0.293917   -0.156650

 Total Charge           Charge          ....    0
 Multiplicity           Mult            ....    1
 Number of Electrons    NEL             ....   56
 Basis Dimension        Dim             ....  118

ORBITAL ENERGIES
----------------

  NO   OCC          E(Eh)            E(eV)
   0   2.0000     -18.800251      -511.5808
   1   2.0000     -18.731501      -509.7100
   2   2.0000     -10.004037      -272.2237
   3   2.0000      -9.941896      -270.5327
   4   2.0000      -9.896368      -269.2939
   5   2.0000      -9.892249      -269.1818
   6   2.0000      -9.877865      -268.7904
   7   2.0000      -1.005503       -27.3611
   8   2.0000      -0.908313       -24.7164
   9   2.0000      -0.725904       -19.7529
  10   2.0000      -0.671228       -18.2650
  11   2.0000      -0.620790       -16.8925
  12   2.0000      -0.540387       -14.7047
  13   2.0000      -0.500540       -13.6204
  14   2.0000      -0.450979       -12.2718
  15   2.0000      -0.437972       -11.9178
  16   2.0000      -0.421146       -11.4600
  17   2.0000      -0.402207       -10.9446
  18   2.0000      -0.389322       -10.5940
  19   2.0000      -0.362638        -9.8679
  20   2.0000      -0.355160        -9.6644
  21   2.0000      -0.342937        -9.3318
  22   2.0000      -0.312923        -8.5151
  23   2.0000      -0.299222        -8.1422
  24   2.0000      -0.298091        -8.1115
  25   2.0000      -0.294203        -8.0057
  26   2.0000      -0.258119        -7.0238
  27   2.0000      -0.217550        -5.9198
  28   0.0000      -0.020837        -0.5670
  29   0.0000       0.039766         1.0821
  30   0.0000       0.059296         1.6135
  31   0.0000       0.079316         2.1583
  32   0.0000       0.080806         2.1988

MULLIKEN ATOMIC CHARGES
-----------------------
   0 C :   -0.288477
   1 C :   -0.204858
   2 C :   -0.118049
   3 C :    0.081219
   4 O :   -0.212924
   5 O :   -0.236773
   6 C :   -0.110994
   7 H :    0.099914
   8 H :    0.116008
   9 H :    0.108129
  10 H :    0.108402
  11 H :    0.093261
  12 H :    0.112152
  13 H :    0.093089
  14 H :    0.121307
  15 H :    0.118790
  16 H :    0.119804
Sum of atomic charges:    0.0000000

LOEWDIN ATOMIC CHARGES
----------------------
   0 C :   -0.342588
   1 C :   -0.226102
   2 C :   -0.246161
   3 C :    0.033751
   4 O :   -0.172121
   5 O :   -0.072900
   6 C :   -0.204265
   7 H :    0.117922
   8 H :    0.120109
   9 H :    0.121804
  10 H :    0.124560
  11 H :    0.118322
  12 H :    0.141398
  13 H :    0.126636
  14 H :    0.120457
  15 H :    0.119093
  16 H :    0.120086

  Mayer bond orders larger than 0.100000
B(  0-C ,  1-C ) :   1.1543 B(  0-C ,  7-H ) :   0.9538 B(  0-C ,  8-H ) :   0.9483
B(  0-C ,  9-H ) :   0.9518 B(  1-C ,  2-C ) :   1.1125 B(  1-C , 10-H ) :   0.9210
B(  1-C , 11-H ) :   0.9288 B(  2-C ,  3-C ) :   1.0208 B(  2-C , 12-H ) :   0.8943
B(  2-C , 13-H ) :   0.9098 B(  3-C ,  4-O ) :   2.0502 B(  3-C ,  5-O ) :   1.2168
B(  5-O ,  6-C ) :   0.9402 B(  6-C , 14-H ) :   0.9593 B(  6-C , 15-H ) :   0.9524
B(  6-C , 16-H ) :   0.9511

Dispersion correction           -0.012414777
FINAL SINGLE POINT ENERGY      -346.240225449256

DIPOLE MOMENT
-------------

Method             : SCF
Type of density    : Electron Density
Multiplicity       :   1
Irrep              :   0
Energy             :  -346.3047729842530771 Eh
Relativity type    :
Basis              : AO
                                X                 Y                 Z
Electronic contribution:      4.472590424      -3.081690564       0.652214871
Nuclear contribution   :     -4.370038036       3.636359045      -0.297141797
                        -----------------------------------------
Total Dipole Moment    :      0.102552388       0.554668481       0.355073073
                        -----------------------------------------
Magnitude (a.u.)       :      0.666521570
Magnitude (Debye)      :      1.694163194

Rotational constants in cm-1:             0.157744             0.053667             0.049573
Rotational constants in MHz :          4729.043341          1608.910940          1486.161841

                             ****ORCA TERMINATED NORMALLY****
TOTAL RUN TIME: 0 days 0 hours 0 minutes 10 seconds 223 msec
