                         Program Version 6.0.0  -   RELEASE  -
|  1> ! pbe def2-sv(p) def2/J RI DEFGRID1 loosescf d4 GCP(DFT/SV(P)) printgap
|  2> %output
|  3>     printlevel normal
|  4> end
|  5> * xyz 0 1
|  6> C 2.1380416298 1.3219769421 -1.0414096026
|  7> C 2.173362533 0.8364366719 0.4027466421
|  8> C 1.3848400727 -0.464835294 0.655198405
|  9> H 1.4383721011 -0.6574022064 1.7341722446
| 10> C 2.0189340301 -1.6612568617 -0.0519484298
| 11> C -0.0712943602 -0.2583887525 0.3130326226
| 12> C -0.9033027466 0.3396341481 1.2544601656
| 13> C -2.2359044827 0.5844678078 0.978933829
| 14> C -2.7650478059 0.232443906 -0.2514009018
| 15> C -1.9493199077 -0.3640003063 -1.1964081505
| 16> C -0.6147087826 -0.6059530395 -0.9172620379
| 17> H 2.6652756014 2.2694955259 -1.1245321135
| 18> H 2.6177656476 0.6106364771 -1.7080204893
| 19> H 1.1118772211 1.4703100745 -1.3703030555
| 20> H 3.2107628538 0.6758144048 0.7042144808
| 21> H 1.7570090337 1.6172765584 1.0436783129
| 22> H 1.4237955929 -2.5556153921 0.1180672284
| 23> H 2.1016004179 -1.5002203428 -1.1222791256
| 24> H 3.018346448 -1.8313860108 0.3421589208
| 25> H -0.4991054978 0.6148416796 2.2188448734
| 26> H -2.8635868462 1.0489706057 1.7254404115
| 27> H -3.8055546783 0.4208475356 -0.4704933331
| 28> H -2.3529709443 -0.6422306715 -2.1590941843
| 29> H 0.0006676765 -1.0709229587 -1.6710305477
| 30> *
| 31>
| 32>                          ****END OF INPUT****

CARTESIAN COORDINATES (ANGSTROEM)
---------------------------------
  C      2.138042    1.321977   -1.041410
  C      2.173363    0.836437    0.402747
  C      1.384840   -0.464835    0.655198
  H      1.438372   -0.657402    1.734172
  C      2.018934   -1.661257   -0.051948
  C     -0.071294   -0.258389    0.313033
  C     -0.903303    0.339634    1.254460
  C     -2.235904    0.584468    0.978934
  C     -2.765048    0.232444   -0.251401
  C     -1.949320   -0.364000   -1.196408
  C     -0.614709   -0.605953   -0.917262
  H      2.665276    2.269496   -1.124532
  H      2.617766    0.610636   -1.708020
  H      1.111877    1.470310   -1.370303
  H      3.210763    0.675814    0.704214
  H      1.757009    1.617277    1.043678
  H      1.423796   -2.555615    0.118067
  H      2.101600   -1.500220   -1.122279
  H      3.018346   -1.831386    0.342159
  H     -0.499105    0.614842    2.218845
  H     -2.863587    1.048971    1.725440
  H     -3.805555    0.420848   -0.470493
  H     -2.352971   -0.642231   -2.159094
  H      0.000668   -1.070923   -1.671031

 Total Charge           Charge          ....    0
 Multiplicity           Mult            ....    1
 Number of Electrons    NEL             ....   74
 Basis Dimension        Dim             ....  168

ORBITAL ENERGIES
----------------

  NO   OCC          E(Eh)            E(eV)
   0   2.0000      -9.897696      -269.3300
   1   2.0000      -9.897043      -269.3122
   2   2.0000      -9.887597      -269.0552
   3   2.0000      -9.887304      -269.0472
   4   2.0000      -9.886402      -269.0227
   5   2.0000      -9.885798      -269.0062
   6   2.0000      -9.885514      -268.9985
   7   2.0000      -9.885015      -268.9849
   8   2.0000      -9.874863      -268.7087
   9   2.0000      -9.869998      -268.5763
  10   2.0000      -0.777426       -21.1548
  11   2.0000      -0.729192       -19.8423
  12   2.0000      -0.666119       -18.1260
  13   2.0000      -0.665098       -18.0982
  14   2.0000      -0.640994       -17.4423
  15   2.0000      -0.579400       -15.7663
  16   2.0000      -0.538839       -14.6626
  17   2.0000      -0.534423       -14.5424
  18   2.0000      -0.493946       -13.4410
  19   2.0000      -0.454942       -12.3796
  20   2.0000      -0.421066       -11.4578
  21   2.0000      -0.408160       -11.1066
  22   2.0000      -0.398877       -10.8540
  23   2.0000      -0.391480       -10.6527
  24   2.0000      -0.377096       -10.2613
  25   2.0000      -0.367802       -10.0084
  26   2.0000      -0.343353        -9.3431
  27   2.0000      -0.338328        -9.2064
  28   2.0000      -0.328998        -8.9525
  29   2.0000      -0.324090        -8.8189
  30   2.0000      -0.310094        -8.4381
  31   2.0000      -0.298447        -8.1212
  32   2.0000      -0.287610        -7.8263
  33   2.0000      -0.277492        -7.5509
  34   2.0000      -0.275878        -7.5070
  35   2.0000      -0.225144        -6.1265
  36   2.0000      -0.216494        -5.8911
  37   0.0000      -0.031503        -0.8573
  38   0.0000      -0.029212        -0.7949
  39   0.0000       0.035504         0.9661
  40   0.0000       0.053352         1.4518
  41   0.0000       0.054985         1.4962

MULLIKEN ATOMIC CHARGES
-----------------------
   0 C :   -0.299698
   1 C :   -0.143280
   2 C :   -0.127616
   3 H :    0.066003
   4 C :   -0.244991
   5 C :    0.107385
   6 C :   -0.123357
   7 C :   -0.044558
   8 C :   -0.049575
   9 C :   -0.045617
  10 C :   -0.130331
  11 H :    0.102438
  12 H :    0.099972
  13 H :    0.125174
  14 H :    0.083700
  15 H :    0.082868
  16 H :    0.106443
  17 H :    0.112400
  18 H :    0.098619
  19 H :    0.039189
  20 H :    0.048718
  21 H :    0.050336
  22 H :    0.047903
  23 H :    0.037877
Sum of atomic charges:    0.0000000

LOEWDIN ATOMIC CHARGES
----------------------
   0 C :   -0.346721
   1 C :   -0.216366
   2 C :   -0.138090
   3 H :    0.121428
   4 C :   -0.329440
   5 C :   -0.028996
   6 C :   -0.122324
   7 C :   -0.122410
   8 C :   -0.129460
   9 C :   -0.121801
  10 C :   -0.126474
  11 H :    0.121309
  12 H :    0.115526
  13 H :    0.124945
  14 H :    0.114066
  15 H :    0.115602
  16 H :    0.123004
  17 H :    0.117095
  18 H :    0.120750
  19 H :    0.120004
  20 H :    0.122318
  21 H :    0.122093
  22 H :    0.122149
  23 H :    0.121795

  Mayer bond orders larger than 0.100000
B(  0-C ,  1-C ) :   1.1555 B(  0-C , 11-H ) :   0.9482 B(  0-C , 12-H ) :   0.9490
B(  0-C , 13-H ) :   0.9429 B(  1-C ,  2-C ) :   1.0662 B(  1-C , 14-H ) :   0.9224
B(  1-C , 15-H ) :   0.9212 B(  2-C ,  3-H ) :   0.8802 B(  2-C ,  4-C ) :   1.1233
B(  2-C ,  5-C ) :   1.0101 B(  4-C , 16-H ) :   0.9492 B(  4-C , 17-H ) :   0.9298
B(  4-C , 18-H ) :   0.9454 B(  5-C ,  6-C ) :   1.3905 B(  5-C , 10-C ) :   1.3977
B(  6-C ,  7-C ) :   1.3770 B(  6-C , 19-H ) :   0.9585 B(  7-C ,  8-C ) :   1.3716
B(  7-C , 20-H ) :   0.9631 B(  8-C ,  9-C ) :   1.3840 B(  8-C , 21-H ) :   0.9656
B(  9-C , 10-C ) :   1.3628 B(  9-C , 22-H ) :   0.9629 B( 10-C , 23-H ) :   0.9574

Dispersion correction           -0.025607796
FINAL SINGLE POINT ENERGY      -388.580409332410

DIPOLE MOMENT
-------------

Method             : SCF
Type of density    : Electron Density
Multiplicity       :   1
Irrep              :   0
Energy             :  -388.6495052034919127 Eh
Relativity type    :
Basis              : AO
                                X                 Y                 Z
Electronic contribution:     -9.076204072      -0.424964911       1.661669022
Nuclear contribution   :      9.216787863       0.441327918      -1.631637241
                        -----------------------------------------
Total Dipole Moment    :      0.140583791       0.016363007       0.030031781
                        -----------------------------------------
Magnitude (a.u.)       :      0.144683994
Magnitude (Debye)      :      0.367757488

Rotational constants in cm-1:             0.079457             0.029689             0.028736
Rotational constants in MHz :          2382.055117           890.047206           861.489141

                             ****ORCA TERMINATED NORMALLY****
TOTAL RUN TIME: 0 days 0 hours 0 minutes 12 seconds 626 msec
