                         Program Version 6.0.0  -   RELEASE  -
|  1> ! r2scan-3c def2/J RI DEFGRID2 scfconv6 printgap
|  2> %output
|  3>     printlevel normal
|  4> end
|  5> * xyz 0 1
|  6> C -3.1818268974 0.5728851407 0.0183963484
|  7> C -1.7718093702 0.3184379898 -0.4981104717
|  8> C -0.8191168092 -0.0547319065 0.6460760564
|  9> C 0.5405379649 -0.3828425824 0.0924885819
| 10> O 0.7958154306 -1.3415077161 -0.6064436539
| 11> O 1.4470777488 0.5254234809 0.4355998959
| 12> C 2.7807680673 0.3488129421 -0.0502625195
| 13> H -3.1823490613 1.3876816559 0.7377730819
| 14> H -3.8397156987 0.8379518585 -0.8046183116
| 15> H -3.5765045992 -0.3164916971 0.5029113377
| 16> H -1.3964777184 1.2127492824 -0.9994783725
| 17> H -1.7806562738 -0.4959018833 -1.2253702673
| 18> H -1.2039731344 -0.9387681864 1.1561647103
| 19> H -0.7254389235 0.7693433717 1.3517945862
| 20> H 3.3300084228 1.226462319 0.2750676584
| 21> H 2.7737015446 0.2682523446 -1.1378265768
| 22> H 3.2112728062 -0.5607731333 0.3698419096
| 23> *
| 24>
| 25>                          ****END OF INPUT****

CARTESIAN COORDINATES (ANGSTROEM)
---------------------------------
  C     -3.181827    0.572885    0.018396
  C     -1.771809    0.318438   -0.498110
  C     -0.819117   -0.054732    0.646076
  C      0.540538   -0.382843    0.092489
  O      0.795815   -1.341508   -0.606444
  O      1.447078    0.525423    0.435600
  C      2.780768    0.348813   -0.050263
  H     -3.182349    1.387682    0.737773
  H     -3.839716    0.837952   -0.804618
  H     -3.576505   -0.316492    0.502911
  H     -1.396478    1.212749   -0.999478
  H     -1.780656   -0.495902   -1.225370
  H     -1.203973   -0.938768    1.156165
  H     -0.725439    0.769343    1.351795
  H      3.330008    1.226462    0.275068
  H      2.773702    0.268252   -1.137827
  H      3.211273   -0.560773    0.369842

 Total Charge           Charge          ....    0
 Multiplicity           Mult            ....    1
 Number of Electrons    NEL             ....   56
 Basis Dimension        Dim             ....  193

ORBITAL ENERGIES
----------------

  NO   OCC          E(Eh)            E(eV)
   0   2.0000     -19.000009      -517.0165
   1   2.0000     -18.927947      -515.0556
   2   2.0000     -10.151407      -276.2338
   3   2.0000     -10.086810      -274.4761
   4   2.0000     -10.041770      -273.2505
   5   2.0000     -10.037526      -273.1350
   6   2.0000     -10.023217      -272.7456
   7   2.0000      -1.073315       -29.2064
   8   2.0000      -0.975318       -26.5398
   9   2.0000      -0.772807       -21.0292
  10   2.0000      -0.713245       -19.4084
  11   2.0000      -0.661466       -17.9994
  12   2.0000      -0.571734       -15.5577
  13   2.0000      -0.532946       -14.5022
  14   2.0000      -0.469609       -12.7787
  15   2.0000      -0.455820       -12.4035
  16   2.0000      -0.448896       -12.2151
  17   2.0000      -0.426642       -11.6095
  18   2.0000      -0.398376       -10.8404
  19   2.0000      -0.391107       -10.6426
  20   2.0000      -0.368680       -10.0323
  21   2.0000      -0.350602        -9.5404
  22   2.0000      -0.336001        -9.1430
  23   2.0000      -0.318186        -8.6583
  24   2.0000      -0.310408        -8.4466
  25   2.0000      -0.308050        -8.3825
  26   2.0000      -0.273785        -7.4501
  27   2.0000      -0.235626        -6.4117
  28   0.0000      -0.016068        -0.4372
  29   0.0000       0.066175         1.8007
  30   0.0000       0.098200         2.6721
  31   0.0000       0.102787         2.7970
  32   0.0000       0.129264         3.5175

MULLIKEN ATOMIC CHARGES
-----------------------
   0 C :   -0.471124
   1 C :   -0.227118
   2 C :   -0.334598
   3 C :    0.402858
   4 O :   -0.426466
   5 O :   -0.187643
   6 C :   -0.295899
   7 H :    0.143366
   8 H :    0.150893
   9 H :    0.145891
  10 H :    0.139277
  11 H :    0.164647
  12 H :    0.161916
  13 H :    0.160357
  14 H :    0.150305
  15 H :    0.164043
  16 H :    0.159293
Sum of atomic charges:    0.0000000

LOEWDIN ATOMIC CHARGES
----------------------
   0 C :   -0.420144
   1 C :   -0.288108
   2 C :   -0.230556
   3 C :    0.352478
   4 O :   -0.426007
   5 O :   -0.603805
   6 C :   -0.044961
   7 H :    0.150449
   8 H :    0.153295
   9 H :    0.151159
  10 H :    0.155777
  11 H :    0.164844
  12 H :    0.178981
  13 H :    0.176526
  14 H :    0.175984
  15 H :    0.178155
  16 H :    0.175933

  Mayer bond orders larger than 0.100000
B(  0-C ,  1-C ) :   0.8938 B(  0-C ,  7-H ) :   0.9814 B(  0-C ,  8-H ) :   0.9726
B(  0-C ,  9-H ) :   0.9864 B(  1-C ,  2-C ) :   0.9241 B(  1-C , 10-H ) :   0.9576
B(  1-C , 11-H ) :   0.9634 B(  2-C ,  3-C ) :   0.9626 B(  2-C , 12-H ) :   0.9648
B(  2-C , 13-H ) :   0.9835 B(  3-C ,  4-O ) :   1.8091 B(  3-C ,  5-O ) :   1.0552
B(  5-O ,  6-C ) :   0.8529 B(  6-C , 14-H ) :   0.9691 B(  6-C , 15-H ) :   0.9629
B(  6-C , 16-H ) :   0.9613

Dispersion correction           -0.003925558
FINAL SINGLE POINT ENERGY      -346.931525201118

DIPOLE MOMENT
-------------

Method             : SCF
Type of density    : Electron Density
Multiplicity       :   1
Irrep              :   0
Energy             :  -346.9382120861094450 Eh
Relativity type    :
Basis              : AO
                                X                 Y                 Z
Electronic contribution:      5.996855708      -2.483994830       0.108840383
Nuclear contribution   :     -5.961759366       3.168762069       0.209736526
                        -----------------------------------------
Total Dipole Moment    :      0.035096342       0.684767239       0.318576908
                        -----------------------------------------
Magnitude (a.u.)       :      0.756061619
Magnitude (Debye)      :      1.921755910

Rotational constants in cm-1:             0.231146             0.041793             0.038502
Rotational constants in MHz :          6929.568063          1252.925689          1154.260820

                             ****ORCA TERMINATED NORMALLY****
TOTAL RUN TIME: 0 days 0 hours 0 minutes 24 seconds 691 msec
