                         Program Version 6.0.0  -   RELEASE  -
|  1> ! r2scan-3c def2/J RI DEFGRID2 scfconv6 printgap
|  2> %output
|  3>     printlevel normal
|  4> end
|  5> %cpcm
|  6>     smd true
|  7>     smdsolvent "water"
|  8> end
|  9> * xyz 0 1
| 10> C -3.1818268974 0.5728851407 0.0183963484
| 11> C -1.7718093702 0.3184379898 -0.4981104717
| 12> C -0.8191168092 -0.0547319065 0.6460760564
| 13> C 0.5405379649 -0.3828425824 0.0924885819
| 14> O 0.7958154306 -1.3415077161 -0.6064436539
| 15> O 1.4470777488 0.5254234809 0.4355998959
| 16> C 2.7807680673 0.3488129421 -0.0502625195
| 17> H -3.1823490613 1.3876816559 0.7377730819
| 18> H -3.8397156987 0.8379518585 -0.8046183116
| 19> H -3.5765045992 -0.3164916971 0.5029113377
| 20> H -1.3964777184 1.2127492824 -0.9994783725
| 21> H -1.7806562738 -0.4959018833 -1.2253702673
| 22> H -1.2039731344 -0.9387681864 1.1561647103
| 23> H -0.7254389235 0.7693433717 1.3517945862
| 24> H 3.3300084228 1.226462319 0.2750676584
| 25> H 2.7737015446 0.2682523446 -1.1378265768
| 26> H 3.2112728062 -0.5607731333 0.3698419096
| 27> *
| 28>
| 29>                          ****END OF INPUT****

CARTESIAN COORDINATES (ANGSTROEM)
---------------------------------
  C     -3.181827    0.572885    0.018396
  C     -1.771809    0.318438   -0.498110
  C     -0.819117   -0.054732    0.646076
  C      0.540538   -0.382843    0.092489
  O      0.795815   -1.341508   -0.606444
  O      1.447078    0.525423    0.435600
  C      2.780768    0.348813   -0.050263
  H     -3.182349    1.387682    0.737773
  H     -3.839716    0.837952   -0.804618
  H     -3.576505   -0.316492    0.502911
  H     -1.396478    1.212749   -0.999478
  H     -1.780656   -0.495902   -1.225370
  H     -1.203973   -0.938768    1.156165
  H     -0.725439    0.769343    1.351795
  H      3.330008    1.226462    0.275068
  H      2.773702    0.268252   -1.137827
  H      3.211273   -0.560773    0.369842

 Total Charge           Charge          ....    0
 Multiplicity           Mult            ....    1
 Number of Electrons    NEL             ....   56
 Basis Dimension        Dim             ....  193

ORBITAL ENERGIES
----------------

  NO   OCC          E(Eh)            E(eV)
   0   2.0000     -19.005232      -517.1586
   1   2.0000     -18.944045      -515.4937
   2   2.0000     -10.161941      -276.5205
   3   2.0000     -10.076418      -274.1933
   4   2.0000     -10.035402      -273.0772
   5   2.0000     -10.029655      -272.9208
   6   2.0000     -10.011854      -272.4364
   7   2.0000      -1.080246       -29.3950
   8   2.0000      -0.989074       -26.9141
   9   2.0000      -0.766827       -20.8664
  10   2.0000      -0.707912       -19.2633
  11   2.0000      -0.653906       -17.7937
  12   2.0000      -0.563979       -15.3467
  13   2.0000      -0.530940       -14.4476
  14   2.0000      -0.470419       -12.8008
  15   2.0000      -0.459113       -12.4931
  16   2.0000      -0.451249       -12.2791
  17   2.0000      -0.425462       -11.5774
  18   2.0000      -0.392709       -10.6862
  19   2.0000      -0.387277       -10.5383
  20   2.0000      -0.363668        -9.8959
  21   2.0000      -0.345861        -9.4113
  22   2.0000      -0.332833        -9.0569
  23   2.0000      -0.315847        -8.5946
  24   2.0000      -0.305202        -8.3050
  25   2.0000      -0.298793        -8.1306
  26   2.0000      -0.281280        -7.6540
  27   2.0000      -0.252205        -6.8629
  28   0.0000      -0.023929        -0.6511
  29   0.0000       0.071006         1.9322
  30   0.0000       0.106208         2.8901
  31   0.0000       0.113525         3.0892
  32   0.0000       0.137410         3.7391

MULLIKEN ATOMIC CHARGES
-----------------------
   0 C :   -0.515517
   1 C :   -0.222086
   2 C :   -0.356342
   3 C :    0.447745
   4 O :   -0.512478
   5 O :   -0.202901
   6 C :   -0.330022
   7 H :    0.158111
   8 H :    0.162027
   9 H :    0.159150
  10 H :    0.155711
  11 H :    0.158953
  12 H :    0.185967
  13 H :    0.176595
  14 H :    0.178518
  15 H :    0.178020
  16 H :    0.178547
Sum of atomic charges:    0.0000000

LOEWDIN ATOMIC CHARGES
----------------------
   0 C :   -0.425355
   1 C :   -0.287061
   2 C :   -0.227982
   3 C :    0.362526
   4 O :   -0.488434
   5 O :   -0.604963
   6 C :   -0.042420
   7 H :    0.154908
   8 H :    0.156281
   9 H :    0.154691
  10 H :    0.160820
  11 H :    0.161903
  12 H :    0.187436
  13 H :    0.184300
  14 H :    0.188306
  15 H :    0.182909
  16 H :    0.182135

  Mayer bond orders larger than 0.100000
B(  0-C ,  1-C ) :   0.8882 B(  0-C ,  7-H ) :   0.9791 B(  0-C ,  8-H ) :   0.9695
B(  0-C ,  9-H ) :   0.9835 B(  1-C ,  2-C ) :   0.9118 B(  1-C , 10-H ) :   0.9557
B(  1-C , 11-H ) :   0.9644 B(  2-C ,  3-C ) :   0.9629 B(  2-C , 12-H ) :   0.9576
B(  2-C , 13-H ) :   0.9754 B(  3-C ,  4-O ) :   1.7442 B(  3-C ,  5-O ) :   1.0805
B(  5-O ,  6-C ) :   0.8332 B(  6-C , 14-H ) :   0.9591 B(  6-C , 15-H ) :   0.9578
B(  6-C , 16-H ) :   0.9555

Dispersion correction           -0.003925558
FINAL SINGLE POINT ENERGY      -346.936685779145

DIPOLE MOMENT
-------------

Method             : SCF
Type of density    : Electron Density
Multiplicity       :   1
Irrep              :   0
Energy             :  -346.9433726641361773 Eh
Relativity type    :
Basis              : AO
                                X                 Y                 Z
Electronic contribution:      5.998367318      -2.193898296       0.291708037
Nuclear contribution   :     -5.961759366       3.168762069       0.209736526
                        -----------------------------------------
Total Dipole Moment    :      0.036607952       0.974863774       0.501444562
                        -----------------------------------------
Magnitude (a.u.)       :      1.096880198
Magnitude (Debye)      :      2.788047893

Rotational constants in cm-1:             0.231146             0.041793             0.038502
Rotational constants in MHz :          6929.568063          1252.925689          1154.260820

                             ****ORCA TERMINATED NORMALLY****
TOTAL RUN TIME: 0 days 0 hours 0 minutes 30 seconds 421 msec
