                         Program Version 6.0.0  -   RELEASE  -
|  1> ! r2scan-3c def2/J RI DEFGRID2 scfconv6 printgap
|  2> %output
|  3>     printlevel normal
|  4> end
|  5> * xyz 0 1
|  6> C -2.5139151552 0.6579262713 0.1540861265
|  7> C -1.1614218904 0.7196426627 -0.5476428097
|  8> C -0.0460244155 -0.0056332256 0.2139321981
|  9> H -0.0216335897 0.3656788165 1.2445025952
| 10> C -0.2693031108 -1.5169181508 0.2363527193
| 11> C 1.3078254355 0.3325176602 -0.4305326834
| 12> O 2.4232624112 -0.0750377134 0.3321364882
| 13> H -2.8911906724 -0.3598758144 0.1965961639
| 14> H -2.432591214 1.0398601137 1.1691124125
| 15> H -3.2392354185 1.2638144459 -0.3831894852
| 16> H -0.8774926646 1.7680149456 -0.6646517644
| 17> H -1.2488415654 0.2887284036 -1.5473798337
| 18> H -1.2184979996 -1.7551877694 0.7066938728
| 19> H 0.5118624422 -2.0161054441 0.8048346541
| 20> H -0.2750918449 -1.9132512203 -0.7772551507
| 21> H 1.4128418023 1.4168075889 -0.5214724446
| 22> H 1.3568946381 -0.102255272 -1.4384681944
| 23> H 2.4271295185 -1.0399108153 0.3929181805
| 24> *
| 25>
| 26>                          ****END OF INPUT****

CARTESIAN COORDINATES (ANGSTROEM)
---------------------------------
  C     -2.513915    0.657926    0.154086
  C     -1.161422    0.719643   -0.547643
  C     -0.046024   -0.005633    0.213932
  H     -0.021634    0.365679    1.244503
  C     -0.269303   -1.516918    0.236353
  C      1.307825    0.332518   -0.430533
  O      2.423262   -0.075038    0.332136
  H     -2.891191   -0.359876    0.196596
  H     -2.432591    1.039860    1.169112
  H     -3.239235    1.263814   -0.383189
  H     -0.877493    1.768015   -0.664652
  H     -1.248842    0.288728   -1.547380
  H     -1.218498   -1.755188    0.706694
  H      0.511862   -2.016105    0.804835
  H     -0.275092   -1.913251   -0.777255
  H      1.412842    1.416808   -0.521472
  H      1.356895   -0.102255   -1.438468
  H      2.427130   -1.039911    0.392918

 Total Charge           Charge          ....    0
 Multiplicity           Mult            ....    1
 Number of Electrons    NEL             ....   50
 Basis Dimension        Dim             ....  179

ORBITAL ENERGIES
----------------

  NO   OCC          E(Eh)            E(eV)
   0   2.0000     -18.945628      -515.5367
   1   2.0000     -10.070551      -274.0336
   2   2.0000     -10.033318      -273.0205
   3   2.0000     -10.028549      -272.8907
   4   2.0000     -10.023438      -272.7516
   5   2.0000     -10.019579      -272.6466
   6   2.0000      -0.982570       -26.7371
   7   2.0000      -0.778047       -21.1717
   8   2.0000      -0.699449       -19.0330
   9   2.0000      -0.651263       -17.7218
  10   2.0000      -0.591086       -16.0843
  11   2.0000      -0.532693       -14.4953
  12   2.0000      -0.478612       -13.0237
  13   2.0000      -0.436787       -11.8856
  14   2.0000      -0.421770       -11.4769
  15   2.0000      -0.398358       -10.8399
  16   2.0000      -0.388333       -10.5671
  17   2.0000      -0.360955        -9.8221
  18   2.0000      -0.348126        -9.4730
  19   2.0000      -0.338028        -9.1982
  20   2.0000      -0.321175        -8.7396
  21   2.0000      -0.301202        -8.1961
  22   2.0000      -0.295552        -8.0424
  23   2.0000      -0.284748        -7.7484
  24   2.0000      -0.231647        -6.3034
  25   0.0000       0.056038         1.5249
  26   0.0000       0.093268         2.5379
  27   0.0000       0.112536         3.0623
  28   0.0000       0.120502         3.2790
  29   0.0000       0.129916         3.5352

MULLIKEN ATOMIC CHARGES
-----------------------
   0 C :   -0.498121
   1 C :   -0.234272
   2 C :   -0.015041
   3 H :    0.154273
   4 C :   -0.531374
   5 C :   -0.193217
   6 O :   -0.414882
   7 H :    0.145887
   8 H :    0.148094
   9 H :    0.148071
  10 H :    0.139668
  11 H :    0.138404
  12 H :    0.153923
  13 H :    0.134649
  14 H :    0.157875
  15 H :    0.139390
  16 H :    0.133819
  17 H :    0.292852
Sum of atomic charges:   -0.0000000

LOEWDIN ATOMIC CHARGES
----------------------
   0 C :   -0.421285
   1 C :   -0.308721
   2 C :   -0.233465
   3 H :    0.164627
   4 C :   -0.416032
   5 C :    0.005389
   6 O :   -0.617151
   7 H :    0.148817
   8 H :    0.151737
   9 H :    0.151634
  10 H :    0.155833
  11 H :    0.155415
  12 H :    0.157408
  13 H :    0.149389
  14 H :    0.155568
  15 H :    0.178319
  16 H :    0.158317
  17 H :    0.264200

  Mayer bond orders larger than 0.100000
B(  0-C ,  1-C ) :   0.8947 B(  0-C ,  7-H ) :   0.9844 B(  0-C ,  8-H ) :   0.9876
B(  0-C ,  9-H ) :   0.9715 B(  1-C ,  2-C ) :   0.9039 B(  1-C , 10-H ) :   0.9692
B(  1-C , 11-H ) :   0.9629 B(  2-C ,  3-H ) :   0.9607 B(  2-C ,  4-C ) :   0.8774
B(  2-C ,  5-C ) :   0.8878 B(  4-C , 12-H ) :   0.9724 B(  4-C , 13-H ) :   0.9710
B(  4-C , 14-H ) :   0.9873 B(  5-C ,  6-O ) :   0.9586 B(  5-C , 15-H ) :   0.9826
B(  5-C , 16-H ) :   0.9915 B(  6-O , 17-H ) :   0.8938

Dispersion correction           -0.004348320
FINAL SINGLE POINT ENERGY      -272.898163121991

DIPOLE MOMENT
-------------

Method             : SCF
Type of density    : Electron Density
Multiplicity       :   1
Irrep              :   0
Energy             :  -272.9037704080490130 Eh
Relativity type    :
Basis              : AO
                                X                 Y                 Z
Electronic contribution:      5.549244639       0.634506286       0.559807857
Nuclear contribution   :     -6.058204676      -0.980258105      -0.762262689
                        -----------------------------------------
Total Dipole Moment    :     -0.508960037      -0.345751820      -0.202454832
                        -----------------------------------------
Magnitude (a.u.)       :      0.647744239
Magnitude (Debye)      :      1.646435011

Rotational constants in cm-1:             0.224025             0.063151             0.054233
Rotational constants in MHz :          6716.111531          1893.225869          1625.857312

                             ****ORCA TERMINATED NORMALLY****
TOTAL RUN TIME: 0 days 0 hours 0 minutes 23 seconds 721 msec
