                         Program Version 6.0.0  -   RELEASE  -
|  1> ! r2scan-3c def2/J RI DEFGRID2 scfconv6 printgap
|  2> %output
|  3>     printlevel normal
|  4> end
|  5> %cpcm
|  6>     smd true
|  7>     smdsolvent "water"
|  8> end
|  9> * xyz 0 1
| 10> C -2.5139151552 0.6579262713 0.1540861265
| 11> C -1.1614218904 0.7196426627 -0.5476428097
| 12> C -0.0460244155 -0.0056332256 0.2139321981
| 13> H -0.0216335897 0.3656788165 1.2445025952
| 14> C -0.2693031108 -1.5169181508 0.2363527193
| 15> C 1.3078254355 0.3325176602 -0.4305326834
| 16> O 2.4232624112 -0.0750377134 0.3321364882
| 17> H -2.8911906724 -0.3598758144 0.1965961639
| 18> H -2.432591214 1.0398601137 1.1691124125
| 19> H -3.2392354185 1.2638144459 -0.3831894852
| 20> H -0.8774926646 1.7680149456 -0.6646517644
| 21> H -1.2488415654 0.2887284036 -1.5473798337
| 22> H -1.2184979996 -1.7551877694 0.7066938728
| 23> H 0.5118624422 -2.0161054441 0.8048346541
| 24> H -0.2750918449 -1.9132512203 -0.7772551507
| 25> H 1.4128418023 1.4168075889 -0.5214724446
| 26> H 1.3568946381 -0.102255272 -1.4384681944
| 27> H 2.4271295185 -1.0399108153 0.3929181805
| 28> *
| 29>
| 30>                          ****END OF INPUT****

CARTESIAN COORDINATES (ANGSTROEM)
---------------------------------
  C     -2.513915    0.657926    0.154086
  C     -1.161422    0.719643   -0.547643
  C     -0.046024   -0.005633    0.213932
  H     -0.021634    0.365679    1.244503
  C     -0.269303   -1.516918    0.236353
  C      1.307825    0.332518   -0.430533
  O      2.423262   -0.075038    0.332136
  H     -2.891191   -0.359876    0.196596
  H     -2.432591    1.039860    1.169112
  H     -3.239235    1.263814   -0.383189
  H     -0.877493    1.768015   -0.664652
  H     -1.248842    0.288728   -1.547380
  H     -1.218498   -1.755188    0.706694
  H      0.511862   -2.016105    0.804835
  H     -0.275092   -1.913251   -0.777255
  H      1.412842    1.416808   -0.521472
  H      1.356895   -0.102255   -1.438468
  H      2.427130   -1.039911    0.392918

 Total Charge           Charge          ....    0
 Multiplicity           Mult            ....    1
 Number of Electrons    NEL             ....   50
 Basis Dimension        Dim             ....  179

ORBITAL ENERGIES
----------------

  NO   OCC          E(Eh)            E(eV)
   0   2.0000     -18.950153      -515.6599
   1   2.0000     -10.064600      -273.8717
   2   2.0000     -10.024041      -272.7680
   3   2.0000     -10.016932      -272.5746
   4   2.0000     -10.008409      -272.3426
   5   2.0000     -10.008066      -272.3333
   6   2.0000      -0.985904       -26.8278
   7   2.0000      -0.767436       -20.8830
   8   2.0000      -0.688549       -18.7364
   9   2.0000      -0.642072       -17.4717
  10   2.0000      -0.582400       -15.8479
  11   2.0000      -0.523059       -14.2332
  12   2.0000      -0.474586       -12.9141
  13   2.0000      -0.425075       -11.5669
  14   2.0000      -0.414643       -11.2830
  15   2.0000      -0.393440       -10.7061
  16   2.0000      -0.376491       -10.2448
  17   2.0000      -0.352832        -9.6011
  18   2.0000      -0.339571        -9.2402
  19   2.0000      -0.327038        -8.8992
  20   2.0000      -0.312949        -8.5158
  21   2.0000      -0.292777        -7.9669
  22   2.0000      -0.284608        -7.7446
  23   2.0000      -0.280130        -7.6227
  24   2.0000      -0.235049        -6.3960
  25   0.0000       0.072111         1.9622
  26   0.0000       0.104203         2.8355
  27   0.0000       0.123121         3.3503
  28   0.0000       0.131813         3.5868
  29   0.0000       0.139010         3.7826

MULLIKEN ATOMIC CHARGES
-----------------------
   0 C :   -0.538986
   1 C :   -0.250166
   2 C :   -0.018369
   3 H :    0.155067
   4 C :   -0.558952
   5 C :   -0.194522
   6 O :   -0.507016
   7 H :    0.159671
   8 H :    0.157252
   9 H :    0.157041
  10 H :    0.150172
  11 H :    0.150352
  12 H :    0.164850
  13 H :    0.154960
  14 H :    0.167701
  15 H :    0.152670
  16 H :    0.147574
  17 H :    0.350700
Sum of atomic charges:   -0.0000000

LOEWDIN ATOMIC CHARGES
----------------------
   0 C :   -0.429527
   1 C :   -0.309608
   2 C :   -0.231055
   3 H :    0.163896
   4 C :   -0.421287
   5 C :    0.002771
   6 O :   -0.656462
   7 H :    0.152444
   8 H :    0.153584
   9 H :    0.153306
  10 H :    0.158291
  11 H :    0.158728
  12 H :    0.159146
  13 H :    0.156316
  14 H :    0.159481
  15 H :    0.181063
  16 H :    0.166172
  17 H :    0.282740

  Mayer bond orders larger than 0.100000
B(  0-C ,  1-C ) :   0.8861 B(  0-C ,  7-H ) :   0.9805 B(  0-C ,  8-H ) :   0.9856
B(  0-C ,  9-H ) :   0.9696 B(  1-C ,  2-C ) :   0.9015 B(  1-C , 10-H ) :   0.9689
B(  1-C , 11-H ) :   0.9645 B(  2-C ,  3-H ) :   0.9645 B(  2-C ,  4-C ) :   0.8830
B(  2-C ,  5-C ) :   0.8966 B(  4-C , 12-H ) :   0.9712 B(  4-C , 13-H ) :   0.9642
B(  4-C , 14-H ) :   0.9829 B(  5-C ,  6-O ) :   0.9426 B(  5-C , 15-H ) :   0.9793
B(  5-C , 16-H ) :   0.9808 B(  6-O , 17-H ) :   0.8664

Dispersion correction           -0.004348320
FINAL SINGLE POINT ENERGY      -272.904566324574

DIPOLE MOMENT
-------------

Method             : SCF
Type of density    : Electron Density
Multiplicity       :   1
Irrep              :   0
Energy             :  -272.9101736106316594 Eh
Relativity type    :
Basis              : AO
                                X                 Y                 Z
Electronic contribution:      5.411551192       0.463408190       0.451072699
Nuclear contribution   :     -6.058204676      -0.980258105      -0.762262689
                        -----------------------------------------
Total Dipole Moment    :     -0.646653483      -0.516849915      -0.311189990
                        -----------------------------------------
Magnitude (a.u.)       :      0.884383272
Magnitude (Debye)      :      2.247923633

Rotational constants in cm-1:             0.224025             0.063151             0.054233
Rotational constants in MHz :          6716.111531          1893.225869          1625.857312

                             ****ORCA TERMINATED NORMALLY****
TOTAL RUN TIME: 0 days 0 hours 0 minutes 27 seconds 84 msec
