                         Program Version 6.0.0  -   RELEASE  -
|  1> ! r2scan-3c def2/J RI DEFGRID2 scfconv6 printgap
|  2> %output
|  3>     printlevel normal
|  4> end
|  5> * xyz 0 1
|  6> C -2.5347901264 0.1377682152 -0.4898317474
|  7> C -2.0537943624 -1.1235602527 -0.1817662439
|  8> C -0.7741677967 -1.2734135858 0.3233467719
|  9> C 0.0389444688 -0.166437436 0.5328252163
| 10> C -0.4516052369 1.0944227258 0.219084538
| 11> C -1.7292967695 1.2463310762 -0.2901135658
| 12> C 1.4428801648 -0.3359434834 1.0399224765
| 13> C 2.4304453056 -0.4638603768 -0.1259028618
| 14> O 2.517743108 0.7785350199 -0.7933085176
| 15> H -3.532974755 0.2561810126 -0.8844021806
| 16> H -2.6766670276 -1.9924053983 -0.3359737575
| 17> H -0.4024179826 -2.2601676159 0.5607055425
| 18> H 0.1803333435 1.9576618197 0.3658531135
| 19> H -2.0980389244 2.2325539808 -0.5307953011
| 20> H 1.7338965008 0.5308606842 1.6344386863
| 21> H 1.5181433292 -1.2338666579 1.6536483483
| 22> H 3.4165483596 -0.7510074989 0.2655116037
| 23> H 2.0811379533 -1.2455312436 -0.8137856072
| 24> H 3.0880840292 0.6900207825 -1.5675646897
| 25> *
| 26>
| 27>                          ****END OF INPUT****

CARTESIAN COORDINATES (ANGSTROEM)
---------------------------------
  C     -2.534790    0.137768   -0.489832
  C     -2.053794   -1.123560   -0.181766
  C     -0.774168   -1.273414    0.323347
  C      0.038944   -0.166437    0.532825
  C     -0.451605    1.094423    0.219085
  C     -1.729297    1.246331   -0.290114
  C      1.442880   -0.335943    1.039922
  C      2.430445   -0.463860   -0.125903
  O      2.517743    0.778535   -0.793309
  H     -3.532975    0.256181   -0.884402
  H     -2.676667   -1.992405   -0.335974
  H     -0.402418   -2.260168    0.560706
  H      0.180333    1.957662    0.365853
  H     -2.098039    2.232554   -0.530795
  H      1.733897    0.530861    1.634439
  H      1.518143   -1.233867    1.653648
  H      3.416548   -0.751007    0.265512
  H      2.081138   -1.245531   -0.813786
  H      3.088084    0.690021   -1.567565

 Total Charge           Charge          ....    0
 Multiplicity           Mult            ....    1
 Number of Electrons    NEL             ....   66
 Basis Dimension        Dim             ....  226

ORBITAL ENERGIES
----------------

  NO   OCC          E(Eh)            E(eV)
   0   2.0000     -18.951058      -515.6845
   1   2.0000     -10.081183      -274.3229
   2   2.0000     -10.035981      -273.0929
   3   2.0000     -10.034505      -273.0528
   4   2.0000     -10.028822      -272.8981
   5   2.0000     -10.027485      -272.8617
   6   2.0000     -10.027440      -272.8605
   7   2.0000     -10.026704      -272.8405
   8   2.0000     -10.023959      -272.7658
   9   2.0000      -0.987893       -26.8819
  10   2.0000      -0.823715       -22.4144
  11   2.0000      -0.751583       -20.4516
  12   2.0000      -0.709552       -19.3079
  13   2.0000      -0.684118       -18.6158
  14   2.0000      -0.594824       -16.1860
  15   2.0000      -0.570714       -15.5299
  16   2.0000      -0.542308       -14.7570
  17   2.0000      -0.490374       -13.3438
  18   2.0000      -0.477962       -13.0060
  19   2.0000      -0.436366       -11.8741
  20   2.0000      -0.421296       -11.4641
  21   2.0000      -0.409954       -11.1554
  22   2.0000      -0.384583       -10.4650
  23   2.0000      -0.382272       -10.4021
  24   2.0000      -0.360954        -9.8221
  25   2.0000      -0.349031        -9.4976
  26   2.0000      -0.332874        -9.0580
  27   2.0000      -0.311025        -8.4634
  28   2.0000      -0.301924        -8.2158
  29   2.0000      -0.294286        -8.0079
  30   2.0000      -0.241071        -6.5599
  31   2.0000      -0.228961        -6.2303
  32   2.0000      -0.222082        -6.0432
  33   0.0000      -0.025877        -0.7041
  34   0.0000      -0.023710        -0.6452
  35   0.0000       0.060667         1.6508
  36   0.0000       0.086184         2.3452
  37   0.0000       0.102967         2.8019

MULLIKEN ATOMIC CHARGES
-----------------------
   0 C :   -0.149327
   1 C :   -0.162984
   2 C :   -0.232586
   3 C :    0.187612
   4 C :   -0.187918
   5 C :   -0.170818
   6 C :   -0.335834
   7 C :   -0.135444
   8 O :   -0.411591
   9 H :    0.145298
  10 H :    0.143930
  11 H :    0.146101
  12 H :    0.159051
  13 H :    0.144452
  14 H :    0.162714
  15 H :    0.150391
  16 H :    0.124061
  17 H :    0.129632
  18 H :    0.293258
Sum of atomic charges:    0.0000000

LOEWDIN ATOMIC CHARGES
----------------------
   0 C :   -0.173805
   1 C :   -0.165466
   2 C :   -0.166851
   3 C :   -0.092132
   4 C :   -0.148789
   5 C :   -0.162732
   6 C :   -0.255531
   7 C :    0.020211
   8 O :   -0.621701
   9 H :    0.165596
  10 H :    0.165661
  11 H :    0.167178
  12 H :    0.174987
  13 H :    0.166202
  14 H :    0.175287
  15 H :    0.169316
  16 H :    0.154702
  17 H :    0.160275
  18 H :    0.267592

  Mayer bond orders larger than 0.100000
B(  0-C ,  1-C ) :   1.4325 B(  0-C ,  5-C ) :   1.4222 B(  0-C ,  9-H ) :   0.9473
B(  1-C ,  2-C ) :   1.4453 B(  1-C , 10-H ) :   0.9467 B(  2-C ,  3-C ) :   1.3938
B(  2-C , 11-H ) :   0.9438 B(  3-C ,  4-C ) :   1.4277 B(  3-C ,  6-C ) :   0.8144
B(  4-C ,  5-C ) :   1.4429 B(  4-C , 12-H ) :   0.9363 B(  5-C , 13-H ) :   0.9507
B(  6-C ,  7-C ) :   0.9698 B(  6-C , 14-H ) :   0.9925 B(  6-C , 15-H ) :   0.9857
B(  7-C ,  8-O ) :   0.9393 B(  7-C , 16-H ) :   0.9594 B(  7-C , 17-H ) :   0.9690
B(  8-O , 18-H ) :   0.9005

Dispersion correction           -0.006155902
FINAL SINGLE POINT ENERGY      -385.988970249363

DIPOLE MOMENT
-------------

Method             : SCF
Type of density    : Electron Density
Multiplicity       :   1
Irrep              :   0
Energy             :  -385.9898543844769279 Eh
Relativity type    :
Basis              : AO
                                X                 Y                 Z
Electronic contribution:     -2.668815057       1.278513825      -0.522159891
Nuclear contribution   :      3.140817310      -1.691895141       0.314384113
                        -----------------------------------------
Total Dipole Moment    :      0.472002253      -0.413381315      -0.207775779
                        -----------------------------------------
Magnitude (a.u.)       :      0.660939493
Magnitude (Debye)      :      1.679974681

Rotational constants in cm-1:             0.114787             0.036439             0.031324
Rotational constants in MHz :          3441.232732          1092.410625           939.073880

                             ****ORCA TERMINATED NORMALLY****
TOTAL RUN TIME: 0 days 0 hours 0 minutes 25 seconds 716 msec
