                         Program Version 6.0.0  -   RELEASE  -
|  1> ! r2scan-3c def2/J RI DEFGRID2 scfconv6 printgap
|  2> %output
|  3>     printlevel normal
|  4> end
|  5> %cpcm
|  6>     smd true
|  7>     smdsolvent "water"
|  8> end
|  9> * xyz 0 1
| 10> C -2.5347901264 0.1377682152 -0.4898317474
| 11> C -2.0537943624 -1.1235602527 -0.1817662439
| 12> C -0.7741677967 -1.2734135858 0.3233467719
| 13> C 0.0389444688 -0.166437436 0.5328252163
| 14> C -0.4516052369 1.0944227258 0.219084538
| 15> C -1.7292967695 1.2463310762 -0.2901135658
| 16> C 1.4428801648 -0.3359434834 1.0399224765
| 17> C 2.4304453056 -0.4638603768 -0.1259028618
| 18> O 2.517743108 0.7785350199 -0.7933085176
| 19> H -3.532974755 0.2561810126 -0.8844021806
| 20> H -2.6766670276 -1.9924053983 -0.3359737575
| 21> H -0.4024179826 -2.2601676159 0.5607055425
| 22> H 0.1803333435 1.9576618197 0.3658531135
| 23> H -2.0980389244 2.2325539808 -0.5307953011
| 24> H 1.7338965008 0.5308606842 1.6344386863
| 25> H 1.5181433292 -1.2338666579 1.6536483483
| 26> H 3.4165483596 -0.7510074989 0.2655116037
| 27> H 2.0811379533 -1.2455312436 -0.8137856072
| 28> H 3.0880840292 0.6900207825 -1.5675646897
| 29> *
| 30>
| 31>                          ****END OF INPUT****

CARTESIAN COORDINATES (ANGSTROEM)
---------------------------------
  C     -2.534790    0.137768   -0.489832
  C     -2.053794   -1.123560   -0.181766
  C     -0.774168   -1.273414    0.323347
  C      0.038944   -0.166437    0.532825
  C     -0.451605    1.094423    0.219085
  C     -1.729297    1.246331   -0.290114
  C      1.442880   -0.335943    1.039922
  C      2.430445   -0.463860   -0.125903
  O      2.517743    0.778535   -0.793309
  H     -3.532975    0.256181   -0.884402
  H     -2.676667   -1.992405   -0.335974
  H     -0.402418   -2.260168    0.560706
  H      0.180333    1.957662    0.365853
  H     -2.098039    2.232554   -0.530795
  H      1.733897    0.530861    1.634439
  H      1.518143   -1.233867    1.653648
  H      3.416548   -0.751007    0.265512
  H      2.081138   -1.245531   -0.813786
  H      3.088084    0.690021   -1.567565

 Total Charge           Charge          ....    0
 Multiplicity           Mult            ....    1
 Number of Electrons    NEL             ....   66
 Basis Dimension        Dim             ....  226

ORBITAL ENERGIES
----------------

  NO   OCC          E(Eh)            E(eV)
   0   2.0000     -18.951792      -515.7045
   1   2.0000     -10.073759      -274.1209
   2   2.0000     -10.039210      -273.1808
   3   2.0000     -10.031031      -272.9582
   4   2.0000     -10.030976      -272.9567
   5   2.0000     -10.029252      -272.9098
   6   2.0000     -10.028659      -272.8937
   7   2.0000     -10.028238      -272.8822
   8   2.0000     -10.027770      -272.8695
   9   2.0000      -0.987592       -26.8737
  10   2.0000      -0.828107       -22.5339
  11   2.0000      -0.750641       -20.4260
  12   2.0000      -0.713335       -19.4108
  13   2.0000      -0.683229       -18.5916
  14   2.0000      -0.591815       -16.1041
  15   2.0000      -0.572618       -15.5817
  16   2.0000      -0.541884       -14.7454
  17   2.0000      -0.485833       -13.2202
  18   2.0000      -0.477309       -12.9882
  19   2.0000      -0.433240       -11.7891
  20   2.0000      -0.422255       -11.4901
  21   2.0000      -0.409177       -11.1343
  22   2.0000      -0.385043       -10.4776
  23   2.0000      -0.382474       -10.4077
  24   2.0000      -0.358783        -9.7630
  25   2.0000      -0.346010        -9.4154
  26   2.0000      -0.338087        -9.1998
  27   2.0000      -0.311041        -8.4639
  28   2.0000      -0.301868        -8.2143
  29   2.0000      -0.294328        -8.0091
  30   2.0000      -0.244459        -6.6521
  31   2.0000      -0.234980        -6.3941
  32   2.0000      -0.227817        -6.1992
  33   0.0000      -0.031620        -0.8604
  34   0.0000      -0.029343        -0.7985
  35   0.0000       0.076272         2.0755
  36   0.0000       0.094909         2.5826
  37   0.0000       0.106622         2.9013

MULLIKEN ATOMIC CHARGES
-----------------------
   0 C :   -0.182967
   1 C :   -0.199676
   2 C :   -0.237664
   3 C :    0.146175
   4 C :   -0.241253
   5 C :   -0.207468
   6 C :   -0.307978
   7 C :   -0.156691
   8 O :   -0.492172
   9 H :    0.178316
  10 H :    0.176613
  11 H :    0.179434
  12 H :    0.181570
  13 H :    0.176606
  14 H :    0.174264
  15 H :    0.173271
  16 H :    0.145095
  17 H :    0.147802
  18 H :    0.346723
Sum of atomic charges:    0.0000000

LOEWDIN ATOMIC CHARGES
----------------------
   0 C :   -0.186665
   1 C :   -0.174712
   2 C :   -0.170648
   3 C :   -0.100112
   4 C :   -0.171880
   5 C :   -0.175006
   6 C :   -0.256845
   7 C :    0.025052
   8 O :   -0.655469
   9 H :    0.176302
  10 H :    0.176810
  11 H :    0.180099
  12 H :    0.180580
  13 H :    0.176809
  14 H :    0.177942
  15 H :    0.179430
  16 H :    0.164843
  17 H :    0.167377
  18 H :    0.286094

  Mayer bond orders larger than 0.100000
B(  0-C ,  1-C ) :   1.3886 B(  0-C ,  5-C ) :   1.3870 B(  0-C ,  9-H ) :   0.9545
B(  1-C ,  2-C ) :   1.4078 B(  1-C , 10-H ) :   0.9576 B(  2-C ,  3-C ) :   1.3814
B(  2-C , 11-H ) :   0.9521 B(  3-C ,  4-C ) :   1.3717 B(  3-C ,  6-C ) :   0.8131
B(  4-C ,  5-C ) :   1.4090 B(  4-C , 12-H ) :   0.9512 B(  5-C , 13-H ) :   0.9590
B(  6-C ,  7-C ) :   0.9535 B(  6-C , 14-H ) :   0.9903 B(  6-C , 15-H ) :   0.9729
B(  7-C ,  8-O ) :   0.9219 B(  7-C , 16-H ) :   0.9607 B(  7-C , 17-H ) :   0.9710
B(  8-O , 18-H ) :   0.8739

Dispersion correction           -0.006155902
FINAL SINGLE POINT ENERGY      -385.999293757421

DIPOLE MOMENT
-------------

Method             : SCF
Type of density    : Electron Density
Multiplicity       :   1
Irrep              :   0
Energy             :  -386.0001778925347367 Eh
Relativity type    :
Basis              : AO
                                X                 Y                 Z
Electronic contribution:     -2.504016485       0.973331285      -0.534419466
Nuclear contribution   :      3.140817310      -1.691895141       0.314384113
                        -----------------------------------------
Total Dipole Moment    :      0.636800825      -0.718563856      -0.220035353
                        -----------------------------------------
Magnitude (a.u.)       :      0.985020235
Magnitude (Debye)      :      2.503722462

Rotational constants in cm-1:             0.114787             0.036439             0.031324
Rotational constants in MHz :          3441.232732          1092.410625           939.073880

                             ****ORCA TERMINATED NORMALLY****
TOTAL RUN TIME: 0 days 0 hours 0 minutes 30 seconds 146 msec
