                         Program Version 6.0.0  -   RELEASE  -
|  1> ! pbe def2-sv(p) def2/J RI DEFGRID1 loosescf d4 GCP(DFT/SV(P)) printgap
|  2> %output
|  3>     printlevel normal
|  4> end
|  5> * xyz 0 1
|  6> C 2.4400586299 0.9433217058 -0.1485061762
|  7> C 1.1730977217 0.2272599822 0.3131316806
|  8> C 1.3987722609 -1.2820686871 0.3561740176
|  9> C 0.0096226005 0.5649900367 -0.6343328022
| 10> C -1.3081905299 -0.0152519736 -0.1884287858
| 11> O -1.9369555401 -0.7906389135 -0.884520562
| 12> C -1.8005559895 0.4198919813 1.1613731176
| 13> H 2.296537981 2.0208200559 -0.1477708929
| 14> H 3.2681397686 0.7061235938 0.5144845061
| 15> H 2.7075158655 0.6316920118 -1.1555121316
| 16> H 0.9247790906 0.5783807911 1.3185863558
| 17> H 2.190439186 -1.5296608351 1.05896672
| 18> H 1.6848722322 -1.6491116122 -0.627199558
| 19> H 0.4923369338 -1.8036984009 0.6573597678
| 20> H 0.2325478188 0.1886839796 -1.6349569627
| 21> H -0.104061907 1.6494466736 -0.6873665885
| 22> H -2.8670067909 0.2289614294 1.2456977165
| 23> H -1.2882888784 -0.1664736013 1.9221122697
| 24> H -1.5852075768 1.4690666075 1.3349957
| 25> *
| 26>
| 27>                          ****END OF INPUT****

CARTESIAN COORDINATES (ANGSTROEM)
---------------------------------
  C      2.440059    0.943322   -0.148506
  C      1.173098    0.227260    0.313132
  C      1.398772   -1.282069    0.356174
  C      0.009623    0.564990   -0.634333
  C     -1.308191   -0.015252   -0.188429
  O     -1.936956   -0.790639   -0.884521
  C     -1.800556    0.419892    1.161373
  H      2.296538    2.020820   -0.147771
  H      3.268140    0.706124    0.514485
  H      2.707516    0.631692   -1.155512
  H      0.924779    0.578381    1.318586
  H      2.190439   -1.529661    1.058967
  H      1.684872   -1.649112   -0.627200
  H      0.492337   -1.803698    0.657360
  H      0.232548    0.188684   -1.634957
  H     -0.104062    1.649447   -0.687367
  H     -2.867007    0.228961    1.245698
  H     -1.288289   -0.166474    1.922112
  H     -1.585208    1.469067    1.334996

 Total Charge           Charge          ....    0
 Multiplicity           Mult            ....    1
 Number of Electrons    NEL             ....   56
 Basis Dimension        Dim             ....  122

ORBITAL ENERGIES
----------------

  NO   OCC          E(Eh)            E(eV)
   0   2.0000     -18.732785      -509.7450
   1   2.0000      -9.970783      -271.3188
   2   2.0000      -9.910550      -269.6798
   3   2.0000      -9.889598      -269.1096
   4   2.0000      -9.886114      -269.0148
   5   2.0000      -9.881013      -268.8760
   6   2.0000      -9.879584      -268.8371
   7   2.0000      -0.930034       -25.3075
   8   2.0000      -0.744191       -20.2505
   9   2.0000      -0.677961       -18.4483
  10   2.0000      -0.627274       -17.0690
  11   2.0000      -0.618837       -16.8394
  12   2.0000      -0.516887       -14.0652
  13   2.0000      -0.471656       -12.8344
  14   2.0000      -0.429766       -11.6945
  15   2.0000      -0.416704       -11.3391
  16   2.0000      -0.408735       -11.1222
  17   2.0000      -0.388002       -10.5581
  18   2.0000      -0.375322       -10.2130
  19   2.0000      -0.359981        -9.7956
  20   2.0000      -0.347198        -9.4477
  21   2.0000      -0.332482        -9.0473
  22   2.0000      -0.330672        -8.9980
  23   2.0000      -0.318420        -8.6646
  24   2.0000      -0.303284        -8.2528
  25   2.0000      -0.295480        -8.0404
  26   2.0000      -0.288935        -7.8623
  27   2.0000      -0.190359        -5.1799
  28   0.0000      -0.048341        -1.3154
  29   0.0000       0.023337         0.6350
  30   0.0000       0.056170         1.5285
  31   0.0000       0.071545         1.9468
  32   0.0000       0.074125         2.0171

MULLIKEN ATOMIC CHARGES
-----------------------
   0 C :   -0.224286
   1 C :   -0.237972
   2 C :   -0.246945
   3 C :   -0.094197
   4 C :   -0.022165
   5 O :   -0.167457
   6 C :   -0.260434
   7 H :    0.097785
   8 H :    0.102672
   9 H :    0.097721
  10 H :    0.081629
  11 H :    0.103167
  12 H :    0.101727
  13 H :    0.118291
  14 H :    0.083184
  15 H :    0.099403
  16 H :    0.120448
  17 H :    0.133640
  18 H :    0.113788
Sum of atomic charges:   -0.0000000

LOEWDIN ATOMIC CHARGES
----------------------
   0 C :   -0.326938
   1 C :   -0.154490
   2 C :   -0.329741
   3 C :   -0.237995
   4 C :    0.037996
   5 O :   -0.132903
   6 C :   -0.363978
   7 H :    0.117409
   8 H :    0.119540
   9 H :    0.119387
  10 H :    0.114589
  11 H :    0.119918
  12 H :    0.122296
  13 H :    0.120458
  14 H :    0.126756
  15 H :    0.131847
  16 H :    0.137181
  17 H :    0.146157
  18 H :    0.132510

  Mayer bond orders larger than 0.100000
B(  0-C ,  1-C ) :   1.1155 B(  0-C ,  7-H ) :   0.9495 B(  0-C ,  8-H ) :   0.9510
B(  0-C ,  9-H ) :   0.9485 B(  1-C ,  2-C ) :   1.1068 B(  1-C ,  3-C ) :   1.0671
B(  1-C , 10-H ) :   0.8969 B(  2-C , 11-H ) :   0.9505 B(  2-C , 12-H ) :   0.9483
B(  2-C , 13-H ) :   0.9404 B(  3-C ,  4-C ) :   1.0189 B(  3-C , 14-H ) :   0.8944
B(  3-C , 15-H ) :   0.8911 B(  4-C ,  5-O ) :   2.1879 B(  4-C ,  6-C ) :   1.0499
B(  6-C , 16-H ) :   0.9306 B(  6-C , 17-H ) :   0.9160 B(  6-C , 18-H ) :   0.9318

Dispersion correction           -0.015117236
FINAL SINGLE POINT ENERGY      -310.355681864925

DIPOLE MOMENT
-------------

Method             : SCF
Type of density    : Electron Density
Multiplicity       :   1
Irrep              :   0
Energy             :  -310.4198644494918540 Eh
Relativity type    :
Basis              : AO
                                X                 Y                 Z
Electronic contribution:     -6.795278404      -1.567107409      -2.902200680
Nuclear contribution   :      7.432122344       2.168783675       3.551340550
                        -----------------------------------------
Total Dipole Moment    :      0.636843940       0.601676266       0.649139871
                        -----------------------------------------
Magnitude (a.u.)       :      1.090397682
Magnitude (Debye)      :      2.771570648

Rotational constants in cm-1:             0.145991             0.051184             0.049059
Rotational constants in MHz :          4376.688592          1534.452756          1470.753342

                             ****ORCA TERMINATED NORMALLY****
TOTAL RUN TIME: 0 days 0 hours 0 minutes 9 seconds 581 msec
