                         Program Version 6.0.0  -   RELEASE  -
|  1> ! pbe def2-sv(p) def2/J RI DEFGRID1 loosescf d4 GCP(DFT/SV(P)) printgap
|  2> %output
|  3>     printlevel normal
|  4> end
|  5> * xyz 0 1
|  6> C 2.310128221 -0.8623794174 -0.5149635232
|  7> C 1.2481159523 -0.0913882038 0.2639051184
|  8> C 1.5852398018 1.4008778904 0.3167153432
|  9> O 0.0104168524 -0.3432456365 -0.3858672478
| 10> C -1.1785603135 -0.0108772664 0.3303055055
| 11> C -1.9023944822 1.1449544178 -0.3616314686
| 12> C -2.0684094178 -1.2535799902 0.3873028832
| 13> H 3.2779726428 -0.7511664012 -0.0365036357
| 14> H 2.0464422441 -1.9153952486 -0.5550952259
| 15> H 2.3623043181 -0.4810112492 -1.5307723264
| 16> H 1.1954822472 -0.4835321013 1.294632936
| 17> H 1.5941446821 1.8091145405 -0.6908664437
| 18> H 2.5645350338 1.5382096177 0.7655264579
| 19> H 0.8527316193 1.9436830624 0.909469284
| 20> H -0.9119665928 0.2849305796 1.3553177175
| 21> H -1.2698504563 2.0277992908 -0.3957778018
| 22> H -2.1481161347 0.8576858384 -1.3804132918
| 23> H -2.8165896959 1.3838312596 0.173704247
| 24> H -1.5464081558 -2.0645547688 0.8889422448
| 25> H -2.3106617209 -1.5718074054 -0.6228463802
| 26> H -2.9853031392 -1.0331581919 0.9253868215
| 27> *
| 28>
| 29>                          ****END OF INPUT****

CARTESIAN COORDINATES (ANGSTROEM)
---------------------------------
  C      2.310128   -0.862379   -0.514964
  C      1.248116   -0.091388    0.263905
  C      1.585240    1.400878    0.316715
  O      0.010417   -0.343246   -0.385867
  C     -1.178560   -0.010877    0.330306
  C     -1.902394    1.144954   -0.361631
  C     -2.068409   -1.253580    0.387303
  H      3.277973   -0.751166   -0.036504
  H      2.046442   -1.915395   -0.555095
  H      2.362304   -0.481011   -1.530772
  H      1.195482   -0.483532    1.294633
  H      1.594145    1.809115   -0.690866
  H      2.564535    1.538210    0.765526
  H      0.852732    1.943683    0.909469
  H     -0.911967    0.284931    1.355318
  H     -1.269850    2.027799   -0.395778
  H     -2.148116    0.857686   -1.380413
  H     -2.816590    1.383831    0.173704
  H     -1.546408   -2.064555    0.888942
  H     -2.310662   -1.571807   -0.622846
  H     -2.985303   -1.033158    0.925387

 Total Charge           Charge          ....    0
 Multiplicity           Mult            ....    1
 Number of Electrons    NEL             ....   58
 Basis Dimension        Dim             ....  126

ORBITAL ENERGIES
----------------

  NO   OCC          E(Eh)            E(eV)
   0   2.0000     -18.738516      -509.9009
   1   2.0000      -9.936838      -270.3951
   2   2.0000      -9.936134      -270.3760
   3   2.0000      -9.872659      -268.6487
   4   2.0000      -9.870531      -268.5908
   5   2.0000      -9.869994      -268.5762
   6   2.0000      -9.869973      -268.5756
   7   2.0000      -0.921955       -25.0877
   8   2.0000      -0.716756       -19.5039
   9   2.0000      -0.669365       -18.2144
  10   2.0000      -0.615731       -16.7549
  11   2.0000      -0.609211       -16.5775
  12   2.0000      -0.534112       -14.5339
  13   2.0000      -0.503565       -13.7027
  14   2.0000      -0.447789       -12.1850
  15   2.0000      -0.413911       -11.2631
  16   2.0000      -0.396080       -10.7779
  17   2.0000      -0.380604       -10.3568
  18   2.0000      -0.363272        -9.8851
  19   2.0000      -0.356296        -9.6953
  20   2.0000      -0.341088        -9.2815
  21   2.0000      -0.339514        -9.2386
  22   2.0000      -0.326217        -8.8768
  23   2.0000      -0.323902        -8.8138
  24   2.0000      -0.313330        -8.5261
  25   2.0000      -0.296190        -8.0597
  26   2.0000      -0.287401        -7.8206
  27   2.0000      -0.251931        -6.8554
  28   2.0000      -0.195707        -5.3255
  29   0.0000       0.032466         0.8835
  30   0.0000       0.059436         1.6173
  31   0.0000       0.064542         1.7563
  32   0.0000       0.074768         2.0345
  33   0.0000       0.082705         2.2505

MULLIKEN ATOMIC CHARGES
-----------------------
   0 C :   -0.237309
   1 C :   -0.014130
   2 C :   -0.256458
   3 O :   -0.329218
   4 C :   -0.012316
   5 C :   -0.240402
   6 C :   -0.232620
   7 H :    0.095382
   8 H :    0.104627
   9 H :    0.101369
  10 H :    0.061327
  11 H :    0.101479
  12 H :    0.096367
  13 H :    0.108075
  14 H :    0.065661
  15 H :    0.100253
  16 H :    0.100988
  17 H :    0.093151
  18 H :    0.098747
  19 H :    0.101832
  20 H :    0.093196
Sum of atomic charges:   -0.0000000

LOEWDIN ATOMIC CHARGES
----------------------
   0 C :   -0.339769
   1 C :   -0.049332
   2 C :   -0.352207
   3 O :   -0.165929
   4 C :   -0.048310
   5 C :   -0.344982
   6 C :   -0.341763
   7 H :    0.121002
   8 H :    0.122156
   9 H :    0.122433
  10 H :    0.094394
  11 H :    0.121829
  12 H :    0.122096
  13 H :    0.117244
  14 H :    0.098868
  15 H :    0.118238
  16 H :    0.122628
  17 H :    0.120031
  18 H :    0.119352
  19 H :    0.122549
  20 H :    0.119469

  Mayer bond orders larger than 0.100000
B(  0-C ,  1-C ) :   1.1166 B(  0-C ,  7-H ) :   0.9461 B(  0-C ,  8-H ) :   0.9467
B(  0-C ,  9-H ) :   0.9471 B(  1-C ,  2-C ) :   1.1038 B(  1-C ,  3-O ) :   1.0163
B(  1-C , 10-H ) :   0.9014 B(  2-C , 11-H ) :   0.9400 B(  2-C , 12-H ) :   0.9406
B(  2-C , 13-H ) :   0.9396 B(  3-O ,  4-C ) :   0.9732 B(  4-C ,  5-C ) :   1.1205
B(  4-C ,  6-C ) :   1.1206 B(  4-C , 14-H ) :   0.8926 B(  5-C , 15-H ) :   0.9438
B(  5-C , 16-H ) :   0.9438 B(  5-C , 17-H ) :   0.9433 B(  6-C , 18-H ) :   0.9477
B(  6-C , 19-H ) :   0.9449 B(  6-C , 20-H ) :   0.9446

Dispersion correction           -0.015777699
FINAL SINGLE POINT ENERGY      -311.522706337133

DIPOLE MOMENT
-------------

Method             : SCF
Type of density    : Electron Density
Multiplicity       :   1
Irrep              :   0
Energy             :  -311.6009165578941520 Eh
Relativity type    :
Basis              : AO
                                X                 Y                 Z
Electronic contribution:      0.111940914      -1.273446894      -0.638018550
Nuclear contribution   :     -0.089236545       1.444020424       1.026914366
                        -----------------------------------------
Total Dipole Moment    :      0.022704369       0.170573530       0.388895817
                        -----------------------------------------
Magnitude (a.u.)       :      0.425265533
Magnitude (Debye)      :      1.080939082

Rotational constants in cm-1:             0.138538             0.053800             0.043532
Rotational constants in MHz :          4153.256180          1612.891434          1305.042835

                             ****ORCA TERMINATED NORMALLY****
TOTAL RUN TIME: 0 days 0 hours 0 minutes 7 seconds 558 msec
