                         Program Version 6.0.0  -   RELEASE  -
|  1> ! pbe def2-sv(p) def2/J RI DEFGRID1 loosescf d4 GCP(DFT/SV(P)) printgap
|  2> %output
|  3>     printlevel normal
|  4> end
|  5> * xyz 0 1
|  6> C -3.2429448963 -0.006441644 -0.9029071854
|  7> C -2.747031365 1.2649220453 -0.6706745256
|  8> C -1.5898416597 1.4341063099 0.0703569976
|  9> C -0.9230892014 0.3343224393 0.5915094632
| 10> C -1.4255283961 -0.9390209565 0.3534528678
| 11> C -2.5794180961 -1.1089169658 -0.3900970747
| 12> C 0.3596262201 0.5051942007 1.3709792318
| 13> N 1.4879557048 0.059435111 0.5861673162
| 14> C 2.1118494012 -1.1512350668 0.6601753559
| 15> C 3.0594770944 -1.1503394581 -0.3220441996
| 16> N 3.0248699816 0.029258004 -1.0004941839
| 17> C 2.0708584447 0.7232059585 -0.4341601972
| 18> H -4.1437631131 -0.1387440759 -1.4824490883
| 19> H -3.259930513 2.1269985997 -1.0692408491
| 20> H -1.2056716834 2.4280529033 0.2470561263
| 21> H -0.9091248053 -1.8009734263 0.7499076696
| 22> H -2.9616762149 -2.102374779 -0.5692549152
| 23> H 0.5061754528 1.5567884195 1.6286953576
| 24> H 0.3297043425 -0.0880842616 2.2877500607
| 25> H 1.8505776658 -1.8875724813 1.3911781105
| 26> H 3.763597374 -1.9140986489 -0.5845908247
| 27> H 1.7803648703 1.7100524289 -0.7331216611
| 28> *
| 29>
| 30>                          ****END OF INPUT****

CARTESIAN COORDINATES (ANGSTROEM)
---------------------------------
  C     -3.242945   -0.006442   -0.902907
  C     -2.747031    1.264922   -0.670675
  C     -1.589842    1.434106    0.070357
  C     -0.923089    0.334322    0.591509
  C     -1.425528   -0.939021    0.353453
  C     -2.579418   -1.108917   -0.390097
  C      0.359626    0.505194    1.370979
  N      1.487956    0.059435    0.586167
  C      2.111849   -1.151235    0.660175
  C      3.059477   -1.150339   -0.322044
  N      3.024870    0.029258   -1.000494
  C      2.070858    0.723206   -0.434160
  H     -4.143763   -0.138744   -1.482449
  H     -3.259931    2.126999   -1.069241
  H     -1.205672    2.428053    0.247056
  H     -0.909125   -1.800973    0.749908
  H     -2.961676   -2.102375   -0.569255
  H      0.506175    1.556788    1.628695
  H      0.329704   -0.088084    2.287750
  H      1.850578   -1.887572    1.391178
  H      3.763597   -1.914099   -0.584591
  H      1.780365    1.710052   -0.733122

 Total Charge           Charge          ....    0
 Multiplicity           Mult            ....    1
 Number of Electrons    NEL             ....   84
 Basis Dimension        Dim             ....  188

ORBITAL ENERGIES
----------------

  NO   OCC          E(Eh)            E(eV)
   0   2.0000     -14.056322      -382.4920
   1   2.0000     -13.956475      -379.7750
   2   2.0000      -9.948757      -270.7194
   3   2.0000      -9.924667      -270.0639
   4   2.0000      -9.915344      -269.8102
   5   2.0000      -9.908154      -269.6146
   6   2.0000      -9.904377      -269.5118
   7   2.0000      -9.904270      -269.5089
   8   2.0000      -9.903943      -269.5000
   9   2.0000      -9.903433      -269.4861
  10   2.0000      -9.903060      -269.4760
  11   2.0000      -9.890586      -269.1365
  12   2.0000      -0.935450       -25.4549
  13   2.0000      -0.811501       -22.0821
  14   2.0000      -0.784376       -21.3439
  15   2.0000      -0.706600       -19.2276
  16   2.0000      -0.682607       -18.5747
  17   2.0000      -0.666490       -18.1361
  18   2.0000      -0.635780       -17.3005
  19   2.0000      -0.559278       -15.2187
  20   2.0000      -0.546322       -14.8662
  21   2.0000      -0.535613       -14.5748
  22   2.0000      -0.512485       -13.9454
  23   2.0000      -0.491839       -13.3836
  24   2.0000      -0.473256       -12.8780
  25   2.0000      -0.432211       -11.7611
  26   2.0000      -0.425514       -11.5788
  27   2.0000      -0.403310       -10.9746
  28   2.0000      -0.397475       -10.8158
  29   2.0000      -0.387777       -10.5520
  30   2.0000      -0.384909       -10.4739
  31   2.0000      -0.365402        -9.9431
  32   2.0000      -0.360408        -9.8072
  33   2.0000      -0.351371        -9.5613
  34   2.0000      -0.340366        -9.2618
  35   2.0000      -0.316374        -8.6090
  36   2.0000      -0.311047        -8.4640
  37   2.0000      -0.245608        -6.6833
  38   2.0000      -0.241971        -6.5844
  39   2.0000      -0.232175        -6.3178
  40   2.0000      -0.207480        -5.6458
  41   2.0000      -0.197612        -5.3773
  42   0.0000      -0.051398        -1.3986
  43   0.0000      -0.046452        -1.2640
  44   0.0000      -0.002376        -0.0646
  45   0.0000       0.027952         0.7606
  46   0.0000       0.038969         1.0604

MULLIKEN ATOMIC CHARGES
-----------------------
   0 C :   -0.044225
   1 C :   -0.047203
   2 C :   -0.110607
   3 C :    0.052117
   4 C :   -0.097182
   5 C :   -0.045774
   6 C :    0.015569
   7 N :   -0.128191
   8 C :   -0.045376
   9 C :   -0.082246
  10 N :   -0.124715
  11 C :   -0.007027
  12 H :    0.059487
  13 H :    0.057526
  14 H :    0.043130
  15 H :    0.045968
  16 H :    0.058107
  17 H :    0.099957
  18 H :    0.107614
  19 H :    0.063670
  20 H :    0.060419
  21 H :    0.068981
Sum of atomic charges:   -0.0000000

LOEWDIN ATOMIC CHARGES
----------------------
   0 C :   -0.118916
   1 C :   -0.116719
   2 C :   -0.120804
   3 C :   -0.056023
   4 C :   -0.113128
   5 C :   -0.114898
   6 C :   -0.124314
   7 N :    0.057647
   8 C :   -0.157875
   9 C :   -0.148294
  10 N :   -0.114957
  11 C :   -0.109930
  12 H :    0.126427
  13 H :    0.126561
  14 H :    0.122389
  15 H :    0.123400
  16 H :    0.126861
  17 H :    0.129227
  18 H :    0.133956
  19 H :    0.120321
  20 H :    0.115195
  21 H :    0.113874

  Mayer bond orders larger than 0.100000
B(  0-C ,  1-C ) :   1.3891 B(  0-C ,  5-C ) :   1.3738 B(  0-C , 12-H ) :   0.9650
B(  1-C ,  2-C ) :   1.3705 B(  1-C , 13-H ) :   0.9631 B(  2-C ,  3-C ) :   1.3972
B(  2-C , 14-H ) :   0.9604 B(  3-C ,  4-C ) :   1.3837 B(  3-C ,  6-C ) :   1.0567
B(  4-C ,  5-C ) :   1.3881 B(  4-C , 15-H ) :   0.9582 B(  5-C , 16-H ) :   0.9639
B(  6-C ,  7-N ) :   0.9945 B(  6-C , 17-H ) :   0.9086 B(  6-C , 18-H ) :   0.9072
B(  7-N ,  8-C ) :   1.1888 B(  7-N , 11-C ) :   1.2114 B(  8-C ,  9-C ) :   1.4730
B(  8-C , 19-H ) :   0.9603 B(  9-C , 10-N ) :   1.4132 B(  9-C , 20-H ) :   0.9774
B( 10-N , 11-C ) :   1.6350 B( 11-C , 21-H ) :   0.9565

Dispersion correction           -0.025905183
FINAL SINGLE POINT ENERGY      -495.509323464141

DIPOLE MOMENT
-------------

Method             : SCF
Type of density    : Electron Density
Multiplicity       :   1
Irrep              :   0
Energy             :  -495.5710831747252314 Eh
Relativity type    :
Basis              : AO
                                X                 Y                 Z
Electronic contribution:      2.732688570       0.149975510      -0.834635839
Nuclear contribution   :     -3.962216640      -0.102670014       1.748286255
                        -----------------------------------------
Total Dipole Moment    :     -1.229528070       0.047305496       0.913650416
                        -----------------------------------------
Magnitude (a.u.)       :      1.532558047
Magnitude (Debye)      :      3.895452978

Rotational constants in cm-1:             0.076801             0.018776             0.017831
Rotational constants in MHz :          2302.445292           562.886257           534.555204

                             ****ORCA TERMINATED NORMALLY****
TOTAL RUN TIME: 0 days 0 hours 0 minutes 13 seconds 813 msec
