                         Program Version 6.0.0  -   RELEASE  -
|  1> ! pbe def2-sv(p) def2/J RI DEFGRID1 loosescf d4 GCP(DFT/SV(P)) printgap
|  2> %output
|  3>     printlevel normal
|  4> end
|  5> * xyz 0 1
|  6> C 2.2713216729 -1.1121021334 0.4815525735
|  7> C 1.4989014558 -0.2525171264 -0.5117126267
|  8> C 0.2907871265 0.4711577467 0.1086765629
|  9> H 0.3780584852 0.4363272503 1.2066201703
| 10> C -1.0615457233 -0.1547473334 -0.2928864555
| 11> C -1.1562555668 -1.6046684913 0.1759200684
| 12> C -2.2321283362 0.6437998012 0.2854085418
| 13> O 0.3830470999 1.8253543473 -0.3148273316
| 14> H 3.115647178 -1.5835327305 -0.015121733
| 15> H 1.6397783092 -1.8904374039 0.9008606145
| 16> H 2.6512954664 -0.5007090671 1.2966205271
| 17> H 2.1589704354 0.5246042328 -0.902602114
| 18> H 1.172709184 -0.8573937532 -1.3586086616
| 19> H -1.1257913272 -0.1237850329 -1.386413979
| 20> H -0.3907558213 -2.2218143048 -0.2840064606
| 21> H -1.0456789826 -1.6577701917 1.2569210885
| 22> H -2.1270136219 -2.0160000196 -0.0900081405
| 23> H -2.2805926928 1.6420435141 -0.1424195407
| 24> H -2.1412468875 0.7221331849 1.3673423992
| 25> H -3.1689724858 0.1412106547 0.0579409098
| 26> H -0.2821986906 2.3513464547 0.1474714991
| 27> *
| 28>
| 29>                          ****END OF INPUT****

CARTESIAN COORDINATES (ANGSTROEM)
---------------------------------
  C      2.271322   -1.112102    0.481553
  C      1.498901   -0.252517   -0.511713
  C      0.290787    0.471158    0.108677
  H      0.378058    0.436327    1.206620
  C     -1.061546   -0.154747   -0.292886
  C     -1.156256   -1.604668    0.175920
  C     -2.232128    0.643800    0.285409
  O      0.383047    1.825354   -0.314827
  H      3.115647   -1.583533   -0.015122
  H      1.639778   -1.890437    0.900861
  H      2.651295   -0.500709    1.296621
  H      2.158970    0.524604   -0.902602
  H      1.172709   -0.857394   -1.358609
  H     -1.125791   -0.123785   -1.386414
  H     -0.390756   -2.221814   -0.284006
  H     -1.045679   -1.657770    1.256921
  H     -2.127014   -2.016000   -0.090008
  H     -2.280593    1.642044   -0.142420
  H     -2.141247    0.722133    1.367342
  H     -3.168972    0.141211    0.057941
  H     -0.282199    2.351346    0.147471

 Total Charge           Charge          ....    0
 Multiplicity           Mult            ....    1
 Number of Electrons    NEL             ....   58
 Basis Dimension        Dim             ....  126

ORBITAL ENERGIES
----------------

  NO   OCC          E(Eh)            E(eV)
   0   2.0000     -18.735913      -509.8301
   1   2.0000      -9.930932      -270.2344
   2   2.0000      -9.892744      -269.1953
   3   2.0000      -9.878670      -268.8123
   4   2.0000      -9.876401      -268.7505
   5   2.0000      -9.875777      -268.7336
   6   2.0000      -9.872259      -268.6378
   7   2.0000      -0.913265       -24.8512
   8   2.0000      -0.726895       -19.7798
   9   2.0000      -0.685469       -18.6526
  10   2.0000      -0.613839       -16.7034
  11   2.0000      -0.599312       -16.3081
  12   2.0000      -0.528455       -14.3800
  13   2.0000      -0.501376       -13.6431
  14   2.0000      -0.462576       -12.5873
  15   2.0000      -0.415523       -11.3070
  16   2.0000      -0.401743       -10.9320
  17   2.0000      -0.384177       -10.4540
  18   2.0000      -0.368865       -10.0373
  19   2.0000      -0.354634        -9.6501
  20   2.0000      -0.341838        -9.3019
  21   2.0000      -0.333770        -9.0824
  22   2.0000      -0.315969        -8.5979
  23   2.0000      -0.309239        -8.4148
  24   2.0000      -0.293714        -7.9924
  25   2.0000      -0.291703        -7.9376
  26   2.0000      -0.283308        -7.7092
  27   2.0000      -0.261248        -7.1089
  28   2.0000      -0.207790        -5.6543
  29   0.0000       0.026943         0.7331
  30   0.0000       0.047288         1.2868
  31   0.0000       0.058292         1.5862
  32   0.0000       0.067194         1.8285
  33   0.0000       0.089371         2.4319

MULLIKEN ATOMIC CHARGES
-----------------------
   0 C :   -0.299419
   1 C :   -0.143804
   2 C :    0.052870
   3 H :    0.049292
   4 C :   -0.167610
   5 C :   -0.258167
   6 C :   -0.273539
   7 O :   -0.425411
   8 H :    0.102656
   9 H :    0.103327
  10 H :    0.106024
  11 H :    0.097129
  12 H :    0.086592
  13 H :    0.073172
  14 H :    0.113644
  15 H :    0.095529
  16 H :    0.099839
  17 H :    0.094830
  18 H :    0.094173
  19 H :    0.104711
  20 H :    0.294161
Sum of atomic charges:    0.0000000

LOEWDIN ATOMIC CHARGES
----------------------
   0 C :   -0.341698
   1 C :   -0.236341
   2 C :   -0.040678
   3 H :    0.091597
   4 C :   -0.169621
   5 C :   -0.330285
   6 C :   -0.339868
   7 O :   -0.329920
   8 H :    0.119808
   9 H :    0.114499
  10 H :    0.118844
  11 H :    0.127425
  12 H :    0.115433
  13 H :    0.117513
  14 H :    0.119371
  15 H :    0.116728
  16 H :    0.119495
  17 H :    0.111998
  18 H :    0.115935
  19 H :    0.122371
  20 H :    0.277396

  Mayer bond orders larger than 0.100000
B(  0-C ,  1-C ) :   1.1505 B(  0-C ,  8-H ) :   0.9508 B(  0-C ,  9-H ) :   0.9483
B(  0-C , 10-H ) :   0.9525 B(  1-C ,  2-C ) :   1.0495 B(  1-C , 11-H ) :   0.9125
B(  1-C , 12-H ) :   0.9196 B(  2-C ,  3-H ) :   0.9147 B(  2-C ,  4-C ) :   1.0262
B(  2-C ,  7-O ) :   1.0700 B(  4-C ,  5-C ) :   1.0932 B(  4-C ,  6-C ) :   1.1027
B(  4-C , 13-H ) :   0.8856 B(  5-C , 14-H ) :   0.9407 B(  5-C , 15-H ) :   0.9457
B(  5-C , 16-H ) :   0.9449 B(  6-C , 17-H ) :   0.9390 B(  6-C , 18-H ) :   0.9481
B(  6-C , 19-H ) :   0.9488 B(  7-O , 20-H ) :   0.8445

Dispersion correction           -0.016666153
FINAL SINGLE POINT ENERGY      -311.514905979829

DIPOLE MOMENT
-------------

Method             : SCF
Type of density    : Electron Density
Multiplicity       :   1
Irrep              :   0
Energy             :  -311.5947174900664436 Eh
Relativity type    :
Basis              : AO
                                X                 Y                 Z
Electronic contribution:      0.947550159       4.544760547      -1.600295975
Nuclear contribution   :     -1.350704121      -4.695416614       1.922875333
                        -----------------------------------------
Total Dipole Moment    :     -0.403153962      -0.150656067       0.322579359
                        -----------------------------------------
Magnitude (a.u.)       :      0.537854823
Magnitude (Debye)      :      1.367118312

Rotational constants in cm-1:             0.110194             0.064825             0.045187
Rotational constants in MHz :          3303.528443          1943.401001          1354.682331

                             ****ORCA TERMINATED NORMALLY****
TOTAL RUN TIME: 0 days 0 hours 0 minutes 9 seconds 144 msec
