                         Program Version 6.0.0  -   RELEASE  -
|  1> ! pbe def2-sv(p) def2/J RI DEFGRID1 loosescf d4 GCP(DFT/SV(P)) printgap
|  2> %output
|  3>     printlevel normal
|  4> end
|  5> * xyz 0 1
|  6> C 2.4754199414 0.8218140755 0.2860943881
|  7> C 1.5326219117 0.0051169966 -0.591130916
|  8> C 0.3900129514 -0.6390319047 0.2128779104
|  9> C -1.0081168518 -0.2752849901 -0.3018941342
| 10> C -1.3358794919 1.1884669532 -0.0148509719
| 11> C -2.0591313104 -1.1784844546 0.3415877784
| 12> H 2.9290424829 0.1917507445 1.0479537834
| 13> H 3.2702024081 1.2609223 -0.3128240543
| 14> H 1.9347557277 1.6252463965 0.7811520008
| 15> H 1.1191174798 0.6543219951 -1.3649123532
| 16> H 2.1078475563 -0.7698099494 -1.1011417301
| 17> H 0.496294394 -1.7251969272 0.1894375095
| 18> H 0.461172158 -0.3318689473 1.2583285496
| 19> H -1.0317074547 -0.4362800814 -1.3859933103
| 20> H -1.3532381889 1.3647542179 1.0586821726
| 21> H -2.3113813339 1.4469132952 -0.4204808746
| 22> H -0.5968082171 1.850040964 -0.4587711318
| 23> H -3.0536380984 -0.9207796077 -0.015052538
| 24> H -1.8688341086 -2.222213657 0.1023137835
| 25> H -2.0423723836 -1.0653964128 1.4235026727
| 26> *
| 27>
| 28>                          ****END OF INPUT****

CARTESIAN COORDINATES (ANGSTROEM)
---------------------------------
  C      2.475420    0.821814    0.286094
  C      1.532622    0.005117   -0.591131
  C      0.390013   -0.639032    0.212878
  C     -1.008117   -0.275285   -0.301894
  C     -1.335879    1.188467   -0.014851
  C     -2.059131   -1.178484    0.341588
  H      2.929042    0.191751    1.047954
  H      3.270202    1.260922   -0.312824
  H      1.934756    1.625246    0.781152
  H      1.119117    0.654322   -1.364912
  H      2.107848   -0.769810   -1.101142
  H      0.496294   -1.725197    0.189438
  H      0.461172   -0.331869    1.258329
  H     -1.031707   -0.436280   -1.385993
  H     -1.353238    1.364754    1.058682
  H     -2.311381    1.446913   -0.420481
  H     -0.596808    1.850041   -0.458771
  H     -3.053638   -0.920780   -0.015053
  H     -1.868834   -2.222214    0.102314
  H     -2.042372   -1.065396    1.423503

 Total Charge           Charge          ....    0
 Multiplicity           Mult            ....    1
 Number of Electrons    NEL             ....   50
 Basis Dimension        Dim             ....  112

ORBITAL ENERGIES
----------------

  NO   OCC          E(Eh)            E(eV)
   0   2.0000      -9.889655      -269.1112
   1   2.0000      -9.878295      -268.8021
   2   2.0000      -9.875232      -268.7187
   3   2.0000      -9.869577      -268.5649
   4   2.0000      -9.868901      -268.5465
   5   2.0000      -9.867781      -268.5160
   6   2.0000      -0.731954       -19.9175
   7   2.0000      -0.681332       -18.5400
   8   2.0000      -0.607229       -16.5235
   9   2.0000      -0.600194       -16.3321
  10   2.0000      -0.522801       -14.2261
  11   2.0000      -0.494145       -13.4464
  12   2.0000      -0.416424       -11.3315
  13   2.0000      -0.402263       -10.9461
  14   2.0000      -0.394834       -10.7440
  15   2.0000      -0.363198        -9.8831
  16   2.0000      -0.349452        -9.5091
  17   2.0000      -0.343604        -9.3499
  18   2.0000      -0.335081        -9.1180
  19   2.0000      -0.312870        -8.5136
  20   2.0000      -0.298352        -8.1186
  21   2.0000      -0.295876        -8.0512
  22   2.0000      -0.276701        -7.5294
  23   2.0000      -0.269657        -7.3377
  24   2.0000      -0.264616        -7.2006
  25   0.0000       0.035311         0.9609
  26   0.0000       0.058340         1.5875
  27   0.0000       0.065629         1.7858
  28   0.0000       0.069969         1.9039
  29   0.0000       0.097026         2.6402

MULLIKEN ATOMIC CHARGES
-----------------------
   0 C :   -0.297444
   1 C :   -0.164632
   2 C :   -0.131330
   3 C :   -0.202438
   4 C :   -0.249545
   5 C :   -0.236558
   6 H :    0.103405
   7 H :    0.099029
   8 H :    0.102538
   9 H :    0.090903
  10 H :    0.082472
  11 H :    0.076209
  12 H :    0.076036
  13 H :    0.074959
  14 H :    0.091147
  15 H :    0.098385
  16 H :    0.103557
  17 H :    0.095738
  18 H :    0.096409
  19 H :    0.091157
Sum of atomic charges:    0.0000000

LOEWDIN ATOMIC CHARGES
----------------------
   0 C :   -0.340960
   1 C :   -0.235813
   2 C :   -0.218771
   3 C :   -0.157600
   4 C :   -0.330563
   5 C :   -0.329285
   6 H :    0.116574
   7 H :    0.116440
   8 H :    0.115242
   9 H :    0.112994
  10 H :    0.116144
  11 H :    0.114503
  12 H :    0.112620
  13 H :    0.112559
  14 H :    0.115592
  15 H :    0.117274
  16 H :    0.116001
  17 H :    0.115775
  18 H :    0.115516
  19 H :    0.115759

  Mayer bond orders larger than 0.100000
B(  0-C ,  1-C ) :   1.1590 B(  0-C ,  6-H ) :   0.9548 B(  0-C ,  7-H ) :   0.9520
B(  0-C ,  8-H ) :   0.9545 B(  1-C ,  2-C ) :   1.0882 B(  1-C ,  9-H ) :   0.9304
B(  1-C , 10-H ) :   0.9279 B(  2-C ,  3-C ) :   1.0884 B(  2-C , 11-H ) :   0.9234
B(  2-C , 12-H ) :   0.9284 B(  3-C ,  4-C ) :   1.1070 B(  3-C ,  5-C ) :   1.1122
B(  3-C , 13-H ) :   0.9050 B(  4-C , 14-H ) :   0.9488 B(  4-C , 15-H ) :   0.9511
B(  4-C , 16-H ) :   0.9452 B(  5-C , 17-H ) :   0.9519 B(  5-C , 18-H ) :   0.9498
B(  5-C , 19-H ) :   0.9496

Dispersion correction           -0.014641937
FINAL SINGLE POINT ENERGY      -236.445837299972

DIPOLE MOMENT
-------------

Method             : SCF
Type of density    : Electron Density
Multiplicity       :   1
Irrep              :   0
Energy             :  -236.5138120488835511 Eh
Relativity type    :
Basis              : AO
                                X                 Y                 Z
Electronic contribution:     -0.049830280      -0.887942099      -0.802569619
Nuclear contribution   :      0.056714115       0.865363931       0.752587716
                        -----------------------------------------
Total Dipole Moment    :      0.006883835      -0.022578168      -0.049981903
                        -----------------------------------------
Magnitude (a.u.)       :      0.055275234
Magnitude (Debye)      :      0.140498480

Rotational constants in cm-1:             0.210825             0.061465             0.053620
Rotational constants in MHz :          6320.361214          1842.665910          1607.488695

                             ****ORCA TERMINATED NORMALLY****
TOTAL RUN TIME: 0 days 0 hours 0 minutes 8 seconds 235 msec
