                         Program Version 6.0.0  -   RELEASE  -
|  1> ! pbe def2-sv(p) def2/J RI DEFGRID1 loosescf d4 GCP(DFT/SV(P)) printgap
|  2> %output
|  3>     printlevel normal
|  4> end
|  5> * xyz 0 1
|  6> C -2.1564581057 -0.2430703887 -0.7176533968
|  7> C -1.5438571686 -0.1066897347 0.6715651643
|  8> C -0.2623406049 0.7264477825 0.6457217832
|  9> C 0.8925348768 -0.0045565929 0.0044107544
| 10> O 0.9017439122 -1.1863028651 -0.249997798
| 11> O 1.9710671822 0.7351255979 -0.2644870184
| 12> H -1.4567732315 -0.7368980159 -1.388424684
| 13> H -2.4044455868 0.7334219252 -1.1277468052
| 14> H -3.0640788675 -0.8387779241 -0.6739909617
| 15> H -2.2622861723 0.3660600885 1.3422993406
| 16> H -1.3106674166 -1.0992938241 1.0606770892
| 17> H -0.4382719753 1.661606136 0.1105156498
| 18> H 0.0420888634 0.9667908487 1.6678228985
| 19> H 1.8771827116 1.6744334518 -0.0224107819
| 20> *
| 21>
| 22>                          ****END OF INPUT****

CARTESIAN COORDINATES (ANGSTROEM)
---------------------------------
  C     -2.156458   -0.243070   -0.717653
  C     -1.543857   -0.106690    0.671565
  C     -0.262341    0.726448    0.645722
  C      0.892535   -0.004557    0.004411
  O      0.901744   -1.186303   -0.249998
  O      1.971067    0.735126   -0.264487
  H     -1.456773   -0.736898   -1.388425
  H     -2.404446    0.733422   -1.127747
  H     -3.064079   -0.838778   -0.673991
  H     -2.262286    0.366060    1.342299
  H     -1.310667   -1.099294    1.060677
  H     -0.438272    1.661606    0.110516
  H      0.042089    0.966791    1.667823
  H      1.877183    1.674433   -0.022411

 Total Charge           Charge          ....    0
 Multiplicity           Mult            ....    1
 Number of Electrons    NEL             ....   48
 Basis Dimension        Dim             ....  100

ORBITAL ENERGIES
----------------

  NO   OCC          E(Eh)            E(eV)
   0   2.0000     -18.804900      -511.7073
   1   2.0000     -18.730897      -509.6936
   2   2.0000     -10.012362      -272.4502
   3   2.0000      -9.908128      -269.6139
   4   2.0000      -9.892191      -269.1802
   5   2.0000      -9.873542      -268.6727
   6   2.0000      -1.004927       -27.3455
   7   2.0000      -0.914780       -24.8924
   8   2.0000      -0.725038       -19.7293
   9   2.0000      -0.640736       -17.4353
  10   2.0000      -0.574362       -15.6292
  11   2.0000      -0.538402       -14.6507
  12   2.0000      -0.461417       -12.5558
  13   2.0000      -0.435346       -11.8464
  14   2.0000      -0.401499       -10.9253
  15   2.0000      -0.387696       -10.5498
  16   2.0000      -0.372894       -10.1469
  17   2.0000      -0.354629        -9.6499
  18   2.0000      -0.330989        -9.0067
  19   2.0000      -0.307516        -8.3679
  20   2.0000      -0.301237        -8.1971
  21   2.0000      -0.297293        -8.0898
  22   2.0000      -0.270718        -7.3666
  23   2.0000      -0.219960        -5.9854
  24   0.0000      -0.023471        -0.6387
  25   0.0000       0.004017         0.1093
  26   0.0000       0.041441         1.1277
  27   0.0000       0.078237         2.1289
  28   0.0000       0.085008         2.3132

MULLIKEN ATOMIC CHARGES
-----------------------
   0 C :   -0.298993
   1 C :   -0.159233
   2 C :   -0.256117
   3 C :    0.120349
   4 O :   -0.175239
   5 O :   -0.286979
   6 H :    0.124365
   7 H :    0.093069
   8 H :    0.108384
   9 H :    0.084017
  10 H :    0.108293
  11 H :    0.098691
  12 H :    0.123236
  13 H :    0.316155
Sum of atomic charges:   -0.0000000

LOEWDIN ATOMIC CHARGES
----------------------
   0 C :   -0.344591
   1 C :   -0.230055
   2 C :   -0.276521
   3 C :    0.027764
   4 O :   -0.144773
   5 O :   -0.207407
   6 H :    0.125587
   7 H :    0.113252
   8 H :    0.122469
   9 H :    0.117540
  10 H :    0.128532
  11 H :    0.127507
  12 H :    0.142537
  13 H :    0.298159

  Mayer bond orders larger than 0.100000
B(  0-C ,  1-C ) :   1.1539 B(  0-C ,  6-H ) :   0.9511 B(  0-C ,  7-H ) :   0.9533
B(  0-C ,  8-H ) :   0.9531 B(  1-C ,  2-C ) :   1.1230 B(  1-C ,  9-H ) :   0.9212
B(  1-C , 10-H ) :   0.9177 B(  2-C ,  3-C ) :   0.9978 B(  2-C , 11-H ) :   0.9030
B(  2-C , 12-H ) :   0.8923 B(  3-C ,  4-O ) :   2.1197 B(  3-C ,  5-O ) :   1.2178
B(  5-O , 13-H ) :   0.8288

Dispersion correction           -0.009607726
FINAL SINGLE POINT ENERGY      -307.026211142104

DIPOLE MOMENT
-------------

Method             : SCF
Type of density    : Electron Density
Multiplicity       :   1
Irrep              :   0
Energy             :  -307.0808606783688219 Eh
Relativity type    :
Basis              : AO
                                X                 Y                 Z
Electronic contribution:      8.004390031      -1.136515738      -0.403050885
Nuclear contribution   :     -8.417071484       2.552018143       0.901205422
                        -----------------------------------------
Total Dipole Moment    :     -0.412681453       1.415502405       0.498154537
                        -----------------------------------------
Magnitude (a.u.)       :      1.556313267
Magnitude (Debye)      :      3.955833948

Rotational constants in cm-1:             0.227115             0.075570             0.067058
Rotational constants in MHz :          6808.731667          2265.530038          2010.347940

                             ****ORCA TERMINATED NORMALLY****
TOTAL RUN TIME: 0 days 0 hours 0 minutes 6 seconds 480 msec
