                         Program Version 6.0.0  -   RELEASE  -
|  1> ! pbe def2-sv(p) def2/J RI DEFGRID1 loosescf d4 GCP(DFT/SV(P)) printgap
|  2> %output
|  3>     printlevel normal
|  4> end
|  5> * xyz 0 1
|  6> C -3.8400312297 -0.7701446798 -0.0890390062
|  7> C -2.7358301664 0.1134568974 0.4790944343
|  8> C -1.3640826632 -0.3018255209 -0.0542325064
|  9> C -0.2790425753 0.5864019332 0.5205390955
| 10> Br 1.5023944509 0.071250553 -0.1538879153
| 11> H -3.6744766962 -1.8097406513 0.1829505915
| 12> H -4.8072279586 -0.4623809717 0.2988157684
| 13> H -3.8651730404 -0.6992447887 -1.1737169049
| 14> H -2.7369002076 0.0430375342 1.5686702242
| 15> H -2.9279871219 1.1543955714 0.2114206399
| 16> H -1.1668568957 -1.3422557515 0.213505835
| 17> H -1.3580671092 -0.2302791795 -1.1441543818
| 18> H -0.2158948201 0.504047932 1.6042544477
| 19> H -0.4099089962 1.6282227923 0.2330627894
| 20> *
| 21>
| 22>                          ****END OF INPUT****

CARTESIAN COORDINATES (ANGSTROEM)
---------------------------------
  C     -3.840031   -0.770145   -0.089039
  C     -2.735830    0.113457    0.479094
  C     -1.364083   -0.301826   -0.054233
  C     -0.279043    0.586402    0.520539
  Br     1.502394    0.071251   -0.153888
  H     -3.674477   -1.809741    0.182951
  H     -4.807228   -0.462381    0.298816
  H     -3.865173   -0.699245   -1.173717
  H     -2.736900    0.043038    1.568670
  H     -2.927987    1.154396    0.211421
  H     -1.166857   -1.342256    0.213506
  H     -1.358067   -0.230279   -1.144154
  H     -0.215895    0.504048    1.604254
  H     -0.409909    1.628223    0.233063

 Total Charge           Charge          ....    0
 Multiplicity           Mult            ....    1
 Number of Electrons    NEL             ....   68
 Basis Dimension        Dim             ....  106

ORBITAL ENERGIES
----------------

  NO   OCC          E(Eh)            E(eV)
   0   2.0000    -480.916874    -13086.4135
   1   2.0000     -61.759253     -1680.5547
   2   2.0000     -55.689882     -1515.3987
   3   2.0000     -55.686789     -1515.3146
   4   2.0000     -55.686675     -1515.3115
   5   2.0000      -9.939352      -270.4635
   6   2.0000      -9.897408      -269.3222
   7   2.0000      -9.895863      -269.2801
   8   2.0000      -9.881131      -268.8792
   9   2.0000      -8.384358      -228.1500
  10   2.0000      -6.266298      -170.5146
  11   2.0000      -6.251969      -170.1247
  12   2.0000      -6.251839      -170.1212
  13   2.0000      -2.467402       -67.1414
  14   2.0000      -2.463877       -67.0455
  15   2.0000      -2.463795       -67.0433
  16   2.0000      -2.453047       -66.7508
  17   2.0000      -2.453039       -66.7506
  18   2.0000      -0.748951       -20.3800
  19   2.0000      -0.704542       -19.1716
  20   2.0000      -0.639052       -17.3895
  21   2.0000      -0.559001       -15.2112
  22   2.0000      -0.528526       -14.3819
  23   2.0000      -0.443819       -12.0769
  24   2.0000      -0.398477       -10.8431
  25   2.0000      -0.392499       -10.6804
  26   2.0000      -0.377761       -10.2794
  27   2.0000      -0.340570        -9.2674
  28   2.0000      -0.329699        -8.9716
  29   2.0000      -0.312222        -8.4960
  30   2.0000      -0.298197        -8.1143
  31   2.0000      -0.296479        -8.0676
  32   2.0000      -0.230745        -6.2789
  33   2.0000      -0.230729        -6.2785
  34   0.0000      -0.025952        -0.7062
  35   0.0000       0.033822         0.9203
  36   0.0000       0.058385         1.5887
  37   0.0000       0.061366         1.6699
  38   0.0000       0.079489         2.1630

MULLIKEN ATOMIC CHARGES
-----------------------
   0 C :   -0.256242
   1 C :   -0.204250
   2 C :   -0.164177
   3 C :   -0.221009
   4 Br:   -0.123945
   5 H :    0.102160
   6 H :    0.106747
   7 H :    0.102124
   8 H :    0.090146
   9 H :    0.090094
  10 H :    0.100498
  11 H :    0.100609
  12 H :    0.138623
  13 H :    0.138622
Sum of atomic charges:   -0.0000000

LOEWDIN ATOMIC CHARGES
----------------------
   0 C :   -0.337412
   1 C :   -0.233262
   2 C :   -0.246487
   3 C :   -0.272973
   4 Br:   -0.002824
   5 H :    0.119445
   6 H :    0.121359
   7 H :    0.119431
   8 H :    0.116358
   9 H :    0.116389
  10 H :    0.121908
  11 H :    0.121892
  12 H :    0.128084
  13 H :    0.128090

  Mayer bond orders larger than 0.100000
B(  0-C ,  1-C ) :   1.1577 B(  0-C ,  5-H ) :   0.9542 B(  0-C ,  6-H ) :   0.9523
B(  0-C ,  7-H ) :   0.9542 B(  1-C ,  2-C ) :   1.1118 B(  1-C ,  8-H ) :   0.9268
B(  1-C ,  9-H ) :   0.9267 B(  2-C ,  3-C ) :   1.1066 B(  2-C , 10-H ) :   0.9218
B(  2-C , 11-H ) :   0.9220 B(  3-C ,  4-Br) :   1.0440 B(  3-C , 12-H ) :   0.9245
B(  3-C , 13-H ) :   0.9245

Dispersion correction           -0.009783128
FINAL SINGLE POINT ENERGY     -2730.887865468343

DIPOLE MOMENT
-------------

Method             : SCF
Type of density    : Electron Density
Multiplicity       :   1
Irrep              :   0
Energy             : -2730.9406318901437771 Eh
Relativity type    :
Basis              : AO
                                X                 Y                 Z
Electronic contribution:     32.998142466       1.932514947      -3.078388481
Nuclear contribution   :    -33.803944357      -1.800695758       3.300338186
                        -----------------------------------------
Total Dipole Moment    :     -0.805801891       0.131819189       0.221949705
                        -----------------------------------------
Magnitude (a.u.)       :      0.846141039
Magnitude (Debye)      :      2.150719600

Rotational constants in cm-1:             0.527149             0.030334             0.029313
Rotational constants in MHz :         15803.533916           909.399392           878.789679

                             ****ORCA TERMINATED NORMALLY****
TOTAL RUN TIME: 0 days 0 hours 0 minutes 6 seconds 16 msec
