                         Program Version 6.0.0  -   RELEASE  -
|  1> ! pbe def2-sv(p) def2/J RI DEFGRID1 loosescf d4 GCP(DFT/SV(P)) printgap
|  2> %output
|  3>     printlevel normal
|  4> end
|  5> * xyz 0 1
|  6> C -2.1701992975 0.7638000255 1.0166753134
|  7> C -1.8969725284 0.0824605723 -0.3236168008
|  8> C -0.4557807556 -0.3406600232 -0.4566940606
|  9> O -0.094470129 -1.4627977118 -0.7491207882
| 10> O 0.3795550403 0.6656788871 -0.2391264708
| 11> C 1.7913859853 0.4124030833 -0.3181216349
| 12> C 2.3311435234 -0.1161244037 1.0020610796
| 13> H -3.2123756271 1.0643071944 1.0679084663
| 14> H -1.9642732754 0.0827468796 1.8386580369
| 15> H -1.5428382464 1.643668269 1.125907252
| 16> H -2.1096093837 0.7793167334 -1.1363795422
| 17> H -2.5181293916 -0.8046098751 -0.4468977011
| 18> H 1.9727022467 -0.30685674 -1.1227117241
| 19> H 2.2292130457 1.3793416025 -0.5676380977
| 20> H 3.4066865164 -0.2388839501 0.9272548279
| 21> H 2.1038520863 0.578847856 1.8058328421
| 22> H 1.8811198789 -1.0802976529 1.2283683414
| 23> *
| 24>
| 25>                          ****END OF INPUT****

CARTESIAN COORDINATES (ANGSTROEM)
---------------------------------
  C     -2.170199    0.763800    1.016675
  C     -1.896973    0.082461   -0.323617
  C     -0.455781   -0.340660   -0.456694
  O     -0.094470   -1.462798   -0.749121
  O      0.379555    0.665679   -0.239126
  C      1.791386    0.412403   -0.318122
  C      2.331144   -0.116124    1.002061
  H     -3.212376    1.064307    1.067908
  H     -1.964273    0.082747    1.838658
  H     -1.542838    1.643668    1.125907
  H     -2.109609    0.779317   -1.136380
  H     -2.518129   -0.804610   -0.446898
  H      1.972702   -0.306857   -1.122712
  H      2.229213    1.379342   -0.567638
  H      3.406687   -0.238884    0.927255
  H      2.103852    0.578848    1.805833
  H      1.881120   -1.080298    1.228368

 Total Charge           Charge          ....    0
 Multiplicity           Mult            ....    1
 Number of Electrons    NEL             ....   56
 Basis Dimension        Dim             ....  118

ORBITAL ENERGIES
----------------

  NO   OCC          E(Eh)            E(eV)
   0   2.0000     -18.797560      -511.5076
   1   2.0000     -18.729740      -509.6621
   2   2.0000     -10.004413      -272.2339
   3   2.0000      -9.946855      -270.6677
   4   2.0000      -9.898889      -269.3625
   5   2.0000      -9.886717      -269.0313
   6   2.0000      -9.885374      -268.9947
   7   2.0000      -1.004453       -27.3326
   8   2.0000      -0.906854       -24.6768
   9   2.0000      -0.721750       -19.6398
  10   2.0000      -0.685301       -18.6480
  11   2.0000      -0.604141       -16.4395
  12   2.0000      -0.567942       -15.4545
  13   2.0000      -0.495312       -13.4781
  14   2.0000      -0.451769       -12.2933
  15   2.0000      -0.435077       -11.8390
  16   2.0000      -0.406582       -11.0636
  17   2.0000      -0.396050       -10.7771
  18   2.0000      -0.390583       -10.6283
  19   2.0000      -0.358786        -9.7631
  20   2.0000      -0.357338        -9.7237
  21   2.0000      -0.341020        -9.2796
  22   2.0000      -0.322512        -8.7760
  23   2.0000      -0.320332        -8.7167
  24   2.0000      -0.309211        -8.4141
  25   2.0000      -0.289765        -7.8849
  26   2.0000      -0.255335        -6.9480
  27   2.0000      -0.213638        -5.8134
  28   0.0000      -0.019242        -0.5236
  29   0.0000       0.040560         1.1037
  30   0.0000       0.059586         1.6214
  31   0.0000       0.078836         2.1452
  32   0.0000       0.086706         2.3594

MULLIKEN ATOMIC CHARGES
-----------------------
   0 C :   -0.299934
   1 C :   -0.145502
   2 C :    0.099446
   3 O :   -0.207496
   4 O :   -0.242376
   5 C :   -0.011838
   6 C :   -0.305052
   7 H :    0.110255
   8 H :    0.109571
   9 H :    0.118369
  10 H :    0.112081
  11 H :    0.103641
  12 H :    0.107318
  13 H :    0.100427
  14 H :    0.111983
  15 H :    0.112367
  16 H :    0.126740
Sum of atomic charges:   -0.0000000

LOEWDIN ATOMIC CHARGES
----------------------
   0 C :   -0.337487
   1 C :   -0.250377
   2 C :    0.035254
   3 O :   -0.171647
   4 O :   -0.067586
   5 C :   -0.112498
   6 C :   -0.356607
   7 H :    0.122644
   8 H :    0.122234
   9 H :    0.123254
  10 H :    0.139442
  11 H :    0.133473
  12 H :    0.119109
  13 H :    0.116421
  14 H :    0.130156
  15 H :    0.123770
  16 H :    0.130446

  Mayer bond orders larger than 0.100000
B(  0-C ,  1-C ) :   1.1366 B(  0-C ,  7-H ) :   0.9511 B(  0-C ,  8-H ) :   0.9573
B(  0-C ,  9-H ) :   0.9499 B(  1-C ,  2-C ) :   1.0347 B(  1-C , 10-H ) :   0.8988
B(  1-C , 11-H ) :   0.9169 B(  2-C ,  3-O ) :   2.0558 B(  2-C ,  4-O ) :   1.1941
B(  4-O ,  5-C ) :   0.9246 B(  5-C ,  6-C ) :   1.1724 B(  5-C , 12-H ) :   0.9147
B(  5-C , 13-H ) :   0.9372 B(  6-C , 14-H ) :   0.9443 B(  6-C , 15-H ) :   0.9492
B(  6-C , 16-H ) :   0.9458

Dispersion correction           -0.012143347
FINAL SINGLE POINT ENERGY      -346.244463203895

DIPOLE MOMENT
-------------

Method             : SCF
Type of density    : Electron Density
Multiplicity       :   1
Irrep              :   0
Energy             :  -346.3091166201770648 Eh
Relativity type    :
Basis              : AO
                                X                 Y                 Z
Electronic contribution:     -0.095212029      -2.192498023      -4.160149853
Nuclear contribution   :      0.235342186       2.894230049       4.413781267
                        -----------------------------------------
Total Dipole Moment    :      0.140130158       0.701732026       0.253631414
                        -----------------------------------------
Magnitude (a.u.)       :      0.759205632
Magnitude (Debye)      :      1.929747356

Rotational constants in cm-1:             0.148114             0.056655             0.048503
Rotational constants in MHz :          4440.358178          1698.462772          1454.080518

                             ****ORCA TERMINATED NORMALLY****
TOTAL RUN TIME: 0 days 0 hours 0 minutes 8 seconds 582 msec
