                         Program Version 6.0.0  -   RELEASE  -
|  1> ! pbe def2-sv(p) def2/J RI DEFGRID1 loosescf d4 GCP(DFT/SV(P)) printgap
|  2> %output
|  3>     printlevel normal
|  4> end
|  5> * xyz 0 1
|  6> C -2.3894099162 -0.0951862819 1.50391e-05
|  7> C -0.9114068437 -0.4635760698 -3.7513e-05
|  8> C -0.0227396466 0.7774502197 1.58747e-05
|  9> C 1.4332745666 0.4646226202 -1.4109e-05
| 10> O 1.9227707759 -0.6394613204 2.17565e-05
| 11> H -2.6377245188 0.4894977462 -0.8825059245
| 12> H -3.0020791752 -0.992573051 3.17878e-05
| 13> H -2.6376690378 0.4894866586 0.8825609396
| 14> H -0.6774456242 -1.0678732781 -0.8787185378
| 15> H -0.677380298 -1.0678083313 0.8786583086
| 16> H -0.2249732938 1.3996583277 -0.8760657837
| 17> H -0.2249383262 1.3996849967 0.8760978497
| 18> H 2.0861923956 1.3579207398 -0.0001572264
| 19> *
| 20>
| 21>                          ****END OF INPUT****

CARTESIAN COORDINATES (ANGSTROEM)
---------------------------------
  C     -2.389410   -0.095186    0.000015
  C     -0.911407   -0.463576   -0.000038
  C     -0.022740    0.777450    0.000016
  C      1.433275    0.464623   -0.000014
  O      1.922771   -0.639461    0.000022
  H     -2.637725    0.489498   -0.882506
  H     -3.002079   -0.992573    0.000032
  H     -2.637669    0.489487    0.882561
  H     -0.677446   -1.067873   -0.878719
  H     -0.677380   -1.067808    0.878658
  H     -0.224973    1.399658   -0.876066
  H     -0.224938    1.399685    0.876098
  H      2.086192    1.357921   -0.000157

 Total Charge           Charge          ....    0
 Multiplicity           Mult            ....    1
 Number of Electrons    NEL             ....   40
 Basis Dimension        Dim             ....   86

ORBITAL ENERGIES
----------------

  NO   OCC          E(Eh)            E(eV)
   0   2.0000     -18.750005      -510.2136
   1   2.0000      -9.971605      -271.3412
   2   2.0000      -9.900358      -269.4024
   3   2.0000      -9.891213      -269.1536
   4   2.0000      -9.879251      -268.8281
   5   2.0000      -0.944560       -25.7028
   6   2.0000      -0.725026       -19.7290
   7   2.0000      -0.647928       -17.6310
   8   2.0000      -0.551965       -15.0197
   9   2.0000      -0.492447       -13.4002
  10   2.0000      -0.434956       -11.8357
  11   2.0000      -0.429100       -11.6764
  12   2.0000      -0.390841       -10.6353
  13   2.0000      -0.373016       -10.1503
  14   2.0000      -0.358199        -9.7471
  15   2.0000      -0.324994        -8.8435
  16   2.0000      -0.318762        -8.6739
  17   2.0000      -0.303905        -8.2697
  18   2.0000      -0.297668        -8.1000
  19   2.0000      -0.204306        -5.5595
  20   0.0000      -0.057448        -1.5632
  21   0.0000       0.033666         0.9161
  22   0.0000       0.059263         1.6126
  23   0.0000       0.073898         2.0109
  24   0.0000       0.095318         2.5937

MULLIKEN ATOMIC CHARGES
-----------------------
   0 C :   -0.263399
   1 C :   -0.199118
   2 C :   -0.184513
   3 C :    0.027688
   4 O :   -0.164541
   5 H :    0.097383
   6 H :    0.108302
   7 H :    0.097382
   8 H :    0.101909
   9 H :    0.101902
  10 H :    0.110912
  11 H :    0.110921
  12 H :    0.055172
Sum of atomic charges:   -0.0000000

LOEWDIN ATOMIC CHARGES
----------------------
   0 C :   -0.340263
   1 C :   -0.231602
   2 C :   -0.272943
   3 C :    0.005490
   4 O :   -0.119803
   5 H :    0.116753
   6 H :    0.121938
   7 H :    0.116754
   8 H :    0.123040
   9 H :    0.123039
  10 H :    0.140418
  11 H :    0.140421
  12 H :    0.076757

  Mayer bond orders larger than 0.100000
B(  0-C ,  1-C ) :   1.1532 B(  0-C ,  5-H ) :   0.9543 B(  0-C ,  6-H ) :   0.9545
B(  0-C ,  7-H ) :   0.9543 B(  1-C ,  2-C ) :   1.1181 B(  1-C ,  8-H ) :   0.9295
B(  1-C ,  9-H ) :   0.9295 B(  2-C ,  3-C ) :   0.9933 B(  2-C , 10-H ) :   0.8932
B(  2-C , 11-H ) :   0.8932 B(  3-C ,  4-O ) :   2.1852 B(  3-C , 12-H ) :   0.9145

Dispersion correction           -0.007924526
FINAL SINGLE POINT ENERGY      -231.919998185157

DIPOLE MOMENT
-------------

Method             : SCF
Type of density    : Electron Density
Multiplicity       :   1
Irrep              :   0
Energy             :  -231.9652980333355288 Eh
Relativity type    :
Basis              : AO
                                X                 Y                 Z
Electronic contribution:      6.882287211      -1.159091572       0.000074647
Nuclear contribution   :     -7.473056295       1.874337018      -0.000092168
                        -----------------------------------------
Total Dipole Moment    :     -0.590769083       0.715245446      -0.000017521
                        -----------------------------------------
Magnitude (a.u.)       :      0.927676753
Magnitude (Debye)      :      2.357966916

Rotational constants in cm-1:             0.505597             0.086193             0.076775
Rotational constants in MHz :         15157.426090          2584.011534          2301.643009

                             ****ORCA TERMINATED NORMALLY****
TOTAL RUN TIME: 0 days 0 hours 0 minutes 5 seconds 358 msec
