                         Program Version 6.0.0  -   RELEASE  -
|  1> ! r2scan-3c def2/J RI DEFGRID2 scfconv6 printgap
|  2> %output
|  3>     printlevel normal
|  4> end
|  5> * xyz 0 1
|  6> C -1.0941109997 -0.5667812852 -0.1724128622
|  7> C -0.0004141575 0.2034563098 0.579639715
|  8> C 1.3082039327 -0.6071594712 0.6328149823
|  9> O 1.8688388854 -0.791462559 -0.6499906501
| 10> O 0.1959667351 1.4705953672 -0.0151918567
| 11> O -2.3206256768 0.1260347585 -0.1706955655
| 12> H -1.2795465662 -1.52618485 0.3125464844
| 13> H -0.7594779796 -0.7520861032 -1.2036165075
| 14> H -0.3358656241 0.4097651163 1.6002448259
| 15> H 1.0918199429 -1.6019172767 1.0271077797
| 16> H 2.0160088128 -0.1077053862 1.3004220967
| 17> H 2.4217991887 -0.0297331198 -0.8711404401
| 18> H 0.5004315678 1.3323015775 -0.9257316978
| 19> H -2.1406663037 1.0592489184 -0.3648962568
| 20> *
| 21>
| 22>                          ****END OF INPUT****

CARTESIAN COORDINATES (ANGSTROEM)
---------------------------------
  C     -1.094111   -0.566781   -0.172413
  C     -0.000414    0.203456    0.579640
  C      1.308204   -0.607159    0.632815
  O      1.868839   -0.791463   -0.649991
  O      0.195967    1.470595   -0.015192
  O     -2.320626    0.126035   -0.170696
  H     -1.279547   -1.526185    0.312546
  H     -0.759478   -0.752086   -1.203617
  H     -0.335866    0.409765    1.600245
  H      1.091820   -1.601917    1.027108
  H      2.016009   -0.107705    1.300422
  H      2.421799   -0.029733   -0.871140
  H      0.500432    1.332302   -0.925732
  H     -2.140666    1.059249   -0.364896

 Total Charge           Charge          ....    0
 Multiplicity           Mult            ....    1
 Number of Electrons    NEL             ....   50
 Basis Dimension        Dim             ....  169

ORBITAL ENERGIES
----------------

  NO   OCC          E(Eh)            E(eV)
   0   2.0000     -18.968796      -516.1672
   1   2.0000     -18.967923      -516.1434
   2   2.0000     -18.944284      -515.5002
   3   2.0000     -10.088960      -274.5345
   4   2.0000     -10.088746      -274.5287
   5   2.0000     -10.075516      -274.1687
   6   2.0000      -1.017958       -27.7000
   7   2.0000      -0.996571       -27.1181
   8   2.0000      -0.976949       -26.5841
   9   2.0000      -0.731412       -19.9027
  10   2.0000      -0.644825       -17.5466
  11   2.0000      -0.588136       -16.0040
  12   2.0000      -0.502648       -13.6777
  13   2.0000      -0.491105       -13.3636
  14   2.0000      -0.457147       -12.4396
  15   2.0000      -0.439368       -11.9558
  16   2.0000      -0.415091       -11.2952
  17   2.0000      -0.396039       -10.7768
  18   2.0000      -0.372663       -10.1407
  19   2.0000      -0.335581        -9.1316
  20   2.0000      -0.315677        -8.5900
  21   2.0000      -0.297951        -8.1077
  22   2.0000      -0.278453        -7.5771
  23   2.0000      -0.254229        -6.9179
  24   2.0000      -0.224621        -6.1123
  25   0.0000       0.025649         0.6979
  26   0.0000       0.066549         1.8109
  27   0.0000       0.098170         2.6713
  28   0.0000       0.106273         2.8918
  29   0.0000       0.115436         3.1412

MULLIKEN ATOMIC CHARGES
-----------------------
   0 C :   -0.210465
   1 C :    0.074230
   2 C :   -0.188044
   3 O :   -0.446003
   4 O :   -0.445576
   5 O :   -0.414941
   6 H :    0.133651
   7 H :    0.148439
   8 H :    0.145944
   9 H :    0.139817
  10 H :    0.146384
  11 H :    0.308382
  12 H :    0.296277
  13 H :    0.311906
Sum of atomic charges:    0.0000000

LOEWDIN ATOMIC CHARGES
----------------------
   0 C :    0.016659
   1 C :    0.061829
   2 C :    0.021371
   3 O :   -0.607470
   4 O :   -0.589776
   5 O :   -0.601459
   6 H :    0.180005
   7 H :    0.167303
   8 H :    0.190688
   9 H :    0.181528
  10 H :    0.167491
  11 H :    0.266979
  12 H :    0.271041
  13 H :    0.273811

  Mayer bond orders larger than 0.100000
B(  0-C ,  1-C ) :   0.9571 B(  0-C ,  5-O ) :   0.9537 B(  0-C ,  6-H ) :   0.9656
B(  0-C ,  7-H ) :   0.9705 B(  1-C ,  2-C ) :   0.9105 B(  1-C ,  4-O ) :   0.9453
B(  1-C ,  8-H ) :   0.9291 B(  2-C ,  3-O ) :   0.9669 B(  2-C ,  9-H ) :   0.9745
B(  2-C , 10-H ) :   0.9752 B(  3-O , 11-H ) :   0.8900 B(  4-O , 12-H ) :   0.8816
B(  5-O , 13-H ) :   0.8720

Dispersion correction           -0.003049447
FINAL SINGLE POINT ENERGY      -344.724876458505

DIPOLE MOMENT
-------------

Method             : SCF
Type of density    : Electron Density
Multiplicity       :   1
Irrep              :   0
Energy             :  -344.7324896611877989 Eh
Relativity type    :
Basis              : AO
                                X                 Y                 Z
Electronic contribution:     -0.564554830       1.337714708      -0.824743951
Nuclear contribution   :      1.417067160      -1.129152901       0.808428024
                        -----------------------------------------
Total Dipole Moment    :      0.852512330       0.208561807      -0.016315927
                        -----------------------------------------
Magnitude (a.u.)       :      0.877804938
Magnitude (Debye)      :      2.231202836

Rotational constants in cm-1:             0.205355             0.074575             0.065182
Rotational constants in MHz :          6156.390201          2235.692659          1954.119664

                             ****ORCA TERMINATED NORMALLY****
TOTAL RUN TIME: 0 days 0 hours 0 minutes 20 seconds 785 msec
