                         Program Version 6.0.0  -   RELEASE  -
|  1> ! r2scan-3c def2/J RI DEFGRID2 scfconv6 printgap
|  2> %output
|  3>     printlevel normal
|  4> end
|  5> %cpcm
|  6>     smd true
|  7>     smdsolvent "water"
|  8> end
|  9> * xyz 0 1
| 10> C -1.0941109997 -0.5667812852 -0.1724128622
| 11> C -0.0004141575 0.2034563098 0.579639715
| 12> C 1.3082039327 -0.6071594712 0.6328149823
| 13> O 1.8688388854 -0.791462559 -0.6499906501
| 14> O 0.1959667351 1.4705953672 -0.0151918567
| 15> O -2.3206256768 0.1260347585 -0.1706955655
| 16> H -1.2795465662 -1.52618485 0.3125464844
| 17> H -0.7594779796 -0.7520861032 -1.2036165075
| 18> H -0.3358656241 0.4097651163 1.6002448259
| 19> H 1.0918199429 -1.6019172767 1.0271077797
| 20> H 2.0160088128 -0.1077053862 1.3004220967
| 21> H 2.4217991887 -0.0297331198 -0.8711404401
| 22> H 0.5004315678 1.3323015775 -0.9257316978
| 23> H -2.1406663037 1.0592489184 -0.3648962568
| 24> *
| 25>
| 26>                          ****END OF INPUT****

CARTESIAN COORDINATES (ANGSTROEM)
---------------------------------
  C     -1.094111   -0.566781   -0.172413
  C     -0.000414    0.203456    0.579640
  C      1.308204   -0.607159    0.632815
  O      1.868839   -0.791463   -0.649991
  O      0.195967    1.470595   -0.015192
  O     -2.320626    0.126035   -0.170696
  H     -1.279547   -1.526185    0.312546
  H     -0.759478   -0.752086   -1.203617
  H     -0.335866    0.409765    1.600245
  H      1.091820   -1.601917    1.027108
  H      2.016009   -0.107705    1.300422
  H      2.421799   -0.029733   -0.871140
  H      0.500432    1.332302   -0.925732
  H     -2.140666    1.059249   -0.364896

 Total Charge           Charge          ....    0
 Multiplicity           Mult            ....    1
 Number of Electrons    NEL             ....   50
 Basis Dimension        Dim             ....  169

ORBITAL ENERGIES
----------------

  NO   OCC          E(Eh)            E(eV)
   0   2.0000     -18.958320      -515.8821
   1   2.0000     -18.956549      -515.8339
   2   2.0000     -18.952078      -515.7123
   3   2.0000     -10.078428      -274.2480
   4   2.0000     -10.072823      -274.0954
   5   2.0000     -10.069608      -274.0080
   6   2.0000      -1.008582       -27.4449
   7   2.0000      -0.989208       -26.9177
   8   2.0000      -0.977045       -26.5867
   9   2.0000      -0.720198       -19.5976
  10   2.0000      -0.635910       -17.3040
  11   2.0000      -0.577535       -15.7155
  12   2.0000      -0.494927       -13.4677
  13   2.0000      -0.479776       -13.0554
  14   2.0000      -0.447865       -12.1870
  15   2.0000      -0.431054       -11.7296
  16   2.0000      -0.411607       -11.2004
  17   2.0000      -0.387524       -10.5451
  18   2.0000      -0.365932        -9.9575
  19   2.0000      -0.330876        -9.0036
  20   2.0000      -0.315419        -8.5830
  21   2.0000      -0.293097        -7.9756
  22   2.0000      -0.271950        -7.4001
  23   2.0000      -0.252631        -6.8744
  24   2.0000      -0.223585        -6.0841
  25   0.0000       0.052475         1.4279
  26   0.0000       0.077553         2.1103
  27   0.0000       0.114799         3.1238
  28   0.0000       0.127109         3.4588
  29   0.0000       0.131921         3.5897

MULLIKEN ATOMIC CHARGES
-----------------------
   0 C :   -0.215428
   1 C :    0.077359
   2 C :   -0.198958
   3 O :   -0.512018
   4 O :   -0.504377
   5 O :   -0.498481
   6 H :    0.157316
   7 H :    0.150646
   8 H :    0.162041
   9 H :    0.157795
  10 H :    0.163764
  11 H :    0.359847
  12 H :    0.348667
  13 H :    0.351828
Sum of atomic charges:   -0.0000000

LOEWDIN ATOMIC CHARGES
----------------------
   0 C :    0.015687
   1 C :    0.064935
   2 C :    0.023797
   3 O :   -0.634528
   4 O :   -0.611007
   5 O :   -0.640171
   6 H :    0.187622
   7 H :    0.171424
   8 H :    0.195700
   9 H :    0.187894
  10 H :    0.176279
  11 H :    0.286335
  12 H :    0.289603
  13 H :    0.286430

  Mayer bond orders larger than 0.100000
B(  0-C ,  1-C ) :   0.9536 B(  0-C ,  5-O ) :   0.9376 B(  0-C ,  6-H ) :   0.9603
B(  0-C ,  7-H ) :   0.9665 B(  1-C ,  2-C ) :   0.9253 B(  1-C ,  4-O ) :   0.9344
B(  1-C ,  8-H ) :   0.9272 B(  2-C ,  3-O ) :   0.9604 B(  2-C ,  9-H ) :   0.9706
B(  2-C , 10-H ) :   0.9646 B(  3-O , 11-H ) :   0.8627 B(  4-O , 12-H ) :   0.8581
B(  5-O , 13-H ) :   0.8529

Dispersion correction           -0.003049447
FINAL SINGLE POINT ENERGY      -344.746282779464

DIPOLE MOMENT
-------------

Method             : SCF
Type of density    : Electron Density
Multiplicity       :   1
Irrep              :   0
Energy             :  -344.7538959821470144 Eh
Relativity type    :
Basis              : AO
                                X                 Y                 Z
Electronic contribution:     -0.282532584       1.432488055      -0.852931114
Nuclear contribution   :      1.417067160      -1.129152901       0.808428024
                        -----------------------------------------
Total Dipole Moment    :      1.134534576       0.303335154      -0.044503090
                        -----------------------------------------
Magnitude (a.u.)       :      1.175228252
Magnitude (Debye)      :      2.987192820

Rotational constants in cm-1:             0.205355             0.074575             0.065182
Rotational constants in MHz :          6156.390201          2235.692659          1954.119664

                             ****ORCA TERMINATED NORMALLY****
TOTAL RUN TIME: 0 days 0 hours 0 minutes 24 seconds 8 msec
