                         Program Version 6.0.0  -   RELEASE  -
|  1> ! pbe def2-sv(p) def2/J RI DEFGRID1 loosescf d4 GCP(DFT/SV(P)) printgap
|  2> %output
|  3>     printlevel normal
|  4> end
|  5> * xyz 0 1
|  6> C -2.3585858753 0.7436972904 0.0052305763
|  7> C -0.8417918461 0.8819749515 -0.0405531526
|  8> C -0.0998033937 -0.3418208186 0.5083959287
|  9> H -0.4714463366 -0.5569579079 1.5166416783
| 10> C -0.294539816 -1.5755077187 -0.3697003927
| 11> C 1.396029981 -0.0276434949 0.6391670276
| 12> O 1.9306622704 0.2937009001 -0.629215185
| 13> H -2.6888297356 0.513786133 1.0159954417
| 14> H -2.8262379977 1.6746283117 -0.3057722882
| 15> H -2.7020879123 -0.0445497187 -0.6586448667
| 16> H -0.5503839402 1.7538905284 0.5504326545
| 17> H -0.5138261639 1.055365658 -1.0667908358
| 18> H 0.2439661347 -2.4232124771 0.0480236885
| 19> H 0.0903543115 -1.3787091316 -1.3672441515
| 20> H -1.3452294898 -1.8389521748 -0.4405508575
| 21> H 1.9128384516 -0.9026878239 1.0573875372
| 22> H 1.5299534006 0.8170374649 1.3300449635
| 23> H 2.8750904778 0.4732042766 -0.540106709
| 24> *
| 25>
| 26>                          ****END OF INPUT****

CARTESIAN COORDINATES (ANGSTROEM)
---------------------------------
  C     -2.358586    0.743697    0.005231
  C     -0.841792    0.881975   -0.040553
  C     -0.099803   -0.341821    0.508396
  H     -0.471446   -0.556958    1.516642
  C     -0.294540   -1.575508   -0.369700
  C      1.396030   -0.027643    0.639167
  O      1.930662    0.293701   -0.629215
  H     -2.688830    0.513786    1.015995
  H     -2.826238    1.674628   -0.305772
  H     -2.702088   -0.044550   -0.658645
  H     -0.550384    1.753891    0.550433
  H     -0.513826    1.055366   -1.066791
  H      0.243966   -2.423212    0.048024
  H      0.090354   -1.378709   -1.367244
  H     -1.345229   -1.838952   -0.440551
  H      1.912838   -0.902688    1.057388
  H      1.529953    0.817037    1.330045
  H      2.875090    0.473204   -0.540107

 Total Charge           Charge          ....    0
 Multiplicity           Mult            ....    1
 Number of Electrons    NEL             ....   50
 Basis Dimension        Dim             ....  108

ORBITAL ENERGIES
----------------

  NO   OCC          E(Eh)            E(eV)
   0   2.0000     -18.739212      -509.9199
   1   2.0000      -9.924583      -270.0616
   2   2.0000      -9.888572      -269.0817
   3   2.0000      -9.873169      -268.6626
   4   2.0000      -9.867109      -268.4977
   5   2.0000      -9.863830      -268.4085
   6   2.0000      -0.915826       -24.9209
   7   2.0000      -0.722495       -19.6601
   8   2.0000      -0.649737       -17.6802
   9   2.0000      -0.599797       -16.3213
  10   2.0000      -0.548615       -14.9286
  11   2.0000      -0.492277       -13.3955
  12   2.0000      -0.457113       -12.4387
  13   2.0000      -0.406355       -11.0575
  14   2.0000      -0.398888       -10.8543
  15   2.0000      -0.385938       -10.5019
  16   2.0000      -0.361399        -9.8342
  17   2.0000      -0.333373        -9.0715
  18   2.0000      -0.323118        -8.7925
  19   2.0000      -0.312027        -8.4907
  20   2.0000      -0.301359        -8.2004
  21   2.0000      -0.279985        -7.6188
  22   2.0000      -0.273338        -7.4379
  23   2.0000      -0.257648        -7.0110
  24   2.0000      -0.210005        -5.7145
  25   0.0000       0.025159         0.6846
  26   0.0000       0.052044         1.4162
  27   0.0000       0.070817         1.9270
  28   0.0000       0.080300         2.1851
  29   0.0000       0.091823         2.4986

MULLIKEN ATOMIC CHARGES
-----------------------
   0 C :   -0.261228
   1 C :   -0.164772
   2 C :   -0.181682
   3 H :    0.066528
   4 C :   -0.251822
   5 C :    0.038424
   6 O :   -0.438858
   7 H :    0.091395
   8 H :    0.100023
   9 H :    0.103222
  10 H :    0.073683
  11 H :    0.096368
  12 H :    0.089256
  13 H :    0.109834
  14 H :    0.101994
  15 H :    0.064984
  16 H :    0.063413
  17 H :    0.299238
Sum of atomic charges:    0.0000000

LOEWDIN ATOMIC CHARGES
----------------------
   0 C :   -0.341419
   1 C :   -0.225654
   2 C :   -0.163633
   3 H :    0.115157
   4 C :   -0.332222
   5 C :   -0.112439
   6 O :   -0.345218
   7 H :    0.114457
   8 H :    0.119177
   9 H :    0.116466
  10 H :    0.112107
  11 H :    0.120512
  12 H :    0.115655
  13 H :    0.123787
  14 H :    0.115794
  15 H :    0.090823
  16 H :    0.090614
  17 H :    0.286037

  Mayer bond orders larger than 0.100000
B(  0-C ,  1-C ) :   1.1597 B(  0-C ,  7-H ) :   0.9525 B(  0-C ,  8-H ) :   0.9520
B(  0-C ,  9-H ) :   0.9477 B(  1-C ,  2-C ) :   1.0798 B(  1-C , 10-H ) :   0.9255
B(  1-C , 11-H ) :   0.9193 B(  2-C ,  3-H ) :   0.8977 B(  2-C ,  4-C ) :   1.1011
B(  2-C ,  5-C ) :   1.0797 B(  4-C , 12-H ) :   0.9491 B(  4-C , 13-H ) :   0.9465
B(  4-C , 14-H ) :   0.9485 B(  5-C ,  6-O ) :   1.0733 B(  5-C , 15-H ) :   0.9225
B(  5-C , 16-H ) :   0.9174 B(  6-O , 17-H ) :   0.8525

Dispersion correction           -0.013051892
FINAL SINGLE POINT ENERGY      -272.300113476803

DIPOLE MOMENT
-------------

Method             : SCF
Type of density    : Electron Density
Multiplicity       :   1
Irrep              :   0
Energy             :  -272.3699411525233245 Eh
Relativity type    :
Basis              : AO
                                X                 Y                 Z
Electronic contribution:      4.574002515       0.837033546      -0.669390170
Nuclear contribution   :     -4.142272359      -0.799794737       1.059621050
                        -----------------------------------------
Total Dipole Moment    :      0.431730156       0.037238809       0.390230880
                        -----------------------------------------
Magnitude (a.u.)       :      0.583144747
Magnitude (Debye)      :      1.482236152

Rotational constants in cm-1:             0.181992             0.073664             0.062720
Rotational constants in MHz :          5455.992358          2208.386726          1880.309874

                             ****ORCA TERMINATED NORMALLY****
TOTAL RUN TIME: 0 days 0 hours 0 minutes 7 seconds 668 msec
