                         Program Version 6.0.0  -   RELEASE  -
|  1> ! r2scan-3c def2/J RI DEFGRID2 scfconv6 printgap
|  2> %output
|  3>     printlevel normal
|  4> end
|  5> * xyz 0 1
|  6> C -2.7444817102 -0.1235186416 0.6393978467
|  7> C -1.7064063701 0.7130181908 -0.1009143237
|  8> C -0.4129334678 -0.0390173917 -0.287347535
|  9> O -0.3203393913 -1.2354174386 -0.4621582979
| 10> O 0.6304983393 0.783737683 -0.2642396286
| 11> C 1.9448643264 0.2290106226 -0.4436028727
| 12> C 2.5196241181 -0.2558296516 0.8785774119
| 13> H -2.4255270762 -0.3091121163 1.6617459168
| 14> H -3.6984651899 0.3939914773 0.657863357
| 15> H -2.8687602651 -1.0824169024 0.1425687496
| 16> H -1.4920560155 1.6464898774 0.4179980365
| 17> H -2.0742099355 0.9552741826 -1.1009550592
| 18> H 1.8810960117 -0.5949367916 -1.1606943889
| 19> H 2.5340309656 1.0479289878 -0.8571087941
| 20> H 1.9194161414 -1.0758760706 1.2665056702
| 21> H 3.5349575249 -0.6053269662 0.7230583415
| 22> H 2.5248515354 0.5535281713 1.6035746178
| 23> *
| 24>
| 25>                          ****END OF INPUT****

CARTESIAN COORDINATES (ANGSTROEM)
---------------------------------
  C     -2.744482   -0.123519    0.639398
  C     -1.706406    0.713018   -0.100914
  C     -0.412933   -0.039017   -0.287348
  O     -0.320339   -1.235417   -0.462158
  O      0.630498    0.783738   -0.264240
  C      1.944864    0.229011   -0.443603
  C      2.519624   -0.255830    0.878577
  H     -2.425527   -0.309112    1.661746
  H     -3.698465    0.393991    0.657863
  H     -2.868760   -1.082417    0.142569
  H     -1.492056    1.646490    0.417998
  H     -2.074210    0.955274   -1.100955
  H      1.881096   -0.594937   -1.160694
  H      2.534031    1.047929   -0.857109
  H      1.919416   -1.075876    1.266506
  H      3.534958   -0.605327    0.723058
  H      2.524852    0.553528    1.603575

 Total Charge           Charge          ....    0
 Multiplicity           Mult            ....    1
 Number of Electrons    NEL             ....   56
 Basis Dimension        Dim             ....  193

ORBITAL ENERGIES
----------------

  NO   OCC          E(Eh)            E(eV)
   0   2.0000     -18.996000      -516.9075
   1   2.0000     -18.928526      -515.0714
   2   2.0000     -10.151908      -276.2475
   3   2.0000     -10.090760      -274.5836
   4   2.0000     -10.043794      -273.3055
   5   2.0000     -10.028467      -272.8885
   6   2.0000     -10.023444      -272.7518
   7   2.0000      -1.070683       -29.1348
   8   2.0000      -0.976013       -26.5587
   9   2.0000      -0.762645       -20.7526
  10   2.0000      -0.730043       -19.8655
  11   2.0000      -0.644444       -17.5362
  12   2.0000      -0.593547       -16.1512
  13   2.0000      -0.519249       -14.1295
  14   2.0000      -0.472785       -12.8651
  15   2.0000      -0.451024       -12.2730
  16   2.0000      -0.447047       -12.1648
  17   2.0000      -0.411823       -11.2063
  18   2.0000      -0.405892       -11.0449
  19   2.0000      -0.376038       -10.2325
  20   2.0000      -0.365758        -9.9528
  21   2.0000      -0.353172        -9.6103
  22   2.0000      -0.336731        -9.1629
  23   2.0000      -0.329120        -8.9558
  24   2.0000      -0.318596        -8.6694
  25   2.0000      -0.304900        -8.2968
  26   2.0000      -0.271497        -7.3878
  27   2.0000      -0.236987        -6.4487
  28   0.0000      -0.013976        -0.3803
  29   0.0000       0.077953         2.1212
  30   0.0000       0.091094         2.4788
  31   0.0000       0.115499         3.1429
  32   0.0000       0.124681         3.3927

MULLIKEN ATOMIC CHARGES
-----------------------
   0 C :   -0.459840
   1 C :   -0.288622
   2 C :    0.392585
   3 O :   -0.436161
   4 O :   -0.178092
   5 C :   -0.136706
   6 C :   -0.468769
   7 H :    0.144989
   8 H :    0.147065
   9 H :    0.169872
  10 H :    0.163659
  11 H :    0.165151
  12 H :    0.166862
  13 H :    0.147629
  14 H :    0.172355
  15 H :    0.146705
  16 H :    0.151318
Sum of atomic charges:   -0.0000000

LOEWDIN ATOMIC CHARGES
----------------------
   0 C :   -0.400267
   1 C :   -0.238629
   2 C :    0.361927
   3 O :   -0.438276
   4 O :   -0.597426
   5 C :    0.026699
   6 C :   -0.390455
   7 H :    0.155440
   8 H :    0.150790
   9 H :    0.167262
  10 H :    0.175991
  11 H :    0.180477
  12 H :    0.187585
  13 H :    0.177533
  14 H :    0.165392
  15 H :    0.159033
  16 H :    0.156925

  Mayer bond orders larger than 0.100000
B(  0-C ,  1-C ) :   0.9151 B(  0-C ,  7-H ) :   0.9775 B(  0-C ,  8-H ) :   0.9740
B(  0-C ,  9-H ) :   0.9687 B(  1-C ,  2-C ) :   0.9714 B(  1-C , 10-H ) :   0.9772
B(  1-C , 11-H ) :   0.9311 B(  2-C ,  3-O ) :   1.8235 B(  2-C ,  4-O ) :   1.0734
B(  4-O ,  5-C ) :   0.8189 B(  5-C ,  6-C ) :   0.9388 B(  5-C , 12-H ) :   0.9666
B(  5-C , 13-H ) :   0.9609 B(  6-C , 14-H ) :   0.9716 B(  6-C , 15-H ) :   0.9652
B(  6-C , 16-H ) :   0.9737

Dispersion correction           -0.003954371
FINAL SINGLE POINT ENERGY      -346.937226562718

DIPOLE MOMENT
-------------

Method             : SCF
Type of density    : Electron Density
Multiplicity       :   1
Irrep              :   0
Energy             :  -346.9437283453124792 Eh
Relativity type    :
Basis              : AO
                                X                 Y                 Z
Electronic contribution:      0.408780077      -0.195874149      -3.003621460
Nuclear contribution   :     -0.149886059       0.865370877       3.136365145
                        -----------------------------------------
Total Dipole Moment    :      0.258894017       0.669496728       0.132743685
                        -----------------------------------------
Magnitude (a.u.)       :      0.729981415
Magnitude (Debye)      :      1.855465302

Rotational constants in cm-1:             0.200681             0.047081             0.044942
Rotational constants in MHz :          6016.264099          1411.463880          1347.326401

                             ****ORCA TERMINATED NORMALLY****
TOTAL RUN TIME: 0 days 0 hours 0 minutes 21 seconds 290 msec
