                         Program Version 6.0.0  -   RELEASE  -
|  1> ! r2scan-3c def2/J RI DEFGRID2 scfconv6 printgap
|  2> %output
|  3>     printlevel normal
|  4> end
|  5> %cpcm
|  6>     smd true
|  7>     smdsolvent "water"
|  8> end
|  9> * xyz 0 1
| 10> C -2.7444817102 -0.1235186416 0.6393978467
| 11> C -1.7064063701 0.7130181908 -0.1009143237
| 12> C -0.4129334678 -0.0390173917 -0.287347535
| 13> O -0.3203393913 -1.2354174386 -0.4621582979
| 14> O 0.6304983393 0.783737683 -0.2642396286
| 15> C 1.9448643264 0.2290106226 -0.4436028727
| 16> C 2.5196241181 -0.2558296516 0.8785774119
| 17> H -2.4255270762 -0.3091121163 1.6617459168
| 18> H -3.6984651899 0.3939914773 0.657863357
| 19> H -2.8687602651 -1.0824169024 0.1425687496
| 20> H -1.4920560155 1.6464898774 0.4179980365
| 21> H -2.0742099355 0.9552741826 -1.1009550592
| 22> H 1.8810960117 -0.5949367916 -1.1606943889
| 23> H 2.5340309656 1.0479289878 -0.8571087941
| 24> H 1.9194161414 -1.0758760706 1.2665056702
| 25> H 3.5349575249 -0.6053269662 0.7230583415
| 26> H 2.5248515354 0.5535281713 1.6035746178
| 27> *
| 28>
| 29>                          ****END OF INPUT****

CARTESIAN COORDINATES (ANGSTROEM)
---------------------------------
  C     -2.744482   -0.123519    0.639398
  C     -1.706406    0.713018   -0.100914
  C     -0.412933   -0.039017   -0.287348
  O     -0.320339   -1.235417   -0.462158
  O      0.630498    0.783738   -0.264240
  C      1.944864    0.229011   -0.443603
  C      2.519624   -0.255830    0.878577
  H     -2.425527   -0.309112    1.661746
  H     -3.698465    0.393991    0.657863
  H     -2.868760   -1.082417    0.142569
  H     -1.492056    1.646490    0.417998
  H     -2.074210    0.955274   -1.100955
  H      1.881096   -0.594937   -1.160694
  H      2.534031    1.047929   -0.857109
  H      1.919416   -1.075876    1.266506
  H      3.534958   -0.605327    0.723058
  H      2.524852    0.553528    1.603575

 Total Charge           Charge          ....    0
 Multiplicity           Mult            ....    1
 Number of Electrons    NEL             ....   56
 Basis Dimension        Dim             ....  193

ORBITAL ENERGIES
----------------

  NO   OCC          E(Eh)            E(eV)
   0   2.0000     -19.001674      -517.0618
   1   2.0000     -18.943697      -515.4842
   2   2.0000     -10.162155      -276.5263
   3   2.0000     -10.082972      -274.3716
   4   2.0000     -10.037733      -273.1406
   5   2.0000     -10.018151      -272.6077
   6   2.0000     -10.017648      -272.5941
   7   2.0000      -1.077982       -29.3334
   8   2.0000      -0.989059       -26.9137
   9   2.0000      -0.759008       -20.6537
  10   2.0000      -0.723351       -19.6834
  11   2.0000      -0.640151       -17.4194
  12   2.0000      -0.588037       -16.0013
  13   2.0000      -0.517831       -14.0909
  14   2.0000      -0.473392       -12.8816
  15   2.0000      -0.456379       -12.4187
  16   2.0000      -0.449262       -12.2250
  17   2.0000      -0.413604       -11.2547
  18   2.0000      -0.401403       -10.9227
  19   2.0000      -0.371044       -10.0966
  20   2.0000      -0.363199        -9.8831
  21   2.0000      -0.347786        -9.4637
  22   2.0000      -0.333596        -9.0776
  23   2.0000      -0.325193        -8.8490
  24   2.0000      -0.314951        -8.5702
  25   2.0000      -0.302553        -8.2329
  26   2.0000      -0.278426        -7.5764
  27   2.0000      -0.252481        -6.8704
  28   0.0000      -0.021534        -0.5860
  29   0.0000       0.080308         2.1853
  30   0.0000       0.097780         2.6607
  31   0.0000       0.125903         3.4260
  32   0.0000       0.133654         3.6369

MULLIKEN ATOMIC CHARGES
-----------------------
   0 C :   -0.502701
   1 C :   -0.294731
   2 C :    0.431965
   3 O :   -0.518091
   4 O :   -0.198887
   5 C :   -0.142692
   6 C :   -0.493884
   7 H :    0.164264
   8 H :    0.167601
   9 H :    0.162410
  10 H :    0.179810
  11 H :    0.196830
  12 H :    0.171188
  13 H :    0.173437
  14 H :    0.167983
  15 H :    0.170095
  16 H :    0.165403
Sum of atomic charges:   -0.0000000

LOEWDIN ATOMIC CHARGES
----------------------
   0 C :   -0.405596
   1 C :   -0.234525
   2 C :    0.372822
   3 O :   -0.496775
   4 O :   -0.600826
   5 C :    0.031191
   6 C :   -0.393349
   7 H :    0.159653
   8 H :    0.158981
   9 H :    0.162358
  10 H :    0.184070
  11 H :    0.192306
  12 H :    0.188940
  13 H :    0.188785
  14 H :    0.162451
  15 H :    0.167642
  16 H :    0.161871

  Mayer bond orders larger than 0.100000
B(  0-C ,  1-C ) :   0.8916 B(  0-C ,  7-H ) :   0.9770 B(  0-C ,  8-H ) :   0.9679
B(  0-C ,  9-H ) :   0.9711 B(  1-C ,  2-C ) :   0.9774 B(  1-C , 10-H ) :   0.9674
B(  1-C , 11-H ) :   0.9212 B(  2-C ,  3-O ) :   1.7613 B(  2-C ,  4-O ) :   1.0957
B(  4-O ,  5-C ) :   0.8004 B(  5-C ,  6-C ) :   0.9376 B(  5-C , 12-H ) :   0.9628
B(  5-C , 13-H ) :   0.9514 B(  6-C , 14-H ) :   0.9695 B(  6-C , 15-H ) :   0.9602
B(  6-C , 16-H ) :   0.9697

Dispersion correction           -0.003954371
FINAL SINGLE POINT ENERGY      -346.942071683253

DIPOLE MOMENT
-------------

Method             : SCF
Type of density    : Electron Density
Multiplicity       :   1
Irrep              :   0
Energy             :  -346.9485734658469482 Eh
Relativity type    :
Basis              : AO
                                X                 Y                 Z
Electronic contribution:      0.488929330       0.158643087      -2.973985689
Nuclear contribution   :     -0.149886059       0.865370877       3.136365145
                        -----------------------------------------
Total Dipole Moment    :      0.339043270       1.024013964       0.162379456
                        -----------------------------------------
Magnitude (a.u.)       :      1.090835471
Magnitude (Debye)      :      2.772683419

Rotational constants in cm-1:             0.200681             0.047081             0.044942
Rotational constants in MHz :          6016.264099          1411.463880          1347.326401

                             ****ORCA TERMINATED NORMALLY****
TOTAL RUN TIME: 0 days 0 hours 0 minutes 25 seconds 933 msec
