                         Program Version 6.0.0  -   RELEASE  -
|  1> ! pbe def2-sv(p) def2/J RI DEFGRID1 loosescf d4 GCP(DFT/SV(P)) printgap
|  2> %output
|  3>     printlevel normal
|  4> end
|  5> * xyz 0 1
|  6> C 2.1419329416 -0.8189942789 1.5543361762
|  7> C 2.4492469167 -0.1048679899 0.2702174637
|  8> C 3.6944379381 0.1120744553 -0.1246787211
|  9> C 1.272703155 0.3669511795 -0.55053912
| 10> H 1.6634588177 0.8253174161 -1.4630020712
| 11> C 0.3762499907 -0.8102048192 -0.9600493285
| 12> C -1.0407472971 -0.3399726035 -1.2916528467
| 13> C -1.6224550491 0.2540781983 -0.0445068828
| 14> C -0.8503104673 1.0669951517 0.6968885365
| 15> C 0.502274706 1.4631935295 0.2388358461
| 16> C -2.9587810711 -0.10318834 0.3757751326
| 17> O -3.7163176992 -0.851197637 -0.2182473005
| 18> H 2.0784256921 -1.8927329029 1.3793515224
| 19> H 2.9297851578 -0.6503792206 2.2838812011
| 20> H 1.1933757523 -0.4892049408 1.97077618
| 21> H 3.9225906174 0.6118140759 -1.0506171203
| 22> H 4.5392932098 -0.2098135767 0.4606157696
| 23> H 0.8185990222 -1.3150392914 -1.8189651432
| 24> H 0.3073872931 -1.5322267275 -0.146035795
| 25> H -1.0101033579 0.4077555102 -2.08743051
| 26> H -1.6643613117 -1.1703052523 -1.6260466353
| 27> H -1.2180533519 1.4841014402 1.6237167835
| 28> H 0.3664347953 2.3221229852 -0.4250475432
| 29> H 1.1054688488 1.8099237415 1.0784456247
| 30> H -3.284486756 0.3680991968 1.3229868653
| 31> *
| 32>
| 33>                          ****END OF INPUT****

CARTESIAN COORDINATES (ANGSTROEM)
---------------------------------
  C      2.141933   -0.818994    1.554336
  C      2.449247   -0.104868    0.270217
  C      3.694438    0.112074   -0.124679
  C      1.272703    0.366951   -0.550539
  H      1.663459    0.825317   -1.463002
  C      0.376250   -0.810205   -0.960049
  C     -1.040747   -0.339973   -1.291653
  C     -1.622455    0.254078   -0.044507
  C     -0.850310    1.066995    0.696889
  C      0.502275    1.463194    0.238836
  C     -2.958781   -0.103188    0.375775
  O     -3.716318   -0.851198   -0.218247
  H      2.078426   -1.892733    1.379352
  H      2.929785   -0.650379    2.283881
  H      1.193376   -0.489205    1.970776
  H      3.922591    0.611814   -1.050617
  H      4.539293   -0.209814    0.460616
  H      0.818599   -1.315039   -1.818965
  H      0.307387   -1.532227   -0.146036
  H     -1.010103    0.407756   -2.087431
  H     -1.664361   -1.170305   -1.626047
  H     -1.218053    1.484101    1.623717
  H      0.366435    2.322123   -0.425048
  H      1.105469    1.809924    1.078446
  H     -3.284487    0.368099    1.322987

 Total Charge           Charge          ....    0
 Multiplicity           Mult            ....    1
 Number of Electrons    NEL             ....   82
 Basis Dimension        Dim             ....  182

ORBITAL ENERGIES
----------------

  NO   OCC          E(Eh)            E(eV)
   0   2.0000     -18.741699      -509.9876
   1   2.0000      -9.961846      -271.0756
   2   2.0000      -9.919273      -269.9171
   3   2.0000      -9.909183      -269.6426
   4   2.0000      -9.908075      -269.6124
   5   2.0000      -9.905380      -269.5391
   6   2.0000      -9.903551      -269.4893
   7   2.0000      -9.894014      -269.2298
   8   2.0000      -9.892508      -269.1888
   9   2.0000      -9.887932      -269.0643
  10   2.0000      -9.876739      -268.7597
  11   2.0000      -0.931019       -25.3343
  12   2.0000      -0.784625       -21.3507
  13   2.0000      -0.734844       -19.9961
  14   2.0000      -0.684254       -18.6195
  15   2.0000      -0.675944       -18.3934
  16   2.0000      -0.621997       -16.9254
  17   2.0000      -0.591669       -16.1001
  18   2.0000      -0.561543       -15.2804
  19   2.0000      -0.520236       -14.1563
  20   2.0000      -0.484044       -13.1715
  21   2.0000      -0.469069       -12.7640
  22   2.0000      -0.448087       -12.1931
  23   2.0000      -0.435068       -11.8388
  24   2.0000      -0.406638       -11.0652
  25   2.0000      -0.403254       -10.9731
  26   2.0000      -0.390929       -10.6377
  27   2.0000      -0.381313       -10.3761
  28   2.0000      -0.362402        -9.8615
  29   2.0000      -0.354902        -9.6574
  30   2.0000      -0.354837        -9.6556
  31   2.0000      -0.349629        -9.5139
  32   2.0000      -0.346719        -9.4347
  33   2.0000      -0.333541        -9.0761
  34   2.0000      -0.324835        -8.8392
  35   2.0000      -0.299082        -8.1384
  36   2.0000      -0.285490        -7.7686
  37   2.0000      -0.282899        -7.6981
  38   2.0000      -0.240054        -6.5322
  39   2.0000      -0.220221        -5.9925
  40   2.0000      -0.200605        -5.4587
  41   0.0000      -0.090599        -2.4653
  42   0.0000      -0.017825        -0.4850
  43   0.0000       0.022584         0.6145
  44   0.0000       0.024697         0.6720
  45   0.0000       0.042964         1.1691

MULLIKEN ATOMIC CHARGES
-----------------------
   0 C :   -0.231352
   1 C :   -0.063875
   2 C :   -0.226192
   3 C :   -0.120108
   4 H :    0.051656
   5 C :   -0.136140
   6 C :   -0.050845
   7 C :   -0.061072
   8 C :   -0.170965
   9 C :   -0.058147
  10 C :    0.034715
  11 O :   -0.173916
  12 H :    0.128166
  13 H :    0.108413
  14 H :    0.110151
  15 H :    0.085153
  16 H :    0.081290
  17 H :    0.092127
  18 H :    0.092405
  19 H :    0.091123
  20 H :    0.095388
  21 H :    0.068794
  22 H :    0.114903
  23 H :    0.107027
  24 H :    0.031297
Sum of atomic charges:   -0.0000000

LOEWDIN ATOMIC CHARGES
----------------------
   0 C :   -0.327828
   1 C :   -0.051637
   2 C :   -0.266136
   3 C :   -0.123012
   4 H :    0.121190
   5 C :   -0.206771
   6 C :   -0.210212
   7 C :   -0.103648
   8 C :   -0.089893
   9 C :   -0.213412
  10 C :   -0.006916
  11 O :   -0.135490
  12 H :    0.136818
  13 H :    0.130151
  14 H :    0.123835
  15 H :    0.117064
  16 H :    0.116701
  17 H :    0.124194
  18 H :    0.121799
  19 H :    0.129491
  20 H :    0.130317
  21 H :    0.124867
  22 H :    0.148467
  23 H :    0.132283
  24 H :    0.077779

  Mayer bond orders larger than 0.100000
B(  0-C ,  1-C ) :   1.1069 B(  0-C , 12-H ) :   0.9243 B(  0-C , 13-H ) :   0.9350
B(  0-C , 14-H ) :   0.9282 B(  1-C ,  2-C ) :   2.0331 B(  1-C ,  3-C ) :   1.0284
B(  2-C , 15-H ) :   0.9093 B(  2-C , 16-H ) :   0.9118 B(  3-C ,  4-H ) :   0.8712
B(  3-C ,  5-C ) :   1.1110 B(  3-C ,  9-C ) :   1.0406 B(  5-C ,  6-C ) :   1.1272
B(  5-C , 17-H ) :   0.9161 B(  5-C , 18-H ) :   0.9014 B(  6-C ,  7-C ) :   1.0971
B(  6-C , 19-H ) :   0.8835 B(  6-C , 20-H ) :   0.8915 B(  7-C ,  8-C ) :   1.7178
B(  7-C , 10-C ) :   1.0363 B(  8-C ,  9-C ) :   1.0952 B(  8-C , 11-O ) :   0.1045
B(  8-C , 21-H ) :   0.9325 B(  9-C , 22-H ) :   0.8726 B(  9-C , 23-H ) :   0.9117
B( 10-C , 11-O ) :   2.0981 B( 10-C , 24-H ) :   0.9169

Dispersion correction           -0.026842228
FINAL SINGLE POINT ENERGY      -463.621985572291

DIPOLE MOMENT
-------------

Method             : SCF
Type of density    : Electron Density
Multiplicity       :   1
Irrep              :   0
Energy             :  -463.6977199635670104 Eh
Relativity type    :
Basis              : AO
                                X                 Y                 Z
Electronic contribution:     -9.914579938       0.106678154      -1.114588406
Nuclear contribution   :     10.966327760       0.521604696       1.406482692
                        -----------------------------------------
Total Dipole Moment    :      1.051747822       0.628282850       0.291894286
                        -----------------------------------------
Magnitude (a.u.)       :      1.259410614
Magnitude (Debye)      :      3.201167380

Rotational constants in cm-1:             0.087248             0.019683             0.019176
Rotational constants in MHz :          2615.641049           590.087791           574.870655

                             ****ORCA TERMINATED NORMALLY****
TOTAL RUN TIME: 0 days 0 hours 0 minutes 18 seconds 622 msec
