                         Program Version 6.0.0  -   RELEASE  -
|  1> ! pbe def2-sv(p) def2/J RI DEFGRID1 loosescf d4 GCP(DFT/SV(P)) printgap
|  2> %output
|  3>     printlevel normal
|  4> end
|  5> * xyz 0 1
|  6> C 2.1410589213 -0.3914992122 1.2169393502
|  7> C 1.3375879762 -0.5033332539 -0.0744142971
|  8> C 0.286832973 0.6128862749 -0.2333502583
|  9> H 0.5492729238 1.4378457288 0.4403538052
| 10> C -1.1662453656 0.192606224 0.0880124147
| 11> C -1.7092254572 -0.8774066835 -0.8600126001
| 12> C -1.3070859729 -0.2627046115 1.5379567481
| 13> O 0.3601276521 1.2064278973 -1.5216559431
| 14> H 2.6615040761 0.5626666225 1.2572036548
| 15> H 2.8804791802 -1.1875295465 1.2651891777
| 16> H 1.4966787347 -0.4675050109 2.0879021513
| 17> H 2.0287570318 -0.426387201 -0.9169885132
| 18> H 0.8633620516 -1.4835582094 -0.1225424743
| 19> H -1.7712741006 1.0970377776 -0.0505086113
| 20> H -2.7385157449 -1.1053345611 -0.5939659638
| 21> H -1.7020597399 -0.530090215 -1.8902951398
| 22> H -1.1338291991 -1.7974655954 -0.7940095606
| 23> H -2.3563343421 -0.4209285569 1.7754269591
| 24> H -0.9120580739 0.4890314178 2.2169020223
| 25> H -0.7774489145 -1.1971952818 1.7020651594
| 26> H 0.1650474168 0.5297763688 -2.1842737327
| 27> *
| 28>
| 29>                          ****END OF INPUT****

CARTESIAN COORDINATES (ANGSTROEM)
---------------------------------
  C      2.141059   -0.391499    1.216939
  C      1.337588   -0.503333   -0.074414
  C      0.286833    0.612886   -0.233350
  H      0.549273    1.437846    0.440354
  C     -1.166245    0.192606    0.088012
  C     -1.709225   -0.877407   -0.860013
  C     -1.307086   -0.262705    1.537957
  O      0.360128    1.206428   -1.521656
  H      2.661504    0.562667    1.257204
  H      2.880479   -1.187530    1.265189
  H      1.496679   -0.467505    2.087902
  H      2.028757   -0.426387   -0.916989
  H      0.863362   -1.483558   -0.122542
  H     -1.771274    1.097038   -0.050509
  H     -2.738516   -1.105335   -0.593966
  H     -1.702060   -0.530090   -1.890295
  H     -1.133829   -1.797466   -0.794010
  H     -2.356334   -0.420929    1.775427
  H     -0.912058    0.489031    2.216902
  H     -0.777449   -1.197195    1.702065
  H      0.165047    0.529776   -2.184274

 Total Charge           Charge          ....    0
 Multiplicity           Mult            ....    1
 Number of Electrons    NEL             ....   58
 Basis Dimension        Dim             ....  126

ORBITAL ENERGIES
----------------

  NO   OCC          E(Eh)            E(eV)
   0   2.0000     -18.734725      -509.7978
   1   2.0000      -9.930066      -270.2108
   2   2.0000      -9.892960      -269.2011
   3   2.0000      -9.881474      -268.8886
   4   2.0000      -9.879134      -268.8249
   5   2.0000      -9.876090      -268.7421
   6   2.0000      -9.874976      -268.7118
   7   2.0000      -0.912951       -24.8427
   8   2.0000      -0.726849       -19.7786
   9   2.0000      -0.685392       -18.6505
  10   2.0000      -0.615931       -16.7603
  11   2.0000      -0.598396       -16.2832
  12   2.0000      -0.544228       -14.8092
  13   2.0000      -0.499801       -13.6003
  14   2.0000      -0.446236       -12.1427
  15   2.0000      -0.416109       -11.3229
  16   2.0000      -0.402108       -10.9419
  17   2.0000      -0.390685       -10.6311
  18   2.0000      -0.373604       -10.1663
  19   2.0000      -0.352529        -9.5928
  20   2.0000      -0.341080        -9.2813
  21   2.0000      -0.340015        -9.2523
  22   2.0000      -0.319732        -8.7003
  23   2.0000      -0.310803        -8.4574
  24   2.0000      -0.303354        -8.2547
  25   2.0000      -0.293903        -7.9975
  26   2.0000      -0.277623        -7.5545
  27   2.0000      -0.258114        -7.0236
  28   2.0000      -0.206449        -5.6178
  29   0.0000       0.027531         0.7492
  30   0.0000       0.042577         1.1586
  31   0.0000       0.057260         1.5581
  32   0.0000       0.071277         1.9396
  33   0.0000       0.083401         2.2695

MULLIKEN ATOMIC CHARGES
-----------------------
   0 C :   -0.295260
   1 C :   -0.183221
   2 C :    0.074022
   3 H :    0.064016
   4 C :   -0.156971
   5 C :   -0.280459
   6 C :   -0.258929
   7 O :   -0.428928
   8 H :    0.107497
   9 H :    0.101782
  10 H :    0.105886
  11 H :    0.083378
  12 H :    0.090186
  13 H :    0.075942
  14 H :    0.105122
  15 H :    0.090043
  16 H :    0.103707
  17 H :    0.100289
  18 H :    0.105014
  19 H :    0.104164
  20 H :    0.292718
Sum of atomic charges:   -0.0000000

LOEWDIN ATOMIC CHARGES
----------------------
   0 C :   -0.339618
   1 C :   -0.251858
   2 C :   -0.045035
   3 H :    0.110065
   4 C :   -0.167784
   5 C :   -0.338002
   6 C :   -0.330628
   7 O :   -0.326151
   8 H :    0.119750
   9 H :    0.119377
  10 H :    0.116545
  11 H :    0.119824
  12 H :    0.112505
  13 H :    0.119187
  14 H :    0.123873
  15 H :    0.110828
  16 H :    0.115955
  17 H :    0.119987
  18 H :    0.118469
  19 H :    0.117060
  20 H :    0.275652

  Mayer bond orders larger than 0.100000
B(  0-C ,  1-C ) :   1.1540 B(  0-C ,  8-H ) :   0.9519 B(  0-C ,  9-H ) :   0.9493
B(  0-C , 10-H ) :   0.9492 B(  1-C ,  2-C ) :   1.0306 B(  1-C , 11-H ) :   0.9163
B(  1-C , 12-H ) :   0.9136 B(  2-C ,  3-H ) :   0.9085 B(  2-C ,  4-C ) :   1.0296
B(  2-C ,  7-O ) :   1.0504 B(  4-C ,  5-C ) :   1.0983 B(  4-C ,  6-C ) :   1.0976
B(  4-C , 13-H ) :   0.8938 B(  5-C , 14-H ) :   0.9487 B(  5-C , 15-H ) :   0.9410
B(  5-C , 16-H ) :   0.9414 B(  6-C , 17-H ) :   0.9447 B(  6-C , 18-H ) :   0.9456
B(  6-C , 19-H ) :   0.9404 B(  7-O , 20-H ) :   0.8475

Dispersion correction           -0.016971313
FINAL SINGLE POINT ENERGY      -311.513831524676

DIPOLE MOMENT
-------------

Method             : SCF
Type of density    : Electron Density
Multiplicity       :   1
Irrep              :   0
Energy             :  -311.5934119528764654 Eh
Relativity type    :
Basis              : AO
                                X                 Y                 Z
Electronic contribution:      0.522096497       3.634252942      -3.828280302
Nuclear contribution   :     -0.694918242      -4.203490393       3.910629593
                        -----------------------------------------
Total Dipole Moment    :     -0.172821746      -0.569237451       0.082349291
                        -----------------------------------------
Magnitude (a.u.)       :      0.600566430
Magnitude (Debye)      :      1.526518551

Rotational constants in cm-1:             0.096298             0.069255             0.050431
Rotational constants in MHz :          2886.940405          2076.220409          1511.883311

                             ****ORCA TERMINATED NORMALLY****
TOTAL RUN TIME: 0 days 0 hours 0 minutes 8 seconds 772 msec
