                         Program Version 6.0.0  -   RELEASE  -
|  1> ! pbe def2-sv(p) def2/J RI DEFGRID1 loosescf d4 GCP(DFT/SV(P)) printgap
|  2> %output
|  3>     printlevel normal
|  4> end
|  5> * xyz 0 1
|  6> C 2.3950504074 -0.2840656392 -0.6411434576
|  7> O 1.1241568399 -0.8708320525 -0.3083313347
|  8> S -0.0001458899 0.175330432 -0.0004426314
|  9> O -0.3206415198 0.9390695543 -1.1719853459
| 10> O 0.3205084709 0.9368821337 1.1724777775
| 11> O -1.1246564928 -0.871149829 0.3055547436
| 12> C -2.3941360222 -0.2847249666 0.6442392608
| 13> H 2.2803060132 0.328457085 -1.5351947936
| 14> H 3.0665309487 -1.1209009676 -0.8155981317
| 15> H 2.7315359324 0.3303595307 0.1936941812
| 16> H -2.7339099806 0.3310874055 -0.1882177602
| 17> H -2.2756772061 0.3263610484 1.5387975894
| 18> H -3.064997446 -1.1217840906 0.8199673231
| 19> *
| 20>
| 21>                          ****END OF INPUT****

CARTESIAN COORDINATES (ANGSTROEM)
---------------------------------
  C      2.395050   -0.284066   -0.641143
  O      1.124157   -0.870832   -0.308331
  S     -0.000146    0.175330   -0.000443
  O     -0.320642    0.939070   -1.171985
  O      0.320508    0.936882    1.172478
  O     -1.124656   -0.871150    0.305555
  C     -2.394136   -0.284725    0.644239
  H      2.280306    0.328457   -1.535195
  H      3.066531   -1.120901   -0.815598
  H      2.731536    0.330360    0.193694
  H     -2.733910    0.331087   -0.188218
  H     -2.275677    0.326361    1.538798
  H     -3.064997   -1.121784    0.819967

 Total Charge           Charge          ....    0
 Multiplicity           Mult            ....    1
 Number of Electrons    NEL             ....   66
 Basis Dimension        Dim             ....  114

ORBITAL ENERGIES
----------------

  NO   OCC          E(Eh)            E(eV)
   0   2.0000     -88.283977     -2402.3292
   1   2.0000     -18.818179      -512.0687
   2   2.0000     -18.818079      -512.0660
   3   2.0000     -18.748395      -510.1698
   4   2.0000     -18.748260      -510.1661
   5   2.0000      -9.961643      -271.0701
   6   2.0000      -9.961620      -271.0695
   7   2.0000      -7.894904      -214.8313
   8   2.0000      -5.922421      -161.1573
   9   2.0000      -5.922272      -161.1532
  10   2.0000      -5.918812      -161.0590
  11   2.0000      -1.099277       -29.9129
  12   2.0000      -0.985860       -26.8266
  13   2.0000      -0.954161       -25.9640
  14   2.0000      -0.918079       -24.9822
  15   2.0000      -0.711579       -19.3631
  16   2.0000      -0.648263       -17.6401
  17   2.0000      -0.550602       -14.9826
  18   2.0000      -0.521794       -14.1987
  19   2.0000      -0.467730       -12.7276
  20   2.0000      -0.452056       -12.3011
  21   2.0000      -0.435509       -11.8508
  22   2.0000      -0.428346       -11.6559
  23   2.0000      -0.417112       -11.3502
  24   2.0000      -0.395070       -10.7504
  25   2.0000      -0.363807        -9.8997
  26   2.0000      -0.356994        -9.7143
  27   2.0000      -0.306279        -8.3343
  28   2.0000      -0.302281        -8.2255
  29   2.0000      -0.302028        -8.2186
  30   2.0000      -0.292896        -7.9701
  31   2.0000      -0.258150        -7.0246
  32   2.0000      -0.237195        -6.4544
  33   0.0000       0.013981         0.3804
  34   0.0000       0.036581         0.9954
  35   0.0000       0.051277         1.3953
  36   0.0000       0.059254         1.6124
  37   0.0000       0.084439         2.2977

MULLIKEN ATOMIC CHARGES
-----------------------
   0 C :   -0.118365
   1 O :   -0.367917
   2 S :    0.939414
   3 O :   -0.398392
   4 O :   -0.398462
   5 O :   -0.367908
   6 C :   -0.118344
   7 H :    0.134817
   8 H :    0.144967
   9 H :    0.135211
  10 H :    0.135146
  11 H :    0.134867
  12 H :    0.144965
Sum of atomic charges:   -0.0000000

LOEWDIN ATOMIC CHARGES
----------------------
   0 C :   -0.216848
   1 O :   -0.264822
   2 S :    1.123745
   3 O :   -0.457172
   4 O :   -0.457174
   5 O :   -0.264812
   6 C :   -0.216847
   7 H :    0.121810
   8 H :    0.133281
   9 H :    0.121876
  10 H :    0.121868
  11 H :    0.121814
  12 H :    0.133282

  Mayer bond orders larger than 0.100000
B(  0-C ,  1-O ) :   0.9001 B(  0-C ,  7-H ) :   0.9464 B(  0-C ,  8-H ) :   0.9571
B(  0-C ,  9-H ) :   0.9459 B(  1-O ,  2-S ) :   1.0441 B(  2-S ,  3-O ) :   1.7927
B(  2-S ,  4-O ) :   1.7922 B(  2-S ,  5-O ) :   1.0441 B(  5-O ,  6-C ) :   0.9001
B(  6-C , 10-H ) :   0.9460 B(  6-C , 11-H ) :   0.9464 B(  6-C , 12-H ) :   0.9571

Dispersion correction           -0.011495093
FINAL SINGLE POINT ENERGY      -777.742194140852

DIPOLE MOMENT
-------------

Method             : SCF
Type of density    : Electron Density
Multiplicity       :   1
Irrep              :   0
Energy             :  -777.8008705670347354 Eh
Relativity type    :
Basis              : AO
                                X                 Y                 Z
Electronic contribution:     -0.002890706       0.328799753      -0.010404569
Nuclear contribution   :      0.003548860      -0.872190453       0.012595803
                        -----------------------------------------
Total Dipole Moment    :      0.000658154      -0.543390699       0.002191234
                        -----------------------------------------
Magnitude (a.u.)       :      0.543395516
Magnitude (Debye)      :      1.381201636

Rotational constants in cm-1:             0.154939             0.058322             0.056780
Rotational constants in MHz :          4644.944874          1748.460088          1702.225804

                             ****ORCA TERMINATED NORMALLY****
TOTAL RUN TIME: 0 days 0 hours 0 minutes 7 seconds 356 msec
