                         Program Version 6.0.0  -   RELEASE  -
|  1> ! pbe def2-sv(p) def2/J RI DEFGRID1 loosescf d4 GCP(DFT/SV(P)) printgap
|  2> %output
|  3>     printlevel normal
|  4> end
|  5> * xyz 0 1
|  6> C -2.8973737878 -0.1412228606 0.1948704651
|  7> C -1.652692285 0.73521846 0.2169699365
|  8> C -0.4042599423 -0.0397504805 -0.1184550909
|  9> O -0.3391112177 -1.2421822991 -0.2562354603
| 10> O 0.6402409394 0.7743628079 -0.2517348355
| 11> C 1.9251292614 0.1968923092 -0.5384116786
| 12> C 2.640771001 -0.2132180588 0.7396454168
| 13> H -3.7702794574 0.4412537035 0.4725802595
| 14> H -3.0502357726 -0.5571515289 -0.7977313036
| 15> H -2.7862291169 -0.9692300349 0.8903384088
| 16> H -1.5047152982 1.170105642 1.2076453448
| 17> H -1.734550791 1.5604283476 -0.4916337228
| 18> H 1.7807474512 -0.6676962385 -1.1935342105
| 19> H 2.4684316402 0.9835555668 -1.0627633761
| 20> H 2.0854710555 -1.0032400698 1.2404760382
| 21> H 3.632002947 -0.5804416064 0.4947135211
| 22> H 2.7280395988 0.638272576 1.4091228033
| 23> *
| 24>
| 25>                          ****END OF INPUT****

CARTESIAN COORDINATES (ANGSTROEM)
---------------------------------
  C     -2.897374   -0.141223    0.194870
  C     -1.652692    0.735218    0.216970
  C     -0.404260   -0.039750   -0.118455
  O     -0.339111   -1.242182   -0.256235
  O      0.640241    0.774363   -0.251735
  C      1.925129    0.196892   -0.538412
  C      2.640771   -0.213218    0.739645
  H     -3.770279    0.441254    0.472580
  H     -3.050236   -0.557152   -0.797731
  H     -2.786229   -0.969230    0.890338
  H     -1.504715    1.170106    1.207645
  H     -1.734551    1.560428   -0.491634
  H      1.780747   -0.667696   -1.193534
  H      2.468432    0.983556   -1.062763
  H      2.085471   -1.003240    1.240476
  H      3.632003   -0.580442    0.494714
  H      2.728040    0.638273    1.409123

 Total Charge           Charge          ....    0
 Multiplicity           Mult            ....    1
 Number of Electrons    NEL             ....   56
 Basis Dimension        Dim             ....  118

ORBITAL ENERGIES
----------------

  NO   OCC          E(Eh)            E(eV)
   0   2.0000     -18.795000      -511.4379
   1   2.0000     -18.733321      -509.7596
   2   2.0000     -10.005513      -272.2639
   3   2.0000      -9.945673      -270.6355
   4   2.0000      -9.900060      -269.3943
   5   2.0000      -9.886347      -269.0212
   6   2.0000      -9.877938      -268.7924
   7   2.0000      -1.002381       -27.2762
   8   2.0000      -0.909684       -24.7537
   9   2.0000      -0.717972       -19.5370
  10   2.0000      -0.685937       -18.6653
  11   2.0000      -0.608728       -16.5643
  12   2.0000      -0.556484       -15.1427
  13   2.0000      -0.491985       -13.3876
  14   2.0000      -0.451676       -12.2907
  15   2.0000      -0.435372       -11.8471
  16   2.0000      -0.419144       -11.4055
  17   2.0000      -0.393038       -10.6951
  18   2.0000      -0.389205       -10.5908
  19   2.0000      -0.357042        -9.7156
  20   2.0000      -0.346887        -9.4393
  21   2.0000      -0.337283        -9.1779
  22   2.0000      -0.326905        -8.8955
  23   2.0000      -0.317219        -8.6320
  24   2.0000      -0.304311        -8.2807
  25   2.0000      -0.289343        -7.8734
  26   2.0000      -0.254922        -6.9368
  27   2.0000      -0.219642        -5.9768
  28   0.0000      -0.018442        -0.5018
  29   0.0000       0.040523         1.1027
  30   0.0000       0.057942         1.5767
  31   0.0000       0.081660         2.2221
  32   0.0000       0.090436         2.4609

MULLIKEN ATOMIC CHARGES
-----------------------
   0 C :   -0.266228
   1 C :   -0.191359
   2 C :    0.114322
   3 O :   -0.207504
   4 O :   -0.244141
   5 C :   -0.011248
   6 C :   -0.303497
   7 H :    0.101004
   8 H :    0.110832
   9 H :    0.114117
  10 H :    0.115591
  11 H :    0.112131
  12 H :    0.107012
  13 H :    0.100308
  14 H :    0.125210
  15 H :    0.111498
  16 H :    0.111952
Sum of atomic charges:    0.0000000

LOEWDIN ATOMIC CHARGES
----------------------
   0 C :   -0.336921
   1 C :   -0.259503
   2 C :    0.038734
   3 O :   -0.167480
   4 O :   -0.074208
   5 C :   -0.112675
   6 C :   -0.356344
   7 H :    0.120302
   8 H :    0.124736
   9 H :    0.126175
  10 H :    0.141213
  11 H :    0.137902
  12 H :    0.118573
  13 H :    0.116259
  14 H :    0.129749
  15 H :    0.129786
  16 H :    0.123701

  Mayer bond orders larger than 0.100000
B(  0-C ,  1-C ) :   1.1546 B(  0-C ,  7-H ) :   0.9484 B(  0-C ,  8-H ) :   0.9572
B(  0-C ,  9-H ) :   0.9522 B(  1-C ,  2-C ) :   1.0180 B(  1-C , 10-H ) :   0.9006
B(  1-C , 11-H ) :   0.9055 B(  2-C ,  3-O ) :   2.0482 B(  2-C ,  4-O ) :   1.2071
B(  4-O ,  5-C ) :   0.9250 B(  5-C ,  6-C ) :   1.1722 B(  5-C , 12-H ) :   0.9142
B(  5-C , 13-H ) :   0.9376 B(  6-C , 14-H ) :   0.9470 B(  6-C , 15-H ) :   0.9446
B(  6-C , 16-H ) :   0.9494

Dispersion correction           -0.011909966
FINAL SINGLE POINT ENERGY      -346.246118309528

DIPOLE MOMENT
-------------

Method             : SCF
Type of density    : Electron Density
Multiplicity       :   1
Irrep              :   0
Energy             :  -346.3109361099436114 Eh
Relativity type    :
Basis              : AO
                                X                 Y                 Z
Electronic contribution:      0.445799802      -0.334990055      -1.938729788
Nuclear contribution   :     -0.137496747       0.946107151       2.027553958
                        -----------------------------------------
Total Dipole Moment    :      0.308303054       0.611117096       0.088824170
                        -----------------------------------------
Magnitude (a.u.)       :      0.690220697
Magnitude (Debye)      :      1.754401588

Rotational constants in cm-1:             0.229097             0.045971             0.042768
Rotational constants in MHz :          6868.142912          1378.179457          1282.156931

                             ****ORCA TERMINATED NORMALLY****
TOTAL RUN TIME: 0 days 0 hours 0 minutes 8 seconds 641 msec
