                         Program Version 6.0.0  -   RELEASE  -
|  1> ! pbe def2-sv(p) def2/J RI DEFGRID1 loosescf d4 GCP(DFT/SV(P)) printgap
|  2> %output
|  3>     printlevel normal
|  4> end
|  5> * xyz 0 1
|  6> C 2.7790521988 -0.4096551252 1.7947057112
|  7> C 3.2089821659 -1.0716718894 0.4850401719
|  8> C 3.3034471209 -0.0791650535 -0.6480432502
|  9> O 4.3684734565 0.144114066 -1.2145098926
| 10> N 2.214955581 0.6437722084 -1.0203311784
| 11> C 0.8741278226 0.6262280913 -0.6320903207
| 12> C 0.1895638729 1.8427618978 -0.5814190331
| 13> C -1.1435017118 1.8896291285 -0.2281360838
| 14> C -1.8249680843 0.7201631417 0.0747797536
| 15> C -1.1586197215 -0.4965519466 -0.00051347
| 16> C 0.1775017419 -0.5484511856 -0.3588085603
| 17> Cl -1.9999103016 -1.9738058524 0.3394563094
| 18> Cl -3.4979214746 0.7783236143 0.5270806945
| 19> H 2.8146620236 -1.1409841347 2.5971220283
| 20> H 1.7681898197 -0.017763959 1.7288780223
| 21> H 3.4549905381 0.405048736 2.0425080597
| 22> H 2.5298992748 -1.8822042072 0.2284314561
| 23> H 4.2078868521 -1.4965329341 0.6003829156
| 24> H 2.4562348563 1.3967630945 -1.6576664087
| 25> H 0.7085998948 2.7585177487 -0.8133490069
| 26> H -1.6652268012 2.8308371469 -0.1820389185
| 27> H 0.6510172362 -1.510375467 -0.4402635758
| 28> *
| 29>
| 30>                          ****END OF INPUT****

CARTESIAN COORDINATES (ANGSTROEM)
---------------------------------
  C      2.779052   -0.409655    1.794706
  C      3.208982   -1.071672    0.485040
  C      3.303447   -0.079165   -0.648043
  O      4.368473    0.144114   -1.214510
  N      2.214956    0.643772   -1.020331
  C      0.874128    0.626228   -0.632090
  C      0.189564    1.842762   -0.581419
  C     -1.143502    1.889629   -0.228136
  C     -1.824968    0.720163    0.074780
  C     -1.158620   -0.496552   -0.000513
  C      0.177502   -0.548451   -0.358809
  Cl    -1.999910   -1.973806    0.339456
  Cl    -3.497921    0.778324    0.527081
  H      2.814662   -1.140984    2.597122
  H      1.768190   -0.017764    1.728878
  H      3.454991    0.405049    2.042508
  H      2.529899   -1.882204    0.228431
  H      4.207887   -1.496533    0.600383
  H      2.456235    1.396763   -1.657666
  H      0.708600    2.758518   -0.813349
  H     -1.665227    2.830837   -0.182039
  H      0.651017   -1.510375   -0.440264

 Total Charge           Charge          ....    0
 Multiplicity           Mult            ....    1
 Number of Electrons    NEL             ....  112
 Basis Dimension        Dim             ....  208

ORBITAL ENERGIES
----------------

  NO   OCC          E(Eh)            E(eV)
   0   2.0000    -100.654295     -2738.9426
   1   2.0000    -100.651596     -2738.8692
   2   2.0000     -18.725840      -509.5560
   3   2.0000     -14.042274      -382.1097
   4   2.0000      -9.997265      -272.0394
   5   2.0000      -9.974022      -271.4069
   6   2.0000      -9.967701      -271.2349
   7   2.0000      -9.966027      -271.1894
   8   2.0000      -9.924215      -270.0516
   9   2.0000      -9.923720      -270.0381
  10   2.0000      -9.920114      -269.9400
  11   2.0000      -9.906050      -269.5573
  12   2.0000      -9.892359      -269.1848
  13   2.0000      -9.189991      -250.0724
  14   2.0000      -9.187224      -249.9971
  15   2.0000      -7.021585      -191.0671
  16   2.0000      -7.018848      -190.9926
  17   2.0000      -7.010008      -190.7520
  18   2.0000      -7.009150      -190.7287
  19   2.0000      -7.007201      -190.6756
  20   2.0000      -7.006417      -190.6543
  21   2.0000      -0.947909       -25.7939
  22   2.0000      -0.869249       -23.6535
  23   2.0000      -0.842285       -22.9198
  24   2.0000      -0.790301       -21.5052
  25   2.0000      -0.768760       -20.9190
  26   2.0000      -0.714581       -19.4447
  27   2.0000      -0.692087       -18.8326
  28   2.0000      -0.672571       -18.3016
  29   2.0000      -0.603068       -16.4103
  30   2.0000      -0.580603       -15.7990
  31   2.0000      -0.570834       -15.5332
  32   2.0000      -0.536914       -14.6102
  33   2.0000      -0.503008       -13.6875
  34   2.0000      -0.463277       -12.6064
  35   2.0000      -0.455867       -12.4048
  36   2.0000      -0.432663       -11.7734
  37   2.0000      -0.422990       -11.5101
  38   2.0000      -0.409605       -11.1459
  39   2.0000      -0.404967       -11.0197
  40   2.0000      -0.400432       -10.8963
  41   2.0000      -0.386208       -10.5093
  42   2.0000      -0.372572       -10.1382
  43   2.0000      -0.362239        -9.8570
  44   2.0000      -0.350536        -9.5386
  45   2.0000      -0.340712        -9.2712
  46   2.0000      -0.333917        -9.0863
  47   2.0000      -0.315967        -8.5979
  48   2.0000      -0.314429        -8.5560
  49   2.0000      -0.309279        -8.4159
  50   2.0000      -0.291350        -7.9280
  51   2.0000      -0.268372        -7.3028
  52   2.0000      -0.262834        -7.1521
  53   2.0000      -0.241583        -6.5738
  54   2.0000      -0.209947        -5.7129
  55   2.0000      -0.207520        -5.6469
  56   0.0000      -0.067108        -1.8261
  57   0.0000      -0.064636        -1.7588
  58   0.0000      -0.025959        -0.7064
  59   0.0000      -0.012732        -0.3465
  60   0.0000       0.025346         0.6897

MULLIKEN ATOMIC CHARGES
-----------------------
   0 C :   -0.306281
   1 C :   -0.195845
   2 C :    0.040236
   3 O :   -0.205435
   4 N :   -0.185408
   5 C :    0.210393
   6 C :   -0.111523
   7 C :   -0.107665
   8 C :    0.086144
   9 C :    0.076364
  10 C :   -0.177450
  11 Cl:   -0.049412
  12 Cl:   -0.054849
  13 H :    0.115934
  14 H :    0.140615
  15 H :    0.115354
  16 H :    0.119569
  17 H :    0.106272
  18 H :    0.236433
  19 H :    0.046920
  20 H :    0.059248
  21 H :    0.040388
Sum of atomic charges:   -0.0000000

LOEWDIN ATOMIC CHARGES
----------------------
   0 C :   -0.338583
   1 C :   -0.254351
   2 C :    0.031234
   3 O :   -0.188684
   4 N :   -0.109164
   5 C :   -0.002721
   6 C :   -0.137458
   7 C :   -0.123488
   8 C :   -0.164395
   9 C :   -0.145491
  10 C :   -0.152811
  11 Cl:    0.146902
  12 Cl:    0.141423
  13 H :    0.127449
  14 H :    0.124910
  15 H :    0.126273
  16 H :    0.129969
  17 H :    0.139505
  18 H :    0.243830
  19 H :    0.131431
  20 H :    0.137768
  21 H :    0.136448

  Mayer bond orders larger than 0.100000
B(  0-C ,  1-C ) :   1.1292 B(  0-C , 13-H ) :   0.9480 B(  0-C , 14-H ) :   0.9387
B(  0-C , 15-H ) :   0.9526 B(  1-C ,  2-C ) :   1.0410 B(  1-C , 16-H ) :   0.8923
B(  1-C , 17-H ) :   0.9021 B(  2-C ,  3-O ) :   2.1030 B(  2-C ,  4-N ) :   1.1483
B(  4-N ,  5-C ) :   1.0340 B(  4-N , 18-H ) :   0.8372 B(  5-C ,  6-C ) :   1.3239
B(  5-C , 10-C ) :   1.3040 B(  6-C ,  7-C ) :   1.3542 B(  6-C , 19-H ) :   0.9658
B(  7-C ,  8-C ) :   1.3683 B(  7-C , 20-H ) :   0.9628 B(  8-C ,  9-C ) :   1.4155
B(  8-C , 12-Cl) :   1.0353 B(  9-C , 10-C ) :   1.3659 B(  9-C , 11-Cl) :   1.0418
B( 10-C , 21-H ) :   0.9607

Dispersion correction           -0.029315234
FINAL SINGLE POINT ENERGY     -1397.087123875753

DIPOLE MOMENT
-------------

Method             : SCF
Type of density    : Electron Density
Multiplicity       :   1
Irrep              :   0
Energy             : -1397.1458717125524345 Eh
Relativity type    :
Basis              : AO
                                X                 Y                 Z
Electronic contribution:    -23.716357552      -2.449764570      -2.407782699
Nuclear contribution   :     23.335830276       2.870512421       2.663611885
                        -----------------------------------------
Total Dipole Moment    :     -0.380527276       0.420747850       0.255829186
                        -----------------------------------------
Magnitude (a.u.)       :      0.622316908
Magnitude (Debye)      :      1.581803872

Rotational constants in cm-1:             0.039943             0.010914             0.009461
Rotational constants in MHz :          1197.448340           327.195777           283.626370

                             ****ORCA TERMINATED NORMALLY****
TOTAL RUN TIME: 0 days 0 hours 0 minutes 15 seconds 919 msec
