                         Program Version 6.0.0  -   RELEASE  -
|  1> ! pbe def2-sv(p) def2/J RI DEFGRID1 loosescf d4 GCP(DFT/SV(P)) printgap
|  2> %output
|  3>     printlevel normal
|  4> end
|  5> * xyz 0 1
|  6> C 1.8290459625 -0.9859249641 0.0021238447
|  7> C 1.7922074172 0.5068920722 -0.3033393493
|  8> C 0.5637965339 1.2232354813 0.2603777303
|  9> C -0.7490186611 0.860770199 -0.4231671097
| 10> S -1.5200327826 -0.6933654385 0.1710729432
| 11> H 2.7577741381 -1.4194926487 -0.3613358308
| 12> H 1.0030476998 -1.5056433175 -0.4759500774
| 13> H 1.7658453307 -1.1580882258 1.0743170953
| 14> H 1.8284001544 0.6570714822 -1.3850187667
| 15> H 2.6818084754 0.9751966895 0.1241511183
| 16> H 0.7073584958 2.2989813556 0.1311036227
| 17> H 0.4874370102 1.0255201334 1.3316800011
| 18> H -1.4930184651 1.6433355825 -0.2789942418
| 19> H -0.6055682387 0.704120623 -1.4919537266
| 20> H -1.7216726601 -0.2885762373 1.4189330623
| 21> *
| 22>
| 23>                          ****END OF INPUT****

CARTESIAN COORDINATES (ANGSTROEM)
---------------------------------
  C      1.829046   -0.985925    0.002124
  C      1.792207    0.506892   -0.303339
  C      0.563797    1.223235    0.260378
  C     -0.749019    0.860770   -0.423167
  S     -1.520033   -0.693365    0.171073
  H      2.757774   -1.419493   -0.361336
  H      1.003048   -1.505643   -0.475950
  H      1.765845   -1.158088    1.074317
  H      1.828400    0.657071   -1.385019
  H      2.681808    0.975197    0.124151
  H      0.707358    2.298981    0.131104
  H      0.487437    1.025520    1.331680
  H     -1.493018    1.643336   -0.278994
  H     -0.605568    0.704121   -1.491954
  H     -1.721673   -0.288576    1.418933

 Total Charge           Charge          ....    0
 Multiplicity           Mult            ....    1
 Number of Electrons    NEL             ....   50
 Basis Dimension        Dim             ....   94

ORBITAL ENERGIES
----------------

  NO   OCC          E(Eh)            E(eV)
   0   2.0000     -88.012608     -2394.9448
   1   2.0000      -9.917045      -269.8565
   2   2.0000      -9.890965      -269.1468
   3   2.0000      -9.884461      -268.9698
   4   2.0000      -9.864435      -268.4249
   5   2.0000      -7.658971      -208.4112
   6   2.0000      -5.687502      -154.7648
   7   2.0000      -5.683380      -154.6526
   8   2.0000      -5.675060      -154.4262
   9   2.0000      -0.737369       -20.0648
  10   2.0000      -0.682076       -18.5602
  11   2.0000      -0.622325       -16.9343
  12   2.0000      -0.555255       -15.1092
  13   2.0000      -0.510184       -13.8828
  14   2.0000      -0.423735       -11.5304
  15   2.0000      -0.408354       -11.1119
  16   2.0000      -0.388349       -10.5675
  17   2.0000      -0.362322        -9.8593
  18   2.0000      -0.348120        -9.4728
  19   2.0000      -0.323593        -8.8054
  20   2.0000      -0.306069        -8.3286
  21   2.0000      -0.292250        -7.9525
  22   2.0000      -0.289450        -7.8763
  23   2.0000      -0.271875        -7.3981
  24   2.0000      -0.189800        -5.1647
  25   0.0000       0.005030         0.1369
  26   0.0000       0.040914         1.1133
  27   0.0000       0.044249         1.2041
  28   0.0000       0.066097         1.7986
  29   0.0000       0.076521         2.0822

MULLIKEN ATOMIC CHARGES
-----------------------
   0 C :   -0.274419
   1 C :   -0.191954
   2 C :   -0.124380
   3 C :   -0.291079
   4 S :   -0.177937
   5 H :    0.096498
   6 H :    0.118295
   7 H :    0.091549
   8 H :    0.084315
   9 H :    0.087313
  10 H :    0.087879
  11 H :    0.083910
  12 H :    0.133992
  13 H :    0.134486
  14 H :    0.141530
Sum of atomic charges:   -0.0000000

LOEWDIN ATOMIC CHARGES
----------------------
   0 C :   -0.349854
   1 C :   -0.232559
   2 C :   -0.244751
   3 C :   -0.332255
   4 S :    0.027308
   5 H :    0.115461
   6 H :    0.113509
   7 H :    0.114991
   8 H :    0.113100
   9 H :    0.115528
  10 H :    0.120552
  11 H :    0.114180
  12 H :    0.123013
  13 H :    0.126832
  14 H :    0.074946

  Mayer bond orders larger than 0.100000
B(  0-C ,  1-C ) :   1.1624 B(  0-C ,  5-H ) :   0.9485 B(  0-C ,  6-H ) :   0.9440
B(  0-C ,  7-H ) :   0.9543 B(  1-C ,  2-C ) :   1.1304 B(  1-C ,  8-H ) :   0.9263
B(  1-C ,  9-H ) :   0.9276 B(  2-C ,  3-C ) :   1.0652 B(  2-C , 10-H ) :   0.9103
B(  2-C , 11-H ) :   0.9255 B(  3-C ,  4-S ) :   1.0728 B(  3-C , 12-H ) :   0.9314
B(  3-C , 13-H ) :   0.9261 B(  4-S , 14-H ) :   0.9074

Dispersion correction           -0.011732474
FINAL SINGLE POINT ENERGY      -555.909505669438

DIPOLE MOMENT
-------------

Method             : SCF
Type of density    : Electron Density
Multiplicity       :   1
Irrep              :   0
Energy             :  -555.9610522988664343 Eh
Relativity type    :
Basis              : AO
                                X                 Y                 Z
Electronic contribution:     -6.806363172      -2.199096274       0.068480782
Nuclear contribution   :      6.996321387       2.770798577       0.076702468
                        -----------------------------------------
Total Dipole Moment    :      0.189958215       0.571702303       0.145183250
                        -----------------------------------------
Magnitude (a.u.)       :      0.619682034
Magnitude (Debye)      :      1.575106555

Rotational constants in cm-1:             0.199706             0.080468             0.063057
Rotational constants in MHz :          5987.028892          2412.378865          1890.414785

                             ****ORCA TERMINATED NORMALLY****
TOTAL RUN TIME: 0 days 0 hours 0 minutes 5 seconds 564 msec
