                         Program Version 6.0.0  -   RELEASE  -
|  1> ! pbe def2-sv(p) def2/J RI DEFGRID1 loosescf d4 GCP(DFT/SV(P)) printgap
|  2> %output
|  3>     printlevel normal
|  4> end
|  5> * xyz 0 1
|  6> C -2.5347384451 -0.1140227078 0.4889838675
|  7> C -1.8012841434 -1.2503534199 0.1945858113
|  8> C -0.5208622065 -1.1363964929 -0.3203349431
|  9> C 0.0416652509 0.1131042672 -0.5507062466
| 10> C -0.7032695216 1.2482331571 -0.2500054029
| 11> C -1.9822516443 1.1365099896 0.2646611748
| 12> C 1.4461655626 0.2432993752 -1.0676795316
| 13> C 2.4365283248 0.4861764499 0.0832822915
| 14> O 2.5902397086 -0.6338276281 0.9267018858
| 15> H -3.533827069 -0.201438612 0.8886177468
| 16> H -2.226586318 -2.2282132447 0.3649765916
| 17> H 0.0459209761 -2.0265923076 -0.5530629246
| 18> H -0.2768685356 2.2253045093 -0.4263237906
| 19> H -2.5510069242 2.0264390475 0.4898031344
| 20> H 1.7426332321 -0.6663202732 -1.5918443662
| 21> H 1.516561044 1.0863617047 -1.755422358
| 22> H 3.4330864331 0.6803384145 -0.3194554374
| 23> H 2.1168551984 1.3597808627 0.6677012691
| 24> H 1.7315246459 -0.8524829252 1.3148900237
| 25> *
| 26>
| 27>                          ****END OF INPUT****

CARTESIAN COORDINATES (ANGSTROEM)
---------------------------------
  C     -2.534738   -0.114023    0.488984
  C     -1.801284   -1.250353    0.194586
  C     -0.520862   -1.136396   -0.320335
  C      0.041665    0.113104   -0.550706
  C     -0.703270    1.248233   -0.250005
  C     -1.982252    1.136510    0.264661
  C      1.446166    0.243299   -1.067680
  C      2.436528    0.486176    0.083282
  O      2.590240   -0.633828    0.926702
  H     -3.533827   -0.201439    0.888618
  H     -2.226586   -2.228213    0.364977
  H      0.045921   -2.026592   -0.553063
  H     -0.276869    2.225305   -0.426324
  H     -2.551007    2.026439    0.489803
  H      1.742633   -0.666320   -1.591844
  H      1.516561    1.086362   -1.755422
  H      3.433086    0.680338   -0.319455
  H      2.116855    1.359781    0.667701
  H      1.731525   -0.852483    1.314890

 Total Charge           Charge          ....    0
 Multiplicity           Mult            ....    1
 Number of Electrons    NEL             ....   66
 Basis Dimension        Dim             ....  146

ORBITAL ENERGIES
----------------

  NO   OCC          E(Eh)            E(eV)
   0   2.0000     -18.739552      -509.9291
   1   2.0000      -9.932319      -270.2721
   2   2.0000      -9.907278      -269.5907
   3   2.0000      -9.896600      -269.3002
   4   2.0000      -9.896429      -269.2955
   5   2.0000      -9.895557      -269.2718
   6   2.0000      -9.895452      -269.2689
   7   2.0000      -9.894802      -269.2513
   8   2.0000      -9.892223      -269.1811
   9   2.0000      -0.916556       -24.9408
  10   2.0000      -0.783555       -21.3216
  11   2.0000      -0.709457       -19.3053
  12   2.0000      -0.674549       -18.3554
  13   2.0000      -0.645269       -17.5587
  14   2.0000      -0.570056       -15.5120
  15   2.0000      -0.547949       -14.9104
  16   2.0000      -0.521932       -14.2025
  17   2.0000      -0.466935       -12.7060
  18   2.0000      -0.454607       -12.3705
  19   2.0000      -0.419125       -11.4050
  20   2.0000      -0.412545       -11.2259
  21   2.0000      -0.393542       -10.7088
  22   2.0000      -0.383162       -10.4264
  23   2.0000      -0.377898       -10.2831
  24   2.0000      -0.347854        -9.4656
  25   2.0000      -0.337150        -9.1743
  26   2.0000      -0.329164        -8.9570
  27   2.0000      -0.302335        -8.2270
  28   2.0000      -0.300467        -8.1761
  29   2.0000      -0.273589        -7.4447
  30   2.0000      -0.234737        -6.3875
  31   2.0000      -0.230821        -6.2810
  32   2.0000      -0.210612        -5.7310
  33   0.0000      -0.041682        -1.1342
  34   0.0000      -0.038485        -1.0472
  35   0.0000       0.037320         1.0155
  36   0.0000       0.050254         1.3675
  37   0.0000       0.059978         1.6321

MULLIKEN ATOMIC CHARGES
-----------------------
   0 C :   -0.048778
   1 C :   -0.045084
   2 C :   -0.135027
   3 C :    0.033776
   4 C :   -0.110219
   5 C :   -0.046181
   6 C :   -0.117073
   7 C :    0.014776
   8 O :   -0.443914
   9 H :    0.054823
  10 H :    0.053711
  11 H :    0.046895
  12 H :    0.041911
  13 H :    0.053411
  14 H :    0.091998
  15 H :    0.085276
  16 H :    0.092970
  17 H :    0.074455
  18 H :    0.302274
Sum of atomic charges:    0.0000000

LOEWDIN ATOMIC CHARGES
----------------------
   0 C :   -0.127037
   1 C :   -0.120542
   2 C :   -0.134603
   3 C :   -0.049270
   4 C :   -0.122316
   5 C :   -0.118972
   6 C :   -0.233903
   7 C :   -0.113430
   8 O :   -0.342090
   9 H :    0.124042
  10 H :    0.124507
  11 H :    0.123136
  12 H :    0.121402
  13 H :    0.124280
  14 H :    0.126399
  15 H :    0.128504
  16 H :    0.113013
  17 H :    0.095491
  18 H :    0.281389

  Mayer bond orders larger than 0.100000
B(  0-C ,  1-C ) :   1.3865 B(  0-C ,  5-C ) :   1.3729 B(  0-C ,  9-H ) :   0.9656
B(  1-C ,  2-C ) :   1.3614 B(  1-C , 10-H ) :   0.9643 B(  2-C ,  3-C ) :   1.3958
B(  2-C , 11-H ) :   0.9607 B(  3-C ,  4-C ) :   1.3801 B(  3-C ,  6-C ) :   1.0617
B(  4-C ,  5-C ) :   1.3815 B(  4-C , 12-H ) :   0.9610 B(  5-C , 13-H ) :   0.9638
B(  6-C ,  7-C ) :   1.0807 B(  6-C , 14-H ) :   0.8999 B(  6-C , 15-H ) :   0.8908
B(  7-C ,  8-O ) :   1.0824 B(  7-C , 16-H ) :   0.9279 B(  7-C , 17-H ) :   0.9245
B(  8-O , 18-H ) :   0.8416

Dispersion correction           -0.018993896
FINAL SINGLE POINT ENERGY      -385.221947270397

DIPOLE MOMENT
-------------

Method             : SCF
Type of density    : Electron Density
Multiplicity       :   1
Irrep              :   0
Energy             :  -385.2838322254662557 Eh
Relativity type    :
Basis              : AO
                                X                 Y                 Z
Electronic contribution:     -2.432192624      -1.046265426       0.744535314
Nuclear contribution   :      1.913123216       1.307023576      -0.849494130
                        -----------------------------------------
Total Dipole Moment    :     -0.519069407       0.260758150      -0.104958816
                        -----------------------------------------
Magnitude (a.u.)       :      0.590291636
Magnitude (Debye)      :      1.500402099

Rotational constants in cm-1:             0.113464             0.035924             0.031785
Rotational constants in MHz :          3401.576914          1076.979350           952.896751

                             ****ORCA TERMINATED NORMALLY****
TOTAL RUN TIME: 0 days 0 hours 0 minutes 8 seconds 71 msec
