                         Program Version 6.0.0  -   RELEASE  -
|  1> ! pbe def2-sv(p) def2/J RI DEFGRID1 loosescf d4 GCP(DFT/SV(P)) printgap
|  2> %output
|  3>     printlevel normal
|  4> end
|  5> * xyz 0 1
|  6> C 1.4809656239 -0.5465183814 -1.152244216
|  7> C 1.092097298 -0.1083704432 0.2621366549
|  8> C 2.2237545767 0.7012353371 0.8959313441
|  9> O -0.0467034583 0.7490886724 0.299838691
| 10> C -1.3630375197 0.2271114525 0.1309524348
| 11> C -1.753940543 0.0395349912 -1.3392785975
| 12> C -1.6510317261 -1.0386854836 0.9383069639
| 13> H 1.4949795766 0.3167993292 -1.8124486467
| 14> H 2.4721958478 -0.9904138937 -1.1302243933
| 15> H 0.7862007342 -1.2809647413 -1.5482702363
| 16> H 0.9060308599 -0.9979475003 0.8801929607
| 17> H 1.9236238752 1.0434565019 1.8824107018
| 18> H 2.4374656005 1.5708617641 0.2807994145
| 19> H 3.1176208454 0.0916570975 0.9835743788
| 20> H -1.9713356127 1.0460721412 0.5388805489
| 21> H -1.404266154 0.8868013038 -1.9230356162
| 22> H -1.3303881074 -0.8717627234 -1.751273138
| 23> H -2.8359268153 -0.0178902966 -1.4173459642
| 24> H -2.7212589792 -1.2220219669 0.9303706737
| 25> H -1.3254299627 -0.914723499 1.9685388932
| 26> H -1.1514385776 -1.9029797304 0.5065713558
| 27> *
| 28>
| 29>                          ****END OF INPUT****

CARTESIAN COORDINATES (ANGSTROEM)
---------------------------------
  C      1.480966   -0.546518   -1.152244
  C      1.092097   -0.108370    0.262137
  C      2.223755    0.701235    0.895931
  O     -0.046703    0.749089    0.299839
  C     -1.363038    0.227111    0.130952
  C     -1.753941    0.039535   -1.339279
  C     -1.651032   -1.038685    0.938307
  H      1.494980    0.316799   -1.812449
  H      2.472196   -0.990414   -1.130224
  H      0.786201   -1.280965   -1.548270
  H      0.906031   -0.997948    0.880193
  H      1.923624    1.043457    1.882411
  H      2.437466    1.570862    0.280799
  H      3.117621    0.091657    0.983574
  H     -1.971336    1.046072    0.538881
  H     -1.404266    0.886801   -1.923036
  H     -1.330388   -0.871763   -1.751273
  H     -2.835927   -0.017890   -1.417346
  H     -2.721259   -1.222022    0.930371
  H     -1.325430   -0.914723    1.968539
  H     -1.151439   -1.902980    0.506571

 Total Charge           Charge          ....    0
 Multiplicity           Mult            ....    1
 Number of Electrons    NEL             ....   58
 Basis Dimension        Dim             ....  126

ORBITAL ENERGIES
----------------

  NO   OCC          E(Eh)            E(eV)
   0   2.0000     -18.737618      -509.8765
   1   2.0000      -9.936599      -270.3886
   2   2.0000      -9.934610      -270.3345
   3   2.0000      -9.877198      -268.7722
   4   2.0000      -9.871334      -268.6127
   5   2.0000      -9.871250      -268.6104
   6   2.0000      -9.867991      -268.5217
   7   2.0000      -0.917759       -24.9735
   8   2.0000      -0.714876       -19.4528
   9   2.0000      -0.673548       -18.3282
  10   2.0000      -0.617404       -16.8004
  11   2.0000      -0.609278       -16.5793
  12   2.0000      -0.549693       -14.9579
  13   2.0000      -0.484667       -13.1884
  14   2.0000      -0.443605       -12.0711
  15   2.0000      -0.416072       -11.3219
  16   2.0000      -0.401545       -10.9266
  17   2.0000      -0.373026       -10.1506
  18   2.0000      -0.371316       -10.1040
  19   2.0000      -0.357017        -9.7149
  20   2.0000      -0.346076        -9.4172
  21   2.0000      -0.341200        -9.2845
  22   2.0000      -0.334746        -9.1089
  23   2.0000      -0.318208        -8.6589
  24   2.0000      -0.312142        -8.4938
  25   2.0000      -0.296402        -8.0655
  26   2.0000      -0.285717        -7.7748
  27   2.0000      -0.242297        -6.5932
  28   2.0000      -0.197224        -5.3667
  29   0.0000       0.031397         0.8544
  30   0.0000       0.058789         1.5997
  31   0.0000       0.066148         1.8000
  32   0.0000       0.071080         1.9342
  33   0.0000       0.082946         2.2571

MULLIKEN ATOMIC CHARGES
-----------------------
   0 C :   -0.256055
   1 C :   -0.003657
   2 C :   -0.240822
   3 O :   -0.331557
   4 C :    0.019954
   5 C :   -0.255268
   6 C :   -0.290340
   7 H :    0.100800
   8 H :    0.095871
   9 H :    0.103386
  10 H :    0.062244
  11 H :    0.102814
  12 H :    0.099913
  13 H :    0.094131
  14 H :    0.071345
  15 H :    0.106829
  16 H :    0.097103
  17 H :    0.095917
  18 H :    0.105537
  19 H :    0.114194
  20 H :    0.107660
Sum of atomic charges:    0.0000000

LOEWDIN ATOMIC CHARGES
----------------------
   0 C :   -0.351795
   1 C :   -0.049158
   2 C :   -0.339145
   3 O :   -0.165957
   4 C :   -0.050247
   5 C :   -0.352194
   6 C :   -0.351758
   7 H :    0.123030
   8 H :    0.122283
   9 H :    0.114774
  10 H :    0.097524
  11 H :    0.121014
  12 H :    0.121317
  13 H :    0.119100
  14 H :    0.111713
  15 H :    0.123213
  16 H :    0.114739
  17 H :    0.122194
  18 H :    0.127615
  19 H :    0.123571
  20 H :    0.118165

  Mayer bond orders larger than 0.100000
B(  0-C ,  1-C ) :   1.1087 B(  0-C ,  7-H ) :   0.9389 B(  0-C ,  8-H ) :   0.9404
B(  0-C ,  9-H ) :   0.9386 B(  1-C ,  2-C ) :   1.1149 B(  1-C ,  3-O ) :   1.0177
B(  1-C , 10-H ) :   0.8950 B(  2-C , 11-H ) :   0.9475 B(  2-C , 12-H ) :   0.9494
B(  2-C , 13-H ) :   0.9453 B(  3-O ,  4-C ) :   1.0376 B(  4-C ,  5-C ) :   1.1096
B(  4-C ,  6-C ) :   1.1066 B(  4-C , 14-H ) :   0.9162 B(  5-C , 15-H ) :   0.9430
B(  5-C , 16-H ) :   0.9386 B(  5-C , 17-H ) :   0.9397 B(  6-C , 18-H ) :   0.9408
B(  6-C , 19-H ) :   0.9403 B(  6-C , 20-H ) :   0.9417

Dispersion correction           -0.016415217
FINAL SINGLE POINT ENERGY      -311.517803030778

DIPOLE MOMENT
-------------

Method             : SCF
Type of density    : Electron Density
Multiplicity       :   1
Irrep              :   0
Energy             :  -311.5957142892708589 Eh
Relativity type    :
Basis              : AO
                                X                 Y                 Z
Electronic contribution:     -0.488728353       2.598802266       1.467427355
Nuclear contribution   :      0.372764585      -3.031400066      -1.507174684
                        -----------------------------------------
Total Dipole Moment    :     -0.115963768      -0.432597800      -0.039747329
                        -----------------------------------------
Magnitude (a.u.)       :      0.449631296
Magnitude (Debye)      :      1.142871928

Rotational constants in cm-1:             0.131199             0.056628             0.049656
Rotational constants in MHz :          3933.244976          1697.662951          1488.641795

                             ****ORCA TERMINATED NORMALLY****
TOTAL RUN TIME: 0 days 0 hours 0 minutes 7 seconds 668 msec
