                         Program Version 6.0.0  -   RELEASE  -
|  1> ! r2scan-3c def2/J RI DEFGRID2 scfconv6 printgap
|  2> %output
|  3>     printlevel normal
|  4> end
|  5> * xyz 0 1
|  6> C -2.5847214762 0.1486084087 1.0223840005
|  7> C -2.1700913989 0.4920272521 -0.4036005387
|  8> C -0.8576008475 -0.1752016632 -0.7887969268
|  9> O 0.1960291971 0.4042114172 -0.0049825378
| 10> C 1.385086669 -0.1817150101 -0.0319339868
| 11> O 1.6214884325 -1.1729319466 -0.6938006217
| 12> C 2.3707314884 0.5169976393 0.8553782005
| 13> H -1.8156550562 0.4642494688 1.7225392756
| 14> H -3.5131907608 0.6519392699 1.2760837955
| 15> H -2.7311515269 -0.9237327965 1.1288276756
| 16> H -2.050922012 1.5712228462 -0.5033956737
| 17> H -2.9346705774 0.1610186952 -1.1062152786
| 18> H -0.8807985486 -1.2538573308 -0.6002157256
| 19> H -0.6235756809 -0.0181403008 -1.8469495618
| 20> H 2.0425742531 1.5332112113 1.0448027006
| 21> H 3.3526327742 0.4989391446 0.392670251
| 22> H 2.4282741213 -0.0242094384 1.7974925432
| 23> *
| 24>
| 25>                          ****END OF INPUT****

CARTESIAN COORDINATES (ANGSTROEM)
---------------------------------
  C     -2.584721    0.148608    1.022384
  C     -2.170091    0.492027   -0.403601
  C     -0.857601   -0.175202   -0.788797
  O      0.196029    0.404211   -0.004983
  C      1.385087   -0.181715   -0.031934
  O      1.621488   -1.172932   -0.693801
  C      2.370731    0.516998    0.855378
  H     -1.815655    0.464249    1.722539
  H     -3.513191    0.651939    1.276084
  H     -2.731152   -0.923733    1.128828
  H     -2.050922    1.571223   -0.503396
  H     -2.934671    0.161019   -1.106215
  H     -0.880799   -1.253857   -0.600216
  H     -0.623576   -0.018140   -1.846950
  H      2.042574    1.533211    1.044803
  H      3.352633    0.498939    0.392670
  H      2.428274   -0.024209    1.797493

 Total Charge           Charge          ....    0
 Multiplicity           Mult            ....    1
 Number of Electrons    NEL             ....   56
 Basis Dimension        Dim             ....  193

ORBITAL ENERGIES
----------------

  NO   OCC          E(Eh)            E(eV)
   0   2.0000     -18.997763      -516.9554
   1   2.0000     -18.926845      -515.0256
   2   2.0000     -10.154885      -276.3285
   3   2.0000     -10.088812      -274.5305
   4   2.0000     -10.039091      -273.1776
   5   2.0000     -10.039037      -273.1761
   6   2.0000     -10.022974      -272.7390
   7   2.0000      -1.073060       -29.1995
   8   2.0000      -0.974153       -26.5081
   9   2.0000      -0.770455       -20.9651
  10   2.0000      -0.721440       -19.6314
  11   2.0000      -0.660778       -17.9807
  12   2.0000      -0.580249       -15.7894
  13   2.0000      -0.533148       -14.5077
  14   2.0000      -0.464253       -12.6330
  15   2.0000      -0.458343       -12.4722
  16   2.0000      -0.438095       -11.9212
  17   2.0000      -0.418626       -11.3914
  18   2.0000      -0.408788       -11.1237
  19   2.0000      -0.385966       -10.5027
  20   2.0000      -0.376285       -10.2392
  21   2.0000      -0.355367        -9.6700
  22   2.0000      -0.336713        -9.1624
  23   2.0000      -0.323936        -8.8148
  24   2.0000      -0.318025        -8.6539
  25   2.0000      -0.307034        -8.3548
  26   2.0000      -0.271364        -7.3842
  27   2.0000      -0.235072        -6.3966
  28   0.0000      -0.013923        -0.3789
  29   0.0000       0.070130         1.9083
  30   0.0000       0.096627         2.6294
  31   0.0000       0.113271         3.0823
  32   0.0000       0.122119         3.3230

MULLIKEN ATOMIC CHARGES
-----------------------
   0 C :   -0.469652
   1 C :   -0.215241
   2 C :   -0.175326
   3 O :   -0.173084
   4 C :    0.408976
   5 O :   -0.421799
   6 C :   -0.519858
   7 H :    0.158329
   8 H :    0.148747
   9 H :    0.141856
  10 H :    0.141837
  11 H :    0.138797
  12 H :    0.167043
  13 H :    0.152482
  14 H :    0.169022
  15 H :    0.174007
  16 H :    0.173865
Sum of atomic charges:   -0.0000000

LOEWDIN ATOMIC CHARGES
----------------------
   0 C :   -0.418287
   1 C :   -0.285612
   2 C :    0.039336
   3 O :   -0.605261
   4 C :    0.351598
   5 O :   -0.429381
   6 C :   -0.336801
   7 H :    0.158567
   8 H :    0.151866
   9 H :    0.152053
  10 H :    0.162605
  11 H :    0.160331
  12 H :    0.185899
  13 H :    0.180638
  14 H :    0.173991
  15 H :    0.177234
  16 H :    0.181223

  Mayer bond orders larger than 0.100000
B(  0-C ,  1-C ) :   0.9169 B(  0-C ,  7-H ) :   0.9791 B(  0-C ,  8-H ) :   0.9731
B(  0-C ,  9-H ) :   0.9757 B(  1-C ,  2-C ) :   0.9533 B(  1-C , 10-H ) :   0.9664
B(  1-C , 11-H ) :   0.9597 B(  2-C ,  3-O ) :   0.8006 B(  2-C , 12-H ) :   0.9644
B(  2-C , 13-H ) :   0.9457 B(  3-O ,  4-C ) :   1.0731 B(  4-C ,  5-O ) :   1.8222
B(  4-C ,  6-C ) :   0.9431 B(  6-C , 14-H ) :   0.9829 B(  6-C , 15-H ) :   0.9716
B(  6-C , 16-H ) :   0.9370

Dispersion correction           -0.003923021
FINAL SINGLE POINT ENERGY      -346.936894514310

DIPOLE MOMENT
-------------

Method             : SCF
Type of density    : Electron Density
Multiplicity       :   1
Irrep              :   0
Energy             :  -346.9433615277275180 Eh
Relativity type    :
Basis              : AO
                                X                 Y                 Z
Electronic contribution:      5.764571600      -1.840506078      -2.725563630
Nuclear contribution   :     -6.283618944       2.484728734       3.090882761
                        -----------------------------------------
Total Dipole Moment    :     -0.519047344       0.644222656       0.365319132
                        -----------------------------------------
Magnitude (a.u.)       :      0.904373288
Magnitude (Debye)      :      2.298734214

Rotational constants in cm-1:             0.185737             0.046344             0.041181
Rotational constants in MHz :          5568.261189          1389.369984          1234.566829

                             ****ORCA TERMINATED NORMALLY****
TOTAL RUN TIME: 0 days 0 hours 0 minutes 22 seconds 280 msec
