                         Program Version 6.0.0  -   RELEASE  -
|  1> ! r2scan-3c def2/J RI DEFGRID2 scfconv6 printgap
|  2> %output
|  3>     printlevel normal
|  4> end
|  5> %cpcm
|  6>     smd true
|  7>     smdsolvent "water"
|  8> end
|  9> * xyz 0 1
| 10> C -2.5847214762 0.1486084087 1.0223840005
| 11> C -2.1700913989 0.4920272521 -0.4036005387
| 12> C -0.8576008475 -0.1752016632 -0.7887969268
| 13> O 0.1960291971 0.4042114172 -0.0049825378
| 14> C 1.385086669 -0.1817150101 -0.0319339868
| 15> O 1.6214884325 -1.1729319466 -0.6938006217
| 16> C 2.3707314884 0.5169976393 0.8553782005
| 17> H -1.8156550562 0.4642494688 1.7225392756
| 18> H -3.5131907608 0.6519392699 1.2760837955
| 19> H -2.7311515269 -0.9237327965 1.1288276756
| 20> H -2.050922012 1.5712228462 -0.5033956737
| 21> H -2.9346705774 0.1610186952 -1.1062152786
| 22> H -0.8807985486 -1.2538573308 -0.6002157256
| 23> H -0.6235756809 -0.0181403008 -1.8469495618
| 24> H 2.0425742531 1.5332112113 1.0448027006
| 25> H 3.3526327742 0.4989391446 0.392670251
| 26> H 2.4282741213 -0.0242094384 1.7974925432
| 27> *
| 28>
| 29>                          ****END OF INPUT****

CARTESIAN COORDINATES (ANGSTROEM)
---------------------------------
  C     -2.584721    0.148608    1.022384
  C     -2.170091    0.492027   -0.403601
  C     -0.857601   -0.175202   -0.788797
  O      0.196029    0.404211   -0.004983
  C      1.385087   -0.181715   -0.031934
  O      1.621488   -1.172932   -0.693801
  C      2.370731    0.516998    0.855378
  H     -1.815655    0.464249    1.722539
  H     -3.513191    0.651939    1.276084
  H     -2.731152   -0.923733    1.128828
  H     -2.050922    1.571223   -0.503396
  H     -2.934671    0.161019   -1.106215
  H     -0.880799   -1.253857   -0.600216
  H     -0.623576   -0.018140   -1.846950
  H      2.042574    1.533211    1.044803
  H      3.352633    0.498939    0.392670
  H      2.428274   -0.024209    1.797493

 Total Charge           Charge          ....    0
 Multiplicity           Mult            ....    1
 Number of Electrons    NEL             ....   56
 Basis Dimension        Dim             ....  193

ORBITAL ENERGIES
----------------

  NO   OCC          E(Eh)            E(eV)
   0   2.0000     -19.003008      -517.0981
   1   2.0000     -18.942916      -515.4630
   2   2.0000     -10.165148      -276.6077
   3   2.0000     -10.081133      -274.3216
   4   2.0000     -10.030330      -272.9391
   5   2.0000     -10.026598      -272.8376
   6   2.0000     -10.011162      -272.4176
   7   2.0000      -1.079963       -29.3873
   8   2.0000      -0.988157       -26.8891
   9   2.0000      -0.762872       -20.7588
  10   2.0000      -0.714867       -19.4525
  11   2.0000      -0.652950       -17.7677
  12   2.0000      -0.572183       -15.5699
  13   2.0000      -0.530130       -14.4256
  14   2.0000      -0.463995       -12.6259
  15   2.0000      -0.462734       -12.5916
  16   2.0000      -0.445232       -12.1154
  17   2.0000      -0.411422       -11.1953
  18   2.0000      -0.400229       -10.8908
  19   2.0000      -0.381674       -10.3859
  20   2.0000      -0.368804       -10.0357
  21   2.0000      -0.351308        -9.5596
  22   2.0000      -0.335022        -9.1164
  23   2.0000      -0.316951        -8.6247
  24   2.0000      -0.311156        -8.4670
  25   2.0000      -0.300426        -8.1750
  26   2.0000      -0.276680        -7.5288
  27   2.0000      -0.252578        -6.8730
  28   0.0000      -0.021419        -0.5829
  29   0.0000       0.075352         2.0504
  30   0.0000       0.106995         2.9115
  31   0.0000       0.121251         3.2994
  32   0.0000       0.132473         3.6048

MULLIKEN ATOMIC CHARGES
-----------------------
   0 C :   -0.505092
   1 C :   -0.237429
   2 C :   -0.182563
   3 O :   -0.187133
   4 C :    0.460860
   5 O :   -0.512878
   6 C :   -0.555961
   7 H :    0.158770
   8 H :    0.161924
   9 H :    0.156283
  10 H :    0.154357
  11 H :    0.158525
  12 H :    0.174372
  13 H :    0.172696
  14 H :    0.188152
  15 H :    0.190033
  16 H :    0.205084
Sum of atomic charges:   -0.0000000

LOEWDIN ATOMIC CHARGES
----------------------
   0 C :   -0.425307
   1 C :   -0.283434
   2 C :    0.040619
   3 O :   -0.605017
   4 C :    0.363328
   5 O :   -0.494562
   6 C :   -0.334857
   7 H :    0.157178
   8 H :    0.155636
   9 H :    0.155930
  10 H :    0.165746
  11 H :    0.168216
  12 H :    0.188967
  13 H :    0.187351
  14 H :    0.183097
  15 H :    0.183661
  16 H :    0.193448

  Mayer bond orders larger than 0.100000
B(  0-C ,  1-C ) :   0.9094 B(  0-C ,  7-H ) :   0.9773 B(  0-C ,  8-H ) :   0.9706
B(  0-C ,  9-H ) :   0.9734 B(  1-C ,  2-C ) :   0.9582 B(  1-C , 10-H ) :   0.9684
B(  1-C , 11-H ) :   0.9555 B(  2-C ,  3-O ) :   0.7865 B(  2-C , 12-H ) :   0.9577
B(  2-C , 13-H ) :   0.9371 B(  3-O ,  4-C ) :   1.1033 B(  4-C ,  5-O ) :   1.7478
B(  4-C ,  6-C ) :   0.9437 B(  6-C , 14-H ) :   0.9718 B(  6-C , 15-H ) :   0.9633
B(  6-C , 16-H ) :   0.9245

Dispersion correction           -0.003923021
FINAL SINGLE POINT ENERGY      -346.942706272276

DIPOLE MOMENT
-------------

Method             : SCF
Type of density    : Electron Density
Multiplicity       :   1
Irrep              :   0
Energy             :  -346.9491732856931208 Eh
Relativity type    :
Basis              : AO
                                X                 Y                 Z
Electronic contribution:      5.595797000      -1.598083758      -2.594007526
Nuclear contribution   :     -6.283618944       2.484728734       3.090882761
                        -----------------------------------------
Total Dipole Moment    :     -0.687821944       0.886644976       0.496875235
                        -----------------------------------------
Magnitude (a.u.)       :      1.227242168
Magnitude (Debye)      :      3.119401688

Rotational constants in cm-1:             0.185737             0.046344             0.041181
Rotational constants in MHz :          5568.261189          1389.369984          1234.566829

                             ****ORCA TERMINATED NORMALLY****
TOTAL RUN TIME: 0 days 0 hours 0 minutes 26 seconds 782 msec
