                         Program Version 6.0.0  -   RELEASE  -
|  1> ! pbe def2-sv(p) def2/J RI DEFGRID1 loosescf d4 GCP(DFT/SV(P)) printgap
|  2> %output
|  3>     printlevel normal
|  4> end
|  5> * xyz 0 1
|  6> C -2.7413597498 -1.2539390512 0.0285295178
|  7> C -2.4782061714 0.2153769505 0.3365491263
|  8> C -1.2380701398 0.7933397225 -0.3503382343
|  9> C 0.1055825331 0.3680257667 0.2455478339
| 10> C 0.6557575073 -0.9796214545 -0.2252931252
| 11> C 2.1285327885 -0.9216797134 0.1761660605
| 12> C 2.5420790691 0.5429472197 -0.0391720238
| 13> C 1.2301187964 1.3365221321 -0.1548456177
| 14> H -2.7588402884 -1.419880431 -1.0461614145
| 15> H -1.9770212567 -1.8906137222 0.4629099267
| 16> H -3.7034804876 -1.5544574973 0.4375763618
| 17> H -3.3446259987 0.7948290876 0.007600355
| 18> H -2.3867270573 0.350036797 1.4167141365
| 19> H -1.2603698158 0.5369231191 -1.4121502977
| 20> H -1.299196113 1.8825711559 -0.2755315778
| 21> H 0.0219052669 0.3518069696 1.3373694453
| 22> H 0.1517651297 -1.8325938397 0.2235255522
| 23> H 0.5617393735 -1.0529532168 -1.310119431
| 24> H 2.2276983 -1.1871684551 1.2298733759
| 25> H 2.7405724392 -1.6121683768 -0.402373128
| 26> H 3.1493676867 0.8997828187 0.7919536152
| 27> H 3.134091844 0.6489069385 -0.9477741341
| 28> H 1.2334094735 2.2289540314 0.4696882774
| 29> H 1.0734932453 1.6527608485 -1.1873981464
| 30> *
| 31>
| 32>                          ****END OF INPUT****

CARTESIAN COORDINATES (ANGSTROEM)
---------------------------------
  C     -2.741360   -1.253939    0.028530
  C     -2.478206    0.215377    0.336549
  C     -1.238070    0.793340   -0.350338
  C      0.105583    0.368026    0.245548
  C      0.655758   -0.979621   -0.225293
  C      2.128533   -0.921680    0.176166
  C      2.542079    0.542947   -0.039172
  C      1.230119    1.336522   -0.154846
  H     -2.758840   -1.419880   -1.046161
  H     -1.977021   -1.890614    0.462910
  H     -3.703480   -1.554457    0.437576
  H     -3.344626    0.794829    0.007600
  H     -2.386727    0.350037    1.416714
  H     -1.260370    0.536923   -1.412150
  H     -1.299196    1.882571   -0.275532
  H      0.021905    0.351807    1.337369
  H      0.151765   -1.832594    0.223526
  H      0.561739   -1.052953   -1.310119
  H      2.227698   -1.187168    1.229873
  H      2.740572   -1.612168   -0.402373
  H      3.149368    0.899783    0.791954
  H      3.134092    0.648907   -0.947774
  H      1.233409    2.228954    0.469688
  H      1.073493    1.652761   -1.187398

 Total Charge           Charge          ....    0
 Multiplicity           Mult            ....    1
 Number of Electrons    NEL             ....   64
 Basis Dimension        Dim             ....  144

ORBITAL ENERGIES
----------------

  NO   OCC          E(Eh)            E(eV)
   0   2.0000      -9.884230      -268.9636
   1   2.0000      -9.878832      -268.8167
   2   2.0000      -9.876817      -268.7619
   3   2.0000      -9.874522      -268.6994
   4   2.0000      -9.873878      -268.6819
   5   2.0000      -9.873825      -268.6804
   6   2.0000      -9.873369      -268.6680
   7   2.0000      -9.868301      -268.5301
   8   2.0000      -0.758002       -20.6263
   9   2.0000      -0.702862       -19.1258
  10   2.0000      -0.644127       -17.5276
  11   2.0000      -0.628996       -17.1158
  12   2.0000      -0.585525       -15.9329
  13   2.0000      -0.514249       -13.9934
  14   2.0000      -0.497949       -13.5499
  15   2.0000      -0.491663       -13.3788
  16   2.0000      -0.432672       -11.7736
  17   2.0000      -0.418045       -11.3756
  18   2.0000      -0.390640       -10.6298
  19   2.0000      -0.382334       -10.4038
  20   2.0000      -0.374555       -10.1922
  21   2.0000      -0.364574        -9.9206
  22   2.0000      -0.334670        -9.1068
  23   2.0000      -0.318896        -8.6776
  24   2.0000      -0.307939        -8.3795
  25   2.0000      -0.290908        -7.9160
  26   2.0000      -0.288839        -7.8597
  27   2.0000      -0.286840        -7.8053
  28   2.0000      -0.275994        -7.5102
  29   2.0000      -0.268475        -7.3056
  30   2.0000      -0.263165        -7.1611
  31   2.0000      -0.260587        -7.0909
  32   0.0000       0.030724         0.8360
  33   0.0000       0.044549         1.2122
  34   0.0000       0.050603         1.3770
  35   0.0000       0.069606         1.8941
  36   0.0000       0.082045         2.2326

MULLIKEN ATOMIC CHARGES
-----------------------
   0 C :   -0.285037
   1 C :   -0.164772
   2 C :   -0.101009
   3 C :   -0.213641
   4 C :   -0.138203
   5 C :   -0.139835
   6 C :   -0.147344
   7 C :   -0.115715
   8 H :    0.094795
   9 H :    0.110986
  10 H :    0.099520
  11 H :    0.080593
  12 H :    0.079646
  13 H :    0.070467
  14 H :    0.078269
  15 H :    0.060809
  16 H :    0.093358
  17 H :    0.072535
  18 H :    0.073857
  19 H :    0.082304
  20 H :    0.078262
  21 H :    0.078203
  22 H :    0.079518
  23 H :    0.072434
Sum of atomic charges:    0.0000000

LOEWDIN ATOMIC CHARGES
----------------------
   0 C :   -0.343575
   1 C :   -0.232021
   2 C :   -0.217550
   3 C :   -0.145617
   4 C :   -0.222357
   5 C :   -0.228899
   6 C :   -0.232617
   7 C :   -0.221431
   8 H :    0.116323
   9 H :    0.115878
  10 H :    0.118123
  11 H :    0.114454
  12 H :    0.113217
  13 H :    0.112776
  14 H :    0.115935
  15 H :    0.112642
  16 H :    0.114620
  17 H :    0.113343
  18 H :    0.115310
  19 H :    0.115663
  20 H :    0.117048
  21 H :    0.117115
  22 H :    0.116395
  23 H :    0.115224

  Mayer bond orders larger than 0.100000
B(  0-C ,  1-C ) :   1.1647 B(  0-C ,  8-H ) :   0.9539 B(  0-C ,  9-H ) :   0.9453
B(  0-C , 10-H ) :   0.9497 B(  1-C ,  2-C ) :   1.1291 B(  1-C , 11-H ) :   0.9248
B(  1-C , 12-H ) :   0.9238 B(  2-C ,  3-C ) :   1.0918 B(  2-C , 13-H ) :   0.9065
B(  2-C , 14-H ) :   0.9177 B(  3-C ,  4-C ) :   1.0868 B(  3-C ,  7-C ) :   1.1147
B(  3-C , 15-H ) :   0.8962 B(  4-C ,  5-C ) :   1.1483 B(  4-C , 16-H ) :   0.9129
B(  4-C , 17-H ) :   0.9137 B(  5-C ,  6-C ) :   1.1654 B(  5-C , 18-H ) :   0.9157
B(  5-C , 19-H ) :   0.9253 B(  6-C ,  7-C ) :   1.1665 B(  6-C , 20-H ) :   0.9200
B(  6-C , 21-H ) :   0.9234 B(  7-C , 22-H ) :   0.9152 B(  7-C , 23-H ) :   0.9127

Dispersion correction           -0.020834773
FINAL SINGLE POINT ENERGY      -313.691547199409

DIPOLE MOMENT
-------------

Method             : SCF
Type of density    : Electron Density
Multiplicity       :   1
Irrep              :   0
Energy             :  -313.7725165177615168 Eh
Relativity type    :
Basis              : AO
                                X                 Y                 Z
Electronic contribution:      2.269138587       1.144830920       0.222783251
Nuclear contribution   :     -2.285569927      -1.128857598      -0.191663973
                        -----------------------------------------
Total Dipole Moment    :     -0.016431340       0.015973321       0.031119278
                        -----------------------------------------
Magnitude (a.u.)       :      0.038646415
Magnitude (Debye)      :      0.098231381

Rotational constants in cm-1:             0.140235             0.038119             0.032093
Rotational constants in MHz :          4204.141098          1142.767263           962.112596

                             ****ORCA TERMINATED NORMALLY****
TOTAL RUN TIME: 0 days 0 hours 0 minutes 10 seconds 804 msec
