                         Program Version 6.0.0  -   RELEASE  -
|  1> ! r2scan-3c def2/J RI DEFGRID2 scfconv6 printgap
|  2> %output
|  3>     printlevel normal
|  4> end
|  5> * xyz 0 1
|  6> C -2.1701992975 0.7638000255 1.0166753134
|  7> C -1.8969725284 0.0824605723 -0.3236168008
|  8> C -0.4557807556 -0.3406600232 -0.4566940606
|  9> O -0.094470129 -1.4627977118 -0.7491207882
| 10> O 0.3795550403 0.6656788871 -0.2391264708
| 11> C 1.7913859853 0.4124030833 -0.3181216349
| 12> C 2.3311435234 -0.1161244037 1.0020610796
| 13> H -3.2123756271 1.0643071944 1.0679084663
| 14> H -1.9642732754 0.0827468796 1.8386580369
| 15> H -1.5428382464 1.643668269 1.125907252
| 16> H -2.1096093837 0.7793167334 -1.1363795422
| 17> H -2.5181293916 -0.8046098751 -0.4468977011
| 18> H 1.9727022467 -0.30685674 -1.1227117241
| 19> H 2.2292130457 1.3793416025 -0.5676380977
| 20> H 3.4066865164 -0.2388839501 0.9272548279
| 21> H 2.1038520863 0.578847856 1.8058328421
| 22> H 1.8811198789 -1.0802976529 1.2283683414
| 23> *
| 24>
| 25>                          ****END OF INPUT****

CARTESIAN COORDINATES (ANGSTROEM)
---------------------------------
  C     -2.170199    0.763800    1.016675
  C     -1.896973    0.082461   -0.323617
  C     -0.455781   -0.340660   -0.456694
  O     -0.094470   -1.462798   -0.749121
  O      0.379555    0.665679   -0.239126
  C      1.791386    0.412403   -0.318122
  C      2.331144   -0.116124    1.002061
  H     -3.212376    1.064307    1.067908
  H     -1.964273    0.082747    1.838658
  H     -1.542838    1.643668    1.125907
  H     -2.109609    0.779317   -1.136380
  H     -2.518129   -0.804610   -0.446898
  H      1.972702   -0.306857   -1.122712
  H      2.229213    1.379342   -0.567638
  H      3.406687   -0.238884    0.927255
  H      2.103852    0.578848    1.805833
  H      1.881120   -1.080298    1.228368

 Total Charge           Charge          ....    0
 Multiplicity           Mult            ....    1
 Number of Electrons    NEL             ....   56
 Basis Dimension        Dim             ....  193

ORBITAL ENERGIES
----------------

  NO   OCC          E(Eh)            E(eV)
   0   2.0000     -18.996524      -516.9217
   1   2.0000     -18.926815      -515.0248
   2   2.0000     -10.151368      -276.2328
   3   2.0000     -10.091658      -274.6080
   4   2.0000     -10.043753      -273.3044
   5   2.0000     -10.029249      -272.9097
   6   2.0000     -10.028790      -272.8973
   7   2.0000      -1.071770       -29.1643
   8   2.0000      -0.974172       -26.5086
   9   2.0000      -0.766130       -20.8475
  10   2.0000      -0.729113       -19.8402
  11   2.0000      -0.640248       -17.4220
  12   2.0000      -0.603039       -16.4095
  13   2.0000      -0.522221       -14.2104
  14   2.0000      -0.472188       -12.8489
  15   2.0000      -0.456907       -12.4331
  16   2.0000      -0.429881       -11.6976
  17   2.0000      -0.414822       -11.2879
  18   2.0000      -0.409789       -11.1509
  19   2.0000      -0.374787       -10.1985
  20   2.0000      -0.372860       -10.1460
  21   2.0000      -0.354945        -9.6586
  22   2.0000      -0.336103        -9.1458
  23   2.0000      -0.333719        -9.0810
  24   2.0000      -0.322901        -8.7866
  25   2.0000      -0.305466        -8.3122
  26   2.0000      -0.271068        -7.3761
  27   2.0000      -0.232199        -6.3185
  28   0.0000      -0.014323        -0.3898
  29   0.0000       0.076141         2.0719
  30   0.0000       0.090101         2.4518
  31   0.0000       0.116280         3.1641
  32   0.0000       0.123437         3.3589

MULLIKEN ATOMIC CHARGES
-----------------------
   0 C :   -0.467434
   1 C :   -0.304507
   2 C :    0.403597
   3 O :   -0.430021
   4 O :   -0.175779
   5 C :   -0.136732
   6 C :   -0.466338
   7 H :    0.149785
   8 H :    0.149513
   9 H :    0.163377
  10 H :    0.158899
  11 H :    0.168511
  12 H :    0.168172
  13 H :    0.147469
  14 H :    0.146856
  15 H :    0.151019
  16 H :    0.173614
Sum of atomic charges:    0.0000000

LOEWDIN ATOMIC CHARGES
----------------------
   0 C :   -0.397146
   1 C :   -0.235560
   2 C :    0.358153
   3 O :   -0.433373
   4 O :   -0.600055
   5 C :    0.027996
   6 C :   -0.390638
   7 H :    0.151964
   8 H :    0.155830
   9 H :    0.163033
  10 H :    0.177153
  11 H :    0.175099
  12 H :    0.188122
  13 H :    0.177577
  14 H :    0.159313
  15 H :    0.156654
  16 H :    0.165880

  Mayer bond orders larger than 0.100000
B(  0-C ,  1-C ) :   0.8898 B(  0-C ,  7-H ) :   0.9718 B(  0-C ,  8-H ) :   0.9742
B(  0-C ,  9-H ) :   0.9737 B(  1-C ,  2-C ) :   0.9850 B(  1-C , 10-H ) :   0.9472
B(  1-C , 11-H ) :   0.9873 B(  2-C ,  3-O ) :   1.8469 B(  2-C ,  4-O ) :   1.0426
B(  4-O ,  5-C ) :   0.8228 B(  5-C ,  6-C ) :   0.9344 B(  5-C , 12-H ) :   0.9698
B(  5-C , 13-H ) :   0.9617 B(  6-C , 14-H ) :   0.9648 B(  6-C , 15-H ) :   0.9731
B(  6-C , 16-H ) :   0.9717

Dispersion correction           -0.004062688
FINAL SINGLE POINT ENERGY      -346.936020308365

DIPOLE MOMENT
-------------

Method             : SCF
Type of density    : Electron Density
Multiplicity       :   1
Irrep              :   0
Energy             :  -346.9423898853960964 Eh
Relativity type    :
Basis              : AO
                                X                 Y                 Z
Electronic contribution:     -0.130974077      -2.114562564      -4.121629665
Nuclear contribution   :      0.235342186       2.894230049       4.413781267
                        -----------------------------------------
Total Dipole Moment    :      0.104368109       0.779667485       0.292151602
                        -----------------------------------------
Magnitude (a.u.)       :      0.839122546
Magnitude (Debye)      :      2.132880010

Rotational constants in cm-1:             0.148114             0.056655             0.048503
Rotational constants in MHz :          4440.358178          1698.462772          1454.080518

                             ****ORCA TERMINATED NORMALLY****
TOTAL RUN TIME: 0 days 0 hours 0 minutes 23 seconds 354 msec
