                         Program Version 6.0.0  -   RELEASE  -
|  1> ! r2scan-3c def2/J RI DEFGRID2 scfconv6 printgap
|  2> %output
|  3>     printlevel normal
|  4> end
|  5> %cpcm
|  6>     smd true
|  7>     smdsolvent "water"
|  8> end
|  9> * xyz 0 1
| 10> C -2.1701992975 0.7638000255 1.0166753134
| 11> C -1.8969725284 0.0824605723 -0.3236168008
| 12> C -0.4557807556 -0.3406600232 -0.4566940606
| 13> O -0.094470129 -1.4627977118 -0.7491207882
| 14> O 0.3795550403 0.6656788871 -0.2391264708
| 15> C 1.7913859853 0.4124030833 -0.3181216349
| 16> C 2.3311435234 -0.1161244037 1.0020610796
| 17> H -3.2123756271 1.0643071944 1.0679084663
| 18> H -1.9642732754 0.0827468796 1.8386580369
| 19> H -1.5428382464 1.643668269 1.125907252
| 20> H -2.1096093837 0.7793167334 -1.1363795422
| 21> H -2.5181293916 -0.8046098751 -0.4468977011
| 22> H 1.9727022467 -0.30685674 -1.1227117241
| 23> H 2.2292130457 1.3793416025 -0.5676380977
| 24> H 3.4066865164 -0.2388839501 0.9272548279
| 25> H 2.1038520863 0.578847856 1.8058328421
| 26> H 1.8811198789 -1.0802976529 1.2283683414
| 27> *
| 28>
| 29>                          ****END OF INPUT****

CARTESIAN COORDINATES (ANGSTROEM)
---------------------------------
  C     -2.170199    0.763800    1.016675
  C     -1.896973    0.082461   -0.323617
  C     -0.455781   -0.340660   -0.456694
  O     -0.094470   -1.462798   -0.749121
  O      0.379555    0.665679   -0.239126
  C      1.791386    0.412403   -0.318122
  C      2.331144   -0.116124    1.002061
  H     -3.212376    1.064307    1.067908
  H     -1.964273    0.082747    1.838658
  H     -1.542838    1.643668    1.125907
  H     -2.109609    0.779317   -1.136380
  H     -2.518129   -0.804610   -0.446898
  H      1.972702   -0.306857   -1.122712
  H      2.229213    1.379342   -0.567638
  H      3.406687   -0.238884    0.927255
  H      2.103852    0.578848    1.805833
  H      1.881120   -1.080298    1.228368

 Total Charge           Charge          ....    0
 Multiplicity           Mult            ....    1
 Number of Electrons    NEL             ....   56
 Basis Dimension        Dim             ....  193

ORBITAL ENERGIES
----------------

  NO   OCC          E(Eh)            E(eV)
   0   2.0000     -19.001873      -517.0673
   1   2.0000     -18.942870      -515.4617
   2   2.0000     -10.162054      -276.5236
   3   2.0000     -10.083590      -274.3884
   4   2.0000     -10.037699      -273.1397
   5   2.0000     -10.019560      -272.6461
   6   2.0000     -10.018231      -272.6099
   7   2.0000      -1.078891       -29.3581
   8   2.0000      -0.988083       -26.8871
   9   2.0000      -0.761606       -20.7244
  10   2.0000      -0.721280       -19.6270
  11   2.0000      -0.634954       -17.2780
  12   2.0000      -0.596998       -16.2451
  13   2.0000      -0.519592       -14.1388
  14   2.0000      -0.469939       -12.7877
  15   2.0000      -0.462188       -12.5768
  16   2.0000      -0.439528       -11.9602
  17   2.0000      -0.409863       -11.1529
  18   2.0000      -0.404324       -11.0022
  19   2.0000      -0.372080       -10.1248
  20   2.0000      -0.366495        -9.9728
  21   2.0000      -0.347328        -9.4513
  22   2.0000      -0.333913        -9.0862
  23   2.0000      -0.328023        -8.9260
  24   2.0000      -0.318085        -8.6555
  25   2.0000      -0.302551        -8.2328
  26   2.0000      -0.277870        -7.5612
  27   2.0000      -0.248143        -6.7523
  28   0.0000      -0.022441        -0.6106
  29   0.0000       0.079451         2.1620
  30   0.0000       0.097324         2.6483
  31   0.0000       0.124893         3.3985
  32   0.0000       0.133648         3.6368

MULLIKEN ATOMIC CHARGES
-----------------------
   0 C :   -0.496981
   1 C :   -0.317173
   2 C :    0.445622
   3 O :   -0.516460
   4 O :   -0.193212
   5 C :   -0.142914
   6 C :   -0.491264
   7 H :    0.168051
   8 H :    0.164271
   9 H :    0.166742
  10 H :    0.188935
  11 H :    0.174717
  12 H :    0.171538
  13 H :    0.173712
  14 H :    0.170231
  15 H :    0.165701
  16 H :    0.168483
Sum of atomic charges:   -0.0000000

LOEWDIN ATOMIC CHARGES
----------------------
   0 C :   -0.398682
   1 C :   -0.233061
   2 C :    0.368170
   3 O :   -0.494969
   4 O :   -0.600950
   5 C :    0.032543
   6 C :   -0.393425
   7 H :    0.158921
   8 H :    0.160034
   9 H :    0.163403
  10 H :    0.189032
  11 H :    0.178406
  12 H :    0.189140
  13 H :    0.189031
  14 H :    0.167873
  15 H :    0.161858
  16 H :    0.162675

  Mayer bond orders larger than 0.100000
B(  0-C ,  1-C ) :   0.8787 B(  0-C ,  7-H ) :   0.9669 B(  0-C ,  8-H ) :   0.9712
B(  0-C ,  9-H ) :   0.9722 B(  1-C ,  2-C ) :   0.9839 B(  1-C , 10-H ) :   0.9361
B(  1-C , 11-H ) :   0.9833 B(  2-C ,  3-O ) :   1.7763 B(  2-C ,  4-O ) :   1.0721
B(  4-O ,  5-C ) :   0.8038 B(  5-C ,  6-C ) :   0.9336 B(  5-C , 12-H ) :   0.9660
B(  5-C , 13-H ) :   0.9523 B(  6-C , 14-H ) :   0.9599 B(  6-C , 15-H ) :   0.9691
B(  6-C , 16-H ) :   0.9698

Dispersion correction           -0.004062688
FINAL SINGLE POINT ENERGY      -346.941127327541

DIPOLE MOMENT
-------------

Method             : SCF
Type of density    : Electron Density
Multiplicity       :   1
Irrep              :   0
Energy             :  -346.9474969045722332 Eh
Relativity type    :
Basis              : AO
                                X                 Y                 Z
Electronic contribution:     -0.125826768      -1.771578299      -4.034215295
Nuclear contribution   :      0.235342186       2.894230049       4.413781267
                        -----------------------------------------
Total Dipole Moment    :      0.109515419       1.122651749       0.379565972
                        -----------------------------------------
Magnitude (a.u.)       :      1.190130625
Magnitude (Debye)      :      3.025071641

Rotational constants in cm-1:             0.148114             0.056655             0.048503
Rotational constants in MHz :          4440.358178          1698.462772          1454.080518

                             ****ORCA TERMINATED NORMALLY****
TOTAL RUN TIME: 0 days 0 hours 0 minutes 25 seconds 835 msec
