                         Program Version 6.0.0  -   RELEASE  -
|  1> ! pbe def2-sv(p) def2/J RI DEFGRID1 loosescf d4 GCP(DFT/SV(P)) printgap
|  2> %output
|  3>     printlevel normal
|  4> end
|  5> * xyz 0 1
|  6> C 2.7784941557 -0.0862973603 -0.2465987968
|  7> C 1.365551151 -0.1204619741 -0.8187794873
|  8> C 0.3111372243 -0.2003609632 0.2939888683
|  9> H 0.5997096983 -0.9987201448 0.9892386333
| 10> C -1.0990924611 -0.5331780648 -0.2458496161
| 11> C -2.0397461788 -0.8248021948 0.9227794994
| 12> C -1.6767637842 0.5818790629 -1.1171713592
| 13> O 0.3173572254 0.968095505 1.0916780478
| 14> H 3.507781029 0.0699077516 -1.0372388352
| 15> H 3.0068650377 -1.0228270728 0.2568847179
| 16> H 2.8683588616 0.7195009082 0.4782610579
| 17> H 1.1966860316 0.7814970405 -1.4105925501
| 18> H 1.2530985523 -0.9840660538 -1.4753787566
| 19> H -1.0020358296 -1.4385982533 -0.8539329951
| 20> H -3.0478672995 -1.0154001581 0.5638340025
| 21> H -1.6992452324 -1.6940317913 1.4805023542
| 22> H -2.0629364864 0.0262465249 1.5999806707
| 23> H -1.8385884811 1.4827644088 -0.5296419544
| 24> H -2.6376519512 0.2694926545 -1.5186368772
| 25> H -1.0207397218 0.8112619474 -1.9525859531
| 26> H 0.1339109107 1.7257097573 0.5188460062
| 27> *
| 28>
| 29>                          ****END OF INPUT****

CARTESIAN COORDINATES (ANGSTROEM)
---------------------------------
  C      2.778494   -0.086297   -0.246599
  C      1.365551   -0.120462   -0.818779
  C      0.311137   -0.200361    0.293989
  H      0.599710   -0.998720    0.989239
  C     -1.099092   -0.533178   -0.245850
  C     -2.039746   -0.824802    0.922779
  C     -1.676764    0.581879   -1.117171
  O      0.317357    0.968096    1.091678
  H      3.507781    0.069908   -1.037239
  H      3.006865   -1.022827    0.256885
  H      2.868359    0.719501    0.478261
  H      1.196686    0.781497   -1.410593
  H      1.253099   -0.984066   -1.475379
  H     -1.002036   -1.438598   -0.853933
  H     -3.047867   -1.015400    0.563834
  H     -1.699245   -1.694032    1.480502
  H     -2.062936    0.026247    1.599981
  H     -1.838588    1.482764   -0.529642
  H     -2.637652    0.269493   -1.518637
  H     -1.020740    0.811262   -1.952586
  H      0.133911    1.725710    0.518846

 Total Charge           Charge          ....    0
 Multiplicity           Mult            ....    1
 Number of Electrons    NEL             ....   58
 Basis Dimension        Dim             ....  126

ORBITAL ENERGIES
----------------

  NO   OCC          E(Eh)            E(eV)
   0   2.0000     -18.742375      -510.0060
   1   2.0000      -9.931386      -270.2468
   2   2.0000      -9.892101      -269.1778
   3   2.0000      -9.883737      -268.9502
   4   2.0000      -9.878270      -268.8014
   5   2.0000      -9.870158      -268.5806
   6   2.0000      -9.866643      -268.4850
   7   2.0000      -0.920799       -25.0562
   8   2.0000      -0.723177       -19.6786
   9   2.0000      -0.687068       -18.6961
  10   2.0000      -0.613541       -16.6953
  11   2.0000      -0.598699       -16.2914
  12   2.0000      -0.534469       -14.5436
  13   2.0000      -0.507999       -13.8233
  14   2.0000      -0.429070       -11.6756
  15   2.0000      -0.424692       -11.5565
  16   2.0000      -0.408787       -11.1237
  17   2.0000      -0.394040       -10.7224
  18   2.0000      -0.373371       -10.1600
  19   2.0000      -0.345359        -9.3977
  20   2.0000      -0.341977        -9.3057
  21   2.0000      -0.332914        -9.0591
  22   2.0000      -0.320558        -8.7228
  23   2.0000      -0.307056        -8.3554
  24   2.0000      -0.296733        -8.0745
  25   2.0000      -0.289471        -7.8769
  26   2.0000      -0.284427        -7.7396
  27   2.0000      -0.260407        -7.0860
  28   2.0000      -0.213471        -5.8088
  29   0.0000       0.022514         0.6126
  30   0.0000       0.047693         1.2978
  31   0.0000       0.061833         1.6826
  32   0.0000       0.071443         1.9441
  33   0.0000       0.087375         2.3776

MULLIKEN ATOMIC CHARGES
-----------------------
   0 C :   -0.250253
   1 C :   -0.171881
   2 C :    0.034692
   3 H :    0.060261
   4 C :   -0.136212
   5 C :   -0.225784
   6 C :   -0.288353
   7 O :   -0.427419
   8 H :    0.099595
   9 H :    0.095849
  10 H :    0.102145
  11 H :    0.076552
  12 H :    0.080525
  13 H :    0.065624
  14 H :    0.094105
  15 H :    0.092865
  16 H :    0.099157
  17 H :    0.088877
  18 H :    0.106317
  19 H :    0.107937
  20 H :    0.295402
Sum of atomic charges:   -0.0000000

LOEWDIN ATOMIC CHARGES
----------------------
   0 C :   -0.341472
   1 C :   -0.246434
   2 C :   -0.046561
   3 H :    0.110329
   4 C :   -0.169419
   5 C :   -0.331237
   6 C :   -0.338958
   7 O :   -0.317882
   8 H :    0.117245
   9 H :    0.117317
  10 H :    0.119361
  11 H :    0.110973
  12 H :    0.118400
  13 H :    0.115709
  14 H :    0.114731
  15 H :    0.116484
  16 H :    0.119413
  17 H :    0.112371
  18 H :    0.123969
  19 H :    0.116472
  20 H :    0.279190

  Mayer bond orders larger than 0.100000
B(  0-C ,  1-C ) :   1.1555 B(  0-C ,  8-H ) :   0.9529 B(  0-C ,  9-H ) :   0.9543
B(  0-C , 10-H ) :   0.9452 B(  1-C ,  2-C ) :   1.0750 B(  1-C , 11-H ) :   0.9054
B(  1-C , 12-H ) :   0.9144 B(  2-C ,  3-H ) :   0.9040 B(  2-C ,  4-C ) :   1.0001
B(  2-C ,  7-O ) :   1.0252 B(  4-C ,  5-C ) :   1.1146 B(  4-C ,  6-C ) :   1.0921
B(  4-C , 13-H ) :   0.8913 B(  5-C , 14-H ) :   0.9520 B(  5-C , 15-H ) :   0.9491
B(  5-C , 16-H ) :   0.9412 B(  6-C , 17-H ) :   0.9424 B(  6-C , 18-H ) :   0.9483
B(  6-C , 19-H ) :   0.9479 B(  7-O , 20-H ) :   0.8455

Dispersion correction           -0.016570742
FINAL SINGLE POINT ENERGY      -311.519178538843

DIPOLE MOMENT
-------------

Method             : SCF
Type of density    : Electron Density
Multiplicity       :   1
Irrep              :   0
Energy             :  -311.5993892589747247 Eh
Relativity type    :
Basis              : AO
                                X                 Y                 Z
Electronic contribution:      0.592444812       1.204755197       2.111235711
Nuclear contribution   :     -0.692021911      -1.174532178      -2.695523309
                        -----------------------------------------
Total Dipole Moment    :     -0.099577099       0.030223020      -0.584287598
                        -----------------------------------------
Magnitude (a.u.)       :      0.593482120
Magnitude (Debye)      :      1.508511666

Rotational constants in cm-1:             0.141561             0.051525             0.047676
Rotational constants in MHz :          4243.898590          1544.680000          1429.289925

                             ****ORCA TERMINATED NORMALLY****
TOTAL RUN TIME: 0 days 0 hours 0 minutes 9 seconds 115 msec
