                         Program Version 6.0.0  -   RELEASE  -
|  1> ! r2scan-3c def2/J RI DEFGRID2 scfconv6 printgap
|  2> %output
|  3>     printlevel normal
|  4> end
|  5> * xyz 0 1
|  6> C -2.1635730145 0.9704569973 0.8743548363
|  7> C -1.9151561548 -0.0628206931 -0.2196865599
|  8> C -0.4594002554 -0.4138769858 -0.3971043111
|  9> O -0.0643693404 -1.5174927992 -0.7188427911
| 10> O 0.3425839003 0.6220704247 -0.2008914725
| 11> C 1.758559478 0.4308946355 -0.3471035326
| 12> C 2.3846947029 -0.0385112582 0.9571999814
| 13> H -3.2260490453 1.1860187823 0.9379558336
| 14> H -1.8274046281 0.5938982904 1.8368402985
| 15> H -1.629179289 1.8902295945 0.6564954305
| 16> H -2.2601554968 0.3268341179 -1.1807357957
| 17> H -2.4548541975 -0.9897680071 -0.0227724889
| 18> H 1.9330378095 -0.2996956563 -1.1429491713
| 19> H 2.1394826154 1.409780401 -0.6401239162
| 20> H 2.1623207192 0.6658607769 1.7541266825
| 21> H 1.9919780489 -1.0162613655 1.2275824345
| 22> H 3.4601185563 -0.113001884 0.8336532619
| 23> *
| 24>
| 25>                          ****END OF INPUT****

CARTESIAN COORDINATES (ANGSTROEM)
---------------------------------
  C     -2.163573    0.970457    0.874355
  C     -1.915156   -0.062821   -0.219687
  C     -0.459400   -0.413877   -0.397104
  O     -0.064369   -1.517493   -0.718843
  O      0.342584    0.622070   -0.200891
  C      1.758559    0.430895   -0.347104
  C      2.384695   -0.038511    0.957200
  H     -3.226049    1.186019    0.937956
  H     -1.827405    0.593898    1.836840
  H     -1.629179    1.890230    0.656495
  H     -2.260155    0.326834   -1.180736
  H     -2.454854   -0.989768   -0.022772
  H      1.933038   -0.299696   -1.142949
  H      2.139483    1.409780   -0.640124
  H      2.162321    0.665861    1.754127
  H      1.991978   -1.016261    1.227582
  H      3.460119   -0.113002    0.833653

 Total Charge           Charge          ....    0
 Multiplicity           Mult            ....    1
 Number of Electrons    NEL             ....   56
 Basis Dimension        Dim             ....  193

ORBITAL ENERGIES
----------------

  NO   OCC          E(Eh)            E(eV)
   0   2.0000     -18.997371      -516.9447
   1   2.0000     -18.925720      -514.9950
   2   2.0000     -10.151682      -276.2413
   3   2.0000     -10.091758      -274.6107
   4   2.0000     -10.044379      -273.3215
   5   2.0000     -10.029257      -272.9099
   6   2.0000     -10.026851      -272.8445
   7   2.0000      -1.072329       -29.1796
   8   2.0000      -0.973559       -26.4919
   9   2.0000      -0.766119       -20.8472
  10   2.0000      -0.728956       -19.8359
  11   2.0000      -0.639510       -17.4019
  12   2.0000      -0.604366       -16.4456
  13   2.0000      -0.523236       -14.2380
  14   2.0000      -0.472431       -12.8555
  15   2.0000      -0.457054       -12.4371
  16   2.0000      -0.429069       -11.6756
  17   2.0000      -0.415894       -11.3170
  18   2.0000      -0.409491       -11.1428
  19   2.0000      -0.374959       -10.2032
  20   2.0000      -0.369056       -10.0425
  21   2.0000      -0.354553        -9.6479
  22   2.0000      -0.339260        -9.2317
  23   2.0000      -0.333527        -9.0757
  24   2.0000      -0.321484        -8.7480
  25   2.0000      -0.304655        -8.2901
  26   2.0000      -0.270831        -7.3697
  27   2.0000      -0.232230        -6.3193
  28   0.0000      -0.013607        -0.3703
  29   0.0000       0.075017         2.0413
  30   0.0000       0.090601         2.4654
  31   0.0000       0.116928         3.1818
  32   0.0000       0.123214         3.3528

MULLIKEN ATOMIC CHARGES
-----------------------
   0 C :   -0.461370
   1 C :   -0.305722
   2 C :    0.384021
   3 O :   -0.429458
   4 O :   -0.160058
   5 C :   -0.140544
   6 C :   -0.465677
   7 H :    0.147266
   8 H :    0.148682
   9 H :    0.161013
  10 H :    0.166274
  11 H :    0.168514
  12 H :    0.169582
  13 H :    0.147284
  14 H :    0.151539
  15 H :    0.171745
  16 H :    0.146909
Sum of atomic charges:    0.0000000

LOEWDIN ATOMIC CHARGES
----------------------
   0 C :   -0.400014
   1 C :   -0.235636
   2 C :    0.360102
   3 O :   -0.436843
   4 O :   -0.601892
   5 C :    0.028792
   6 C :   -0.389918
   7 H :    0.150957
   8 H :    0.155468
   9 H :    0.164127
  10 H :    0.180107
  11 H :    0.176998
  12 H :    0.189099
  13 H :    0.177401
  14 H :    0.156835
  15 H :    0.165085
  16 H :    0.159332

  Mayer bond orders larger than 0.100000
B(  0-C ,  1-C ) :   0.8968 B(  0-C ,  7-H ) :   0.9703 B(  0-C ,  8-H ) :   0.9775
B(  0-C ,  9-H ) :   0.9724 B(  1-C ,  2-C ) :   1.0000 B(  1-C , 10-H ) :   0.9334
B(  1-C , 11-H ) :   0.9803 B(  2-C ,  3-O ) :   1.8431 B(  2-C ,  4-O ) :   1.0615
B(  4-O ,  5-C ) :   0.8152 B(  5-C ,  6-C ) :   0.9382 B(  5-C , 12-H ) :   0.9675
B(  5-C , 13-H ) :   0.9615 B(  6-C , 14-H ) :   0.9738 B(  6-C , 15-H ) :   0.9718
B(  6-C , 16-H ) :   0.9650

Dispersion correction           -0.004047400
FINAL SINGLE POINT ENERGY      -346.935792233941

DIPOLE MOMENT
-------------

Method             : SCF
Type of density    : Electron Density
Multiplicity       :   1
Irrep              :   0
Energy             :  -346.9422129878468013 Eh
Relativity type    :
Basis              : AO
                                X                 Y                 Z
Electronic contribution:     -0.185187064      -2.623158899      -3.715929766
Nuclear contribution   :      0.275532020       3.414688821       3.983024236
                        -----------------------------------------
Total Dipole Moment    :      0.090344956       0.791529922       0.267094471
                        -----------------------------------------
Magnitude (a.u.)       :      0.840250727
Magnitude (Debye)      :      2.135747618

Rotational constants in cm-1:             0.147854             0.057169             0.047449
Rotational constants in MHz :          4432.553359          1713.878291          1422.478935

                             ****ORCA TERMINATED NORMALLY****
TOTAL RUN TIME: 0 days 0 hours 0 minutes 21 seconds 434 msec
