                         Program Version 6.0.0  -   RELEASE  -
|  1> ! r2scan-3c def2/J RI DEFGRID2 scfconv6 printgap
|  2> %output
|  3>     printlevel normal
|  4> end
|  5> %cpcm
|  6>     smd true
|  7>     smdsolvent "water"
|  8> end
|  9> * xyz 0 1
| 10> C -2.1635730145 0.9704569973 0.8743548363
| 11> C -1.9151561548 -0.0628206931 -0.2196865599
| 12> C -0.4594002554 -0.4138769858 -0.3971043111
| 13> O -0.0643693404 -1.5174927992 -0.7188427911
| 14> O 0.3425839003 0.6220704247 -0.2008914725
| 15> C 1.758559478 0.4308946355 -0.3471035326
| 16> C 2.3846947029 -0.0385112582 0.9571999814
| 17> H -3.2260490453 1.1860187823 0.9379558336
| 18> H -1.8274046281 0.5938982904 1.8368402985
| 19> H -1.629179289 1.8902295945 0.6564954305
| 20> H -2.2601554968 0.3268341179 -1.1807357957
| 21> H -2.4548541975 -0.9897680071 -0.0227724889
| 22> H 1.9330378095 -0.2996956563 -1.1429491713
| 23> H 2.1394826154 1.409780401 -0.6401239162
| 24> H 2.1623207192 0.6658607769 1.7541266825
| 25> H 1.9919780489 -1.0162613655 1.2275824345
| 26> H 3.4601185563 -0.113001884 0.8336532619
| 27> *
| 28>
| 29>                          ****END OF INPUT****

CARTESIAN COORDINATES (ANGSTROEM)
---------------------------------
  C     -2.163573    0.970457    0.874355
  C     -1.915156   -0.062821   -0.219687
  C     -0.459400   -0.413877   -0.397104
  O     -0.064369   -1.517493   -0.718843
  O      0.342584    0.622070   -0.200891
  C      1.758559    0.430895   -0.347104
  C      2.384695   -0.038511    0.957200
  H     -3.226049    1.186019    0.937956
  H     -1.827405    0.593898    1.836840
  H     -1.629179    1.890230    0.656495
  H     -2.260155    0.326834   -1.180736
  H     -2.454854   -0.989768   -0.022772
  H      1.933038   -0.299696   -1.142949
  H      2.139483    1.409780   -0.640124
  H      2.162321    0.665861    1.754127
  H      1.991978   -1.016261    1.227582
  H      3.460119   -0.113002    0.833653

 Total Charge           Charge          ....    0
 Multiplicity           Mult            ....    1
 Number of Electrons    NEL             ....   56
 Basis Dimension        Dim             ....  193

ORBITAL ENERGIES
----------------

  NO   OCC          E(Eh)            E(eV)
   0   2.0000     -19.002465      -517.0834
   1   2.0000     -18.941751      -515.4312
   2   2.0000     -10.162262      -276.5292
   3   2.0000     -10.083531      -274.3868
   4   2.0000     -10.038131      -273.1514
   5   2.0000     -10.018376      -272.6139
   6   2.0000     -10.017481      -272.5895
   7   2.0000      -1.079154       -29.3653
   8   2.0000      -0.987481       -26.8707
   9   2.0000      -0.761429       -20.7195
  10   2.0000      -0.720960       -19.6183
  11   2.0000      -0.634231       -17.2583
  12   2.0000      -0.598434       -16.2842
  13   2.0000      -0.520326       -14.1588
  14   2.0000      -0.469654       -12.7799
  15   2.0000      -0.461362       -12.5543
  16   2.0000      -0.441398       -12.0110
  17   2.0000      -0.407939       -11.1006
  18   2.0000      -0.404702       -11.0125
  19   2.0000      -0.370036       -10.0692
  20   2.0000      -0.364886        -9.9291
  21   2.0000      -0.347362        -9.4522
  22   2.0000      -0.336873        -9.1668
  23   2.0000      -0.327882        -8.9221
  24   2.0000      -0.316186        -8.6039
  25   2.0000      -0.301378        -8.2009
  26   2.0000      -0.278052        -7.5662
  27   2.0000      -0.248350        -6.7580
  28   0.0000      -0.021400        -0.5823
  29   0.0000       0.079085         2.1520
  30   0.0000       0.097865         2.6630
  31   0.0000       0.125175         3.4062
  32   0.0000       0.133058         3.6207

MULLIKEN ATOMIC CHARGES
-----------------------
   0 C :   -0.499264
   1 C :   -0.313296
   2 C :    0.426293
   3 O :   -0.517535
   4 O :   -0.177958
   5 C :   -0.145534
   6 C :   -0.490813
   7 H :    0.165163
   8 H :    0.165296
   9 H :    0.164726
  10 H :    0.196994
  11 H :    0.176985
  12 H :    0.171670
  13 H :    0.173623
  14 H :    0.165735
  15 H :    0.167774
  16 H :    0.170141
Sum of atomic charges:   -0.0000000

LOEWDIN ATOMIC CHARGES
----------------------
   0 C :   -0.402441
   1 C :   -0.232917
   2 C :    0.370753
   3 O :   -0.499673
   4 O :   -0.602286
   5 C :    0.033431
   6 C :   -0.392755
   7 H :    0.157871
   8 H :    0.159703
   9 H :    0.164185
  10 H :    0.192368
  11 H :    0.181131
  12 H :    0.189710
  13 H :    0.188897
  14 H :    0.161886
  15 H :    0.162287
  16 H :    0.167849

  Mayer bond orders larger than 0.100000
B(  0-C ,  1-C ) :   0.8826 B(  0-C ,  7-H ) :   0.9654 B(  0-C ,  8-H ) :   0.9757
B(  0-C ,  9-H ) :   0.9715 B(  1-C ,  2-C ) :   1.0027 B(  1-C , 10-H ) :   0.9202
B(  1-C , 11-H ) :   0.9755 B(  2-C ,  3-O ) :   1.7721 B(  2-C ,  4-O ) :   1.0906
B(  4-O ,  5-C ) :   0.7969 B(  5-C ,  6-C ) :   0.9374 B(  5-C , 12-H ) :   0.9639
B(  5-C , 13-H ) :   0.9522 B(  6-C , 14-H ) :   0.9699 B(  6-C , 15-H ) :   0.9696
B(  6-C , 16-H ) :   0.9601

Dispersion correction           -0.004047400
FINAL SINGLE POINT ENERGY      -346.941097433681

DIPOLE MOMENT
-------------

Method             : SCF
Type of density    : Electron Density
Multiplicity       :   1
Irrep              :   0
Energy             :  -346.9475181875869225 Eh
Relativity type    :
Basis              : AO
                                X                 Y                 Z
Electronic contribution:     -0.196530909      -2.283010870      -3.636585600
Nuclear contribution   :      0.275532020       3.414688821       3.983024236
                        -----------------------------------------
Total Dipole Moment    :      0.079001111       1.131677951       0.346438636
                        -----------------------------------------
Magnitude (a.u.)       :      1.186151714
Magnitude (Debye)      :      3.014958054

Rotational constants in cm-1:             0.147854             0.057169             0.047449
Rotational constants in MHz :          4432.553359          1713.878291          1422.478935

                             ****ORCA TERMINATED NORMALLY****
TOTAL RUN TIME: 0 days 0 hours 0 minutes 26 seconds 251 msec
