                         Program Version 6.0.0  -   RELEASE  -
|  1> ! r2scan-3c def2/J RI DEFGRID2 scfconv6 printgap
|  2> %output
|  3>     printlevel normal
|  4> end
|  5> * xyz 0 1
|  6> C -1.849815643 0.9707573238 0.0048156547
|  7> C -1.8128077133 -0.5247272236 0.2961484156
|  8> C -0.5745399955 -1.2327699897 -0.2579809257
|  9> C 0.7277678453 -0.8667288349 0.4378719742
| 10> Cl 1.4525059675 0.6544795539 -0.2010237509
| 11> H -2.7894478675 1.3967947182 0.3485738354
| 12> H -1.0382867826 1.4890920054 0.5076064556
| 13> H -1.7605954711 1.1536527362 -1.0638724542
| 14> H -2.6939408845 -0.9904069514 -0.1498023715
| 15> H -1.8639995179 -0.6850451789 1.3749692848
| 16> H -0.7096952187 -2.3086391873 -0.1278520872
| 17> H -0.484415052 -1.0354606479 -1.3273314422
| 18> H 1.4867960123 -1.6291588893 0.2735750247
| 19> H 0.5820271019 -0.7083317436 1.5049453604
| 20> *
| 21>
| 22>                          ****END OF INPUT****

CARTESIAN COORDINATES (ANGSTROEM)
---------------------------------
  C     -1.849816    0.970757    0.004816
  C     -1.812808   -0.524727    0.296148
  C     -0.574540   -1.232770   -0.257981
  C      0.727768   -0.866729    0.437872
  Cl     1.452506    0.654480   -0.201024
  H     -2.789448    1.396795    0.348574
  H     -1.038287    1.489092    0.507606
  H     -1.760595    1.153653   -1.063872
  H     -2.693941   -0.990407   -0.149802
  H     -1.864000   -0.685045    1.374969
  H     -0.709695   -2.308639   -0.127852
  H     -0.484415   -1.035461   -1.327331
  H      1.486796   -1.629159    0.273575
  H      0.582027   -0.708332    1.504945

 Total Charge           Charge          ....    0
 Multiplicity           Mult            ....    1
 Number of Electrons    NEL             ....   50
 Basis Dimension        Dim             ....  148

ORBITAL ENERGIES
----------------

  NO   OCC          E(Eh)            E(eV)
   0   2.0000    -101.196456     -2753.6956
   1   2.0000     -10.092095      -274.6199
   2   2.0000     -10.041606      -273.2460
   3   2.0000     -10.032716      -273.0041
   4   2.0000     -10.013738      -272.4877
   5   2.0000      -9.352630      -254.4980
   6   2.0000      -7.098828      -193.1689
   7   2.0000      -7.088745      -192.8946
   8   2.0000      -7.088580      -192.8901
   9   2.0000      -0.821053       -22.3420
  10   2.0000      -0.754227       -20.5236
  11   2.0000      -0.683662       -18.6034
  12   2.0000      -0.603204       -16.4140
  13   2.0000      -0.546906       -14.8821
  14   2.0000      -0.450654       -12.2629
  15   2.0000      -0.435502       -11.8506
  16   2.0000      -0.412609       -11.2277
  17   2.0000      -0.377187       -10.2638
  18   2.0000      -0.368446       -10.0259
  19   2.0000      -0.351545        -9.5660
  20   2.0000      -0.318159        -8.6575
  21   2.0000      -0.310338        -8.4447
  22   2.0000      -0.305978        -8.3261
  23   2.0000      -0.263186        -7.1616
  24   2.0000      -0.255511        -6.9528
  25   0.0000       0.007281         0.1981
  26   0.0000       0.084533         2.3003
  27   0.0000       0.110695         3.0122
  28   0.0000       0.116443         3.1686
  29   0.0000       0.126283         3.4363

MULLIKEN ATOMIC CHARGES
-----------------------
   0 C :   -0.461700
   1 C :   -0.258627
   2 C :   -0.241894
   3 C :   -0.176209
   4 Cl:   -0.202588
   5 H :    0.141719
   6 H :    0.162142
   7 H :    0.146089
   8 H :    0.141039
   9 H :    0.133328
  10 H :    0.144182
  11 H :    0.155592
  12 H :    0.161824
  13 H :    0.155101
Sum of atomic charges:    0.0000000

LOEWDIN ATOMIC CHARGES
----------------------
   0 C :   -0.431986
   1 C :   -0.317226
   2 C :   -0.329706
   3 C :   -0.318304
   4 Cl:   -0.005988
   5 H :    0.148295
   6 H :    0.155041
   7 H :    0.152387
   8 H :    0.153377
   9 H :    0.150591
  10 H :    0.162144
  11 H :    0.164762
  12 H :    0.158173
  13 H :    0.158441

  Mayer bond orders larger than 0.100000
B(  0-C ,  1-C ) :   0.9140 B(  0-C ,  5-H ) :   0.9688 B(  0-C ,  6-H ) :   0.9711
B(  0-C ,  7-H ) :   0.9781 B(  1-C ,  2-C ) :   0.9196 B(  1-C ,  8-H ) :   0.9695
B(  1-C ,  9-H ) :   0.9788 B(  2-C ,  3-C ) :   0.9089 B(  2-C , 10-H ) :   0.9515
B(  2-C , 11-H ) :   0.9696 B(  3-C ,  4-Cl) :   0.9799 B(  3-C , 12-H ) :   0.9548
B(  3-C , 13-H ) :   0.9682

Dispersion correction           -0.003434747
FINAL SINGLE POINT ENERGY      -617.965692934285

DIPOLE MOMENT
-------------

Method             : SCF
Type of density    : Electron Density
Multiplicity       :   1
Irrep              :   0
Energy             :  -617.9713870241866971 Eh
Relativity type    :
Basis              : AO
                                X                 Y                 Z
Electronic contribution:     10.202535269       3.302163534      -1.300524857
Nuclear contribution   :    -10.647814797      -3.990805092       1.527718529
                        -----------------------------------------
Total Dipole Moment    :     -0.445279528      -0.688641558       0.227193672
                        -----------------------------------------
Magnitude (a.u.)       :      0.850951243
Magnitude (Debye)      :      2.162946167

Rotational constants in cm-1:             0.203757             0.081106             0.063133
Rotational constants in MHz :          6108.493581          2431.491078          1892.681463

                             ****ORCA TERMINATED NORMALLY****
TOTAL RUN TIME: 0 days 0 hours 0 minutes 18 seconds 420 msec
