                         Program Version 6.0.0  -   RELEASE  -
|  1> ! r2scan-3c def2/J RI DEFGRID2 scfconv6 printgap
|  2> %output
|  3>     printlevel normal
|  4> end
|  5> %cpcm
|  6>     smd true
|  7>     smdsolvent "water"
|  8> end
|  9> * xyz 0 1
| 10> C -1.849815643 0.9707573238 0.0048156547
| 11> C -1.8128077133 -0.5247272236 0.2961484156
| 12> C -0.5745399955 -1.2327699897 -0.2579809257
| 13> C 0.7277678453 -0.8667288349 0.4378719742
| 14> Cl 1.4525059675 0.6544795539 -0.2010237509
| 15> H -2.7894478675 1.3967947182 0.3485738354
| 16> H -1.0382867826 1.4890920054 0.5076064556
| 17> H -1.7605954711 1.1536527362 -1.0638724542
| 18> H -2.6939408845 -0.9904069514 -0.1498023715
| 19> H -1.8639995179 -0.6850451789 1.3749692848
| 20> H -0.7096952187 -2.3086391873 -0.1278520872
| 21> H -0.484415052 -1.0354606479 -1.3273314422
| 22> H 1.4867960123 -1.6291588893 0.2735750247
| 23> H 0.5820271019 -0.7083317436 1.5049453604
| 24> *
| 25>
| 26>                          ****END OF INPUT****

CARTESIAN COORDINATES (ANGSTROEM)
---------------------------------
  C     -1.849816    0.970757    0.004816
  C     -1.812808   -0.524727    0.296148
  C     -0.574540   -1.232770   -0.257981
  C      0.727768   -0.866729    0.437872
  Cl     1.452506    0.654480   -0.201024
  H     -2.789448    1.396795    0.348574
  H     -1.038287    1.489092    0.507606
  H     -1.760595    1.153653   -1.063872
  H     -2.693941   -0.990407   -0.149802
  H     -1.864000   -0.685045    1.374969
  H     -0.709695   -2.308639   -0.127852
  H     -0.484415   -1.035461   -1.327331
  H      1.486796   -1.629159    0.273575
  H      0.582027   -0.708332    1.504945

 Total Charge           Charge          ....    0
 Multiplicity           Mult            ....    1
 Number of Electrons    NEL             ....   50
 Basis Dimension        Dim             ....  148

ORBITAL ENERGIES
----------------

  NO   OCC          E(Eh)            E(eV)
   0   2.0000    -101.195911     -2753.6807
   1   2.0000     -10.080132      -274.2943
   2   2.0000     -10.027185      -272.8536
   3   2.0000     -10.019409      -272.6420
   4   2.0000     -10.005744      -272.2701
   5   2.0000      -9.352487      -254.4941
   6   2.0000      -7.098284      -193.1541
   7   2.0000      -7.088780      -192.8955
   8   2.0000      -7.088587      -192.8902
   9   2.0000      -0.815621       -22.1942
  10   2.0000      -0.744412       -20.2565
  11   2.0000      -0.674076       -18.3426
  12   2.0000      -0.592910       -16.1339
  13   2.0000      -0.534549       -14.5458
  14   2.0000      -0.438043       -11.9197
  15   2.0000      -0.424608       -11.5542
  16   2.0000      -0.400736       -10.9046
  17   2.0000      -0.368255       -10.0207
  18   2.0000      -0.360162        -9.8005
  19   2.0000      -0.341513        -9.2930
  20   2.0000      -0.310415        -8.4468
  21   2.0000      -0.298825        -8.1314
  22   2.0000      -0.294019        -8.0007
  23   2.0000      -0.262437        -7.1413
  24   2.0000      -0.253005        -6.8846
  25   0.0000       0.013009         0.3540
  26   0.0000       0.098724         2.6864
  27   0.0000       0.123447         3.3592
  28   0.0000       0.126210         3.4344
  29   0.0000       0.135317         3.6822

MULLIKEN ATOMIC CHARGES
-----------------------
   0 C :   -0.507776
   1 C :   -0.259279
   2 C :   -0.252975
   3 C :   -0.189580
   4 Cl:   -0.250970
   5 H :    0.152210
   6 H :    0.159890
   7 H :    0.155499
   8 H :    0.151109
   9 H :    0.147560
  10 H :    0.165564
  11 H :    0.160883
  12 H :    0.186676
  13 H :    0.181190
Sum of atomic charges:    0.0000000

LOEWDIN ATOMIC CHARGES
----------------------
   0 C :   -0.441869
   1 C :   -0.317671
   2 C :   -0.327717
   3 C :   -0.312233
   4 Cl:   -0.038461
   5 H :    0.150635
   6 H :    0.151898
   7 H :    0.152609
   8 H :    0.156143
   9 H :    0.155463
  10 H :    0.170991
  11 H :    0.165121
  12 H :    0.167098
  13 H :    0.167994

  Mayer bond orders larger than 0.100000
B(  0-C ,  1-C ) :   0.8974 B(  0-C ,  5-H ) :   0.9665 B(  0-C ,  6-H ) :   0.9725
B(  0-C ,  7-H ) :   0.9787 B(  1-C ,  2-C ) :   0.9079 B(  1-C ,  8-H ) :   0.9703
B(  1-C ,  9-H ) :   0.9767 B(  2-C ,  3-C ) :   0.9052 B(  2-C , 10-H ) :   0.9478
B(  2-C , 11-H ) :   0.9734 B(  3-C ,  4-Cl) :   0.9407 B(  3-C , 12-H ) :   0.9486
B(  3-C , 13-H ) :   0.9622

Dispersion correction           -0.003434747
FINAL SINGLE POINT ENERGY      -617.967132455402

DIPOLE MOMENT
-------------

Method             : SCF
Type of density    : Electron Density
Multiplicity       :   1
Irrep              :   0
Energy             :  -617.9728265453036329 Eh
Relativity type    :
Basis              : AO
                                X                 Y                 Z
Electronic contribution:     10.091510526       3.020353538      -1.189636505
Nuclear contribution   :    -10.647814797      -3.990805092       1.527718529
                        -----------------------------------------
Total Dipole Moment    :     -0.556304270      -0.970451554       0.338082023
                        -----------------------------------------
Magnitude (a.u.)       :      1.168567548
Magnitude (Debye)      :      2.970262657

Rotational constants in cm-1:             0.203757             0.081106             0.063133
Rotational constants in MHz :          6108.493581          2431.491078          1892.681463

                             ****ORCA TERMINATED NORMALLY****
TOTAL RUN TIME: 0 days 0 hours 0 minutes 23 seconds 681 msec
