                         Program Version 6.0.0  -   RELEASE  -
|  1> ! pbe def2-sv(p) def2/J RI DEFGRID1 loosescf d4 GCP(DFT/SV(P)) printgap
|  2> %output
|  3>     printlevel normal
|  4> end
|  5> * xyz 0 1
|  6> C -0.3444280209 2.4286184622 0.1096295104
|  7> N -0.1165258933 1.1668396939 -0.5719954234
|  8> C -1.2847678025 0.4786162089 -1.0296386561
|  9> C -1.9817164563 -0.3657396619 0.0629742124
| 10> F -3.2631987049 0.0087384282 0.2611036491
| 11> F -2.0340629674 -1.678417666 -0.2373612987
| 12> F -1.3840689025 -0.2776883944 1.2592275021
| 13> C 1.0472880939 0.4568671977 -0.2960141212
| 14> C 1.2010294278 -0.8873319259 -0.6526161522
| 15> C 2.3881469846 -1.5550096404 -0.4176232101
| 16> C 3.4572694102 -0.9151928018 0.1831838414
| 17> C 3.316470557 0.4123166888 0.5477934673
| 18> C 2.1353812268 1.0896350491 0.3159924701
| 19> H 0.3853398484 3.1650119869 -0.2246377906
| 20> H -0.2788458777 2.3225384317 1.1965639257
| 21> H -1.33456685 2.7979011313 -0.1425645598
| 22> H -2.0166854302 1.2076350387 -1.3851592515
| 23> H -1.0408192022 -0.1898174268 -1.8587785367
| 24> H 0.3985063313 -1.4450929434 -1.1076729544
| 25> H 2.4699609303 -2.5935130739 -0.7033640202
| 26> H 4.379560764 -1.4432784251 0.369053405
| 27> H 4.1358847523 0.9310819191 1.0230397128
| 28> H 2.0706016993 2.1206062747 0.6171861191
| 29> *
| 30>
| 31>                          ****END OF INPUT****

CARTESIAN COORDINATES (ANGSTROEM)
---------------------------------
  C     -0.344428    2.428618    0.109630
  N     -0.116526    1.166840   -0.571995
  C     -1.284768    0.478616   -1.029639
  C     -1.981716   -0.365740    0.062974
  F     -3.263199    0.008738    0.261104
  F     -2.034063   -1.678418   -0.237361
  F     -1.384069   -0.277688    1.259228
  C      1.047288    0.456867   -0.296014
  C      1.201029   -0.887332   -0.652616
  C      2.388147   -1.555010   -0.417623
  C      3.457269   -0.915193    0.183184
  C      3.316471    0.412317    0.547793
  C      2.135381    1.089635    0.315992
  H      0.385340    3.165012   -0.224638
  H     -0.278846    2.322538    1.196564
  H     -1.334567    2.797901   -0.142565
  H     -2.016685    1.207635   -1.385159
  H     -1.040819   -0.189817   -1.858779
  H      0.398506   -1.445093   -1.107673
  H      2.469961   -2.593513   -0.703364
  H      4.379561   -1.443278    0.369053
  H      4.135885    0.931082    1.023040
  H      2.070602    2.120606    0.617186

 Total Charge           Charge          ....    0
 Multiplicity           Mult            ....    1
 Number of Electrons    NEL             ....   98
 Basis Dimension        Dim             ....  202

ORBITAL ENERGIES
----------------

  NO   OCC          E(Eh)            E(eV)
   0   2.0000     -24.289416      -660.9486
   1   2.0000     -24.285571      -660.8440
   2   2.0000     -24.284636      -660.8185
   3   2.0000     -14.029351      -381.7580
   4   2.0000     -10.124236      -275.4945
   5   2.0000      -9.951211      -270.7862
   6   2.0000      -9.932275      -270.2709
   7   2.0000      -9.925450      -270.0852
   8   2.0000      -9.888657      -269.0840
   9   2.0000      -9.887973      -269.0654
  10   2.0000      -9.884285      -268.9651
  11   2.0000      -9.883819      -268.9524
  12   2.0000      -9.880455      -268.8608
  13   2.0000      -1.190803       -32.4034
  14   2.0000      -1.098671       -29.8963
  15   2.0000      -1.094642       -29.7867
  16   2.0000      -0.880946       -23.9718
  17   2.0000      -0.766978       -20.8705
  18   2.0000      -0.705868       -19.2077
  19   2.0000      -0.676469       -18.4076
  20   2.0000      -0.662593       -18.0301
  21   2.0000      -0.620027       -16.8718
  22   2.0000      -0.592566       -16.1246
  23   2.0000      -0.543686       -14.7944
  24   2.0000      -0.533947       -14.5294
  25   2.0000      -0.524559       -14.2740
  26   2.0000      -0.523106       -14.2344
  27   2.0000      -0.500800       -13.6275
  28   2.0000      -0.479152       -13.0384
  29   2.0000      -0.445592       -12.1252
  30   2.0000      -0.430543       -11.7157
  31   2.0000      -0.408015       -11.1027
  32   2.0000      -0.405324       -11.0294
  33   2.0000      -0.397405       -10.8139
  34   2.0000      -0.396270       -10.7831
  35   2.0000      -0.381622       -10.3845
  36   2.0000      -0.378858       -10.3092
  37   2.0000      -0.368528       -10.0281
  38   2.0000      -0.357869        -9.7381
  39   2.0000      -0.352180        -9.5833
  40   2.0000      -0.344941        -9.3863
  41   2.0000      -0.339671        -9.2429
  42   2.0000      -0.337127        -9.1737
  43   2.0000      -0.329702        -8.9716
  44   2.0000      -0.312232        -8.4963
  45   2.0000      -0.294425        -8.0117
  46   2.0000      -0.259957        -7.0738
  47   2.0000      -0.224412        -6.1066
  48   2.0000      -0.176519        -4.8033
  49   0.0000      -0.030328        -0.8253
  50   0.0000      -0.016563        -0.4507
  51   0.0000       0.027147         0.7387
  52   0.0000       0.039882         1.0852
  53   0.0000       0.055653         1.5144

MULLIKEN ATOMIC CHARGES
-----------------------
   0 C :   -0.176667
   1 N :   -0.232545
   2 C :   -0.155536
   3 C :    0.408403
   4 F :   -0.151269
   5 F :   -0.144066
   6 F :   -0.128684
   7 C :    0.252240
   8 C :   -0.163781
   9 C :   -0.063315
  10 C :   -0.046951
  11 C :   -0.055003
  12 C :   -0.163131
  13 H :    0.125563
  14 H :    0.117565
  15 H :    0.114601
  16 H :    0.125739
  17 H :    0.135215
  18 H :    0.030096
  19 H :    0.049280
  20 H :    0.044924
  21 H :    0.048403
  22 H :    0.028919
Sum of atomic charges:   -0.0000000

LOEWDIN ATOMIC CHARGES
----------------------
   0 C :   -0.251610
   1 N :   -0.059326
   2 C :   -0.190816
   3 C :    0.106777
   4 F :   -0.058444
   5 F :   -0.051768
   6 F :   -0.036742
   7 C :    0.006711
   8 C :   -0.166262
   9 C :   -0.114196
  10 C :   -0.152476
  11 C :   -0.115047
  12 C :   -0.161390
  13 H :    0.120909
  14 H :    0.115541
  15 H :    0.122109
  16 H :    0.137190
  17 H :    0.138139
  18 H :    0.119850
  19 H :    0.123281
  20 H :    0.121002
  21 H :    0.122550
  22 H :    0.124017

  Mayer bond orders larger than 0.100000
B(  0-C ,  1-N ) :   1.0220 B(  0-C , 13-H ) :   0.9410 B(  0-C , 14-H ) :   0.9382
B(  0-C , 15-H ) :   0.9453 B(  1-N ,  2-C ) :   1.0975 B(  1-N ,  7-C ) :   1.0980
B(  2-C ,  3-C ) :   0.9850 B(  2-C , 16-H ) :   0.9056 B(  2-C , 17-H ) :   0.8942
B(  3-C ,  4-F ) :   1.1549 B(  3-C ,  5-F ) :   1.1423 B(  3-C ,  6-F ) :   1.1829
B(  7-C ,  8-C ) :   1.3133 B(  7-C , 12-C ) :   1.3213 B(  8-C ,  9-C ) :   1.3974
B(  8-C , 18-H ) :   0.9484 B(  9-C , 10-C ) :   1.3661 B(  9-C , 19-H ) :   0.9597
B( 10-C , 11-C ) :   1.3669 B( 10-C , 20-H ) :   0.9686 B( 11-C , 12-C ) :   1.3876
B( 11-C , 21-H ) :   0.9607 B( 12-C , 22-H ) :   0.9570

Dispersion correction           -0.026094830
FINAL SINGLE POINT ENERGY      -701.825998532373

DIPOLE MOMENT
-------------

Method             : SCF
Type of density    : Electron Density
Multiplicity       :   1
Irrep              :   0
Energy             :  -701.9190519210526418 Eh
Relativity type    :
Basis              : AO
                                X                 Y                 Z
Electronic contribution:    -14.921504426      -7.530019944       2.859883946
Nuclear contribution   :     14.791793063       8.258818745      -3.271145268
                        -----------------------------------------
Total Dipole Moment    :     -0.129711363       0.728798801      -0.411261322
                        -----------------------------------------
Magnitude (a.u.)       :      0.846822653
Magnitude (Debye)      :      2.152452125

Rotational constants in cm-1:             0.050837             0.017882             0.014938
Rotational constants in MHz :          1524.039989           536.083676           447.819354

                             ****ORCA TERMINATED NORMALLY****
TOTAL RUN TIME: 0 days 0 hours 0 minutes 15 seconds 55 msec
