                         Program Version 6.0.0  -   RELEASE  -
|  1> ! r2scan-3c def2/J RI DEFGRID2 scfconv6 printgap
|  2> %output
|  3>     printlevel normal
|  4> end
|  5> * xyz 0 1
|  6> C -2.5482011206 0.3187760114 -0.6183339908
|  7> C -1.8429375065 -0.4113295938 0.5196260058
|  8> C -0.4008050003 0.0500139121 0.7301815368
|  9> C 0.5016854293 -0.3053501238 -0.4609131876
| 10> C 1.8673111849 0.0364999409 -0.1880514597
| 11> N 2.954446972 0.3139511046 0.0461993646
| 12> H -2.4944018123 1.3952827879 -0.4713799728
| 13> H -2.1036063845 0.0771129392 -1.5801948501
| 14> H -3.5960080907 0.0312918019 -0.6529814849
| 15> H -2.3921975473 -0.2351002421 1.4465597186
| 16> H -1.8564257433 -1.4862646585 0.3276433941
| 17> H -0.0012564153 -0.4242682335 1.6293893785
| 18> H -0.3808819667 1.1304880373 0.8875067674
| 19> H 0.4514374678 -1.3781392031 -0.6645963491
| 20> H 0.1894048687 0.2373772265 -1.3555235343
| 21> *
| 22>
| 23>                          ****END OF INPUT****

CARTESIAN COORDINATES (ANGSTROEM)
---------------------------------
  C     -2.548201    0.318776   -0.618334
  C     -1.842938   -0.411330    0.519626
  C     -0.400805    0.050014    0.730182
  C      0.501685   -0.305350   -0.460913
  C      1.867311    0.036500   -0.188051
  N      2.954447    0.313951    0.046199
  H     -2.494402    1.395283   -0.471380
  H     -2.103606    0.077113   -1.580195
  H     -3.596008    0.031292   -0.652981
  H     -2.392198   -0.235100    1.446560
  H     -1.856426   -1.486265    0.327643
  H     -0.001256   -0.424268    1.629389
  H     -0.380882    1.130488    0.887507
  H      0.451437   -1.378139   -0.664596
  H      0.189405    0.237377   -1.355524

 Total Charge           Charge          ....    0
 Multiplicity           Mult            ....    1
 Number of Electrons    NEL             ....   46
 Basis Dimension        Dim             ....  164

ORBITAL ENERGIES
----------------

  NO   OCC          E(Eh)            E(eV)
   0   2.0000     -14.148142      -384.9905
   1   2.0000     -10.082827      -274.3677
   2   2.0000     -10.063608      -273.8447
   3   2.0000     -10.055765      -273.6313
   4   2.0000     -10.046220      -273.3715
   5   2.0000     -10.033706      -273.0310
   6   2.0000      -0.873648       -23.7732
   7   2.0000      -0.799370       -21.7520
   8   2.0000      -0.735393       -20.0111
   9   2.0000      -0.650749       -17.7078
  10   2.0000      -0.565559       -15.3896
  11   2.0000      -0.496939       -13.5224
  12   2.0000      -0.468902       -12.7595
  13   2.0000      -0.432124       -11.7587
  14   2.0000      -0.405572       -11.0362
  15   2.0000      -0.395484       -10.7617
  16   2.0000      -0.369579       -10.0568
  17   2.0000      -0.335921        -9.1409
  18   2.0000      -0.325103        -8.8465
  19   2.0000      -0.322848        -8.7851
  20   2.0000      -0.318457        -8.6656
  21   2.0000      -0.299873        -8.1600
  22   2.0000      -0.294023        -8.0008
  23   0.0000       0.009689         0.2637
  24   0.0000       0.014096         0.3836
  25   0.0000       0.059654         1.6233
  26   0.0000       0.088656         2.4125
  27   0.0000       0.104433         2.8418

MULLIKEN ATOMIC CHARGES
-----------------------
   0 C :   -0.488315
   1 C :   -0.224527
   2 C :   -0.239259
   3 C :   -0.423981
   4 C :    0.220294
   5 N :   -0.250656
   6 H :    0.150157
   7 H :    0.146000
   8 H :    0.153788
   9 H :    0.152475
  10 H :    0.138605
  11 H :    0.156963
  12 H :    0.153693
  13 H :    0.177159
  14 H :    0.177605
Sum of atomic charges:    0.0000000

LOEWDIN ATOMIC CHARGES
----------------------
   0 C :   -0.423745
   1 C :   -0.314204
   2 C :   -0.282890
   3 C :   -0.258371
   4 C :    0.130513
   5 N :   -0.320924
   6 H :    0.152901
   7 H :    0.147984
   8 H :    0.154986
   9 H :    0.158064
  10 H :    0.153365
  11 H :    0.165923
  12 H :    0.164117
  13 H :    0.186103
  14 H :    0.186178

  Mayer bond orders larger than 0.100000
B(  0-C ,  1-C ) :   0.8835 B(  0-C ,  6-H ) :   0.9787 B(  0-C ,  7-H ) :   0.9826
B(  0-C ,  8-H ) :   0.9673 B(  1-C ,  2-C ) :   0.8865 B(  1-C ,  9-H ) :   0.9689
B(  1-C , 10-H ) :   0.9885 B(  2-C ,  3-C ) :   0.8955 B(  2-C , 11-H ) :   0.9622
B(  2-C , 12-H ) :   0.9635 B(  3-C ,  4-C ) :   1.0463 B(  3-C , 13-H ) :   0.9812
B(  3-C , 14-H ) :   0.9591 B(  4-C ,  5-N ) :   2.8865

Dispersion correction           -0.003487892
FINAL SINGLE POINT ENERGY      -250.611714946680

DIPOLE MOMENT
-------------

Method             : SCF
Type of density    : Electron Density
Multiplicity       :   1
Irrep              :   0
Energy             :  -250.6144675533134034 Eh
Relativity type    :
Basis              : AO
                                X                 Y                 Z
Electronic contribution:      9.718052681       0.251565023       0.214730755
Nuclear contribution   :    -11.414362658      -0.610165359      -0.406515562
                        -----------------------------------------
Total Dipole Moment    :     -1.696309978      -0.358600336      -0.191784808
                        -----------------------------------------
Magnitude (a.u.)       :      1.744374717
Magnitude (Debye)      :      4.433848167

Rotational constants in cm-1:             0.405319             0.050467             0.048066
Rotational constants in MHz :         12151.157137          1512.957393          1440.974993

                             ****ORCA TERMINATED NORMALLY****
TOTAL RUN TIME: 0 days 0 hours 0 minutes 15 seconds 458 msec
