                         Program Version 6.0.0  -   RELEASE  -
|  1> ! r2scan-3c def2/J RI DEFGRID2 scfconv6 printgap
|  2> %output
|  3>     printlevel normal
|  4> end
|  5> %cpcm
|  6>     smd true
|  7>     smdsolvent "water"
|  8> end
|  9> * xyz 0 1
| 10> C -2.5482011206 0.3187760114 -0.6183339908
| 11> C -1.8429375065 -0.4113295938 0.5196260058
| 12> C -0.4008050003 0.0500139121 0.7301815368
| 13> C 0.5016854293 -0.3053501238 -0.4609131876
| 14> C 1.8673111849 0.0364999409 -0.1880514597
| 15> N 2.954446972 0.3139511046 0.0461993646
| 16> H -2.4944018123 1.3952827879 -0.4713799728
| 17> H -2.1036063845 0.0771129392 -1.5801948501
| 18> H -3.5960080907 0.0312918019 -0.6529814849
| 19> H -2.3921975473 -0.2351002421 1.4465597186
| 20> H -1.8564257433 -1.4862646585 0.3276433941
| 21> H -0.0012564153 -0.4242682335 1.6293893785
| 22> H -0.3808819667 1.1304880373 0.8875067674
| 23> H 0.4514374678 -1.3781392031 -0.6645963491
| 24> H 0.1894048687 0.2373772265 -1.3555235343
| 25> *
| 26>
| 27>                          ****END OF INPUT****

CARTESIAN COORDINATES (ANGSTROEM)
---------------------------------
  C     -2.548201    0.318776   -0.618334
  C     -1.842938   -0.411330    0.519626
  C     -0.400805    0.050014    0.730182
  C      0.501685   -0.305350   -0.460913
  C      1.867311    0.036500   -0.188051
  N      2.954447    0.313951    0.046199
  H     -2.494402    1.395283   -0.471380
  H     -2.103606    0.077113   -1.580195
  H     -3.596008    0.031292   -0.652981
  H     -2.392198   -0.235100    1.446560
  H     -1.856426   -1.486265    0.327643
  H     -0.001256   -0.424268    1.629389
  H     -0.380882    1.130488    0.887507
  H      0.451437   -1.378139   -0.664596
  H      0.189405    0.237377   -1.355524

 Total Charge           Charge          ....    0
 Multiplicity           Mult            ....    1
 Number of Electrons    NEL             ....   46
 Basis Dimension        Dim             ....  164

ORBITAL ENERGIES
----------------

  NO   OCC          E(Eh)            E(eV)
   0   2.0000     -14.154464      -385.1626
   1   2.0000     -10.074323      -274.1363
   2   2.0000     -10.062857      -273.8243
   3   2.0000     -10.034403      -273.0500
   4   2.0000     -10.022786      -272.7339
   5   2.0000     -10.009562      -272.3740
   6   2.0000      -0.881967       -23.9995
   7   2.0000      -0.780288       -21.2327
   8   2.0000      -0.715896       -19.4805
   9   2.0000      -0.629885       -17.1400
  10   2.0000      -0.543276       -14.7833
  11   2.0000      -0.480457       -13.0739
  12   2.0000      -0.447466       -12.1762
  13   2.0000      -0.410747       -11.1770
  14   2.0000      -0.385476       -10.4893
  15   2.0000      -0.376973       -10.2580
  16   2.0000      -0.349986        -9.5236
  17   2.0000      -0.341786        -9.3005
  18   2.0000      -0.320807        -8.7296
  19   2.0000      -0.308105        -8.3840
  20   2.0000      -0.298947        -8.1348
  21   2.0000      -0.295197        -8.0327
  22   2.0000      -0.287449        -7.8219
  23   0.0000       0.007523         0.2047
  24   0.0000       0.011937         0.3248
  25   0.0000       0.068952         1.8763
  26   0.0000       0.108865         2.9624
  27   0.0000       0.127622         3.4728

MULLIKEN ATOMIC CHARGES
-----------------------
   0 C :   -0.525696
   1 C :   -0.245087
   2 C :   -0.251670
   3 C :   -0.416980
   4 C :    0.266405
   5 N :   -0.369976
   6 H :    0.157602
   7 H :    0.161450
   8 H :    0.159980
   9 H :    0.160514
  10 H :    0.152092
  11 H :    0.165712
  12 H :    0.165931
  13 H :    0.210067
  14 H :    0.209657
Sum of atomic charges:    0.0000000

LOEWDIN ATOMIC CHARGES
----------------------
   0 C :   -0.431422
   1 C :   -0.313179
   2 C :   -0.281174
   3 C :   -0.252701
   4 C :    0.160070
   5 N :   -0.400550
   6 H :    0.154403
   7 H :    0.153120
   8 H :    0.154958
   9 H :    0.159972
  10 H :    0.157532
  11 H :    0.167743
  12 H :    0.167045
  13 H :    0.202311
  14 H :    0.201871

  Mayer bond orders larger than 0.100000
B(  0-C ,  1-C ) :   0.8818 B(  0-C ,  6-H ) :   0.9767 B(  0-C ,  7-H ) :   0.9778
B(  0-C ,  8-H ) :   0.9674 B(  1-C ,  2-C ) :   0.8794 B(  1-C ,  9-H ) :   0.9702
B(  1-C , 10-H ) :   0.9891 B(  2-C ,  3-C ) :   0.8681 B(  2-C , 11-H ) :   0.9637
B(  2-C , 12-H ) :   0.9633 B(  3-C ,  4-C ) :   1.0498 B(  3-C , 13-H ) :   0.9667
B(  3-C , 14-H ) :   0.9470 B(  4-C ,  5-N ) :   2.8642

Dispersion correction           -0.003487892
FINAL SINGLE POINT ENERGY      -250.617799951467

DIPOLE MOMENT
-------------

Method             : SCF
Type of density    : Electron Density
Multiplicity       :   1
Irrep              :   0
Energy             :  -250.6205525581003144 Eh
Relativity type    :
Basis              : AO
                                X                 Y                 Z
Electronic contribution:      9.278437485       0.108367884       0.089573408
Nuclear contribution   :    -11.414362658      -0.610165359      -0.406515562
                        -----------------------------------------
Total Dipole Moment    :     -2.135925173      -0.501797475      -0.316942155
                        -----------------------------------------
Magnitude (a.u.)       :      2.216851231
Magnitude (Debye)      :      5.634788026

Rotational constants in cm-1:             0.405319             0.050467             0.048066
Rotational constants in MHz :         12151.157137          1512.957393          1440.974993

                             ****ORCA TERMINATED NORMALLY****
TOTAL RUN TIME: 0 days 0 hours 0 minutes 20 seconds 538 msec
