                         Program Version 6.0.0  -   RELEASE  -
|  1> ! r2scan-3c def2/J RI DEFGRID2 scfconv6 printgap
|  2> %output
|  3>     printlevel normal
|  4> end
|  5> * xyz 0 1
|  6> C -2.1911667115 -0.2025268221 -1.368451785
|  7> C -1.7233058327 -0.5549041496 0.0411630039
|  8> C -2.9281042572 -0.924333602 0.907877358
|  9> C -0.9675339997 0.6031902213 0.7022532142
| 10> C 0.2978602751 1.1237538374 0.0103208495
| 11> C 1.5475831066 0.2170470005 -0.0429670374
| 12> C 1.4919758115 -0.7608709802 -1.2203845234
| 13> C 2.7659877628 1.1281544677 -0.2509480114
| 14> C 1.7394354949 -0.560533097 1.2606067802
| 15> H -1.3479572827 -0.0294200879 -2.0306435686
| 16> H -2.8060250327 0.6950094841 -1.3475581488
| 17> H -2.784613184 -1.0149061601 -1.7824599446
| 18> H -1.0714227202 -1.4317499979 -0.0117517746
| 19> H -2.6114047362 -1.1986339692 1.9117811744
| 20> H -3.6131282397 -0.0822955485 0.9829818938
| 21> H -3.465600213 -1.7657658596 0.4764796679
| 22> H -1.6598403402 1.4480874342 0.7699304954
| 23> H -0.7195068504 0.3147709947 1.72505693
| 24> H 0.5811291723 2.0300000802 0.5531736365
| 25> H 0.0523815577 1.4312092757 -1.0076091031
| 26> H 0.6638377535 -1.455552668 -1.1269080862
| 27> H 1.3845216547 -0.221189906 -2.1590793337
| 28> H 2.412601675 -1.3394498721 -1.2666581006
| 29> H 3.6704096957 0.5353725433 -0.3686819117
| 30> H 2.6386307583 1.73772151 -1.1429900099
| 31> H 2.9018904061 1.790926309 0.6008841275
| 32> H 1.7355115664 0.1150811737 2.1130805248
| 33> H 2.6941661363 -1.0820256569 1.244099389
| 34> H 0.9543598397 -1.2991766357 1.3965156084
| 35> *
| 36>
| 37>                          ****END OF INPUT****

CARTESIAN COORDINATES (ANGSTROEM)
---------------------------------
  C     -2.191167   -0.202527   -1.368452
  C     -1.723306   -0.554904    0.041163
  C     -2.928104   -0.924334    0.907877
  C     -0.967534    0.603190    0.702253
  C      0.297860    1.123754    0.010321
  C      1.547583    0.217047   -0.042967
  C      1.491976   -0.760871   -1.220385
  C      2.765988    1.128154   -0.250948
  C      1.739435   -0.560533    1.260607
  H     -1.347957   -0.029420   -2.030644
  H     -2.806025    0.695009   -1.347558
  H     -2.784613   -1.014906   -1.782460
  H     -1.071423   -1.431750   -0.011752
  H     -2.611405   -1.198634    1.911781
  H     -3.613128   -0.082296    0.982982
  H     -3.465600   -1.765766    0.476480
  H     -1.659840    1.448087    0.769930
  H     -0.719507    0.314771    1.725057
  H      0.581129    2.030000    0.553174
  H      0.052382    1.431209   -1.007609
  H      0.663838   -1.455553   -1.126908
  H      1.384522   -0.221190   -2.159079
  H      2.412602   -1.339450   -1.266658
  H      3.670410    0.535373   -0.368682
  H      2.638631    1.737722   -1.142990
  H      2.901890    1.790926    0.600884
  H      1.735512    0.115081    2.113081
  H      2.694166   -1.082026    1.244099
  H      0.954360   -1.299177    1.396516

 Total Charge           Charge          ....    0
 Multiplicity           Mult            ....    1
 Number of Electrons    NEL             ....   74
 Basis Dimension        Dim             ....  271

ORBITAL ENERGIES
----------------

  NO   OCC          E(Eh)            E(eV)
   0   2.0000     -10.039195      -273.1804
   1   2.0000     -10.029523      -272.9172
   2   2.0000     -10.018967      -272.6300
   3   2.0000     -10.018567      -272.6191
   4   2.0000     -10.012340      -272.4496
   5   2.0000     -10.012324      -272.4492
   6   2.0000     -10.012219      -272.4463
   7   2.0000     -10.011311      -272.4216
   8   2.0000     -10.011232      -272.4195
   9   2.0000      -0.794670       -21.6241
  10   2.0000      -0.765007       -20.8169
  11   2.0000      -0.687665       -18.7123
  12   2.0000      -0.651516       -17.7287
  13   2.0000      -0.648605       -17.6494
  14   2.0000      -0.645711       -17.5707
  15   2.0000      -0.593891       -16.1606
  16   2.0000      -0.526234       -14.3196
  17   2.0000      -0.489275       -13.3138
  18   2.0000      -0.441843       -12.0232
  19   2.0000      -0.424395       -11.5484
  20   2.0000      -0.418408       -11.3855
  21   2.0000      -0.403768       -10.9871
  22   2.0000      -0.398450       -10.8424
  23   2.0000      -0.380197       -10.3457
  24   2.0000      -0.365533        -9.9466
  25   2.0000      -0.357472        -9.7273
  26   2.0000      -0.350746        -9.5443
  27   2.0000      -0.340277        -9.2594
  28   2.0000      -0.333009        -9.0616
  29   2.0000      -0.330603        -8.9962
  30   2.0000      -0.321389        -8.7454
  31   2.0000      -0.303916        -8.2700
  32   2.0000      -0.296018        -8.0551
  33   2.0000      -0.293679        -7.9914
  34   2.0000      -0.277368        -7.5476
  35   2.0000      -0.270289        -7.3549
  36   2.0000      -0.268229        -7.2989
  37   0.0000       0.069757         1.8982
  38   0.0000       0.096171         2.6169
  39   0.0000       0.104291         2.8379
  40   0.0000       0.112214         3.0535
  41   0.0000       0.119946         3.2639

MULLIKEN ATOMIC CHARGES
-----------------------
   0 C :   -0.508947
   1 C :   -0.009872
   2 C :   -0.490351
   3 C :   -0.321982
   4 C :   -0.335120
   5 C :    0.180967
   6 C :   -0.530597
   7 C :   -0.497253
   8 C :   -0.526627
   9 H :    0.154366
  10 H :    0.152341
  11 H :    0.145445
  12 H :    0.140153
  13 H :    0.143861
  14 H :    0.147765
  15 H :    0.147236
  16 H :    0.149142
  17 H :    0.154032
  18 H :    0.152844
  19 H :    0.161327
  20 H :    0.156394
  21 H :    0.157099
  22 H :    0.150199
  23 H :    0.152366
  24 H :    0.153146
  25 H :    0.152850
  26 H :    0.159565
  27 H :    0.151126
  28 H :    0.158529
Sum of atomic charges:   -0.0000000

LOEWDIN ATOMIC CHARGES
----------------------
   0 C :   -0.418374
   1 C :   -0.252564
   2 C :   -0.416903
   3 C :   -0.300392
   4 C :   -0.292247
   5 C :   -0.209759
   6 C :   -0.409550
   7 C :   -0.411124
   8 C :   -0.408108
   9 H :    0.153329
  10 H :    0.154466
  11 H :    0.154132
  12 H :    0.151133
  13 H :    0.152664
  14 H :    0.153784
  15 H :    0.151748
  16 H :    0.159666
  17 H :    0.159728
  18 H :    0.163299
  19 H :    0.161494
  20 H :    0.155092
  21 H :    0.155886
  22 H :    0.155663
  23 H :    0.154204
  24 H :    0.157190
  25 H :    0.154786
  26 H :    0.157577
  27 H :    0.157171
  28 H :    0.156008

  Mayer bond orders larger than 0.100000
B(  0-C ,  1-C ) :   0.8949 B(  0-C ,  9-H ) :   0.9692 B(  0-C , 10-H ) :   0.9879
B(  0-C , 11-H ) :   0.9723 B(  1-C ,  2-C ) :   0.9080 B(  1-C ,  3-C ) :   0.8858
B(  1-C , 12-H ) :   0.9573 B(  2-C , 13-H ) :   0.9781 B(  2-C , 14-H ) :   0.9881
B(  2-C , 15-H ) :   0.9773 B(  3-C ,  4-C ) :   0.8917 B(  3-C , 16-H ) :   0.9871
B(  3-C , 17-H ) :   0.9766 B(  4-C ,  5-C ) :   0.8353 B(  4-C , 18-H ) :   0.9803
B(  4-C , 19-H ) :   1.0002 B(  5-C ,  6-C ) :   0.9289 B(  5-C ,  7-C ) :   0.9240
B(  5-C ,  8-C ) :   0.9081 B(  6-C , 20-H ) :   0.9654 B(  6-C , 21-H ) :   0.9803
B(  6-C , 22-H ) :   0.9757 B(  7-C , 23-H ) :   0.9810 B(  7-C , 24-H ) :   0.9758
B(  7-C , 25-H ) :   0.9766 B(  8-C , 26-H ) :   0.9804 B(  8-C , 27-H ) :   0.9717
B(  8-C , 28-H ) :   0.9715

Dispersion correction           -0.009391065
FINAL SINGLE POINT ENERGY      -354.886358280805

DIPOLE MOMENT
-------------

Method             : SCF
Type of density    : Electron Density
Multiplicity       :   1
Irrep              :   0
Energy             :  -354.8912772719724558 Eh
Relativity type    :
Basis              : AO
                                X                 Y                 Z
Electronic contribution:      0.376474830       0.770655328       0.457230308
Nuclear contribution   :     -0.365937870      -0.771157315      -0.441270527
                        -----------------------------------------
Total Dipole Moment    :      0.010536960      -0.000501988       0.015959782
                        -----------------------------------------
Magnitude (a.u.)       :      0.019130974
Magnitude (Debye)      :      0.048627071

Rotational constants in cm-1:             0.089271             0.028746             0.027099
Rotational constants in MHz :          2676.285865           861.796127           812.399468

                             ****ORCA TERMINATED NORMALLY****
TOTAL RUN TIME: 0 days 0 hours 0 minutes 34 seconds 442 msec
