                         Program Version 6.0.0  -   RELEASE  -
|  1> ! r2scan-3c def2/J RI DEFGRID2 scfconv6 printgap
|  2> %output
|  3>     printlevel normal
|  4> end
|  5> %cpcm
|  6>     smd true
|  7>     smdsolvent "water"
|  8> end
|  9> * xyz 0 1
| 10> C -2.1911667115 -0.2025268221 -1.368451785
| 11> C -1.7233058327 -0.5549041496 0.0411630039
| 12> C -2.9281042572 -0.924333602 0.907877358
| 13> C -0.9675339997 0.6031902213 0.7022532142
| 14> C 0.2978602751 1.1237538374 0.0103208495
| 15> C 1.5475831066 0.2170470005 -0.0429670374
| 16> C 1.4919758115 -0.7608709802 -1.2203845234
| 17> C 2.7659877628 1.1281544677 -0.2509480114
| 18> C 1.7394354949 -0.560533097 1.2606067802
| 19> H -1.3479572827 -0.0294200879 -2.0306435686
| 20> H -2.8060250327 0.6950094841 -1.3475581488
| 21> H -2.784613184 -1.0149061601 -1.7824599446
| 22> H -1.0714227202 -1.4317499979 -0.0117517746
| 23> H -2.6114047362 -1.1986339692 1.9117811744
| 24> H -3.6131282397 -0.0822955485 0.9829818938
| 25> H -3.465600213 -1.7657658596 0.4764796679
| 26> H -1.6598403402 1.4480874342 0.7699304954
| 27> H -0.7195068504 0.3147709947 1.72505693
| 28> H 0.5811291723 2.0300000802 0.5531736365
| 29> H 0.0523815577 1.4312092757 -1.0076091031
| 30> H 0.6638377535 -1.455552668 -1.1269080862
| 31> H 1.3845216547 -0.221189906 -2.1590793337
| 32> H 2.412601675 -1.3394498721 -1.2666581006
| 33> H 3.6704096957 0.5353725433 -0.3686819117
| 34> H 2.6386307583 1.73772151 -1.1429900099
| 35> H 2.9018904061 1.790926309 0.6008841275
| 36> H 1.7355115664 0.1150811737 2.1130805248
| 37> H 2.6941661363 -1.0820256569 1.244099389
| 38> H 0.9543598397 -1.2991766357 1.3965156084
| 39> *
| 40>
| 41>                          ****END OF INPUT****

CARTESIAN COORDINATES (ANGSTROEM)
---------------------------------
  C     -2.191167   -0.202527   -1.368452
  C     -1.723306   -0.554904    0.041163
  C     -2.928104   -0.924334    0.907877
  C     -0.967534    0.603190    0.702253
  C      0.297860    1.123754    0.010321
  C      1.547583    0.217047   -0.042967
  C      1.491976   -0.760871   -1.220385
  C      2.765988    1.128154   -0.250948
  C      1.739435   -0.560533    1.260607
  H     -1.347957   -0.029420   -2.030644
  H     -2.806025    0.695009   -1.347558
  H     -2.784613   -1.014906   -1.782460
  H     -1.071423   -1.431750   -0.011752
  H     -2.611405   -1.198634    1.911781
  H     -3.613128   -0.082296    0.982982
  H     -3.465600   -1.765766    0.476480
  H     -1.659840    1.448087    0.769930
  H     -0.719507    0.314771    1.725057
  H      0.581129    2.030000    0.553174
  H      0.052382    1.431209   -1.007609
  H      0.663838   -1.455553   -1.126908
  H      1.384522   -0.221190   -2.159079
  H      2.412602   -1.339450   -1.266658
  H      3.670410    0.535373   -0.368682
  H      2.638631    1.737722   -1.142990
  H      2.901890    1.790926    0.600884
  H      1.735512    0.115081    2.113081
  H      2.694166   -1.082026    1.244099
  H      0.954360   -1.299177    1.396516

 Total Charge           Charge          ....    0
 Multiplicity           Mult            ....    1
 Number of Electrons    NEL             ....   74
 Basis Dimension        Dim             ....  271

ORBITAL ENERGIES
----------------

  NO   OCC          E(Eh)            E(eV)
   0   2.0000     -10.031325      -272.9662
   1   2.0000     -10.020916      -272.6830
   2   2.0000     -10.010295      -272.3940
   3   2.0000     -10.009886      -272.3829
   4   2.0000     -10.004611      -272.2393
   5   2.0000     -10.004123      -272.2260
   6   2.0000     -10.003482      -272.2086
   7   2.0000     -10.003354      -272.2051
   8   2.0000     -10.002442      -272.1803
   9   2.0000      -0.786264       -21.3953
  10   2.0000      -0.756817       -20.5940
  11   2.0000      -0.679578       -18.4923
  12   2.0000      -0.643554       -17.5120
  13   2.0000      -0.641004       -17.4426
  14   2.0000      -0.638143       -17.3648
  15   2.0000      -0.585945       -15.9444
  16   2.0000      -0.518109       -14.0985
  17   2.0000      -0.481347       -13.0981
  18   2.0000      -0.433389       -11.7931
  19   2.0000      -0.416177       -11.3247
  20   2.0000      -0.410073       -11.1587
  21   2.0000      -0.395684       -10.7671
  22   2.0000      -0.390530       -10.6269
  23   2.0000      -0.372153       -10.1268
  24   2.0000      -0.357259        -9.7215
  25   2.0000      -0.349484        -9.5100
  26   2.0000      -0.343202        -9.3390
  27   2.0000      -0.332001        -9.0342
  28   2.0000      -0.324651        -8.8342
  29   2.0000      -0.322263        -8.7692
  30   2.0000      -0.313290        -8.5250
  31   2.0000      -0.295621        -8.0443
  32   2.0000      -0.287899        -7.8341
  33   2.0000      -0.285481        -7.7683
  34   2.0000      -0.269070        -7.3218
  35   2.0000      -0.262112        -7.1324
  36   2.0000      -0.259805        -7.0697
  37   0.0000       0.079321         2.1584
  38   0.0000       0.104516         2.8440
  39   0.0000       0.113018         3.0754
  40   0.0000       0.120028         3.2661
  41   0.0000       0.127795         3.4775

MULLIKEN ATOMIC CHARGES
-----------------------
   0 C :   -0.553285
   1 C :    0.011371
   2 C :   -0.540620
   3 C :   -0.339230
   4 C :   -0.352229
   5 C :    0.231485
   6 C :   -0.575926
   7 C :   -0.547960
   8 C :   -0.571711
   9 H :    0.163188
  10 H :    0.162916
  11 H :    0.156062
  12 H :    0.153619
  13 H :    0.154928
  14 H :    0.159056
  15 H :    0.157993
  16 H :    0.156262
  17 H :    0.159756
  18 H :    0.158653
  19 H :    0.168637
  20 H :    0.167284
  21 H :    0.167603
  22 H :    0.160810
  23 H :    0.163887
  24 H :    0.162831
  25 H :    0.163979
  26 H :    0.169500
  27 H :    0.161853
  28 H :    0.169287
Sum of atomic charges:   -0.0000000

LOEWDIN ATOMIC CHARGES
----------------------
   0 C :   -0.427072
   1 C :   -0.250335
   2 C :   -0.426556
   3 C :   -0.303059
   4 C :   -0.294936
   5 C :   -0.204719
   6 C :   -0.417610
   7 C :   -0.420239
   8 C :   -0.416014
   9 H :    0.155294
  10 H :    0.156607
  11 H :    0.155954
  12 H :    0.155209
  13 H :    0.154727
  14 H :    0.155683
  15 H :    0.153963
  16 H :    0.160954
  17 H :    0.160985
  18 H :    0.164339
  19 H :    0.163407
  20 H :    0.157667
  21 H :    0.158407
  22 H :    0.157357
  23 H :    0.156579
  24 H :    0.158776
  25 H :    0.157134
  26 H :    0.159834
  27 H :    0.158932
  28 H :    0.158731

  Mayer bond orders larger than 0.100000
B(  0-C ,  1-C ) :   0.8846 B(  0-C ,  9-H ) :   0.9677 B(  0-C , 10-H ) :   0.9858
B(  0-C , 11-H ) :   0.9711 B(  1-C ,  2-C ) :   0.8925 B(  1-C ,  3-C ) :   0.8784
B(  1-C , 12-H ) :   0.9579 B(  2-C , 13-H ) :   0.9765 B(  2-C , 14-H ) :   0.9875
B(  2-C , 15-H ) :   0.9748 B(  3-C ,  4-C ) :   0.8949 B(  3-C , 16-H ) :   0.9870
B(  3-C , 17-H ) :   0.9763 B(  4-C ,  5-C ) :   0.8326 B(  4-C , 18-H ) :   0.9804
B(  4-C , 19-H ) :   0.9981 B(  5-C ,  6-C ) :   0.9189 B(  5-C ,  7-C ) :   0.9068
B(  5-C ,  8-C ) :   0.8981 B(  6-C , 20-H ) :   0.9645 B(  6-C , 21-H ) :   0.9771
B(  6-C , 22-H ) :   0.9759 B(  7-C , 23-H ) :   0.9798 B(  7-C , 24-H ) :   0.9752
B(  7-C , 25-H ) :   0.9750 B(  8-C , 26-H ) :   0.9777 B(  8-C , 27-H ) :   0.9717
B(  8-C , 28-H ) :   0.9698

Dispersion correction           -0.009391065
FINAL SINGLE POINT ENERGY      -354.882194791863

DIPOLE MOMENT
-------------

Method             : SCF
Type of density    : Electron Density
Multiplicity       :   1
Irrep              :   0
Energy             :  -354.8871137830310545 Eh
Relativity type    :
Basis              : AO
                                X                 Y                 Z
Electronic contribution:      0.381297726       0.759352894       0.461670229
Nuclear contribution   :     -0.365937870      -0.771157315      -0.441270527
                        -----------------------------------------
Total Dipole Moment    :      0.015359856      -0.011804421       0.020399703
                        -----------------------------------------
Magnitude (a.u.)       :      0.028132142
Magnitude (Debye)      :      0.071506222

Rotational constants in cm-1:             0.089271             0.028746             0.027099
Rotational constants in MHz :          2676.285865           861.796127           812.399468

                             ****ORCA TERMINATED NORMALLY****
TOTAL RUN TIME: 0 days 0 hours 0 minutes 43 seconds 181 msec
