                         Program Version 6.0.0  -   RELEASE  -
|  1> ! r2scan-3c def2/J RI DEFGRID2 scfconv6 printgap
|  2> %output
|  3>     printlevel normal
|  4> end
|  5> * xyz 0 1
|  6> C 0.0468494578 -2.5850777279 0.045142577
|  7> C -0.0629812783 -1.0973698023 -0.2240081168
|  8> O 0.8521895271 -0.3722953783 0.5877160988
|  9> C 1.8027541221 0.3705372512 -0.0046234771
| 10> O 2.0088950501 0.3489510901 -1.1952006593
| 11> C 2.5507066508 1.1847120541 0.9986738228
| 12> O -1.3733253942 -0.6872231861 0.1283448844
| 13> C -1.729029479 0.5890747804 -0.0969856702
| 14> O -0.9827797089 1.3986797714 -0.5998025355
| 15> C -3.1244309302 0.849257628 0.3639811285
| 16> H 1.0347432863 -2.930203047 -0.2420431476
| 17> H -0.7083415291 -3.1060939273 -0.5332122516
| 18> H -0.1140496509 -2.7653733841 1.1036182982
| 19> H 0.1351105001 -0.8380964372 -1.2759374364
| 20> H 2.5382878658 0.6892242544 1.9634854724
| 21> H 3.5632732758 1.356858785 0.6486644452
| 22> H 2.0445785793 2.1444448756 1.0882229136
| 23> H -3.5156171389 1.7298787547 -0.134694833
| 24> H -3.7418527013 -0.0228653154 0.1757129038
| 25> H -3.1015096759 1.0282492885 1.4371201061
| 26> *
| 27>
| 28>                          ****END OF INPUT****

CARTESIAN COORDINATES (ANGSTROEM)
---------------------------------
  C      0.046849   -2.585078    0.045143
  C     -0.062981   -1.097370   -0.224008
  O      0.852190   -0.372295    0.587716
  C      1.802754    0.370537   -0.004623
  O      2.008895    0.348951   -1.195201
  C      2.550707    1.184712    0.998674
  O     -1.373325   -0.687223    0.128345
  C     -1.729029    0.589075   -0.096986
  O     -0.982780    1.398680   -0.599803
  C     -3.124431    0.849258    0.363981
  H      1.034743   -2.930203   -0.242043
  H     -0.708342   -3.106094   -0.533212
  H     -0.114050   -2.765373    1.103618
  H      0.135111   -0.838096   -1.275937
  H      2.538288    0.689224    1.963485
  H      3.563273    1.356859    0.648664
  H      2.044579    2.144445    1.088223
  H     -3.515617    1.729879   -0.134695
  H     -3.741853   -0.022865    0.175713
  H     -3.101510    1.028249    1.437120

 Total Charge           Charge          ....    0
 Multiplicity           Mult            ....    1
 Number of Electrons    NEL             ....   78
 Basis Dimension        Dim             ....  260

ORBITAL ENERGIES
----------------

  NO   OCC          E(Eh)            E(eV)
   0   2.0000     -19.007421      -517.2182
   1   2.0000     -19.001278      -517.0511
   2   2.0000     -18.939239      -515.3629
   3   2.0000     -18.930876      -515.1353
   4   2.0000     -10.166611      -276.6476
   5   2.0000     -10.159916      -276.4654
   6   2.0000     -10.156092      -276.3613
   7   2.0000     -10.046823      -273.3880
   8   2.0000     -10.040602      -273.2187
   9   2.0000     -10.039641      -273.1925
  10   2.0000      -1.100403       -29.9435
  11   2.0000      -1.061805       -28.8932
  12   2.0000      -0.992923       -27.0188
  13   2.0000      -0.975016       -26.5315
  14   2.0000      -0.773672       -21.0527
  15   2.0000      -0.727154       -19.7869
  16   2.0000      -0.711895       -19.3716
  17   2.0000      -0.631609       -17.1869
  18   2.0000      -0.585804       -15.9405
  19   2.0000      -0.535735       -14.5781
  20   2.0000      -0.472958       -12.8698
  21   2.0000      -0.462953       -12.5976
  22   2.0000      -0.455011       -12.3815
  23   2.0000      -0.441730       -12.0201
  24   2.0000      -0.434857       -11.8331
  25   2.0000      -0.425888       -11.5890
  26   2.0000      -0.397951       -10.8288
  27   2.0000      -0.394227       -10.7275
  28   2.0000      -0.385305       -10.4847
  29   2.0000      -0.375951       -10.2302
  30   2.0000      -0.375127       -10.2077
  31   2.0000      -0.365891        -9.9564
  32   2.0000      -0.345458        -9.4004
  33   2.0000      -0.342433        -9.3181
  34   2.0000      -0.318544        -8.6680
  35   2.0000      -0.292129        -7.9492
  36   2.0000      -0.280315        -7.6278
  37   2.0000      -0.245306        -6.6751
  38   2.0000      -0.238209        -6.4820
  39   0.0000      -0.027295        -0.7427
  40   0.0000      -0.017171        -0.4672
  41   0.0000       0.074299         2.0218
  42   0.0000       0.092687         2.5221
  43   0.0000       0.105195         2.8625

MULLIKEN ATOMIC CHARGES
-----------------------
   0 C :   -0.482887
   1 C :    0.025272
   2 O :   -0.113735
   3 C :    0.422039
   4 O :   -0.407618
   5 C :   -0.541998
   6 O :   -0.132830
   7 C :    0.438481
   8 O :   -0.395102
   9 C :   -0.545403
  10 H :    0.162353
  11 H :    0.160032
  12 H :    0.168259
  13 H :    0.187128
  14 H :    0.168449
  15 H :    0.174877
  16 H :    0.186476
  17 H :    0.180205
  18 H :    0.170235
  19 H :    0.175766
Sum of atomic charges:   -0.0000000

LOEWDIN ATOMIC CHARGES
----------------------
   0 C :   -0.337776
   1 C :    0.319107
   2 O :   -0.527346
   3 C :    0.366318
   4 O :   -0.417745
   5 C :   -0.332245
   6 O :   -0.528681
   7 C :    0.369108
   8 O :   -0.394763
   9 C :   -0.331410
  10 H :    0.169602
  11 H :    0.169312
  12 H :    0.171644
  13 H :    0.225759
  14 H :    0.176019
  15 H :    0.176831
  16 H :    0.187528
  17 H :    0.177434
  18 H :    0.177784
  19 H :    0.183519

  Mayer bond orders larger than 0.100000
B(  0-C ,  1-C ) :   0.9304 B(  0-C , 10-H ) :   0.9676 B(  0-C , 11-H ) :   0.9683
B(  0-C , 12-H ) :   0.9777 B(  1-C ,  2-O ) :   0.7874 B(  1-C ,  6-O ) :   0.9206
B(  1-C , 13-H ) :   0.9407 B(  2-O ,  3-C ) :   0.9614 B(  3-C ,  4-O ) :   1.8771
B(  3-C ,  5-C ) :   0.9412 B(  5-C , 14-H ) :   0.9750 B(  5-C , 15-H ) :   0.9793
B(  5-C , 16-H ) :   0.9363 B(  6-O ,  7-C ) :   0.9903 B(  7-C ,  8-O ) :   1.7986
B(  7-C ,  9-C ) :   0.9257 B(  9-C , 17-H ) :   0.9881 B(  9-C , 18-H ) :   0.9724
B(  9-C , 19-H ) :   0.9365

Dispersion correction           -0.005641007
FINAL SINGLE POINT ENERGY      -535.492031462799

DIPOLE MOMENT
-------------

Method             : SCF
Type of density    : Electron Density
Multiplicity       :   1
Irrep              :   0
Energy             :  -535.5009580637882891 Eh
Relativity type    :
Basis              : AO
                                X                 Y                 Z
Electronic contribution:      1.116875737       1.892912278      -2.956692180
Nuclear contribution   :     -1.742559495      -2.535976410       3.953352805
                        -----------------------------------------
Total Dipole Moment    :     -0.625683758      -0.643064132       0.996660626
                        -----------------------------------------
Magnitude (a.u.)       :      1.341023507
Magnitude (Debye)      :      3.408610867

Rotational constants in cm-1:             0.063256             0.032850             0.025520
Rotational constants in MHz :          1896.380106           984.803468           765.084771

                             ****ORCA TERMINATED NORMALLY****
TOTAL RUN TIME: 0 days 0 hours 0 minutes 34 seconds 386 msec
