                         Program Version 6.0.0  -   RELEASE  -
|  1> ! r2scan-3c def2/J RI DEFGRID2 scfconv6 printgap
|  2> %output
|  3>     printlevel normal
|  4> end
|  5> %cpcm
|  6>     smd true
|  7>     smdsolvent "water"
|  8> end
|  9> * xyz 0 1
| 10> C 0.0468494578 -2.5850777279 0.045142577
| 11> C -0.0629812783 -1.0973698023 -0.2240081168
| 12> O 0.8521895271 -0.3722953783 0.5877160988
| 13> C 1.8027541221 0.3705372512 -0.0046234771
| 14> O 2.0088950501 0.3489510901 -1.1952006593
| 15> C 2.5507066508 1.1847120541 0.9986738228
| 16> O -1.3733253942 -0.6872231861 0.1283448844
| 17> C -1.729029479 0.5890747804 -0.0969856702
| 18> O -0.9827797089 1.3986797714 -0.5998025355
| 19> C -3.1244309302 0.849257628 0.3639811285
| 20> H 1.0347432863 -2.930203047 -0.2420431476
| 21> H -0.7083415291 -3.1060939273 -0.5332122516
| 22> H -0.1140496509 -2.7653733841 1.1036182982
| 23> H 0.1351105001 -0.8380964372 -1.2759374364
| 24> H 2.5382878658 0.6892242544 1.9634854724
| 25> H 3.5632732758 1.356858785 0.6486644452
| 26> H 2.0445785793 2.1444448756 1.0882229136
| 27> H -3.5156171389 1.7298787547 -0.134694833
| 28> H -3.7418527013 -0.0228653154 0.1757129038
| 29> H -3.1015096759 1.0282492885 1.4371201061
| 30> *
| 31>
| 32>                          ****END OF INPUT****

CARTESIAN COORDINATES (ANGSTROEM)
---------------------------------
  C      0.046849   -2.585078    0.045143
  C     -0.062981   -1.097370   -0.224008
  O      0.852190   -0.372295    0.587716
  C      1.802754    0.370537   -0.004623
  O      2.008895    0.348951   -1.195201
  C      2.550707    1.184712    0.998674
  O     -1.373325   -0.687223    0.128345
  C     -1.729029    0.589075   -0.096986
  O     -0.982780    1.398680   -0.599803
  C     -3.124431    0.849258    0.363981
  H      1.034743   -2.930203   -0.242043
  H     -0.708342   -3.106094   -0.533212
  H     -0.114050   -2.765373    1.103618
  H      0.135111   -0.838096   -1.275937
  H      2.538288    0.689224    1.963485
  H      3.563273    1.356859    0.648664
  H      2.044579    2.144445    1.088223
  H     -3.515617    1.729879   -0.134695
  H     -3.741853   -0.022865    0.175713
  H     -3.101510    1.028249    1.437120

 Total Charge           Charge          ....    0
 Multiplicity           Mult            ....    1
 Number of Electrons    NEL             ....   78
 Basis Dimension        Dim             ....  260

ORBITAL ENERGIES
----------------

  NO   OCC          E(Eh)            E(eV)
   0   2.0000     -19.011888      -517.3398
   1   2.0000     -19.009887      -517.2853
   2   2.0000     -18.952023      -515.7108
   3   2.0000     -18.949981      -515.6552
   4   2.0000     -10.174393      -276.8593
   5   2.0000     -10.173851      -276.8445
   6   2.0000     -10.154605      -276.3209
   7   2.0000     -10.033510      -273.0257
   8   2.0000     -10.033241      -273.0184
   9   2.0000     -10.027148      -272.8526
  10   2.0000      -1.107285       -30.1308
  11   2.0000      -1.071947       -29.1692
  12   2.0000      -1.007076       -27.4039
  13   2.0000      -0.989062       -26.9137
  14   2.0000      -0.771417       -20.9913
  15   2.0000      -0.722268       -19.6539
  16   2.0000      -0.703958       -19.1557
  17   2.0000      -0.626264       -17.0415
  18   2.0000      -0.587054       -15.9745
  19   2.0000      -0.537882       -14.6365
  20   2.0000      -0.475611       -12.9420
  21   2.0000      -0.472595       -12.8600
  22   2.0000      -0.466137       -12.6842
  23   2.0000      -0.444874       -12.1056
  24   2.0000      -0.436599       -11.8805
  25   2.0000      -0.432062       -11.7570
  26   2.0000      -0.393245       -10.7007
  27   2.0000      -0.383825       -10.4444
  28   2.0000      -0.379804       -10.3350
  29   2.0000      -0.372256       -10.1296
  30   2.0000      -0.364865        -9.9285
  31   2.0000      -0.359251        -9.7757
  32   2.0000      -0.348104        -9.4724
  33   2.0000      -0.346343        -9.4245
  34   2.0000      -0.323331        -8.7983
  35   2.0000      -0.302154        -8.2220
  36   2.0000      -0.291368        -7.9285
  37   2.0000      -0.260205        -7.0805
  38   2.0000      -0.255573        -6.9545
  39   0.0000      -0.032315        -0.8793
  40   0.0000      -0.028468        -0.7747
  41   0.0000       0.076227         2.0742
  42   0.0000       0.097718         2.6590
  43   0.0000       0.113936         3.1004

MULLIKEN ATOMIC CHARGES
-----------------------
   0 C :   -0.528884
   1 C :    0.024446
   2 O :   -0.124088
   3 C :    0.449714
   4 O :   -0.494247
   5 C :   -0.563990
   6 O :   -0.138574
   7 C :    0.486475
   8 O :   -0.474390
   9 C :   -0.579794
  10 H :    0.181154
  11 H :    0.183417
  12 H :    0.184409
  13 H :    0.201714
  14 H :    0.193773
  15 H :    0.191867
  16 H :    0.211114
  17 H :    0.192225
  18 H :    0.194683
  19 H :    0.208975
Sum of atomic charges:   -0.0000000

LOEWDIN ATOMIC CHARGES
----------------------
   0 C :   -0.337127
   1 C :    0.322276
   2 O :   -0.526727
   3 C :    0.373651
   4 O :   -0.479578
   5 C :   -0.328297
   6 O :   -0.524006
   7 C :    0.382475
   8 O :   -0.452448
   9 C :   -0.327831
  10 H :    0.177011
  11 H :    0.178181
  12 H :    0.176828
  13 H :    0.227525
  14 H :    0.187598
  15 H :    0.184114
  16 H :    0.197614
  17 H :    0.182934
  18 H :    0.188713
  19 H :    0.197096

  Mayer bond orders larger than 0.100000
B(  0-C ,  1-C ) :   0.9378 B(  0-C , 10-H ) :   0.9592 B(  0-C , 11-H ) :   0.9605
B(  0-C , 12-H ) :   0.9720 B(  1-C ,  2-O ) :   0.7687 B(  1-C ,  6-O ) :   0.9033
B(  1-C , 13-H ) :   0.9326 B(  2-O ,  3-C ) :   0.9869 B(  3-C ,  4-O ) :   1.7977
B(  3-C ,  5-C ) :   0.9509 B(  5-C , 14-H ) :   0.9631 B(  5-C , 15-H ) :   0.9693
B(  5-C , 16-H ) :   0.9200 B(  6-O ,  7-C ) :   1.0122 B(  7-C ,  8-O ) :   1.7338
B(  7-C ,  9-C ) :   0.9257 B(  9-C , 17-H ) :   0.9792 B(  9-C , 18-H ) :   0.9607
B(  9-C , 19-H ) :   0.9217

Dispersion correction           -0.005641007
FINAL SINGLE POINT ENERGY      -535.503474763495

DIPOLE MOMENT
-------------

Method             : SCF
Type of density    : Electron Density
Multiplicity       :   1
Irrep              :   0
Energy             :  -535.5124013644838215 Eh
Relativity type    :
Basis              : AO
                                X                 Y                 Z
Electronic contribution:      0.871658588       1.578505998      -2.514166061
Nuclear contribution   :     -1.742559495      -2.535976410       3.953352805
                        -----------------------------------------
Total Dipole Moment    :     -0.870900907      -0.957470412       1.439186744
                        -----------------------------------------
Magnitude (a.u.)       :      1.935581686
Magnitude (Debye)      :      4.919857658

Rotational constants in cm-1:             0.063256             0.032850             0.025520
Rotational constants in MHz :          1896.380106           984.803468           765.084771

                             ****ORCA TERMINATED NORMALLY****
TOTAL RUN TIME: 0 days 0 hours 0 minutes 42 seconds 394 msec
