                         Program Version 6.0.0  -   RELEASE  -
|  1> ! r2scan-3c def2/J RI DEFGRID2 scfconv6 printgap
|  2> %output
|  3>     printlevel normal
|  4> end
|  5> * xyz 0 1
|  6> C 2.0362483594 -0.965807736 0.1957455312
|  7> C 1.2011643544 0.0872102124 0.9179927793
|  8> C 0.1677557681 0.8201155168 0.0428455008
|  9> H -0.0499199504 1.7774498643 0.5511426067
| 10> C -1.197579736 0.119082112 -0.1466986278
| 11> C -1.0923624394 -1.2588751106 -0.7943012404
| 12> C -1.9777397246 0.0431370816 1.1636927087
| 13> O 0.7769708577 1.1018987626 -1.2063404082
| 14> H 2.4570058337 -0.5411097674 -0.7113894039
| 15> H 1.4487309351 -1.8372125288 -0.0710152644
| 16> H 2.8507100297 -1.285305653 0.8417795364
| 17> H 0.6882313439 -0.3568797988 1.7702168021
| 18> H 1.8864045529 0.8461201636 1.3021021615
| 19> H -1.7642359921 0.7651590501 -0.8312740042
| 20> H -2.0694752268 -1.5759847278 -1.1521025074
| 21> H -0.4065390681 -1.2281323885 -1.6371579491
| 22> H -0.7404763693 -1.9948680189 -0.0768087311
| 23> H -2.9821497409 -0.3261455098 0.9725732151
| 24> H -2.0524374001 1.0243786691 1.6268841317
| 25> H -1.4970287884 -0.6337448102 1.8651107644
| 26> H 0.1759969101 1.6403527874 -1.7372616131
| 27> *
| 28>
| 29>                          ****END OF INPUT****

CARTESIAN COORDINATES (ANGSTROEM)
---------------------------------
  C      2.036248   -0.965808    0.195746
  C      1.201164    0.087210    0.917993
  C      0.167756    0.820116    0.042846
  H     -0.049920    1.777450    0.551143
  C     -1.197580    0.119082   -0.146699
  C     -1.092362   -1.258875   -0.794301
  C     -1.977740    0.043137    1.163693
  O      0.776971    1.101899   -1.206340
  H      2.457006   -0.541110   -0.711389
  H      1.448731   -1.837213   -0.071015
  H      2.850710   -1.285306    0.841780
  H      0.688231   -0.356880    1.770217
  H      1.886405    0.846120    1.302102
  H     -1.764236    0.765159   -0.831274
  H     -2.069475   -1.575985   -1.152103
  H     -0.406539   -1.228132   -1.637158
  H     -0.740476   -1.994868   -0.076809
  H     -2.982150   -0.326146    0.972573
  H     -2.052437    1.024379    1.626884
  H     -1.497029   -0.633745    1.865111
  H      0.175997    1.640353   -1.737262

 Total Charge           Charge          ....    0
 Multiplicity           Mult            ....    1
 Number of Electrons    NEL             ....   58
 Basis Dimension        Dim             ....  208

ORBITAL ENERGIES
----------------

  NO   OCC          E(Eh)            E(eV)
   0   2.0000     -18.945601      -515.5360
   1   2.0000     -10.077229      -274.2153
   2   2.0000     -10.034929      -273.0643
   3   2.0000     -10.022892      -272.7368
   4   2.0000     -10.019459      -272.6434
   5   2.0000     -10.012767      -272.4612
   6   2.0000     -10.006077      -272.2792
   7   2.0000      -0.983954       -26.7747
   8   2.0000      -0.771965       -21.0062
   9   2.0000      -0.724618       -19.7179
  10   2.0000      -0.652762       -17.7626
  11   2.0000      -0.636944       -17.3321
  12   2.0000      -0.566888       -15.4258
  13   2.0000      -0.523362       -14.2414
  14   2.0000      -0.468544       -12.7497
  15   2.0000      -0.449452       -12.2302
  16   2.0000      -0.411800       -11.2057
  17   2.0000      -0.392003       -10.6669
  18   2.0000      -0.384323       -10.4580
  19   2.0000      -0.370778       -10.0894
  20   2.0000      -0.356436        -9.6991
  21   2.0000      -0.344468        -9.3734
  22   2.0000      -0.332671        -9.0524
  23   2.0000      -0.316627        -8.6159
  24   2.0000      -0.310843        -8.4585
  25   2.0000      -0.296073        -8.0566
  26   2.0000      -0.295092        -8.0298
  27   2.0000      -0.271681        -7.3928
  28   2.0000      -0.229958        -6.2575
  29   0.0000       0.058031         1.5791
  30   0.0000       0.092716         2.5229
  31   0.0000       0.109468         2.9788
  32   0.0000       0.122268         3.3271
  33   0.0000       0.127917         3.4808

MULLIKEN ATOMIC CHARGES
-----------------------
   0 C :   -0.490770
   1 C :   -0.289492
   2 C :    0.054732
   3 H :    0.130403
   4 C :   -0.015483
   5 C :   -0.539376
   6 C :   -0.516652
   7 O :   -0.431072
   8 H :    0.178188
   9 H :    0.144393
  10 H :    0.141399
  11 H :    0.138948
  12 H :    0.149191
  13 H :    0.130014
  14 H :    0.147641
  15 H :    0.177260
  16 H :    0.152441
  17 H :    0.149775
  18 H :    0.148161
  19 H :    0.153506
  20 H :    0.286793
Sum of atomic charges:    0.0000000

LOEWDIN ATOMIC CHARGES
----------------------
   0 C :   -0.413533
   1 C :   -0.276485
   2 C :    0.059309
   3 H :    0.165429
   4 C :   -0.226455
   5 C :   -0.412882
   6 C :   -0.414714
   7 O :   -0.626340
   8 H :    0.169692
   9 H :    0.150500
  10 H :    0.147995
  11 H :    0.159286
  12 H :    0.160928
  13 H :    0.155908
  14 H :    0.152458
  15 H :    0.165174
  16 H :    0.152831
  17 H :    0.155877
  18 H :    0.154312
  19 H :    0.152557
  20 H :    0.268153

  Mayer bond orders larger than 0.100000
B(  0-C ,  1-C ) :   0.8944 B(  0-C ,  8-H ) :   0.9810 B(  0-C ,  9-H ) :   0.9662
B(  0-C , 10-H ) :   0.9753 B(  1-C ,  2-C ) :   0.9269 B(  1-C , 11-H ) :   0.9809
B(  1-C , 12-H ) :   0.9624 B(  2-C ,  3-H ) :   0.9722 B(  2-C ,  4-C ) :   0.9026
B(  2-C ,  7-O ) :   0.8809 B(  4-C ,  5-C ) :   0.8623 B(  4-C ,  6-C ) :   0.9166
B(  4-C , 13-H ) :   0.9688 B(  5-C , 14-H ) :   0.9676 B(  5-C , 15-H ) :   0.9711
B(  5-C , 16-H ) :   0.9820 B(  6-C , 17-H ) :   0.9680 B(  6-C , 18-H ) :   0.9748
B(  6-C , 19-H ) :   0.9828 B(  7-O , 20-H ) :   0.8979

Dispersion correction           -0.005854119
FINAL SINGLE POINT ENERGY      -312.198427414400

DIPOLE MOMENT
-------------

Method             : SCF
Type of density    : Electron Density
Multiplicity       :   1
Irrep              :   0
Energy             :  -312.2039729353799657 Eh
Relativity type    :
Basis              : AO
                                X                 Y                 Z
Electronic contribution:      1.379633179       3.678495216      -2.424233544
Nuclear contribution   :     -1.916566859      -3.479171797       2.527146806
                        -----------------------------------------
Total Dipole Moment    :     -0.536933680       0.199323419       0.102913261
                        -----------------------------------------
Magnitude (a.u.)       :      0.581909565
Magnitude (Debye)      :      1.479096568

Rotational constants in cm-1:             0.106614             0.061839             0.058504
Rotational constants in MHz :          3196.216613          1853.877467          1753.905835

                             ****ORCA TERMINATED NORMALLY****
TOTAL RUN TIME: 0 days 0 hours 0 minutes 28 seconds 232 msec
