                         Program Version 6.0.0  -   RELEASE  -
|  1> ! r2scan-3c def2/J RI DEFGRID2 scfconv6 printgap
|  2> %output
|  3>     printlevel normal
|  4> end
|  5> %cpcm
|  6>     smd true
|  7>     smdsolvent "water"
|  8> end
|  9> * xyz 0 1
| 10> C 2.0362483594 -0.965807736 0.1957455312
| 11> C 1.2011643544 0.0872102124 0.9179927793
| 12> C 0.1677557681 0.8201155168 0.0428455008
| 13> H -0.0499199504 1.7774498643 0.5511426067
| 14> C -1.197579736 0.119082112 -0.1466986278
| 15> C -1.0923624394 -1.2588751106 -0.7943012404
| 16> C -1.9777397246 0.0431370816 1.1636927087
| 17> O 0.7769708577 1.1018987626 -1.2063404082
| 18> H 2.4570058337 -0.5411097674 -0.7113894039
| 19> H 1.4487309351 -1.8372125288 -0.0710152644
| 20> H 2.8507100297 -1.285305653 0.8417795364
| 21> H 0.6882313439 -0.3568797988 1.7702168021
| 22> H 1.8864045529 0.8461201636 1.3021021615
| 23> H -1.7642359921 0.7651590501 -0.8312740042
| 24> H -2.0694752268 -1.5759847278 -1.1521025074
| 25> H -0.4065390681 -1.2281323885 -1.6371579491
| 26> H -0.7404763693 -1.9948680189 -0.0768087311
| 27> H -2.9821497409 -0.3261455098 0.9725732151
| 28> H -2.0524374001 1.0243786691 1.6268841317
| 29> H -1.4970287884 -0.6337448102 1.8651107644
| 30> H 0.1759969101 1.6403527874 -1.7372616131
| 31> *
| 32>
| 33>                          ****END OF INPUT****

CARTESIAN COORDINATES (ANGSTROEM)
---------------------------------
  C      2.036248   -0.965808    0.195746
  C      1.201164    0.087210    0.917993
  C      0.167756    0.820116    0.042846
  H     -0.049920    1.777450    0.551143
  C     -1.197580    0.119082   -0.146699
  C     -1.092362   -1.258875   -0.794301
  C     -1.977740    0.043137    1.163693
  O      0.776971    1.101899   -1.206340
  H      2.457006   -0.541110   -0.711389
  H      1.448731   -1.837213   -0.071015
  H      2.850710   -1.285306    0.841780
  H      0.688231   -0.356880    1.770217
  H      1.886405    0.846120    1.302102
  H     -1.764236    0.765159   -0.831274
  H     -2.069475   -1.575985   -1.152103
  H     -0.406539   -1.228132   -1.637158
  H     -0.740476   -1.994868   -0.076809
  H     -2.982150   -0.326146    0.972573
  H     -2.052437    1.024379    1.626884
  H     -1.497029   -0.633745    1.865111
  H      0.175997    1.640353   -1.737262

 Total Charge           Charge          ....    0
 Multiplicity           Mult            ....    1
 Number of Electrons    NEL             ....   58
 Basis Dimension        Dim             ....  208

ORBITAL ENERGIES
----------------

  NO   OCC          E(Eh)            E(eV)
   0   2.0000     -18.946998      -515.5740
   1   2.0000     -10.071433      -274.0576
   2   2.0000     -10.024907      -272.7916
   3   2.0000     -10.017799      -272.5982
   4   2.0000     -10.008090      -272.3340
   5   2.0000     -10.005873      -272.2737
   6   2.0000     -10.005634      -272.2672
   7   2.0000      -0.984303       -26.7843
   8   2.0000      -0.764198       -20.7949
   9   2.0000      -0.720424       -19.6037
  10   2.0000      -0.645368       -17.5613
  11   2.0000      -0.632141       -17.2014
  12   2.0000      -0.561147       -15.2696
  13   2.0000      -0.518428       -14.1071
  14   2.0000      -0.462757       -12.5923
  15   2.0000      -0.442787       -12.0488
  16   2.0000      -0.405734       -11.0406
  17   2.0000      -0.390529       -10.6268
  18   2.0000      -0.379404       -10.3241
  19   2.0000      -0.363284        -9.8855
  20   2.0000      -0.349613        -9.5135
  21   2.0000      -0.340876        -9.2757
  22   2.0000      -0.327256        -8.9051
  23   2.0000      -0.313853        -8.5404
  24   2.0000      -0.304676        -8.2906
  25   2.0000      -0.292860        -7.9691
  26   2.0000      -0.289921        -7.8892
  27   2.0000      -0.266307        -7.2466
  28   2.0000      -0.230642        -6.2761
  29   0.0000       0.073004         1.9865
  30   0.0000       0.102862         2.7990
  31   0.0000       0.119123         3.2415
  32   0.0000       0.130551         3.5525
  33   0.0000       0.134130         3.6499

MULLIKEN ATOMIC CHARGES
-----------------------
   0 C :   -0.533185
   1 C :   -0.301496
   2 C :    0.058824
   3 H :    0.143043
   4 C :    0.001527
   5 C :   -0.578570
   6 C :   -0.561254
   7 O :   -0.514765
   8 H :    0.167637
   9 H :    0.161933
  10 H :    0.156221
  11 H :    0.158421
  12 H :    0.161627
  13 H :    0.153848
  14 H :    0.161150
  15 H :    0.166616
  16 H :    0.167827
  17 H :    0.161104
  18 H :    0.160132
  19 H :    0.167666
  20 H :    0.341696
Sum of atomic charges:    0.0000000

LOEWDIN ATOMIC CHARGES
----------------------
   0 C :   -0.423259
   1 C :   -0.280596
   2 C :    0.060616
   3 H :    0.172606
   4 C :   -0.221944
   5 C :   -0.420152
   6 C :   -0.421444
   7 O :   -0.659399
   8 H :    0.162398
   9 H :    0.154669
  10 H :    0.152362
  11 H :    0.166743
  12 H :    0.161958
  13 H :    0.164475
  14 H :    0.156125
  15 H :    0.159915
  16 H :    0.156668
  17 H :    0.158547
  18 H :    0.157637
  19 H :    0.156045
  20 H :    0.286029

  Mayer bond orders larger than 0.100000
B(  0-C ,  1-C ) :   0.8708 B(  0-C ,  8-H ) :   0.9843 B(  0-C ,  9-H ) :   0.9664
B(  0-C , 10-H ) :   0.9714 B(  1-C ,  2-C ) :   0.9207 B(  1-C , 11-H ) :   0.9737
B(  1-C , 12-H ) :   0.9677 B(  2-C ,  3-H ) :   0.9680 B(  2-C ,  4-C ) :   0.9077
B(  2-C ,  7-O ) :   0.8710 B(  4-C ,  5-C ) :   0.8494 B(  4-C ,  6-C ) :   0.9063
B(  4-C , 13-H ) :   0.9674 B(  5-C , 14-H ) :   0.9654 B(  5-C , 15-H ) :   0.9724
B(  5-C , 16-H ) :   0.9796 B(  6-C , 17-H ) :   0.9662 B(  6-C , 18-H ) :   0.9725
B(  6-C , 19-H ) :   0.9790 B(  7-O , 20-H ) :   0.8724

Dispersion correction           -0.005854119
FINAL SINGLE POINT ENERGY      -312.203212436098

DIPOLE MOMENT
-------------

Method             : SCF
Type of density    : Electron Density
Multiplicity       :   1
Irrep              :   0
Energy             :  -312.2087579570776370 Eh
Relativity type    :
Basis              : AO
                                X                 Y                 Z
Electronic contribution:      1.103637364       3.762113371      -2.300018267
Nuclear contribution   :     -1.916566859      -3.479171797       2.527146806
                        -----------------------------------------
Total Dipole Moment    :     -0.812929495       0.282941574       0.227128539
                        -----------------------------------------
Magnitude (a.u.)       :      0.890223383
Magnitude (Debye)      :      2.262768014

Rotational constants in cm-1:             0.106614             0.061839             0.058504
Rotational constants in MHz :          3196.216613          1853.877467          1753.905835

                             ****ORCA TERMINATED NORMALLY****
TOTAL RUN TIME: 0 days 0 hours 0 minutes 33 seconds 335 msec
