                         Program Version 6.0.0  -   RELEASE  -
|  1> ! pbe def2-sv(p) def2/J RI DEFGRID1 loosescf d4 GCP(DFT/SV(P)) printgap
|  2> %output
|  3>     printlevel normal
|  4> end
|  5> * xyz 0 1
|  6> C 3.4177960661 -2.0396255588 -0.209234532
|  7> C 3.0716062984 -0.8978366235 0.7496423394
|  8> C 3.2643584158 0.4378095523 0.0751435306
|  9> O 4.380013147 0.8789604898 -0.1761647856
| 10> N 2.1794693 1.1991215745 -0.2241360695
| 11> C 0.8101033115 0.9678063666 -0.0796830513
| 12> C -0.0073834986 2.0311353274 0.3080585356
| 13> C -1.3691678895 1.8577760838 0.4490252974
| 14> C -1.9431650412 0.619790201 0.1998817861
| 15> C -1.1398694384 -0.4353118192 -0.2141678351
| 16> C 0.2261141975 -0.2646032822 -0.3632035494
| 17> Cl -1.8423442724 -1.9798992635 -0.5686066917
| 18> Cl -3.6528138322 0.3995980185 0.3866966054
| 19> H 4.435143173 -1.9162580943 -0.573172753
| 20> H 2.7514560123 -2.0526451003 -1.0685364163
| 21> H 3.3419398567 -2.9930613788 0.3054313392
| 22> H 3.7769238154 -0.9251446053 1.5828481498
| 23> H 2.060922298 -0.9997748738 1.1385604622
| 24> H 2.4262011237 2.1381879852 -0.5210621317
| 25> H 0.4283275242 2.996609062 0.5072078279
| 26> H -1.9968421027 2.6774562867 0.7561846549
| 27> H 0.8141681267 -1.0887643493 -0.7269496696
| 28> *
| 29>
| 30>                          ****END OF INPUT****

CARTESIAN COORDINATES (ANGSTROEM)
---------------------------------
  C      3.417796   -2.039626   -0.209235
  C      3.071606   -0.897837    0.749642
  C      3.264358    0.437810    0.075144
  O      4.380013    0.878960   -0.176165
  N      2.179469    1.199122   -0.224136
  C      0.810103    0.967806   -0.079683
  C     -0.007383    2.031135    0.308059
  C     -1.369168    1.857776    0.449025
  C     -1.943165    0.619790    0.199882
  C     -1.139869   -0.435312   -0.214168
  C      0.226114   -0.264603   -0.363204
  Cl    -1.842344   -1.979899   -0.568607
  Cl    -3.652814    0.399598    0.386697
  H      4.435143   -1.916258   -0.573173
  H      2.751456   -2.052645   -1.068536
  H      3.341940   -2.993061    0.305431
  H      3.776924   -0.925145    1.582848
  H      2.060922   -0.999775    1.138560
  H      2.426201    2.138188   -0.521062
  H      0.428328    2.996609    0.507208
  H     -1.996842    2.677456    0.756185
  H      0.814168   -1.088764   -0.726950

 Total Charge           Charge          ....    0
 Multiplicity           Mult            ....    1
 Number of Electrons    NEL             ....  112
 Basis Dimension        Dim             ....  208

ORBITAL ENERGIES
----------------

  NO   OCC          E(Eh)            E(eV)
   0   2.0000    -100.654079     -2738.9367
   1   2.0000    -100.651561     -2738.8682
   2   2.0000     -18.725108      -509.5361
   3   2.0000     -14.042816      -382.1245
   4   2.0000      -9.996214      -272.0108
   5   2.0000      -9.973609      -271.3957
   6   2.0000      -9.967712      -271.2352
   7   2.0000      -9.965459      -271.1739
   8   2.0000      -9.923755      -270.0391
   9   2.0000      -9.923669      -270.0368
  10   2.0000      -9.920046      -269.9382
  11   2.0000      -9.904861      -269.5250
  12   2.0000      -9.892691      -269.1938
  13   2.0000      -9.189773      -250.0664
  14   2.0000      -9.187184      -249.9960
  15   2.0000      -7.021352      -191.0607
  16   2.0000      -7.018813      -190.9916
  17   2.0000      -7.009789      -190.7460
  18   2.0000      -7.008946      -190.7231
  19   2.0000      -7.007164      -190.6746
  20   2.0000      -7.006373      -190.6531
  21   2.0000      -0.947434       -25.7810
  22   2.0000      -0.869600       -23.6630
  23   2.0000      -0.842196       -22.9173
  24   2.0000      -0.790156       -21.5012
  25   2.0000      -0.768517       -20.9124
  26   2.0000      -0.713244       -19.4084
  27   2.0000      -0.691680       -18.8216
  28   2.0000      -0.672407       -18.2971
  29   2.0000      -0.605639       -16.4803
  30   2.0000      -0.580082       -15.7848
  31   2.0000      -0.570524       -15.5248
  32   2.0000      -0.531761       -14.4700
  33   2.0000      -0.502856       -13.6834
  34   2.0000      -0.460093       -12.5198
  35   2.0000      -0.455661       -12.3992
  36   2.0000      -0.437965       -11.9176
  37   2.0000      -0.426515       -11.6061
  38   2.0000      -0.414624       -11.2825
  39   2.0000      -0.402917       -10.9639
  40   2.0000      -0.395071       -10.7504
  41   2.0000      -0.384307       -10.4575
  42   2.0000      -0.372089       -10.1250
  43   2.0000      -0.362105        -9.8534
  44   2.0000      -0.349724        -9.5165
  45   2.0000      -0.335525        -9.1301
  46   2.0000      -0.329384        -8.9630
  47   2.0000      -0.323900        -8.8138
  48   2.0000      -0.314044        -8.5456
  49   2.0000      -0.306753        -8.3472
  50   2.0000      -0.291175        -7.9233
  51   2.0000      -0.268222        -7.2987
  52   2.0000      -0.261594        -7.1183
  53   2.0000      -0.241046        -6.5592
  54   2.0000      -0.211824        -5.7640
  55   2.0000      -0.207963        -5.6590
  56   0.0000      -0.065760        -1.7894
  57   0.0000      -0.064705        -1.7607
  58   0.0000      -0.026358        -0.7172
  59   0.0000      -0.013056        -0.3553
  60   0.0000       0.027315         0.7433

MULLIKEN ATOMIC CHARGES
-----------------------
   0 C :   -0.302092
   1 C :   -0.205969
   2 C :    0.052415
   3 O :   -0.215659
   4 N :   -0.187387
   5 C :    0.216267
   6 C :   -0.111670
   7 C :   -0.109723
   8 C :    0.089101
   9 C :    0.071801
  10 C :   -0.174443
  11 Cl:   -0.048719
  12 Cl:   -0.054768
  13 H :    0.125212
  14 H :    0.124799
  15 H :    0.117440
  16 H :    0.114812
  17 H :    0.119486
  18 H :    0.235080
  19 H :    0.046354
  20 H :    0.059478
  21 H :    0.038185
Sum of atomic charges:   -0.0000000

LOEWDIN ATOMIC CHARGES
----------------------
   0 C :   -0.330564
   1 C :   -0.258737
   2 C :    0.032403
   3 O :   -0.194171
   4 N :   -0.107712
   5 C :   -0.001780
   6 C :   -0.136414
   7 C :   -0.123865
   8 C :   -0.163299
   9 C :   -0.146166
  10 C :   -0.153183
  11 Cl:    0.147004
  12 Cl:    0.141722
  13 H :    0.131118
  14 H :    0.117132
  15 H :    0.125603
  16 H :    0.144111
  17 H :    0.126171
  18 H :    0.243279
  19 H :    0.131626
  20 H :    0.137684
  21 H :    0.138038

  Mayer bond orders larger than 0.100000
B(  0-C ,  1-C ) :   1.1416 B(  0-C , 13-H ) :   0.9441 B(  0-C , 14-H ) :   0.9423
B(  0-C , 15-H ) :   0.9513 B(  1-C ,  2-C ) :   1.0252 B(  1-C , 16-H ) :   0.8954
B(  1-C , 17-H ) :   0.8973 B(  2-C ,  3-O ) :   2.0765 B(  2-C ,  4-N ) :   1.1601
B(  4-N ,  5-C ) :   1.0282 B(  4-N , 18-H ) :   0.8370 B(  5-C ,  6-C ) :   1.3262
B(  5-C , 10-C ) :   1.3062 B(  6-C ,  7-C ) :   1.3485 B(  6-C , 19-H ) :   0.9670
B(  7-C ,  8-C ) :   1.3681 B(  7-C , 20-H ) :   0.9628 B(  8-C ,  9-C ) :   1.4134
B(  8-C , 12-Cl) :   1.0354 B(  9-C , 10-C ) :   1.3629 B(  9-C , 11-Cl) :   1.0447
B( 10-C , 21-H ) :   0.9532

Dispersion correction           -0.028767926
FINAL SINGLE POINT ENERGY     -1397.088910226566

DIPOLE MOMENT
-------------

Method             : SCF
Type of density    : Electron Density
Multiplicity       :   1
Irrep              :   0
Energy             : -1397.1481472282725917 Eh
Relativity type    :
Basis              : AO
                                X                 Y                 Z
Electronic contribution:    -24.793852006       0.162078632      -1.348133397
Nuclear contribution   :     24.375453530       0.111053741       1.554244508
                        -----------------------------------------
Total Dipole Moment    :     -0.418398476       0.273132373       0.206111111
                        -----------------------------------------
Magnitude (a.u.)       :      0.540500109
Magnitude (Debye)      :      1.373842097

Rotational constants in cm-1:             0.039375             0.010965             0.008831
Rotational constants in MHz :          1180.424197           328.719967           264.744887

                             ****ORCA TERMINATED NORMALLY****
TOTAL RUN TIME: 0 days 0 hours 0 minutes 17 seconds 383 msec
