                         Program Version 6.0.0  -   RELEASE  -
|  1> ! r2scan-3c def2/J RI DEFGRID2 scfconv6 printgap
|  2> %output
|  3>     printlevel normal
|  4> end
|  5> * xyz 0 1
|  6> C 2.2543012024 -1.03414466 0.2717066852
|  7> C 1.6241607859 0.0864476371 -0.5497885164
|  8> C 0.4405466589 0.7631528127 0.1544219145
|  9> C -0.9382416007 0.2588405604 -0.2968762996
| 10> H -1.0207731868 0.3689325559 -1.3849126897
| 11> C -1.2005129441 -1.1961453274 0.0856969386
| 12> O -1.9599913874 1.1062905623 0.2090273652
| 13> H 3.0837586281 -1.4776125103 -0.2743143664
| 14> H 1.5341757549 -1.8160669413 0.4931272484
| 15> H 2.6363904927 -0.6429739329 1.2119916227
| 16> H 2.392788379 0.8355837593 -0.7486899262
| 17> H 1.2968198754 -0.3045021778 -1.5150918763
| 18> H 0.5329620717 0.6289136504 1.23467194
| 19> H 0.4598651653 1.8366693814 -0.0470128438
| 20> H -2.2326734761 -1.4501454728 -0.1453084474
| 21> H -0.5486517452 -1.8570016708 -0.4760397828
| 22> H -1.0313865567 -1.3469191026 1.1499035825
| 23> H -1.9721570585 1.0327847713 1.1738078313
| 24> *
| 25>
| 26>                          ****END OF INPUT****

CARTESIAN COORDINATES (ANGSTROEM)
---------------------------------
  C      2.254301   -1.034145    0.271707
  C      1.624161    0.086448   -0.549789
  C      0.440547    0.763153    0.154422
  C     -0.938242    0.258841   -0.296876
  H     -1.020773    0.368933   -1.384913
  C     -1.200513   -1.196145    0.085697
  O     -1.959991    1.106291    0.209027
  H      3.083759   -1.477613   -0.274314
  H      1.534176   -1.816067    0.493127
  H      2.636390   -0.642974    1.211992
  H      2.392788    0.835584   -0.748690
  H      1.296820   -0.304502   -1.515092
  H      0.532962    0.628914    1.234672
  H      0.459865    1.836669   -0.047013
  H     -2.232673   -1.450145   -0.145308
  H     -0.548652   -1.857002   -0.476040
  H     -1.031387   -1.346919    1.149904
  H     -1.972157    1.032785    1.173808

 Total Charge           Charge          ....    0
 Multiplicity           Mult            ....    1
 Number of Electrons    NEL             ....   50
 Basis Dimension        Dim             ....  179

ORBITAL ENERGIES
----------------

  NO   OCC          E(Eh)            E(eV)
   0   2.0000     -18.942083      -515.4403
   1   2.0000     -10.079617      -274.2803
   2   2.0000     -10.029164      -272.9074
   3   2.0000     -10.023260      -272.7468
   4   2.0000     -10.019728      -272.6506
   5   2.0000     -10.018615      -272.6204
   6   2.0000      -0.980556       -26.6823
   7   2.0000      -0.765368       -20.8267
   8   2.0000      -0.709059       -19.2945
   9   2.0000      -0.654063       -17.7979
  10   2.0000      -0.580114       -15.7857
  11   2.0000      -0.549158       -14.9434
  12   2.0000      -0.458288       -12.4707
  13   2.0000      -0.431746       -11.7484
  14   2.0000      -0.414375       -11.2757
  15   2.0000      -0.411570       -11.1994
  16   2.0000      -0.377426       -10.2703
  17   2.0000      -0.366828        -9.9819
  18   2.0000      -0.342700        -9.3253
  19   2.0000      -0.340861        -9.2753
  20   2.0000      -0.322227        -8.7682
  21   2.0000      -0.306732        -8.3466
  22   2.0000      -0.292003        -7.9458
  23   2.0000      -0.280877        -7.6430
  24   2.0000      -0.231304        -6.2941
  25   0.0000       0.068430         1.8621
  26   0.0000       0.085710         2.3323
  27   0.0000       0.107519         2.9257
  28   0.0000       0.113705         3.0941
  29   0.0000       0.125263         3.4086

MULLIKEN ATOMIC CHARGES
-----------------------
   0 C :   -0.485752
   1 C :   -0.253276
   2 C :   -0.214063
   3 C :   -0.054918
   4 H :    0.146954
   5 C :   -0.502217
   6 O :   -0.405459
   7 H :    0.144812
   8 H :    0.147622
   9 H :    0.147849
  10 H :    0.141540
  11 H :    0.142043
  12 H :    0.129262
  13 H :    0.162336
  14 H :    0.164327
  15 H :    0.152679
  16 H :    0.147609
  17 H :    0.288651
Sum of atomic charges:   -0.0000000

LOEWDIN ATOMIC CHARGES
----------------------
   0 C :   -0.425911
   1 C :   -0.314698
   2 C :   -0.289396
   3 C :    0.042290
   4 H :    0.178801
   5 C :   -0.402665
   6 O :   -0.610315
   7 H :    0.150202
   8 H :    0.149680
   9 H :    0.149261
  10 H :    0.154454
  11 H :    0.153786
  12 H :    0.156118
  13 H :    0.167650
  14 H :    0.163113
  15 H :    0.158257
  16 H :    0.153003
  17 H :    0.266368

  Mayer bond orders larger than 0.100000
B(  0-C ,  1-C ) :   0.9078 B(  0-C ,  7-H ) :   0.9729 B(  0-C ,  8-H ) :   0.9729
B(  0-C ,  9-H ) :   0.9868 B(  1-C ,  2-C ) :   0.8312 B(  1-C , 10-H ) :   0.9603
B(  1-C , 11-H ) :   0.9798 B(  2-C ,  3-C ) :   0.9128 B(  2-C , 12-H ) :   0.9699
B(  2-C , 13-H ) :   0.9681 B(  3-C ,  4-H ) :   0.9823 B(  3-C ,  5-C ) :   0.9119
B(  3-C ,  6-O ) :   0.9447 B(  5-C , 14-H ) :   0.9682 B(  5-C , 15-H ) :   0.9670
B(  5-C , 16-H ) :   0.9737 B(  6-O , 17-H ) :   0.8967

Dispersion correction           -0.004356217
FINAL SINGLE POINT ENERGY      -272.899425857690

DIPOLE MOMENT
-------------

Method             : SCF
Type of density    : Electron Density
Multiplicity       :   1
Irrep              :   0
Energy             :  -272.9046876614236226 Eh
Relativity type    :
Basis              : AO
                                X                 Y                 Z
Electronic contribution:     -4.355016574       3.565561506      -0.347587769
Nuclear contribution   :      4.784741445      -3.916680886       0.633672130
                        -----------------------------------------
Total Dipole Moment    :      0.429724871      -0.351119380       0.286084361
                        -----------------------------------------
Magnitude (a.u.)       :      0.624333681
Magnitude (Debye)      :      1.586930102

Rotational constants in cm-1:             0.207969             0.066557             0.056199
Rotational constants in MHz :          6234.758468          1995.343127          1684.818410

                             ****ORCA TERMINATED NORMALLY****
TOTAL RUN TIME: 0 days 0 hours 0 minutes 22 seconds 550 msec
