                         Program Version 6.0.0  -   RELEASE  -
|  1> ! r2scan-3c def2/J RI DEFGRID2 scfconv6 printgap
|  2> %output
|  3>     printlevel normal
|  4> end
|  5> %cpcm
|  6>     smd true
|  7>     smdsolvent "water"
|  8> end
|  9> * xyz 0 1
| 10> C 2.2543012024 -1.03414466 0.2717066852
| 11> C 1.6241607859 0.0864476371 -0.5497885164
| 12> C 0.4405466589 0.7631528127 0.1544219145
| 13> C -0.9382416007 0.2588405604 -0.2968762996
| 14> H -1.0207731868 0.3689325559 -1.3849126897
| 15> C -1.2005129441 -1.1961453274 0.0856969386
| 16> O -1.9599913874 1.1062905623 0.2090273652
| 17> H 3.0837586281 -1.4776125103 -0.2743143664
| 18> H 1.5341757549 -1.8160669413 0.4931272484
| 19> H 2.6363904927 -0.6429739329 1.2119916227
| 20> H 2.392788379 0.8355837593 -0.7486899262
| 21> H 1.2968198754 -0.3045021778 -1.5150918763
| 22> H 0.5329620717 0.6289136504 1.23467194
| 23> H 0.4598651653 1.8366693814 -0.0470128438
| 24> H -2.2326734761 -1.4501454728 -0.1453084474
| 25> H -0.5486517452 -1.8570016708 -0.4760397828
| 26> H -1.0313865567 -1.3469191026 1.1499035825
| 27> H -1.9721570585 1.0327847713 1.1738078313
| 28> *
| 29>
| 30>                          ****END OF INPUT****

CARTESIAN COORDINATES (ANGSTROEM)
---------------------------------
  C      2.254301   -1.034145    0.271707
  C      1.624161    0.086448   -0.549789
  C      0.440547    0.763153    0.154422
  C     -0.938242    0.258841   -0.296876
  H     -1.020773    0.368933   -1.384913
  C     -1.200513   -1.196145    0.085697
  O     -1.959991    1.106291    0.209027
  H      3.083759   -1.477613   -0.274314
  H      1.534176   -1.816067    0.493127
  H      2.636390   -0.642974    1.211992
  H      2.392788    0.835584   -0.748690
  H      1.296820   -0.304502   -1.515092
  H      0.532962    0.628914    1.234672
  H      0.459865    1.836669   -0.047013
  H     -2.232673   -1.450145   -0.145308
  H     -0.548652   -1.857002   -0.476040
  H     -1.031387   -1.346919    1.149904
  H     -1.972157    1.032785    1.173808

 Total Charge           Charge          ....    0
 Multiplicity           Mult            ....    1
 Number of Electrons    NEL             ....   50
 Basis Dimension        Dim             ....  179

ORBITAL ENERGIES
----------------

  NO   OCC          E(Eh)            E(eV)
   0   2.0000     -18.946806      -515.5688
   1   2.0000     -10.074122      -274.1308
   2   2.0000     -10.018181      -272.6086
   3   2.0000     -10.014121      -272.4981
   4   2.0000     -10.008921      -272.3566
   5   2.0000     -10.007128      -272.3078
   6   2.0000      -0.983920       -26.7738
   7   2.0000      -0.755947       -20.5704
   8   2.0000      -0.700218       -19.0539
   9   2.0000      -0.644515       -17.5382
  10   2.0000      -0.573366       -15.6021
  11   2.0000      -0.540532       -14.7086
  12   2.0000      -0.452142       -12.3034
  13   2.0000      -0.426260       -11.5991
  14   2.0000      -0.406227       -11.0540
  15   2.0000      -0.403353       -10.9758
  16   2.0000      -0.369339       -10.0502
  17   2.0000      -0.355591        -9.6761
  18   2.0000      -0.338356        -9.2071
  19   2.0000      -0.333985        -9.0882
  20   2.0000      -0.312363        -8.4998
  21   2.0000      -0.296373        -8.0647
  22   2.0000      -0.283569        -7.7163
  23   2.0000      -0.278182        -7.5697
  24   2.0000      -0.235553        -6.4097
  25   0.0000       0.083522         2.2728
  26   0.0000       0.097077         2.6416
  27   0.0000       0.118286         3.2187
  28   0.0000       0.124447         3.3864
  29   0.0000       0.135705         3.6927

MULLIKEN ATOMIC CHARGES
-----------------------
   0 C :   -0.520040
   1 C :   -0.265766
   2 C :   -0.239662
   3 C :   -0.020034
   4 H :    0.156369
   5 C :   -0.540802
   6 O :   -0.501028
   7 H :    0.153018
   8 H :    0.157791
   9 H :    0.158083
  10 H :    0.149748
  11 H :    0.153802
  12 H :    0.153271
  13 H :    0.156767
  14 H :    0.161578
  15 H :    0.170768
  16 H :    0.169864
  17 H :    0.346273
Sum of atomic charges:   -0.0000000

LOEWDIN ATOMIC CHARGES
----------------------
   0 C :   -0.432996
   1 C :   -0.315477
   2 C :   -0.289937
   3 C :    0.042685
   4 H :    0.181716
   5 C :   -0.405671
   6 O :   -0.650836
   7 H :    0.151747
   8 H :    0.152570
   9 H :    0.151692
  10 H :    0.156452
  11 H :    0.157530
  12 H :    0.163555
  13 H :    0.165227
  14 H :    0.161437
  15 H :    0.164852
  16 H :    0.160612
  17 H :    0.284842

  Mayer bond orders larger than 0.100000
B(  0-C ,  1-C ) :   0.9017 B(  0-C ,  7-H ) :   0.9716 B(  0-C ,  8-H ) :   0.9713
B(  0-C ,  9-H ) :   0.9835 B(  1-C ,  2-C ) :   0.8320 B(  1-C , 10-H ) :   0.9606
B(  1-C , 11-H ) :   0.9792 B(  2-C ,  3-C ) :   0.9118 B(  2-C , 12-H ) :   0.9722
B(  2-C , 13-H ) :   0.9654 B(  3-C ,  4-H ) :   0.9809 B(  3-C ,  5-C ) :   0.9042
B(  3-C ,  6-O ) :   0.9281 B(  5-C , 14-H ) :   0.9657 B(  5-C , 15-H ) :   0.9625
B(  5-C , 16-H ) :   0.9717 B(  6-O , 17-H ) :   0.8690

Dispersion correction           -0.004356217
FINAL SINGLE POINT ENERGY      -272.905976230211

DIPOLE MOMENT
-------------

Method             : SCF
Type of density    : Electron Density
Multiplicity       :   1
Irrep              :   0
Energy             :  -272.9112380339447554 Eh
Relativity type    :
Basis              : AO
                                X                 Y                 Z
Electronic contribution:     -4.191885777       3.401433500      -0.198088141
Nuclear contribution   :      4.784741445      -3.916680886       0.633672130
                        -----------------------------------------
Total Dipole Moment    :      0.592855668      -0.515247386       0.435583990
                        -----------------------------------------
Magnitude (a.u.)       :      0.898159854
Magnitude (Debye)      :      2.282940920

Rotational constants in cm-1:             0.207969             0.066557             0.056199
Rotational constants in MHz :          6234.758468          1995.343127          1684.818410

                             ****ORCA TERMINATED NORMALLY****
TOTAL RUN TIME: 0 days 0 hours 0 minutes 27 seconds 112 msec
