                         Program Version 6.0.0  -   RELEASE  -
|  1> ! pbe def2-sv(p) def2/J RI DEFGRID1 loosescf d4 GCP(DFT/SV(P)) printgap
|  2> %output
|  3>     printlevel normal
|  4> end
|  5> * xyz 0 1
|  6> C -1.3898281853 -1.2552578703 0.6907595242
|  7> C -1.0799170284 -0.3314389848 -0.4854435621
|  8> C -2.3722008721 0.370096063 -0.9164694818
|  9> C 0.0380051835 0.7095075082 -0.248072546
| 10> C -0.2848716011 1.6819313345 0.8878128847
| 11> C 1.4790248388 0.1578270536 -0.1004564623
| 12> C 1.837180179 -0.4147082001 1.271006382
| 13> C 1.8234099505 -0.8589229034 -1.1890748148
| 14> H -0.5667712537 -1.9329409087 0.8939310061
| 15> H -1.6087838378 -0.6891086062 1.5915186305
| 16> H -2.2637259769 -1.8591481993 0.4531680778
| 17> H -0.7622892661 -0.9558031695 -1.3266118128
| 18> H -2.8283608617 0.893563862 -0.080351297
| 19> H -3.0880219045 -0.3620040779 -1.2841562782
| 20> H -2.180185431 1.0863727922 -1.7123443231
| 21> H 0.0645887324 1.3032505685 -1.172687613
| 22> H -1.1764487842 2.2576733456 0.6561835257
| 23> H 0.5389563043 2.3801959281 1.0207210153
| 24> H -0.4467163993 1.1614848666 1.8267465842
| 25> H 2.1322570258 1.0278450575 -0.2524595402
| 26> H 1.6625592021 0.3108651709 2.059335584
| 27> H 1.2715290717 -1.3129272188 1.4943153889
| 28> H 2.8943426714 -0.6740855995 1.2828070862
| 29> H 1.3130519481 -1.8032139227 -1.0172825234
| 30> H 2.8940505839 -1.0520458247 -1.1898216276
| 31> H 1.544562475 -0.4834737985 -2.1712327068
| 32> *
| 33>
| 34>                          ****END OF INPUT****

CARTESIAN COORDINATES (ANGSTROEM)
---------------------------------
  C     -1.389828   -1.255258    0.690760
  C     -1.079917   -0.331439   -0.485444
  C     -2.372201    0.370096   -0.916469
  C      0.038005    0.709508   -0.248073
  C     -0.284872    1.681931    0.887813
  C      1.479025    0.157827   -0.100456
  C      1.837180   -0.414708    1.271006
  C      1.823410   -0.858923   -1.189075
  H     -0.566771   -1.932941    0.893931
  H     -1.608784   -0.689109    1.591519
  H     -2.263726   -1.859148    0.453168
  H     -0.762289   -0.955803   -1.326612
  H     -2.828361    0.893564   -0.080351
  H     -3.088022   -0.362004   -1.284156
  H     -2.180185    1.086373   -1.712344
  H      0.064589    1.303251   -1.172688
  H     -1.176449    2.257673    0.656184
  H      0.538956    2.380196    1.020721
  H     -0.446716    1.161485    1.826747
  H      2.132257    1.027845   -0.252460
  H      1.662559    0.310865    2.059336
  H      1.271529   -1.312927    1.494315
  H      2.894343   -0.674086    1.282807
  H      1.313052   -1.803214   -1.017283
  H      2.894051   -1.052046   -1.189822
  H      1.544562   -0.483474   -2.171233

 Total Charge           Charge          ....    0
 Multiplicity           Mult            ....    1
 Number of Electrons    NEL             ....   66
 Basis Dimension        Dim             ....  148

ORBITAL ENERGIES
----------------

  NO   OCC          E(Eh)            E(eV)
   0   2.0000      -9.888896      -269.0905
   1   2.0000      -9.888121      -269.0695
   2   2.0000      -9.886970      -269.0381
   3   2.0000      -9.868294      -268.5299
   4   2.0000      -9.867912      -268.5195
   5   2.0000      -9.867713      -268.5141
   6   2.0000      -9.867226      -268.5009
   7   2.0000      -9.866220      -268.4735
   8   2.0000      -0.744638       -20.2626
   9   2.0000      -0.695733       -18.9319
  10   2.0000      -0.646982       -17.6053
  11   2.0000      -0.609821       -16.5941
  12   2.0000      -0.602780       -16.4025
  13   2.0000      -0.562538       -15.3074
  14   2.0000      -0.514616       -14.0034
  15   2.0000      -0.459399       -12.5009
  16   2.0000      -0.420482       -11.4419
  17   2.0000      -0.417284       -11.3549
  18   2.0000      -0.397054       -10.8044
  19   2.0000      -0.376136       -10.2352
  20   2.0000      -0.367426        -9.9982
  21   2.0000      -0.351403        -9.5622
  22   2.0000      -0.344400        -9.3716
  23   2.0000      -0.337610        -9.1868
  24   2.0000      -0.333980        -9.0881
  25   2.0000      -0.321932        -8.7602
  26   2.0000      -0.314202        -8.5499
  27   2.0000      -0.302525        -8.2321
  28   2.0000      -0.290935        -7.9168
  29   2.0000      -0.287839        -7.8325
  30   2.0000      -0.264274        -7.1913
  31   2.0000      -0.260348        -7.0844
  32   2.0000      -0.252963        -6.8835
  33   0.0000       0.027366         0.7447
  34   0.0000       0.057370         1.5611
  35   0.0000       0.060735         1.6527
  36   0.0000       0.063495         1.7278
  37   0.0000       0.086857         2.3635

MULLIKEN ATOMIC CHARGES
-----------------------
   0 C :   -0.253853
   1 C :   -0.156335
   2 C :   -0.251229
   3 C :   -0.104245
   4 C :   -0.263520
   5 C :   -0.143590
   6 C :   -0.253067
   7 C :   -0.248803
   8 H :    0.111639
   9 H :    0.096787
  10 H :    0.091824
  11 H :    0.069112
  12 H :    0.100905
  13 H :    0.095978
  14 H :    0.094341
  15 H :    0.057351
  16 H :    0.100864
  17 H :    0.095952
  18 H :    0.110467
  19 H :    0.063659
  20 H :    0.099634
  21 H :    0.096915
  22 H :    0.093150
  23 H :    0.103490
  24 H :    0.095524
  25 H :    0.097050
Sum of atomic charges:    0.0000000

LOEWDIN ATOMIC CHARGES
----------------------
   0 C :   -0.331692
   1 C :   -0.150358
   2 C :   -0.328762
   3 C :   -0.136301
   4 C :   -0.333134
   5 C :   -0.148977
   6 C :   -0.333367
   7 C :   -0.330983
   8 H :    0.114900
   9 H :    0.116717
  10 H :    0.118005
  11 H :    0.115156
  12 H :    0.115400
  13 H :    0.116728
  14 H :    0.115024
  15 H :    0.113374
  16 H :    0.118424
  17 H :    0.118450
  18 H :    0.117094
  19 H :    0.114192
  20 H :    0.117243
  21 H :    0.115290
  22 H :    0.117771
  23 H :    0.116277
  24 H :    0.117631
  25 H :    0.115897

  Mayer bond orders larger than 0.100000
B(  0-C ,  1-C ) :   1.1172 B(  0-C ,  8-H ) :   0.9361 B(  0-C ,  9-H ) :   0.9426
B(  0-C , 10-H ) :   0.9446 B(  1-C ,  2-C ) :   1.1112 B(  1-C ,  3-C ) :   1.0516
B(  1-C , 11-H ) :   0.8859 B(  2-C , 12-H ) :   0.9459 B(  2-C , 13-H ) :   0.9475
B(  2-C , 14-H ) :   0.9477 B(  3-C ,  4-C ) :   1.1127 B(  3-C ,  5-C ) :   1.0539
B(  3-C , 15-H ) :   0.8810 B(  4-C , 16-H ) :   0.9419 B(  4-C , 17-H ) :   0.9436
B(  4-C , 18-H ) :   0.9345 B(  5-C ,  6-C ) :   1.1179 B(  5-C ,  7-C ) :   1.1213
B(  5-C , 19-H ) :   0.8918 B(  6-C , 20-H ) :   0.9410 B(  6-C , 21-H ) :   0.9408
B(  6-C , 22-H ) :   0.9462 B(  7-C , 23-H ) :   0.9394 B(  7-C , 24-H ) :   0.9462
B(  7-C , 25-H ) :   0.9459

Dispersion correction           -0.023921560
FINAL SINGLE POINT ENERGY      -314.868885081606

DIPOLE MOMENT
-------------

Method             : SCF
Type of density    : Electron Density
Multiplicity       :   1
Irrep              :   0
Energy             :  -314.9555192439619873 Eh
Relativity type    :
Basis              : AO
                                X                 Y                 Z
Electronic contribution:      0.592403735       0.667998334      -1.045673261
Nuclear contribution   :     -0.567968401      -0.659996460       1.005502103
                        -----------------------------------------
Total Dipole Moment    :      0.024435334       0.008001874      -0.040171158
                        -----------------------------------------
Magnitude (a.u.)       :      0.047695257
Magnitude (Debye)      :      0.121231708

Rotational constants in cm-1:             0.085189             0.046186             0.042780
Rotational constants in MHz :          2553.906251          1384.617261          1282.517482

                             ****ORCA TERMINATED NORMALLY****
TOTAL RUN TIME: 0 days 0 hours 0 minutes 11 seconds 899 msec
