                         Program Version 6.0.0  -   RELEASE  -
|  1> ! pbe def2-sv(p) def2/J RI DEFGRID1 loosescf d4 GCP(DFT/SV(P)) printgap
|  2> %output
|  3>     printlevel normal
|  4> end
|  5> * xyz 0 1
|  6> C -1.0726934244 -0.4475455494 -0.3195289565
|  7> C 0.1320887307 0.3123214592 0.2572468503
|  8> C 1.4638679728 -0.1407404888 -0.3675102506
|  9> O 1.8930421297 -1.4040445001 0.0762709307
| 10> O -0.0583717728 1.7027854271 0.0942559591
| 11> O -2.2745299578 -0.0631127193 0.3059450805
| 12> H -0.9727861351 -1.5199622004 -0.1461505813
| 13> H -1.138230238 -0.2623473936 -1.402949277
| 14> H 0.1720615742 0.1507748785 1.339839881
| 15> H 2.2425515643 0.5602205732 -0.0555767048
| 16> H 1.3854182685 -0.1174635353 -1.4630810119
| 17> H 1.3130876311 -2.0937237192 -0.2732487587
| 18> H 0.0106894241 1.9287327342 -0.8451453272
| 19> H -2.2660073105 0.9019827539 0.4045556571
| 20> *
| 21>
| 22>                          ****END OF INPUT****

CARTESIAN COORDINATES (ANGSTROEM)
---------------------------------
  C     -1.072693   -0.447546   -0.319529
  C      0.132089    0.312321    0.257247
  C      1.463868   -0.140740   -0.367510
  O      1.893042   -1.404045    0.076271
  O     -0.058372    1.702785    0.094256
  O     -2.274530   -0.063113    0.305945
  H     -0.972786   -1.519962   -0.146151
  H     -1.138230   -0.262347   -1.402949
  H      0.172062    0.150775    1.339840
  H      2.242552    0.560221   -0.055577
  H      1.385418   -0.117464   -1.463081
  H      1.313088   -2.093724   -0.273249
  H      0.010689    1.928733   -0.845145
  H     -2.266007    0.901983    0.404556

 Total Charge           Charge          ....    0
 Multiplicity           Mult            ....    1
 Number of Electrons    NEL             ....   50
 Basis Dimension        Dim             ....  100

ORBITAL ENERGIES
----------------

  NO   OCC          E(Eh)            E(eV)
   0   2.0000     -18.767454      -510.6884
   1   2.0000     -18.757326      -510.4128
   2   2.0000     -18.742386      -510.0062
   3   2.0000      -9.942814      -270.5577
   4   2.0000      -9.939587      -270.4699
   5   2.0000      -9.937386      -270.4100
   6   2.0000      -0.949477       -25.8366
   7   2.0000      -0.930810       -25.3286
   8   2.0000      -0.914066       -24.8730
   9   2.0000      -0.683047       -18.5866
  10   2.0000      -0.613057       -16.6821
  11   2.0000      -0.562758       -15.3134
  12   2.0000      -0.489474       -13.3193
  13   2.0000      -0.459167       -12.4946
  14   2.0000      -0.451734       -12.2923
  15   2.0000      -0.409936       -11.1549
  16   2.0000      -0.395516       -10.7625
  17   2.0000      -0.379156       -10.3174
  18   2.0000      -0.357777        -9.7356
  19   2.0000      -0.309443        -8.4204
  20   2.0000      -0.289452        -7.8764
  21   2.0000      -0.280109        -7.6222
  22   2.0000      -0.253390        -6.8951
  23   2.0000      -0.226691        -6.1686
  24   2.0000      -0.207948        -5.6585
  25   0.0000       0.008946         0.2434
  26   0.0000       0.013249         0.3605
  27   0.0000       0.056895         1.5482
  28   0.0000       0.073633         2.0036
  29   0.0000       0.078708         2.1418

MULLIKEN ATOMIC CHARGES
-----------------------
   0 C :    0.042776
   1 C :   -0.032341
   2 C :    0.013727
   3 O :   -0.428010
   4 O :   -0.428022
   5 O :   -0.435513
   6 H :    0.071473
   7 H :    0.052782
   8 H :    0.088997
   9 H :    0.100449
  10 H :    0.059836
  11 H :    0.300852
  12 H :    0.297547
  13 H :    0.295447
Sum of atomic charges:   -0.0000000

LOEWDIN ATOMIC CHARGES
----------------------
   0 C :   -0.139518
   1 C :   -0.105751
   2 C :   -0.138802
   3 O :   -0.330545
   4 O :   -0.315787
   5 O :   -0.341060
   6 H :    0.107305
   7 H :    0.088659
   8 H :    0.121781
   9 H :    0.118789
  10 H :    0.090873
  11 H :    0.282937
  12 H :    0.284002
  13 H :    0.277117

  Mayer bond orders larger than 0.100000
B(  0-C ,  1-C ) :   1.0463 B(  0-C ,  5-O ) :   1.0831 B(  0-C ,  6-H ) :   0.9137
B(  0-C ,  7-H ) :   0.8996 B(  1-C ,  2-C ) :   1.0232 B(  1-C ,  4-O ) :   1.0002
B(  1-C ,  8-H ) :   0.8867 B(  2-C ,  3-O ) :   1.0776 B(  2-C ,  9-H ) :   0.9213
B(  2-C , 10-H ) :   0.9129 B(  3-O , 11-H ) :   0.8486 B(  4-O , 12-H ) :   0.8492
B(  5-O , 13-H ) :   0.8357

Dispersion correction           -0.009053303
FINAL SINGLE POINT ENERGY      -344.007359409480

DIPOLE MOMENT
-------------

Method             : SCF
Type of density    : Electron Density
Multiplicity       :   1
Irrep              :   0
Energy             :  -344.0809595836371386 Eh
Relativity type    :
Basis              : AO
                                X                 Y                 Z
Electronic contribution:     -0.602549293       0.563821322       1.365128593
Nuclear contribution   :      0.694081095      -0.420354118      -2.283714341
                        -----------------------------------------
Total Dipole Moment    :      0.091531803       0.143467204      -0.918585748
                        -----------------------------------------
Magnitude (a.u.)       :      0.934216616
Magnitude (Debye)      :      2.374589926

Rotational constants in cm-1:             0.184630             0.075883             0.058023
Rotational constants in MHz :          5535.065601          2274.927446          1739.488841

                             ****ORCA TERMINATED NORMALLY****
TOTAL RUN TIME: 0 days 0 hours 0 minutes 6 seconds 585 msec
