                         Program Version 6.0.0  -   RELEASE  -
|  1> ! r2scan-3c def2/J RI DEFGRID2 scfconv6 printgap
|  2> %output
|  3>     printlevel normal
|  4> end
|  5> * xyz 0 1
|  6> C 1.9164616755 0.7174899363 -0.7365531097
|  7> C 1.3953933848 0.0060282908 0.5102531383
|  8> C 1.4228517318 -1.5096927337 0.325395625
|  9> C -0.0104160793 0.4912703424 0.8860604829
| 10> C -1.1082819437 0.1658719813 -0.0910182006
| 11> O -0.9866243635 -0.2232721377 -1.2317933932
| 12> O -2.3030467054 0.3752286809 0.4524151777
| 13> H 1.9375858597 1.7942312917 -0.5844975218
| 14> H 1.2777868725 0.498472332 -1.5881732605
| 15> H 2.9245898492 0.3824157284 -0.9665081318
| 16> H 2.0514421692 0.2612962686 1.3502868913
| 17> H 2.4379399424 -1.8470870041 0.1334493577
| 18> H 1.0546260161 -2.0129770999 1.2164695528
| 19> H 0.8011899175 -1.7966797212 -0.5191888462
| 20> H -0.0092546098 1.5793481816 0.992084554
| 21> H -0.3126625133 0.0772051011 1.8498989667
| 22> H -3.0344787718 0.189275498 -0.167289094
| 23> *
| 24>
| 25>                          ****END OF INPUT****

CARTESIAN COORDINATES (ANGSTROEM)
---------------------------------
  C      1.916462    0.717490   -0.736553
  C      1.395393    0.006028    0.510253
  C      1.422852   -1.509693    0.325396
  C     -0.010416    0.491270    0.886060
  C     -1.108282    0.165872   -0.091018
  O     -0.986624   -0.223272   -1.231793
  O     -2.303047    0.375229    0.452415
  H      1.937586    1.794231   -0.584498
  H      1.277787    0.498472   -1.588173
  H      2.924590    0.382416   -0.966508
  H      2.051442    0.261296    1.350287
  H      2.437940   -1.847087    0.133449
  H      1.054626   -2.012977    1.216470
  H      0.801190   -1.796680   -0.519189
  H     -0.009255    1.579348    0.992085
  H     -0.312663    0.077205    1.849899
  H     -3.034479    0.189275   -0.167289

 Total Charge           Charge          ....    0
 Multiplicity           Mult            ....    1
 Number of Electrons    NEL             ....   56
 Basis Dimension        Dim             ....  193

ORBITAL ENERGIES
----------------

  NO   OCC          E(Eh)            E(eV)
   0   2.0000     -19.003378      -517.1082
   1   2.0000     -18.936469      -515.2875
   2   2.0000     -10.164604      -276.5929
   3   2.0000     -10.047802      -273.4146
   4   2.0000     -10.042346      -273.2661
   5   2.0000     -10.012567      -272.4558
   6   2.0000     -10.009913      -272.3836
   7   2.0000      -1.078656       -29.3517
   8   2.0000      -0.981092       -26.6969
   9   2.0000      -0.784060       -21.3354
  10   2.0000      -0.700407       -19.0590
  11   2.0000      -0.648179       -17.6378
  12   2.0000      -0.598930       -16.2977
  13   2.0000      -0.529149       -14.3989
  14   2.0000      -0.466411       -12.6917
  15   2.0000      -0.450128       -12.2486
  16   2.0000      -0.442150       -12.0315
  17   2.0000      -0.415510       -11.3066
  18   2.0000      -0.396854       -10.7990
  19   2.0000      -0.390577       -10.6282
  20   2.0000      -0.354040        -9.6339
  21   2.0000      -0.347671        -9.4606
  22   2.0000      -0.336913        -9.1679
  23   2.0000      -0.306158        -8.3310
  24   2.0000      -0.302925        -8.2430
  25   2.0000      -0.300892        -8.1877
  26   2.0000      -0.293202        -7.9784
  27   2.0000      -0.239103        -6.5063
  28   0.0000      -0.022368        -0.6087
  29   0.0000       0.058275         1.5858
  30   0.0000       0.075486         2.0541
  31   0.0000       0.126750         3.4490
  32   0.0000       0.135900         3.6980

MULLIKEN ATOMIC CHARGES
-----------------------
   0 C :   -0.539741
   1 C :    0.068507
   2 C :   -0.538370
   3 C :   -0.342195
   4 C :    0.344973
   5 O :   -0.413078
   6 O :   -0.344585
   7 H :    0.139059
   8 H :    0.194421
   9 H :    0.141810
  10 H :    0.146688
  11 H :    0.144520
  12 H :    0.142982
  13 H :    0.186606
  14 H :    0.171034
  15 H :    0.171041
  16 H :    0.326328
Sum of atomic charges:    0.0000000

LOEWDIN ATOMIC CHARGES
----------------------
   0 C :   -0.411733
   1 C :   -0.231819
   2 C :   -0.410390
   3 C :   -0.234786
   4 C :    0.346151
   5 O :   -0.438798
   6 O :   -0.407689
   7 H :    0.151225
   8 H :    0.175739
   9 H :    0.152767
  10 H :    0.157111
  11 H :    0.153915
  12 H :    0.152263
  13 H :    0.171768
  14 H :    0.188956
  15 H :    0.186920
  16 H :    0.298400

  Mayer bond orders larger than 0.100000
B(  0-C ,  1-C ) :   0.8955 B(  0-C ,  7-H ) :   0.9723 B(  0-C ,  8-H ) :   0.9743
B(  0-C ,  9-H ) :   0.9710 B(  1-C ,  2-C ) :   0.8943 B(  1-C ,  3-C ) :   0.9142
B(  1-C , 10-H ) :   0.9633 B(  2-C , 11-H ) :   0.9700 B(  2-C , 12-H ) :   0.9742
B(  2-C , 13-H ) :   0.9736 B(  3-C ,  4-C ) :   0.9769 B(  3-C , 14-H ) :   0.9312
B(  3-C , 15-H ) :   0.9510 B(  4-C ,  5-O ) :   1.9280 B(  4-C ,  6-O ) :   1.0448
B(  6-O , 16-H ) :   0.8605

Dispersion correction           -0.004452063
FINAL SINGLE POINT ENERGY      -346.948401142433

DIPOLE MOMENT
-------------

Method             : SCF
Type of density    : Electron Density
Multiplicity       :   1
Irrep              :   0
Energy             :  -346.9534075172865073 Eh
Relativity type    :
Basis              : AO
                                X                 Y                 Z
Electronic contribution:     -8.686656917       1.036077434      -0.994906451
Nuclear contribution   :      8.515534482      -0.818173746       1.598839278
                        -----------------------------------------
Total Dipole Moment    :     -0.171122435       0.217903689       0.603932827
                        -----------------------------------------
Magnitude (a.u.)       :      0.664454487
Magnitude (Debye)      :      1.688909086

Rotational constants in cm-1:             0.148443             0.056442             0.055048
Rotational constants in MHz :          4450.199627          1692.103272          1650.298807

                             ****ORCA TERMINATED NORMALLY****
TOTAL RUN TIME: 0 days 0 hours 0 minutes 24 seconds 886 msec
