                         Program Version 6.0.0  -   RELEASE  -
|  1> ! r2scan-3c def2/J RI DEFGRID2 scfconv6 printgap
|  2> %output
|  3>     printlevel normal
|  4> end
|  5> %cpcm
|  6>     smd true
|  7>     smdsolvent "water"
|  8> end
|  9> * xyz 0 1
| 10> C 1.9164616755 0.7174899363 -0.7365531097
| 11> C 1.3953933848 0.0060282908 0.5102531383
| 12> C 1.4228517318 -1.5096927337 0.325395625
| 13> C -0.0104160793 0.4912703424 0.8860604829
| 14> C -1.1082819437 0.1658719813 -0.0910182006
| 15> O -0.9866243635 -0.2232721377 -1.2317933932
| 16> O -2.3030467054 0.3752286809 0.4524151777
| 17> H 1.9375858597 1.7942312917 -0.5844975218
| 18> H 1.2777868725 0.498472332 -1.5881732605
| 19> H 2.9245898492 0.3824157284 -0.9665081318
| 20> H 2.0514421692 0.2612962686 1.3502868913
| 21> H 2.4379399424 -1.8470870041 0.1334493577
| 22> H 1.0546260161 -2.0129770999 1.2164695528
| 23> H 0.8011899175 -1.7966797212 -0.5191888462
| 24> H -0.0092546098 1.5793481816 0.992084554
| 25> H -0.3126625133 0.0772051011 1.8498989667
| 26> H -3.0344787718 0.189275498 -0.167289094
| 27> *
| 28>
| 29>                          ****END OF INPUT****

CARTESIAN COORDINATES (ANGSTROEM)
---------------------------------
  C      1.916462    0.717490   -0.736553
  C      1.395393    0.006028    0.510253
  C      1.422852   -1.509693    0.325396
  C     -0.010416    0.491270    0.886060
  C     -1.108282    0.165872   -0.091018
  O     -0.986624   -0.223272   -1.231793
  O     -2.303047    0.375229    0.452415
  H      1.937586    1.794231   -0.584498
  H      1.277787    0.498472   -1.588173
  H      2.924590    0.382416   -0.966508
  H      2.051442    0.261296    1.350287
  H      2.437940   -1.847087    0.133449
  H      1.054626   -2.012977    1.216470
  H      0.801190   -1.796680   -0.519189
  H     -0.009255    1.579348    0.992085
  H     -0.312663    0.077205    1.849899
  H     -3.034479    0.189275   -0.167289

 Total Charge           Charge          ....    0
 Multiplicity           Mult            ....    1
 Number of Electrons    NEL             ....   56
 Basis Dimension        Dim             ....  193

ORBITAL ENERGIES
----------------

  NO   OCC          E(Eh)            E(eV)
   0   2.0000     -18.997947      -516.9604
   1   2.0000     -18.943622      -515.4822
   2   2.0000     -10.167446      -276.6703
   3   2.0000     -10.036590      -273.1095
   4   2.0000     -10.034154      -273.0432
   5   2.0000     -10.006993      -272.3041
   6   2.0000     -10.005775      -272.2710
   7   2.0000      -1.076767       -29.3003
   8   2.0000      -0.985018       -26.8037
   9   2.0000      -0.776471       -21.1289
  10   2.0000      -0.693150       -18.8616
  11   2.0000      -0.643439       -17.5089
  12   2.0000      -0.590319       -16.0634
  13   2.0000      -0.522628       -14.2214
  14   2.0000      -0.468266       -12.7422
  15   2.0000      -0.448201       -12.1962
  16   2.0000      -0.440780       -11.9942
  17   2.0000      -0.411265       -11.1911
  18   2.0000      -0.390827       -10.6349
  19   2.0000      -0.386024       -10.5042
  20   2.0000      -0.354273        -9.6403
  21   2.0000      -0.345016        -9.3884
  22   2.0000      -0.328987        -8.9522
  23   2.0000      -0.301425        -8.2022
  24   2.0000      -0.297540        -8.0965
  25   2.0000      -0.296503        -8.0683
  26   2.0000      -0.293420        -7.9844
  27   2.0000      -0.245107        -6.6697
  28   0.0000      -0.023120        -0.6291
  29   0.0000       0.075097         2.0435
  30   0.0000       0.093562         2.5460
  31   0.0000       0.136430         3.7125
  32   0.0000       0.140056         3.8111

MULLIKEN ATOMIC CHARGES
-----------------------
   0 C :   -0.575991
   1 C :    0.071350
   2 C :   -0.568952
   3 C :   -0.343118
   4 C :    0.362111
   5 O :   -0.486149
   6 O :   -0.371583
   7 H :    0.159041
   8 H :    0.175202
   9 H :    0.156669
  10 H :    0.162951
  11 H :    0.158828
  12 H :    0.161310
  13 H :    0.170866
  14 H :    0.200553
  15 H :    0.192152
  16 H :    0.374759
Sum of atomic charges:    0.0000000

LOEWDIN ATOMIC CHARGES
----------------------
   0 C :   -0.419268
   1 C :   -0.228647
   2 C :   -0.417173
   3 C :   -0.232322
   4 C :    0.356564
   5 O :   -0.494714
   6 O :   -0.402915
   7 H :    0.157328
   8 H :    0.166730
   9 H :    0.156001
  10 H :    0.164090
  11 H :    0.156932
  12 H :    0.158306
  13 H :    0.164577
  14 H :    0.200373
  15 H :    0.196088
  16 H :    0.318051

  Mayer bond orders larger than 0.100000
B(  0-C ,  1-C ) :   0.8904 B(  0-C ,  7-H ) :   0.9695 B(  0-C ,  8-H ) :   0.9781
B(  0-C ,  9-H ) :   0.9702 B(  1-C ,  2-C ) :   0.8933 B(  1-C ,  3-C ) :   0.9075
B(  1-C , 10-H ) :   0.9585 B(  2-C , 11-H ) :   0.9695 B(  2-C , 12-H ) :   0.9704
B(  2-C , 13-H ) :   0.9756 B(  3-C ,  4-C ) :   0.9794 B(  3-C , 14-H ) :   0.9218
B(  3-C , 15-H ) :   0.9424 B(  4-C ,  5-O ) :   1.8712 B(  4-C ,  6-O ) :   1.0710
B(  6-O , 16-H ) :   0.8371

Dispersion correction           -0.004452063
FINAL SINGLE POINT ENERGY      -346.956289261607

DIPOLE MOMENT
-------------

Method             : SCF
Type of density    : Electron Density
Multiplicity       :   1
Irrep              :   0
Energy             :  -346.9612956364609886 Eh
Relativity type    :
Basis              : AO
                                X                 Y                 Z
Electronic contribution:     -8.739612578       1.171335378      -0.640148788
Nuclear contribution   :      8.515534482      -0.818173746       1.598839278
                        -----------------------------------------
Total Dipole Moment    :     -0.224078096       0.353161633       0.958690490
                        -----------------------------------------
Magnitude (a.u.)       :      1.045954869
Magnitude (Debye)      :      2.658605995

Rotational constants in cm-1:             0.148443             0.056442             0.055048
Rotational constants in MHz :          4450.199627          1692.103272          1650.298807

                             ****ORCA TERMINATED NORMALLY****
TOTAL RUN TIME: 0 days 0 hours 0 minutes 29 seconds 658 msec
