                         Program Version 6.0.0  -   RELEASE  -
|  1> ! r2scan-3c def2/J RI DEFGRID2 scfconv6 printgap
|  2> %output
|  3>     printlevel normal
|  4> end
|  5> * xyz 0 1
|  6> C 1.6043451243 0.3647047263 1.3435443837
|  7> C 1.1937384027 0.4399011575 -0.123263211
|  8> H 0.9189139686 1.4784896767 -0.3652740301
|  9> C 0.0279788636 -0.4993276923 -0.4615705566
| 10> C -1.2728122097 -0.2488494067 0.3091123887
| 11> C -1.8443802498 1.1392331922 0.0275821965
| 12> C -2.2968237793 -1.318919115 -0.0704696279
| 13> O 2.34268811 0.0896027547 -0.8861275056
| 14> H 1.7862144097 -0.6692681016 1.6242011595
| 15> H 2.524411904 0.9261176508 1.4833259211
| 16> H 0.8326470775 0.7849306069 1.9796610863
| 17> H -0.1836816536 -0.4164218251 -1.5317551699
| 18> H 0.3645519565 -1.5213086897 -0.2689153718
| 19> H -1.0717947927 -0.335669112 1.3809937682
| 20> H -2.8011035343 1.2583596416 0.5305824627
| 21> H -2.0001851821 1.2757958939 -1.0403962075
| 22> H -1.176572331 1.9191823885 0.3830894078
| 23> H -2.5308008009 -1.2611335356 -1.1313300894
| 24> H -1.9114315244 -2.3130515868 0.142835126
| 25> H -3.2172381192 -1.1802730196 0.4913731127
| 26> H 2.1185237506 0.1007339602 -1.8260176861
| 27> *
| 28>
| 29>                          ****END OF INPUT****

CARTESIAN COORDINATES (ANGSTROEM)
---------------------------------
  C      1.604345    0.364705    1.343544
  C      1.193738    0.439901   -0.123263
  H      0.918914    1.478490   -0.365274
  C      0.027979   -0.499328   -0.461571
  C     -1.272812   -0.248849    0.309112
  C     -1.844380    1.139233    0.027582
  C     -2.296824   -1.318919   -0.070470
  O      2.342688    0.089603   -0.886128
  H      1.786214   -0.669268    1.624201
  H      2.524412    0.926118    1.483326
  H      0.832647    0.784931    1.979661
  H     -0.183682   -0.416422   -1.531755
  H      0.364552   -1.521309   -0.268915
  H     -1.071795   -0.335669    1.380994
  H     -2.801104    1.258360    0.530582
  H     -2.000185    1.275796   -1.040396
  H     -1.176572    1.919182    0.383089
  H     -2.530801   -1.261134   -1.131330
  H     -1.911432   -2.313052    0.142835
  H     -3.217238   -1.180273    0.491373
  H      2.118524    0.100734   -1.826018

 Total Charge           Charge          ....    0
 Multiplicity           Mult            ....    1
 Number of Electrons    NEL             ....   58
 Basis Dimension        Dim             ....  208

ORBITAL ENERGIES
----------------

  NO   OCC          E(Eh)            E(eV)
   0   2.0000     -18.942191      -515.4432
   1   2.0000     -10.079167      -274.2681
   2   2.0000     -10.037249      -273.1274
   3   2.0000     -10.024081      -272.7691
   4   2.0000     -10.018562      -272.6189
   5   2.0000     -10.017303      -272.5847
   6   2.0000     -10.015270      -272.5293
   7   2.0000      -0.979660       -26.6579
   8   2.0000      -0.781886       -21.2762
   9   2.0000      -0.719054       -19.5665
  10   2.0000      -0.654175       -17.8010
  11   2.0000      -0.649434       -17.6720
  12   2.0000      -0.564349       -15.3567
  13   2.0000      -0.523979       -14.2582
  14   2.0000      -0.479592       -13.0504
  15   2.0000      -0.448646       -12.2083
  16   2.0000      -0.413832       -11.2609
  17   2.0000      -0.400697       -10.9035
  18   2.0000      -0.384170       -10.4538
  19   2.0000      -0.365271        -9.9395
  20   2.0000      -0.356250        -9.6941
  21   2.0000      -0.351791        -9.5727
  22   2.0000      -0.334094        -9.0912
  23   2.0000      -0.327571        -8.9137
  24   2.0000      -0.316103        -8.6016
  25   2.0000      -0.297450        -8.0940
  26   2.0000      -0.293969        -7.9993
  27   2.0000      -0.281753        -7.6669
  28   2.0000      -0.229077        -6.2335
  29   0.0000       0.066249         1.8027
  30   0.0000       0.081089         2.2065
  31   0.0000       0.110668         3.0114
  32   0.0000       0.119070         3.2401
  33   0.0000       0.123141         3.3508

MULLIKEN ATOMIC CHARGES
-----------------------
   0 C :   -0.511635
   1 C :    0.032186
   2 H :    0.137092
   3 C :   -0.287289
   4 C :   -0.050679
   5 C :   -0.499284
   6 C :   -0.482298
   7 O :   -0.419297
   8 H :    0.157716
   9 H :    0.160021
  10 H :    0.149436
  11 H :    0.130476
  12 H :    0.158336
  13 H :    0.154171
  14 H :    0.145391
  15 H :    0.152370
  16 H :    0.150377
  17 H :    0.146303
  18 H :    0.146439
  19 H :    0.147037
  20 H :    0.283131
Sum of atomic charges:   -0.0000000

LOEWDIN ATOMIC CHARGES
----------------------
   0 C :   -0.384197
   1 C :    0.048401
   2 H :    0.160484
   3 C :   -0.283519
   4 C :   -0.245702
   5 C :   -0.417540
   6 C :   -0.414998
   7 O :   -0.616546
   8 H :    0.160774
   9 H :    0.165730
  10 H :    0.155865
  11 H :    0.158132
  12 H :    0.168527
  13 H :    0.157421
  14 H :    0.153907
  15 H :    0.154320
  16 H :    0.152302
  17 H :    0.153702
  18 H :    0.153707
  19 H :    0.152384
  20 H :    0.266845

  Mayer bond orders larger than 0.100000
B(  0-C ,  1-C ) :   0.9040 B(  0-C ,  8-H ) :   0.9817 B(  0-C ,  9-H ) :   0.9656
B(  0-C , 10-H ) :   0.9705 B(  1-C ,  2-H ) :   0.9795 B(  1-C ,  3-C ) :   0.8927
B(  1-C ,  7-O ) :   0.9031 B(  3-C ,  4-C ) :   0.8961 B(  3-C , 11-H ) :   0.9784
B(  3-C , 12-H ) :   0.9780 B(  4-C ,  5-C ) :   0.8926 B(  4-C ,  6-C ) :   0.9036
B(  4-C , 13-H ) :   0.9539 B(  5-C , 14-H ) :   0.9715 B(  5-C , 15-H ) :   0.9871
B(  5-C , 16-H ) :   0.9701 B(  6-C , 17-H ) :   0.9878 B(  6-C , 18-H ) :   0.9775
B(  6-C , 19-H ) :   0.9747 B(  7-O , 20-H ) :   0.9005

Dispersion correction           -0.005592152
FINAL SINGLE POINT ENERGY      -312.203550806098

DIPOLE MOMENT
-------------

Method             : SCF
Type of density    : Electron Density
Multiplicity       :   1
Irrep              :   0
Energy             :  -312.2090545146940030 Eh
Relativity type    :
Basis              : AO
                                X                 Y                 Z
Electronic contribution:      5.344767635       0.056601439      -1.883840756
Nuclear contribution   :     -5.920267907       0.044939320       1.724678466
                        -----------------------------------------
Total Dipole Moment    :     -0.575500272       0.101540759      -0.159162290
                        -----------------------------------------
Magnitude (a.u.)       :      0.605676253
Magnitude (Debye)      :      1.539506689

Rotational constants in cm-1:             0.142352             0.046220             0.043615
Rotational constants in MHz :          4267.598350          1385.644569          1307.539665

                             ****ORCA TERMINATED NORMALLY****
TOTAL RUN TIME: 0 days 0 hours 0 minutes 31 seconds 41 msec
