                         Program Version 6.0.0  -   RELEASE  -
|  1> ! r2scan-3c def2/J RI DEFGRID2 scfconv6 printgap
|  2> %output
|  3>     printlevel normal
|  4> end
|  5> %cpcm
|  6>     smd true
|  7>     smdsolvent "water"
|  8> end
|  9> * xyz 0 1
| 10> C 1.6043451243 0.3647047263 1.3435443837
| 11> C 1.1937384027 0.4399011575 -0.123263211
| 12> H 0.9189139686 1.4784896767 -0.3652740301
| 13> C 0.0279788636 -0.4993276923 -0.4615705566
| 14> C -1.2728122097 -0.2488494067 0.3091123887
| 15> C -1.8443802498 1.1392331922 0.0275821965
| 16> C -2.2968237793 -1.318919115 -0.0704696279
| 17> O 2.34268811 0.0896027547 -0.8861275056
| 18> H 1.7862144097 -0.6692681016 1.6242011595
| 19> H 2.524411904 0.9261176508 1.4833259211
| 20> H 0.8326470775 0.7849306069 1.9796610863
| 21> H -0.1836816536 -0.4164218251 -1.5317551699
| 22> H 0.3645519565 -1.5213086897 -0.2689153718
| 23> H -1.0717947927 -0.335669112 1.3809937682
| 24> H -2.8011035343 1.2583596416 0.5305824627
| 25> H -2.0001851821 1.2757958939 -1.0403962075
| 26> H -1.176572331 1.9191823885 0.3830894078
| 27> H -2.5308008009 -1.2611335356 -1.1313300894
| 28> H -1.9114315244 -2.3130515868 0.142835126
| 29> H -3.2172381192 -1.1802730196 0.4913731127
| 30> H 2.1185237506 0.1007339602 -1.8260176861
| 31> *
| 32>
| 33>                          ****END OF INPUT****

CARTESIAN COORDINATES (ANGSTROEM)
---------------------------------
  C      1.604345    0.364705    1.343544
  C      1.193738    0.439901   -0.123263
  H      0.918914    1.478490   -0.365274
  C      0.027979   -0.499328   -0.461571
  C     -1.272812   -0.248849    0.309112
  C     -1.844380    1.139233    0.027582
  C     -2.296824   -1.318919   -0.070470
  O      2.342688    0.089603   -0.886128
  H      1.786214   -0.669268    1.624201
  H      2.524412    0.926118    1.483326
  H      0.832647    0.784931    1.979661
  H     -0.183682   -0.416422   -1.531755
  H      0.364552   -1.521309   -0.268915
  H     -1.071795   -0.335669    1.380994
  H     -2.801104    1.258360    0.530582
  H     -2.000185    1.275796   -1.040396
  H     -1.176572    1.919182    0.383089
  H     -2.530801   -1.261134   -1.131330
  H     -1.911432   -2.313052    0.142835
  H     -3.217238   -1.180273    0.491373
  H      2.118524    0.100734   -1.826018

 Total Charge           Charge          ....    0
 Multiplicity           Mult            ....    1
 Number of Electrons    NEL             ....   58
 Basis Dimension        Dim             ....  208

ORBITAL ENERGIES
----------------

  NO   OCC          E(Eh)            E(eV)
   0   2.0000     -18.947215      -515.5799
   1   2.0000     -10.074321      -274.1362
   2   2.0000     -10.026329      -272.8303
   3   2.0000     -10.013908      -272.4923
   4   2.0000     -10.009904      -272.3833
   5   2.0000     -10.006316      -272.2857
   6   2.0000     -10.006259      -272.2841
   7   2.0000      -0.983387       -26.7593
   8   2.0000      -0.771695       -20.9989
   9   2.0000      -0.713285       -19.4095
  10   2.0000      -0.643981       -17.5236
  11   2.0000      -0.640621       -17.4322
  12   2.0000      -0.558834       -15.2067
  13   2.0000      -0.514790       -14.0081
  14   2.0000      -0.476458       -12.9651
  15   2.0000      -0.440098       -11.9757
  16   2.0000      -0.404835       -11.0161
  17   2.0000      -0.393320       -10.7028
  18   2.0000      -0.375189       -10.2094
  19   2.0000      -0.361249        -9.8301
  20   2.0000      -0.348970        -9.4960
  21   2.0000      -0.343483        -9.3467
  22   2.0000      -0.328377        -8.9356
  23   2.0000      -0.322356        -8.7718
  24   2.0000      -0.307267        -8.3612
  25   2.0000      -0.289097        -7.8667
  26   2.0000      -0.283258        -7.7078
  27   2.0000      -0.278591        -7.5808
  28   2.0000      -0.233007        -6.3404
  29   0.0000       0.081622         2.2210
  30   0.0000       0.092469         2.5162
  31   0.0000       0.122933         3.3452
  32   0.0000       0.128972         3.5095
  33   0.0000       0.131747         3.5850

MULLIKEN ATOMIC CHARGES
-----------------------
   0 C :   -0.551419
   1 C :    0.048492
   2 H :    0.148368
   3 C :   -0.308627
   4 C :   -0.026681
   5 C :   -0.543632
   6 C :   -0.530696
   7 O :   -0.511748
   8 H :    0.168485
   9 H :    0.162617
  10 H :    0.172171
  11 H :    0.156831
  12 H :    0.157551
  13 H :    0.161369
  14 H :    0.155972
  15 H :    0.164944
  16 H :    0.161804
  17 H :    0.159255
  18 H :    0.156782
  19 H :    0.158427
  20 H :    0.339735
Sum of atomic charges:   -0.0000000

LOEWDIN ATOMIC CHARGES
----------------------
   0 C :   -0.393969
   1 C :    0.049613
   2 H :    0.167914
   3 C :   -0.283916
   4 C :   -0.241530
   5 C :   -0.425047
   6 C :   -0.423936
   7 O :   -0.655318
   8 H :    0.162086
   9 H :    0.163788
  10 H :    0.165031
  11 H :    0.166695
  12 H :    0.167840
  13 H :    0.159854
  14 H :    0.155850
  15 H :    0.157353
  16 H :    0.155544
  17 H :    0.156456
  18 H :    0.155513
  19 H :    0.154906
  20 H :    0.285273

  Mayer bond orders larger than 0.100000
B(  0-C ,  1-C ) :   0.9017 B(  0-C ,  8-H ) :   0.9774 B(  0-C ,  9-H ) :   0.9654
B(  0-C , 10-H ) :   0.9644 B(  1-C ,  2-H ) :   0.9718 B(  1-C ,  3-C ) :   0.9106
B(  1-C ,  7-O ) :   0.8838 B(  3-C ,  4-C ) :   0.8994 B(  3-C , 11-H ) :   0.9737
B(  3-C , 12-H ) :   0.9733 B(  4-C ,  5-C ) :   0.8862 B(  4-C ,  6-C ) :   0.8894
B(  4-C , 13-H ) :   0.9545 B(  5-C , 14-H ) :   0.9707 B(  5-C , 15-H ) :   0.9845
B(  5-C , 16-H ) :   0.9673 B(  6-C , 17-H ) :   0.9864 B(  6-C , 18-H ) :   0.9758
B(  6-C , 19-H ) :   0.9726 B(  7-O , 20-H ) :   0.8746

Dispersion correction           -0.005592152
FINAL SINGLE POINT ENERGY      -312.209653178756

DIPOLE MOMENT
-------------

Method             : SCF
Type of density    : Electron Density
Multiplicity       :   1
Irrep              :   0
Energy             :  -312.2151568873518386 Eh
Relativity type    :
Basis              : AO
                                X                 Y                 Z
Electronic contribution:      5.091985018       0.139012402      -1.977859693
Nuclear contribution   :     -5.920267907       0.044939320       1.724678466
                        -----------------------------------------
Total Dipole Moment    :     -0.828282890       0.183951722      -0.253181228
                        -----------------------------------------
Magnitude (a.u.)       :      0.885432954
Magnitude (Debye)      :      2.250591711

Rotational constants in cm-1:             0.142352             0.046220             0.043615
Rotational constants in MHz :          4267.598350          1385.644569          1307.539665

                             ****ORCA TERMINATED NORMALLY****
TOTAL RUN TIME: 0 days 0 hours 0 minutes 36 seconds 277 msec
