                         Program Version 6.0.0  -   RELEASE  -
|  1> ! r2scan-3c def2/J RI DEFGRID2 scfconv6 printgap
|  2> %output
|  3>     printlevel normal
|  4> end
|  5> * xyz 0 1
|  6> C -2.1061004056 -1.0793645331 -0.488093834
|  7> C -1.4651891595 0.0108604972 0.3639302899
|  8> C -0.0650958413 0.4232281481 -0.113159507
|  9> C 0.3160751148 1.7635682937 0.5148047142
| 10> C 0.971688552 -0.6556170834 0.2222829838
| 11> C 2.3113501306 -0.4494387846 -0.4766630335
| 12> H -3.1109208192 -1.2918198445 -0.1307262185
| 13> H -2.1716069417 -0.759837978 -1.5258879738
| 14> H -1.5329402227 -2.0020664227 -0.4496542393
| 15> H -1.4040585812 -0.3246013981 1.4018055131
| 16> H -2.1133917252 0.8899424649 0.3405320593
| 17> H -0.09672943 0.5470932248 -1.2019068487
| 18> H -0.414972379 2.5262269996 0.2557297114
| 19> H 1.2886881199 2.097016983 0.164324606
| 20> H 0.3502939508 1.6755883596 1.5988560789
| 21> H 1.125135227 -0.6767223339 1.3038852178
| 22> H 0.5793172899 -1.6298000647 -0.0739336233
| 23> H 2.7944969031 0.4652246098 -0.1438082754
| 24> H 2.1724954286 -0.3931890865 -1.5542177623
| 25> H 2.9783536084 -1.2807934394 -0.2602968654
| 26> *
| 27>
| 28>                          ****END OF INPUT****

CARTESIAN COORDINATES (ANGSTROEM)
---------------------------------
  C     -2.106100   -1.079365   -0.488094
  C     -1.465189    0.010860    0.363930
  C     -0.065096    0.423228   -0.113160
  C      0.316075    1.763568    0.514805
  C      0.971689   -0.655617    0.222283
  C      2.311350   -0.449439   -0.476663
  H     -3.110921   -1.291820   -0.130726
  H     -2.171607   -0.759838   -1.525888
  H     -1.532940   -2.002066   -0.449654
  H     -1.404059   -0.324601    1.401806
  H     -2.113392    0.889942    0.340532
  H     -0.096729    0.547093   -1.201907
  H     -0.414972    2.526227    0.255730
  H      1.288688    2.097017    0.164325
  H      0.350294    1.675588    1.598856
  H      1.125135   -0.676722    1.303885
  H      0.579317   -1.629800   -0.073934
  H      2.794497    0.465225   -0.143808
  H      2.172495   -0.393189   -1.554218
  H      2.978354   -1.280793   -0.260297

 Total Charge           Charge          ....    0
 Multiplicity           Mult            ....    1
 Number of Electrons    NEL             ....   50
 Basis Dimension        Dim             ....  184

ORBITAL ENERGIES
----------------

  NO   OCC          E(Eh)            E(eV)
   0   2.0000     -10.027305      -272.8568
   1   2.0000     -10.019968      -272.6572
   2   2.0000     -10.019792      -272.6524
   3   2.0000     -10.013500      -272.4812
   4   2.0000     -10.013381      -272.4779
   5   2.0000     -10.011564      -272.4285
   6   2.0000      -0.780675       -21.2433
   7   2.0000      -0.714541       -19.4436
   8   2.0000      -0.680467       -18.5164
   9   2.0000      -0.606059       -16.4917
  10   2.0000      -0.571825       -15.5602
  11   2.0000      -0.520090       -14.1524
  12   2.0000      -0.431242       -11.7347
  13   2.0000      -0.416842       -11.3428
  14   2.0000      -0.408813       -11.1244
  15   2.0000      -0.383259       -10.4290
  16   2.0000      -0.377093       -10.2612
  17   2.0000      -0.351003        -9.5513
  18   2.0000      -0.334724        -9.1083
  19   2.0000      -0.332105        -9.0370
  20   2.0000      -0.314385        -8.5549
  21   2.0000      -0.310383        -8.4459
  22   2.0000      -0.287525        -7.8240
  23   2.0000      -0.276855        -7.5336
  24   2.0000      -0.275268        -7.4904
  25   0.0000       0.087268         2.3747
  26   0.0000       0.103295         2.8108
  27   0.0000       0.115790         3.1508
  28   0.0000       0.126363         3.4385
  29   0.0000       0.130640         3.5549

MULLIKEN ATOMIC CHARGES
-----------------------
   0 C :   -0.496097
   1 C :   -0.218629
   2 C :   -0.044490
   3 C :   -0.499798
   4 C :   -0.240818
   5 C :   -0.503813
   6 H :    0.146845
   7 H :    0.145878
   8 H :    0.140376
   9 H :    0.135949
  10 H :    0.138197
  11 H :    0.142191
  12 H :    0.145054
  13 H :    0.147122
  14 H :    0.147855
  15 H :    0.140641
  16 H :    0.136089
  17 H :    0.144678
  18 H :    0.146463
  19 H :    0.146307
Sum of atomic charges:    0.0000000

LOEWDIN ATOMIC CHARGES
----------------------
   0 C :   -0.425171
   1 C :   -0.310287
   2 C :   -0.243903
   3 C :   -0.415954
   4 C :   -0.309767
   5 C :   -0.423337
   6 H :    0.150627
   7 H :    0.149794
   8 H :    0.147426
   9 H :    0.155782
  10 H :    0.153683
  11 H :    0.155363
  12 H :    0.152528
  13 H :    0.151852
  14 H :    0.154211
  15 H :    0.154241
  16 H :    0.153733
  17 H :    0.148494
  18 H :    0.150269
  19 H :    0.150416

  Mayer bond orders larger than 0.100000
B(  0-C ,  1-C ) :   0.9078 B(  0-C ,  6-H ) :   0.9737 B(  0-C ,  7-H ) :   0.9912
B(  0-C ,  8-H ) :   0.9795 B(  1-C ,  2-C ) :   0.8859 B(  1-C ,  9-H ) :   0.9618
B(  1-C , 10-H ) :   0.9777 B(  2-C ,  3-C ) :   0.8956 B(  2-C ,  4-C ) :   0.8834
B(  2-C , 11-H ) :   0.9841 B(  3-C , 12-H ) :   0.9767 B(  3-C , 13-H ) :   0.9792
B(  3-C , 14-H ) :   0.9850 B(  4-C ,  5-C ) :   0.8969 B(  4-C , 15-H ) :   0.9715
B(  4-C , 16-H ) :   0.9725 B(  5-C , 17-H ) :   0.9834 B(  5-C , 18-H ) :   0.9893
B(  5-C , 19-H ) :   0.9731

Dispersion correction           -0.005026162
FINAL SINGLE POINT ENERGY      -236.987018810494

DIPOLE MOMENT
-------------

Method             : SCF
Type of density    : Electron Density
Multiplicity       :   1
Irrep              :   0
Energy             :  -236.9915440165543146 Eh
Relativity type    :
Basis              : AO
                                X                 Y                 Z
Electronic contribution:     -0.436860756       0.136997348       0.253670945
Nuclear contribution   :      0.416694070      -0.147983598      -0.258274477
                        -----------------------------------------
Total Dipole Moment    :     -0.020166686      -0.010986250      -0.004603532
                        -----------------------------------------
Magnitude (a.u.)       :      0.023421901
Magnitude (Debye)      :      0.059533740

Rotational constants in cm-1:             0.154718             0.075455             0.056275
Rotational constants in MHz :          4638.326403          2262.082942          1687.094107

                             ****ORCA TERMINATED NORMALLY****
TOTAL RUN TIME: 0 days 0 hours 0 minutes 16 seconds 383 msec
