                         Program Version 6.0.0  -   RELEASE  -
|  1> ! r2scan-3c def2/J RI DEFGRID2 scfconv6 printgap
|  2> %output
|  3>     printlevel normal
|  4> end
|  5> %cpcm
|  6>     smd true
|  7>     smdsolvent "water"
|  8> end
|  9> * xyz 0 1
| 10> C -2.1061004056 -1.0793645331 -0.488093834
| 11> C -1.4651891595 0.0108604972 0.3639302899
| 12> C -0.0650958413 0.4232281481 -0.113159507
| 13> C 0.3160751148 1.7635682937 0.5148047142
| 14> C 0.971688552 -0.6556170834 0.2222829838
| 15> C 2.3113501306 -0.4494387846 -0.4766630335
| 16> H -3.1109208192 -1.2918198445 -0.1307262185
| 17> H -2.1716069417 -0.759837978 -1.5258879738
| 18> H -1.5329402227 -2.0020664227 -0.4496542393
| 19> H -1.4040585812 -0.3246013981 1.4018055131
| 20> H -2.1133917252 0.8899424649 0.3405320593
| 21> H -0.09672943 0.5470932248 -1.2019068487
| 22> H -0.414972379 2.5262269996 0.2557297114
| 23> H 1.2886881199 2.097016983 0.164324606
| 24> H 0.3502939508 1.6755883596 1.5988560789
| 25> H 1.125135227 -0.6767223339 1.3038852178
| 26> H 0.5793172899 -1.6298000647 -0.0739336233
| 27> H 2.7944969031 0.4652246098 -0.1438082754
| 28> H 2.1724954286 -0.3931890865 -1.5542177623
| 29> H 2.9783536084 -1.2807934394 -0.2602968654
| 30> *
| 31>
| 32>                          ****END OF INPUT****

CARTESIAN COORDINATES (ANGSTROEM)
---------------------------------
  C     -2.106100   -1.079365   -0.488094
  C     -1.465189    0.010860    0.363930
  C     -0.065096    0.423228   -0.113160
  C      0.316075    1.763568    0.514805
  C      0.971689   -0.655617    0.222283
  C      2.311350   -0.449439   -0.476663
  H     -3.110921   -1.291820   -0.130726
  H     -2.171607   -0.759838   -1.525888
  H     -1.532940   -2.002066   -0.449654
  H     -1.404059   -0.324601    1.401806
  H     -2.113392    0.889942    0.340532
  H     -0.096729    0.547093   -1.201907
  H     -0.414972    2.526227    0.255730
  H      1.288688    2.097017    0.164325
  H      0.350294    1.675588    1.598856
  H      1.125135   -0.676722    1.303885
  H      0.579317   -1.629800   -0.073934
  H      2.794497    0.465225   -0.143808
  H      2.172495   -0.393189   -1.554218
  H      2.978354   -1.280793   -0.260297

 Total Charge           Charge          ....    0
 Multiplicity           Mult            ....    1
 Number of Electrons    NEL             ....   50
 Basis Dimension        Dim             ....  184

ORBITAL ENERGIES
----------------

  NO   OCC          E(Eh)            E(eV)
   0   2.0000     -10.019857      -272.6542
   1   2.0000     -10.012497      -272.4539
   2   2.0000     -10.012240      -272.4469
   3   2.0000     -10.006194      -272.2824
   4   2.0000     -10.006121      -272.2804
   5   2.0000     -10.004175      -272.2275
   6   2.0000      -0.773371       -21.0445
   7   2.0000      -0.707621       -19.2554
   8   2.0000      -0.673680       -18.3318
   9   2.0000      -0.599308       -16.3080
  10   2.0000      -0.565002       -15.3745
  11   2.0000      -0.512851       -13.9554
  12   2.0000      -0.423855       -11.5337
  13   2.0000      -0.409591       -11.1455
  14   2.0000      -0.401776       -10.9329
  15   2.0000      -0.376301       -10.2397
  16   2.0000      -0.370080       -10.0704
  17   2.0000      -0.343948        -9.3593
  18   2.0000      -0.327756        -8.9187
  19   2.0000      -0.325134        -8.8473
  20   2.0000      -0.306924        -8.3518
  21   2.0000      -0.303168        -8.2496
  22   2.0000      -0.279775        -7.6131
  23   2.0000      -0.269672        -7.3382
  24   2.0000      -0.267984        -7.2922
  25   0.0000       0.095144         2.5890
  26   0.0000       0.110290         3.0012
  27   0.0000       0.122555         3.3349
  28   0.0000       0.133178         3.6240
  29   0.0000       0.138328         3.7641

MULLIKEN ATOMIC CHARGES
-----------------------
   0 C :   -0.537280
   1 C :   -0.236412
   2 C :   -0.028391
   3 C :   -0.545173
   4 C :   -0.257459
   5 C :   -0.543088
   6 H :    0.156172
   7 H :    0.156587
   8 H :    0.153571
   9 H :    0.144729
  10 H :    0.147059
  11 H :    0.150039
  12 H :    0.156336
  13 H :    0.158998
  14 H :    0.158418
  15 H :    0.149418
  16 H :    0.147283
  17 H :    0.157006
  18 H :    0.156712
  19 H :    0.155475
Sum of atomic charges:    0.0000000

LOEWDIN ATOMIC CHARGES
----------------------
   0 C :   -0.433937
   1 C :   -0.313238
   2 C :   -0.242821
   3 C :   -0.424968
   4 C :   -0.312654
   5 C :   -0.432175
   6 H :    0.152439
   7 H :    0.152215
   8 H :    0.150594
   9 H :    0.157314
  10 H :    0.155557
  11 H :    0.157512
  12 H :    0.154680
  13 H :    0.154546
  14 H :    0.156348
  15 H :    0.156163
  16 H :    0.156346
  17 H :    0.151398
  18 H :    0.152518
  19 H :    0.152165

  Mayer bond orders larger than 0.100000
B(  0-C ,  1-C ) :   0.8996 B(  0-C ,  6-H ) :   0.9715 B(  0-C ,  7-H ) :   0.9882
B(  0-C ,  8-H ) :   0.9768 B(  1-C ,  2-C ) :   0.8793 B(  1-C ,  9-H ) :   0.9637
B(  1-C , 10-H ) :   0.9780 B(  2-C ,  3-C ) :   0.8873 B(  2-C ,  4-C ) :   0.8780
B(  2-C , 11-H ) :   0.9838 B(  3-C , 12-H ) :   0.9745 B(  3-C , 13-H ) :   0.9759
B(  3-C , 14-H ) :   0.9836 B(  4-C ,  5-C ) :   0.8888 B(  4-C , 15-H ) :   0.9718
B(  4-C , 16-H ) :   0.9722 B(  5-C , 17-H ) :   0.9803 B(  5-C , 18-H ) :   0.9868
B(  5-C , 19-H ) :   0.9708

Dispersion correction           -0.005026162
FINAL SINGLE POINT ENERGY      -236.983531844986

DIPOLE MOMENT
-------------

Method             : SCF
Type of density    : Electron Density
Multiplicity       :   1
Irrep              :   0
Energy             :  -236.9880570510461553 Eh
Relativity type    :
Basis              : AO
                                X                 Y                 Z
Electronic contribution:     -0.438867784       0.134199321       0.248277557
Nuclear contribution   :      0.416694070      -0.147983598      -0.258274477
                        -----------------------------------------
Total Dipole Moment    :     -0.022173715      -0.013784277      -0.009996920
                        -----------------------------------------
Magnitude (a.u.)       :      0.027957438
Magnitude (Debye)      :      0.071062159

Rotational constants in cm-1:             0.154718             0.075455             0.056275
Rotational constants in MHz :          4638.326403          2262.082942          1687.094107

                             ****ORCA TERMINATED NORMALLY****
TOTAL RUN TIME: 0 days 0 hours 0 minutes 19 seconds 829 msec
