                         Program Version 6.0.0  -   RELEASE  -
|  1> ! r2scan-3c def2/J RI DEFGRID2 scfconv6 printgap
|  2> %output
|  3>     printlevel normal
|  4> end
|  5> * xyz 0 1
|  6> C 1.781938945 0.5402725858 -1.1173487693
|  7> C 1.0710884277 -0.1721557297 0.0325376823
|  8> H 0.701665168 -1.142082845 -0.3135371933
|  9> C -0.0908880845 0.6622437204 0.6071138569
| 10> C -1.5002538747 0.2795713663 0.1292507072
| 11> C -1.6504458608 0.365874789 -1.3877612237
| 12> C -1.9150960056 -1.1025076777 0.6313148588
| 13> O 2.0003844856 -0.5173427973 1.0514933152
| 14> H 2.6108547252 -0.0687086976 -1.4713033448
| 15> H 1.0965562156 0.7128149181 -1.9400003204
| 16> H 2.1726754541 1.4991732397 -0.7813843194
| 17> H -0.0695166059 0.5468702317 1.6938672447
| 18> H 0.0816544661 1.7169291276 0.3804672355
| 19> H -2.1840735121 1.012168023 0.5752798883
| 20> H -1.0426490491 -0.3887836846 -1.8801375583
| 21> H -1.3527100528 1.3478078668 -1.7474917202
| 22> H -2.6880267351 0.2000425369 -1.6685421058
| 23> H -2.9464817436 -1.307884928 0.35458772
| 24> H -1.2883538786 -1.8803579024 0.2025572467
| 25> H -1.8314649092 -1.1571441046 1.7141333454
| 26> H 2.4381204005 0.289530672 1.3569541505
| 27> *
| 28>
| 29>                          ****END OF INPUT****

CARTESIAN COORDINATES (ANGSTROEM)
---------------------------------
  C      1.781939    0.540273   -1.117349
  C      1.071088   -0.172156    0.032538
  H      0.701665   -1.142083   -0.313537
  C     -0.090888    0.662244    0.607114
  C     -1.500254    0.279571    0.129251
  C     -1.650446    0.365875   -1.387761
  C     -1.915096   -1.102508    0.631315
  O      2.000384   -0.517343    1.051493
  H      2.610855   -0.068709   -1.471303
  H      1.096556    0.712815   -1.940000
  H      2.172675    1.499173   -0.781384
  H     -0.069517    0.546870    1.693867
  H      0.081654    1.716929    0.380467
  H     -2.184074    1.012168    0.575280
  H     -1.042649   -0.388784   -1.880138
  H     -1.352710    1.347808   -1.747492
  H     -2.688027    0.200043   -1.668542
  H     -2.946482   -1.307885    0.354588
  H     -1.288354   -1.880358    0.202557
  H     -1.831465   -1.157144    1.714133
  H      2.438120    0.289531    1.356954

 Total Charge           Charge          ....    0
 Multiplicity           Mult            ....    1
 Number of Electrons    NEL             ....   58
 Basis Dimension        Dim             ....  208

ORBITAL ENERGIES
----------------

  NO   OCC          E(Eh)            E(eV)
   0   2.0000     -18.940898      -515.4080
   1   2.0000     -10.078607      -274.2528
   2   2.0000     -10.036336      -273.1026
   3   2.0000     -10.021022      -272.6859
   4   2.0000     -10.018916      -272.6286
   5   2.0000     -10.017888      -272.6006
   6   2.0000     -10.014383      -272.5052
   7   2.0000      -0.979394       -26.6507
   8   2.0000      -0.778977       -21.1970
   9   2.0000      -0.716681       -19.5019
  10   2.0000      -0.654746       -17.8166
  11   2.0000      -0.648012       -17.6333
  12   2.0000      -0.578687       -15.7469
  13   2.0000      -0.523447       -14.2437
  14   2.0000      -0.454367       -12.3640
  15   2.0000      -0.439982       -11.9725
  16   2.0000      -0.414099       -11.2682
  17   2.0000      -0.401466       -10.9244
  18   2.0000      -0.390764       -10.6332
  19   2.0000      -0.385204       -10.4819
  20   2.0000      -0.362506        -9.8643
  21   2.0000      -0.349134        -9.5004
  22   2.0000      -0.338353        -9.2071
  23   2.0000      -0.323701        -8.8083
  24   2.0000      -0.309019        -8.4088
  25   2.0000      -0.294625        -8.0172
  26   2.0000      -0.290878        -7.9152
  27   2.0000      -0.276298        -7.5184
  28   2.0000      -0.229113        -6.2345
  29   0.0000       0.065948         1.7945
  30   0.0000       0.079607         2.1662
  31   0.0000       0.106546         2.8993
  32   0.0000       0.114224         3.1082
  33   0.0000       0.123921         3.3721

MULLIKEN ATOMIC CHARGES
-----------------------
   0 C :   -0.512441
   1 C :    0.004570
   2 H :    0.142217
   3 C :   -0.266098
   4 C :   -0.056270
   5 C :   -0.518245
   6 C :   -0.477895
   7 O :   -0.417317
   8 H :    0.162332
   9 H :    0.154495
  10 H :    0.144395
  11 H :    0.163369
  12 H :    0.144962
  13 H :    0.146359
  14 H :    0.156309
  15 H :    0.153394
  16 H :    0.147526
  17 H :    0.145574
  18 H :    0.145339
  19 H :    0.151039
  20 H :    0.286386
Sum of atomic charges:   -0.0000000

LOEWDIN ATOMIC CHARGES
----------------------
   0 C :   -0.399472
   1 C :    0.044221
   2 H :    0.179333
   3 C :   -0.284557
   4 C :   -0.241858
   5 C :   -0.418799
   6 C :   -0.415899
   7 O :   -0.612368
   8 H :    0.160967
   9 H :    0.159462
  10 H :    0.152628
  11 H :    0.174099
  12 H :    0.159506
  13 H :    0.155861
  14 H :    0.152594
  15 H :    0.153545
  16 H :    0.154131
  17 H :    0.153203
  18 H :    0.151669
  19 H :    0.155709
  20 H :    0.266024

  Mayer bond orders larger than 0.100000
B(  0-C ,  1-C ) :   0.9364 B(  0-C ,  8-H ) :   0.9752 B(  0-C ,  9-H ) :   0.9632
B(  0-C , 10-H ) :   0.9806 B(  1-C ,  2-H ) :   0.9605 B(  1-C ,  3-C ) :   0.8400
B(  1-C ,  7-O ) :   0.9219 B(  3-C ,  4-C ) :   0.9032 B(  3-C , 11-H ) :   0.9811
B(  3-C , 12-H ) :   0.9627 B(  4-C ,  5-C ) :   0.8873 B(  4-C ,  6-C ) :   0.9413
B(  4-C , 13-H ) :   0.9684 B(  5-C , 14-H ) :   0.9783 B(  5-C , 15-H ) :   0.9743
B(  5-C , 16-H ) :   0.9683 B(  6-C , 17-H ) :   0.9742 B(  6-C , 18-H ) :   0.9742
B(  6-C , 19-H ) :   0.9741 B(  7-O , 20-H ) :   0.9000

Dispersion correction           -0.005718401
FINAL SINGLE POINT ENERGY      -312.198890507350

DIPOLE MOMENT
-------------

Method             : SCF
Type of density    : Electron Density
Multiplicity       :   1
Irrep              :   0
Energy             :  -312.2044199353259728 Eh
Relativity type    :
Basis              : AO
                                X                 Y                 Z
Electronic contribution:      3.798109633      -0.709019219       3.089821233
Nuclear contribution   :     -4.006057838       1.287339226      -3.290999103
                        -----------------------------------------
Total Dipole Moment    :     -0.207948205       0.578320007      -0.201177870
                        -----------------------------------------
Magnitude (a.u.)       :      0.646659897
Magnitude (Debye)      :      1.643678833

Rotational constants in cm-1:             0.124823             0.055987             0.044980
Rotational constants in MHz :          3742.111884          1678.451295          1348.467365

                             ****ORCA TERMINATED NORMALLY****
TOTAL RUN TIME: 0 days 0 hours 0 minutes 28 seconds 875 msec
