                         Program Version 6.0.0  -   RELEASE  -
|  1> ! r2scan-3c def2/J RI DEFGRID2 scfconv6 printgap
|  2> %output
|  3>     printlevel normal
|  4> end
|  5> %cpcm
|  6>     smd true
|  7>     smdsolvent "water"
|  8> end
|  9> * xyz 0 1
| 10> C 1.781938945 0.5402725858 -1.1173487693
| 11> C 1.0710884277 -0.1721557297 0.0325376823
| 12> H 0.701665168 -1.142082845 -0.3135371933
| 13> C -0.0908880845 0.6622437204 0.6071138569
| 14> C -1.5002538747 0.2795713663 0.1292507072
| 15> C -1.6504458608 0.365874789 -1.3877612237
| 16> C -1.9150960056 -1.1025076777 0.6313148588
| 17> O 2.0003844856 -0.5173427973 1.0514933152
| 18> H 2.6108547252 -0.0687086976 -1.4713033448
| 19> H 1.0965562156 0.7128149181 -1.9400003204
| 20> H 2.1726754541 1.4991732397 -0.7813843194
| 21> H -0.0695166059 0.5468702317 1.6938672447
| 22> H 0.0816544661 1.7169291276 0.3804672355
| 23> H -2.1840735121 1.012168023 0.5752798883
| 24> H -1.0426490491 -0.3887836846 -1.8801375583
| 25> H -1.3527100528 1.3478078668 -1.7474917202
| 26> H -2.6880267351 0.2000425369 -1.6685421058
| 27> H -2.9464817436 -1.307884928 0.35458772
| 28> H -1.2883538786 -1.8803579024 0.2025572467
| 29> H -1.8314649092 -1.1571441046 1.7141333454
| 30> H 2.4381204005 0.289530672 1.3569541505
| 31> *
| 32>
| 33>                          ****END OF INPUT****

CARTESIAN COORDINATES (ANGSTROEM)
---------------------------------
  C      1.781939    0.540273   -1.117349
  C      1.071088   -0.172156    0.032538
  H      0.701665   -1.142083   -0.313537
  C     -0.090888    0.662244    0.607114
  C     -1.500254    0.279571    0.129251
  C     -1.650446    0.365875   -1.387761
  C     -1.915096   -1.102508    0.631315
  O      2.000384   -0.517343    1.051493
  H      2.610855   -0.068709   -1.471303
  H      1.096556    0.712815   -1.940000
  H      2.172675    1.499173   -0.781384
  H     -0.069517    0.546870    1.693867
  H      0.081654    1.716929    0.380467
  H     -2.184074    1.012168    0.575280
  H     -1.042649   -0.388784   -1.880138
  H     -1.352710    1.347808   -1.747492
  H     -2.688027    0.200043   -1.668542
  H     -2.946482   -1.307885    0.354588
  H     -1.288354   -1.880358    0.202557
  H     -1.831465   -1.157144    1.714133
  H      2.438120    0.289531    1.356954

 Total Charge           Charge          ....    0
 Multiplicity           Mult            ....    1
 Number of Electrons    NEL             ....   58
 Basis Dimension        Dim             ....  208

ORBITAL ENERGIES
----------------

  NO   OCC          E(Eh)            E(eV)
   0   2.0000     -18.945711      -515.5390
   1   2.0000     -10.073188      -274.1054
   2   2.0000     -10.026448      -272.8335
   3   2.0000     -10.012055      -272.4419
   4   2.0000     -10.008831      -272.3541
   5   2.0000     -10.005938      -272.2754
   6   2.0000     -10.005545      -272.2647
   7   2.0000      -0.982837       -26.7444
   8   2.0000      -0.769645       -20.9431
   9   2.0000      -0.708924       -19.2908
  10   2.0000      -0.644804       -17.5460
  11   2.0000      -0.639295       -17.3961
  12   2.0000      -0.572950       -15.5908
  13   2.0000      -0.515377       -14.0241
  14   2.0000      -0.447946       -12.1892
  15   2.0000      -0.434078       -11.8119
  16   2.0000      -0.405643       -11.0381
  17   2.0000      -0.393265       -10.7013
  18   2.0000      -0.385401       -10.4873
  19   2.0000      -0.376854       -10.2547
  20   2.0000      -0.352820        -9.6007
  21   2.0000      -0.342594        -9.3224
  22   2.0000      -0.330740        -8.9999
  23   2.0000      -0.314596        -8.5606
  24   2.0000      -0.302041        -8.2190
  25   2.0000      -0.287469        -7.8224
  26   2.0000      -0.282120        -7.6769
  27   2.0000      -0.272112        -7.4045
  28   2.0000      -0.233067        -6.3421
  29   0.0000       0.080113         2.1800
  30   0.0000       0.089950         2.4477
  31   0.0000       0.118830         3.2335
  32   0.0000       0.122039         3.3209
  33   0.0000       0.135164         3.6780

MULLIKEN ATOMIC CHARGES
-----------------------
   0 C :   -0.553642
   1 C :    0.029285
   2 H :    0.157199
   3 C :   -0.293896
   4 C :   -0.022129
   5 C :   -0.555940
   6 C :   -0.535705
   7 O :   -0.512370
   8 H :    0.161228
   9 H :    0.168627
  10 H :    0.168504
  11 H :    0.163105
  12 H :    0.160869
  13 H :    0.154004
  14 H :    0.169054
  15 H :    0.163459
  16 H :    0.156901
  17 H :    0.157655
  18 H :    0.159941
  19 H :    0.160315
  20 H :    0.343536
Sum of atomic charges:   -0.0000000

LOEWDIN ATOMIC CHARGES
----------------------
   0 C :   -0.403161
   1 C :    0.044215
   2 H :    0.183756
   3 C :   -0.282959
   4 C :   -0.238907
   5 C :   -0.425532
   6 C :   -0.426722
   7 O :   -0.652647
   8 H :    0.159593
   9 H :    0.164759
  10 H :    0.160740
  11 H :    0.173164
  12 H :    0.165307
  13 H :    0.158431
  14 H :    0.156500
  15 H :    0.156718
  16 H :    0.155571
  17 H :    0.156114
  18 H :    0.154459
  19 H :    0.156252
  20 H :    0.284348

  Mayer bond orders larger than 0.100000
B(  0-C ,  1-C ) :   0.9245 B(  0-C ,  8-H ) :   0.9731 B(  0-C ,  9-H ) :   0.9596
B(  0-C , 10-H ) :   0.9783 B(  1-C ,  2-H ) :   0.9615 B(  1-C ,  3-C ) :   0.8432
B(  1-C ,  7-O ) :   0.9034 B(  3-C ,  4-C ) :   0.8958 B(  3-C , 11-H ) :   0.9836
B(  3-C , 12-H ) :   0.9632 B(  4-C ,  5-C ) :   0.8819 B(  4-C ,  6-C ) :   0.9191
B(  4-C , 13-H ) :   0.9695 B(  5-C , 14-H ) :   0.9762 B(  5-C , 15-H ) :   0.9706
B(  5-C , 16-H ) :   0.9672 B(  6-C , 17-H ) :   0.9714 B(  6-C , 18-H ) :   0.9737
B(  6-C , 19-H ) :   0.9745 B(  7-O , 20-H ) :   0.8727

Dispersion correction           -0.005718401
FINAL SINGLE POINT ENERGY      -312.204973118914

DIPOLE MOMENT
-------------

Method             : SCF
Type of density    : Electron Density
Multiplicity       :   1
Irrep              :   0
Energy             :  -312.2105025468895292 Eh
Relativity type    :
Basis              : AO
                                X                 Y                 Z
Electronic contribution:      3.751686955      -0.433314788       2.984345370
Nuclear contribution   :     -4.006057838       1.287339226      -3.290999103
                        -----------------------------------------
Total Dipole Moment    :     -0.254370883       0.854024438      -0.306653733
                        -----------------------------------------
Magnitude (a.u.)       :      0.942389940
Magnitude (Debye)      :      2.395364864

Rotational constants in cm-1:             0.124823             0.055987             0.044980
Rotational constants in MHz :          3742.111884          1678.451295          1348.467365

                             ****ORCA TERMINATED NORMALLY****
TOTAL RUN TIME: 0 days 0 hours 0 minutes 32 seconds 899 msec
