                         Program Version 6.0.0  -   RELEASE  -
|  1> ! pbe def2-sv(p) def2/J RI DEFGRID1 loosescf d4 GCP(DFT/SV(P)) printgap
|  2> %output
|  3>     printlevel normal
|  4> end
|  5> * xyz 0 1
|  6> C -3.2349276044 1.2669242023 0.0703164368
|  7> C -1.9018088566 0.7245173713 -0.3251441362
|  8> O -1.6900346573 -0.0279037804 -1.2515768518
|  9> O -0.9280256978 1.2163380659 0.4523452899
| 10> C 0.3949657749 0.8417533889 0.2525365393
| 11> C 1.3401363335 1.8550949525 0.1909520211
| 12> C 2.6754728511 1.5401542727 0.0109467669
| 13> C 3.0675462187 0.2177901887 -0.1255918038
| 14> C 2.1246475712 -0.7921372716 -0.0760419995
| 15> C 0.7768797127 -0.4946153382 0.1187003978
| 16> C -0.225988319 -1.5848558662 0.266653408
| 17> O -1.0781551874 -1.5732545232 1.1311199652
| 18> O -0.1228878741 -2.617740041 -0.5592396818
| 19> H -3.4640292654 2.1197981746 -0.5660002356
| 20> H -3.2113884088 1.585577836 1.1069411586
| 21> H -3.9921980556 0.5054085798 -0.0891527731
| 22> H 1.0106633605 2.8763788008 0.2912652589
| 23> H 3.4076327383 2.3303465903 -0.0259550954
| 24> H 4.1072041625 -0.0280005899 -0.268072924
| 25> H 2.4345409624 -1.8234446626 -0.1489226718
| 26> H 0.5460434577 -2.501741648 -1.2591900502
| 27> *
| 28>
| 29>                          ****END OF INPUT****

CARTESIAN COORDINATES (ANGSTROEM)
---------------------------------
  C     -3.234928    1.266924    0.070316
  C     -1.901809    0.724517   -0.325144
  O     -1.690035   -0.027904   -1.251577
  O     -0.928026    1.216338    0.452345
  C      0.394966    0.841753    0.252537
  C      1.340136    1.855095    0.190952
  C      2.675473    1.540154    0.010947
  C      3.067546    0.217790   -0.125592
  C      2.124648   -0.792137   -0.076042
  C      0.776880   -0.494615    0.118700
  C     -0.225988   -1.584856    0.266653
  O     -1.078155   -1.573255    1.131120
  O     -0.122888   -2.617740   -0.559240
  H     -3.464029    2.119798   -0.566000
  H     -3.211388    1.585578    1.106941
  H     -3.992198    0.505409   -0.089153
  H      1.010663    2.876379    0.291265
  H      3.407633    2.330347   -0.025955
  H      4.107204   -0.028001   -0.268073
  H      2.434541   -1.823445   -0.148923
  H      0.546043   -2.501742   -1.259190

 Total Charge           Charge          ....    0
 Multiplicity           Mult            ....    1
 Number of Electrons    NEL             ....   94
 Basis Dimension        Dim             ....  198

ORBITAL ENERGIES
----------------

  NO   OCC          E(Eh)            E(eV)
   0   2.0000     -18.822007      -512.1728
   1   2.0000     -18.798764      -511.5404
   2   2.0000     -18.743874      -510.0468
   3   2.0000     -18.731901      -509.7209
   4   2.0000     -10.022723      -272.7322
   5   2.0000     -10.016496      -272.5627
   6   2.0000      -9.978690      -271.5340
   7   2.0000      -9.926215      -270.1060
   8   2.0000      -9.920788      -269.9584
   9   2.0000      -9.916764      -269.8489
  10   2.0000      -9.915603      -269.8173
  11   2.0000      -9.913029      -269.7472
  12   2.0000      -9.897382      -269.3214
  13   2.0000      -1.028150       -27.9774
  14   2.0000      -1.002922       -27.2909
  15   2.0000      -0.926784       -25.2191
  16   2.0000      -0.912823       -24.8392
  17   2.0000      -0.801807       -21.8183
  18   2.0000      -0.716437       -19.4952
  19   2.0000      -0.706553       -19.2263
  20   2.0000      -0.671489       -18.2721
  21   2.0000      -0.607212       -16.5231
  22   2.0000      -0.581448       -15.8220
  23   2.0000      -0.571088       -15.5401
  24   2.0000      -0.543461       -14.7883
  25   2.0000      -0.490977       -13.3602
  26   2.0000      -0.461152       -12.5486
  27   2.0000      -0.444463       -12.0944
  28   2.0000      -0.442465       -12.0401
  29   2.0000      -0.425973       -11.5913
  30   2.0000      -0.413512       -11.2522
  31   2.0000      -0.408888       -11.1264
  32   2.0000      -0.399454       -10.8697
  33   2.0000      -0.378655       -10.3037
  34   2.0000      -0.367721       -10.0062
  35   2.0000      -0.366827        -9.9819
  36   2.0000      -0.351624        -9.5682
  37   2.0000      -0.348542        -9.4843
  38   2.0000      -0.338504        -9.2112
  39   2.0000      -0.324734        -8.8365
  40   2.0000      -0.322277        -8.7696
  41   2.0000      -0.287823        -7.8321
  42   2.0000      -0.269610        -7.3365
  43   2.0000      -0.254731        -6.9316
  44   2.0000      -0.236073        -6.4239
  45   2.0000      -0.230216        -6.2645
  46   2.0000      -0.217568        -5.9203
  47   0.0000      -0.076537        -2.0827
  48   0.0000      -0.060181        -1.6376
  49   0.0000      -0.025990        -0.7072
  50   0.0000       0.002229         0.0606
  51   0.0000       0.019482         0.5301

MULLIKEN ATOMIC CHARGES
-----------------------
   0 C :   -0.244482
   1 C :    0.115463
   2 O :   -0.202269
   3 O :   -0.200414
   4 C :    0.221109
   5 C :   -0.114296
   6 C :   -0.039125
   7 C :   -0.032087
   8 C :   -0.147194
   9 C :   -0.044546
  10 C :    0.188328
  11 O :   -0.185420
  12 O :   -0.277747
  13 H :    0.136409
  14 H :    0.129505
  15 H :    0.139480
  16 H :    0.052696
  17 H :    0.066849
  18 H :    0.061900
  19 H :    0.050365
  20 H :    0.325476
Sum of atomic charges:   -0.0000000

LOEWDIN ATOMIC CHARGES
----------------------
   0 C :   -0.353152
   1 C :    0.053644
   2 O :   -0.151499
   3 O :   -0.016848
   4 C :    0.062988
   5 C :   -0.123450
   6 C :   -0.107836
   7 C :   -0.122032
   8 C :   -0.118699
   9 C :   -0.092209
  10 C :    0.035866
  11 O :   -0.152083
  12 O :   -0.184270
  13 H :    0.152023
  14 H :    0.142002
  15 H :    0.150196
  16 H :    0.136294
  17 H :    0.131043
  18 H :    0.129422
  19 H :    0.125642
  20 H :    0.302959

  Mayer bond orders larger than 0.100000
B(  0-C ,  1-C ) :   1.0937 B(  0-C , 13-H ) :   0.9184 B(  0-C , 14-H ) :   0.9342
B(  0-C , 15-H ) :   0.9337 B(  1-C ,  2-O ) :   2.0519 B(  1-C ,  3-O ) :   1.1189
B(  3-O ,  4-C ) :   1.0076 B(  4-C ,  5-C ) :   1.4035 B(  4-C ,  9-C ) :   1.3802
B(  5-C ,  6-C ) :   1.3391 B(  5-C , 16-H ) :   0.9650 B(  6-C ,  7-C ) :   1.3696
B(  6-C , 17-H ) :   0.9651 B(  7-C ,  8-C ) :   1.3736 B(  7-C , 18-H ) :   0.9658
B(  8-C ,  9-C ) :   1.3510 B(  8-C , 19-H ) :   0.9576 B(  9-C , 10-C ) :   0.8902
B( 10-C , 11-O ) :   2.1061 B( 10-C , 12-O ) :   1.2413 B( 12-O , 20-H ) :   0.8183

Dispersion correction           -0.025150412
FINAL SINGLE POINT ENERGY      -647.380474766415

DIPOLE MOMENT
-------------

Method             : SCF
Type of density    : Electron Density
Multiplicity       :   1
Irrep              :   0
Energy             :  -647.4480272336489861 Eh
Relativity type    :
Basis              : AO
                                X                 Y                 Z
Electronic contribution:      0.371969609      -3.743658638       0.393593939
Nuclear contribution   :      0.730082275       4.706751028      -0.903155274
                        -----------------------------------------
Total Dipole Moment    :      1.102051883       0.963092390      -0.509561335
                        -----------------------------------------
Magnitude (a.u.)       :      1.549747741
Magnitude (Debye)      :      3.939145708

Rotational constants in cm-1:             0.041192             0.025248             0.017637
Rotational constants in MHz :          1234.906381           756.916860           528.754307

                             ****ORCA TERMINATED NORMALLY****
TOTAL RUN TIME: 0 days 0 hours 0 minutes 15 seconds 994 msec
