                         Program Version 6.0.0  -   RELEASE  -
|  1> ! r2scan-3c def2/J RI DEFGRID2 scfconv6 printgap
|  2> %output
|  3>     printlevel normal
|  4> end
|  5> * xyz 0 1
|  6> C -1.4415995554 0.3922310121 -0.2377012126
|  7> C -0.0097055483 0.37364935 0.3023118465
|  8> C 0.7946464108 -0.7506962352 -0.372450743
|  9> O 2.1005670366 -0.8747904608 0.1438251187
| 10> O 0.5507901058 1.6477682632 0.0498706905
| 11> O -2.0741254721 -0.8166233172 0.1093857812
| 12> H -1.4041257894 0.5240833125 -1.32663
| 13> H -1.9587024211 1.2539657544 0.2020553366
| 14> H -0.0487038143 0.1738671801 1.3810507506
| 15> H 0.8179760824 -0.5759447514 -1.4541400555
| 16> H 0.2883441128 -1.6966200742 -0.1732112997
| 17> H 2.6430918079 -0.1491321454 -0.1955513721
| 18> H 1.3126846461 1.7799227693 0.6302466527
| 19> H -2.9883506885 -0.798276911 -0.206485233
| 20> *
| 21>
| 22>                          ****END OF INPUT****

CARTESIAN COORDINATES (ANGSTROEM)
---------------------------------
  C     -1.441600    0.392231   -0.237701
  C     -0.009706    0.373649    0.302312
  C      0.794646   -0.750696   -0.372451
  O      2.100567   -0.874790    0.143825
  O      0.550790    1.647768    0.049871
  O     -2.074125   -0.816623    0.109386
  H     -1.404126    0.524083   -1.326630
  H     -1.958702    1.253966    0.202055
  H     -0.048704    0.173867    1.381051
  H      0.817976   -0.575945   -1.454140
  H      0.288344   -1.696620   -0.173211
  H      2.643092   -0.149132   -0.195551
  H      1.312685    1.779923    0.630247
  H     -2.988351   -0.798277   -0.206485

 Total Charge           Charge          ....    0
 Multiplicity           Mult            ....    1
 Number of Electrons    NEL             ....   50
 Basis Dimension        Dim             ....  169

ORBITAL ENERGIES
----------------

  NO   OCC          E(Eh)            E(eV)
   0   2.0000     -18.960150      -515.9319
   1   2.0000     -18.958853      -515.8966
   2   2.0000     -18.952801      -515.7319
   3   2.0000     -10.083464      -274.3850
   4   2.0000     -10.080866      -274.3143
   5   2.0000     -10.070625      -274.0356
   6   2.0000      -1.005904       -27.3720
   7   2.0000      -0.993703       -27.0400
   8   2.0000      -0.981619       -26.7112
   9   2.0000      -0.729098       -19.8398
  10   2.0000      -0.640327       -17.4242
  11   2.0000      -0.560873       -15.2621
  12   2.0000      -0.514618       -14.0035
  13   2.0000      -0.489253       -13.3133
  14   2.0000      -0.459912       -12.5148
  15   2.0000      -0.426510       -11.6059
  16   2.0000      -0.419434       -11.4134
  17   2.0000      -0.373585       -10.1658
  18   2.0000      -0.370477       -10.0812
  19   2.0000      -0.330021        -8.9803
  20   2.0000      -0.318908        -8.6779
  21   2.0000      -0.285845        -7.7782
  22   2.0000      -0.269925        -7.3450
  23   2.0000      -0.245570        -6.6823
  24   2.0000      -0.226644        -6.1673
  25   0.0000       0.027644         0.7522
  26   0.0000       0.064747         1.7618
  27   0.0000       0.086199         2.3456
  28   0.0000       0.123136         3.3507
  29   0.0000       0.138572         3.7707

MULLIKEN ATOMIC CHARGES
-----------------------
   0 C :   -0.153584
   1 C :    0.058087
   2 C :   -0.209556
   3 O :   -0.422586
   4 O :   -0.436618
   5 O :   -0.441158
   6 H :    0.128590
   7 H :    0.133811
   8 H :    0.141069
   9 H :    0.137660
  10 H :    0.162918
  11 H :    0.298278
  12 H :    0.303338
  13 H :    0.299752
Sum of atomic charges:   -0.0000000

LOEWDIN ATOMIC CHARGES
----------------------
   0 C :    0.040511
   1 C :    0.084127
   2 C :    0.021459
   3 O :   -0.603744
   4 O :   -0.594690
   5 O :   -0.621872
   6 H :    0.163493
   7 H :    0.167849
   8 H :    0.176280
   9 H :    0.164873
  10 H :    0.193549
  11 H :    0.265671
  12 H :    0.271617
  13 H :    0.270877

  Mayer bond orders larger than 0.100000
B(  0-C ,  1-C ) :   0.9797 B(  0-C ,  5-O ) :   0.9328 B(  0-C ,  6-H ) :   0.9630
B(  0-C ,  7-H ) :   0.9535 B(  1-C ,  2-C ) :   0.9099 B(  1-C ,  4-O ) :   0.8942
B(  1-C ,  8-H ) :   0.9447 B(  2-C ,  3-O ) :   0.9739 B(  2-C ,  9-H ) :   0.9846
B(  2-C , 10-H ) :   0.9623 B(  3-O , 11-H ) :   0.8919 B(  4-O , 12-H ) :   0.8902
B(  5-O , 13-H ) :   0.8970

Dispersion correction           -0.002975678
FINAL SINGLE POINT ENERGY      -344.721771578046

DIPOLE MOMENT
-------------

Method             : SCF
Type of density    : Electron Density
Multiplicity       :   1
Irrep              :   0
Energy             :  -344.7290653556092934 Eh
Relativity type    :
Basis              : AO
                                X                 Y                 Z
Electronic contribution:      0.938135382      -0.001119394       0.837849125
Nuclear contribution   :     -1.246502608       0.479570047      -1.067516922
                        -----------------------------------------
Total Dipole Moment    :     -0.308367226       0.478450653      -0.229667797
                        -----------------------------------------
Magnitude (a.u.)       :      0.613801817
Magnitude (Debye)      :      1.560160231

Rotational constants in cm-1:             0.175707             0.079729             0.058718
Rotational constants in MHz :          5267.573279          2390.210923          1760.335356

                             ****ORCA TERMINATED NORMALLY****
TOTAL RUN TIME: 0 days 0 hours 0 minutes 20 seconds 154 msec
