                         Program Version 6.0.0  -   RELEASE  -
|  1> ! r2scan-3c def2/J RI DEFGRID2 scfconv6 printgap
|  2> %output
|  3>     printlevel normal
|  4> end
|  5> %cpcm
|  6>     smd true
|  7>     smdsolvent "water"
|  8> end
|  9> * xyz 0 1
| 10> C -1.4415995554 0.3922310121 -0.2377012126
| 11> C -0.0097055483 0.37364935 0.3023118465
| 12> C 0.7946464108 -0.7506962352 -0.372450743
| 13> O 2.1005670366 -0.8747904608 0.1438251187
| 14> O 0.5507901058 1.6477682632 0.0498706905
| 15> O -2.0741254721 -0.8166233172 0.1093857812
| 16> H -1.4041257894 0.5240833125 -1.32663
| 17> H -1.9587024211 1.2539657544 0.2020553366
| 18> H -0.0487038143 0.1738671801 1.3810507506
| 19> H 0.8179760824 -0.5759447514 -1.4541400555
| 20> H 0.2883441128 -1.6966200742 -0.1732112997
| 21> H 2.6430918079 -0.1491321454 -0.1955513721
| 22> H 1.3126846461 1.7799227693 0.6302466527
| 23> H -2.9883506885 -0.798276911 -0.206485233
| 24> *
| 25>
| 26>                          ****END OF INPUT****

CARTESIAN COORDINATES (ANGSTROEM)
---------------------------------
  C     -1.441600    0.392231   -0.237701
  C     -0.009706    0.373649    0.302312
  C      0.794646   -0.750696   -0.372451
  O      2.100567   -0.874790    0.143825
  O      0.550790    1.647768    0.049871
  O     -2.074125   -0.816623    0.109386
  H     -1.404126    0.524083   -1.326630
  H     -1.958702    1.253966    0.202055
  H     -0.048704    0.173867    1.381051
  H      0.817976   -0.575945   -1.454140
  H      0.288344   -1.696620   -0.173211
  H      2.643092   -0.149132   -0.195551
  H      1.312685    1.779923    0.630247
  H     -2.988351   -0.798277   -0.206485

 Total Charge           Charge          ....    0
 Multiplicity           Mult            ....    1
 Number of Electrons    NEL             ....   50
 Basis Dimension        Dim             ....  169

ORBITAL ENERGIES
----------------

  NO   OCC          E(Eh)            E(eV)
   0   2.0000     -18.957497      -515.8597
   1   2.0000     -18.956130      -515.8225
   2   2.0000     -18.954687      -515.7833
   3   2.0000     -10.079200      -274.2690
   4   2.0000     -10.073606      -274.1167
   5   2.0000     -10.068503      -273.9779
   6   2.0000      -1.003436       -27.3049
   7   2.0000      -0.990805       -26.9612
   8   2.0000      -0.981194       -26.6996
   9   2.0000      -0.724767       -19.7219
  10   2.0000      -0.636787       -17.3279
  11   2.0000      -0.556073       -15.1315
  12   2.0000      -0.509119       -13.8538
  13   2.0000      -0.486353       -13.2343
  14   2.0000      -0.454105       -12.3568
  15   2.0000      -0.423556       -11.5256
  16   2.0000      -0.418583       -11.3902
  17   2.0000      -0.373073       -10.1518
  18   2.0000      -0.368617       -10.0306
  19   2.0000      -0.332210        -9.0399
  20   2.0000      -0.321130        -8.7384
  21   2.0000      -0.285006        -7.7554
  22   2.0000      -0.272815        -7.4237
  23   2.0000      -0.245043        -6.6679
  24   2.0000      -0.227763        -6.1977
  25   0.0000       0.044974         1.2238
  26   0.0000       0.088374         2.4048
  27   0.0000       0.099386         2.7044
  28   0.0000       0.134006         3.6465
  29   0.0000       0.145640         3.9631

MULLIKEN ATOMIC CHARGES
-----------------------
   0 C :   -0.166613
   1 C :    0.056540
   2 C :   -0.219191
   3 O :   -0.495544
   4 O :   -0.500949
   5 O :   -0.512901
   6 H :    0.149399
   7 H :    0.148315
   8 H :    0.155829
   9 H :    0.159131
  10 H :    0.162234
  11 H :    0.355293
  12 H :    0.356308
  13 H :    0.352149
Sum of atomic charges:   -0.0000000

LOEWDIN ATOMIC CHARGES
----------------------
   0 C :    0.040641
   1 C :    0.082178
   2 C :    0.017742
   3 O :   -0.633691
   4 O :   -0.617218
   5 O :   -0.647843
   6 H :    0.171443
   7 H :    0.173416
   8 H :    0.180691
   9 H :    0.173895
  10 H :    0.191663
  11 H :    0.286070
  12 H :    0.291111
  13 H :    0.289900

  Mayer bond orders larger than 0.100000
B(  0-C ,  1-C ) :   0.9564 B(  0-C ,  5-O ) :   0.9250 B(  0-C ,  6-H ) :   0.9612
B(  0-C ,  7-H ) :   0.9552 B(  1-C ,  2-C ) :   0.9178 B(  1-C ,  4-O ) :   0.8876
B(  1-C ,  8-H ) :   0.9452 B(  2-C ,  3-O ) :   0.9635 B(  2-C ,  9-H ) :   0.9731
B(  2-C , 10-H ) :   0.9637 B(  3-O , 11-H ) :   0.8632 B(  4-O , 12-H ) :   0.8630
B(  5-O , 13-H ) :   0.8695

Dispersion correction           -0.002975678
FINAL SINGLE POINT ENERGY      -344.743825644316

DIPOLE MOMENT
-------------

Method             : SCF
Type of density    : Electron Density
Multiplicity       :   1
Irrep              :   0
Energy             :  -344.7511194218798209 Eh
Relativity type    :
Basis              : AO
                                X                 Y                 Z
Electronic contribution:      0.897406639       0.214181166       0.731991981
Nuclear contribution   :     -1.246502608       0.479570047      -1.067516922
                        -----------------------------------------
Total Dipole Moment    :     -0.349095969       0.693751213      -0.335524940
                        -----------------------------------------
Magnitude (a.u.)       :      0.846011659
Magnitude (Debye)      :      2.150390743

Rotational constants in cm-1:             0.175707             0.079729             0.058718
Rotational constants in MHz :          5267.573279          2390.210923          1760.335356

                             ****ORCA TERMINATED NORMALLY****
TOTAL RUN TIME: 0 days 0 hours 0 minutes 23 seconds 231 msec
