                         Program Version 6.0.0  -   RELEASE  -
|  1> ! r2scan-3c def2/J RI DEFGRID2 scfconv6 printgap
|  2> %output
|  3>     printlevel normal
|  4> end
|  5> * xyz 0 1
|  6> C 1.548571657 0.3648545151 1.5862776321
|  7> C 1.4018734579 -0.2702601893 0.2087046967
|  8> C 2.3475773744 0.4062686289 -0.7940406449
|  9> C 0.0075845724 -0.2718566216 -0.4010180946
| 10> O -0.1714269374 -0.8083910157 -1.4784929328
| 11> C -1.1457340097 0.3558666965 0.3559280298
| 12> C -1.8105047911 -0.7659487418 1.1664893987
| 13> C -2.1489647043 0.9773856317 -0.614148848
| 14> H 0.8835445255 -0.0921812319 2.3128806034
| 15> H 1.3540821779 1.4336951365 1.5465383025
| 16> H 2.5707271828 0.225363699 1.93049278
| 17> H 1.6880328898 -1.327613205 0.2706058148
| 18> H 2.2382884997 -0.0470989291 -1.776370234
| 19> H 2.1140700051 1.4659269947 -0.8733038214
| 20> H 3.3781909273 0.2990155437 -0.4679485988
| 21> H -0.777197686 1.1218839417 1.0378852583
| 22> H -2.1804617388 -1.5366135374 0.4935975608
| 23> H -1.1071507491 -1.22182313 1.8582574981
| 24> H -2.6468474286 -0.3635380636 1.7313289566
| 25> H -3.0167098878 1.3441662168 -0.0732085895
| 26> H -1.693753481 1.8056630853 -1.1525492039
| 27> H -2.4717653081 0.2360374691 -1.3415264208
| 28> *
| 29>
| 30>                          ****END OF INPUT****

CARTESIAN COORDINATES (ANGSTROEM)
---------------------------------
  C      1.548572    0.364855    1.586278
  C      1.401873   -0.270260    0.208705
  C      2.347577    0.406269   -0.794041
  C      0.007585   -0.271857   -0.401018
  O     -0.171427   -0.808391   -1.478493
  C     -1.145734    0.355867    0.355928
  C     -1.810505   -0.765949    1.166489
  C     -2.148965    0.977386   -0.614149
  H      0.883545   -0.092181    2.312881
  H      1.354082    1.433695    1.546538
  H      2.570727    0.225364    1.930493
  H      1.688033   -1.327613    0.270606
  H      2.238288   -0.047099   -1.776370
  H      2.114070    1.465927   -0.873304
  H      3.378191    0.299016   -0.467949
  H     -0.777198    1.121884    1.037885
  H     -2.180462   -1.536614    0.493598
  H     -1.107151   -1.221823    1.858257
  H     -2.646847   -0.363538    1.731329
  H     -3.016710    1.344166   -0.073209
  H     -1.693753    1.805663   -1.152549
  H     -2.471765    0.236037   -1.341526

 Total Charge           Charge          ....    0
 Multiplicity           Mult            ....    1
 Number of Electrons    NEL             ....   64
 Basis Dimension        Dim             ....  227

ORBITAL ENERGIES
----------------

  NO   OCC          E(Eh)            E(eV)
   0   2.0000     -18.932411      -515.1771
   1   2.0000     -10.111789      -275.1558
   2   2.0000     -10.046480      -273.3786
   3   2.0000     -10.044162      -273.3155
   4   2.0000     -10.031718      -272.9769
   5   2.0000     -10.029351      -272.9125
   6   2.0000     -10.024665      -272.7850
   7   2.0000     -10.018015      -272.6040
   8   2.0000      -1.001048       -27.2399
   9   2.0000      -0.783857       -21.3298
  10   2.0000      -0.760887       -20.7048
  11   2.0000      -0.661204       -17.9923
  12   2.0000      -0.656783       -17.8720
  13   2.0000      -0.618062       -16.8183
  14   2.0000      -0.566688       -15.4204
  15   2.0000      -0.481133       -13.0923
  16   2.0000      -0.464030       -12.6269
  17   2.0000      -0.431520       -11.7423
  18   2.0000      -0.419898       -11.4260
  19   2.0000      -0.406378       -11.0581
  20   2.0000      -0.390682       -10.6310
  21   2.0000      -0.376884       -10.2555
  22   2.0000      -0.364719        -9.9245
  23   2.0000      -0.361643        -9.8408
  24   2.0000      -0.350037        -9.5250
  25   2.0000      -0.343183        -9.3385
  26   2.0000      -0.329997        -8.9797
  27   2.0000      -0.315992        -8.5986
  28   2.0000      -0.310601        -8.4519
  29   2.0000      -0.307199        -8.3593
  30   2.0000      -0.297212        -8.0876
  31   2.0000      -0.208000        -5.6600
  32   0.0000      -0.048900        -1.3306
  33   0.0000       0.065910         1.7935
  34   0.0000       0.107630         2.9288
  35   0.0000       0.114400         3.1130
  36   0.0000       0.118455         3.2233

MULLIKEN ATOMIC CHARGES
-----------------------
   0 C :   -0.521647
   1 C :   -0.047900
   2 C :   -0.501178
   3 C :    0.241079
   4 O :   -0.364345
   5 C :   -0.030686
   6 C :   -0.494586
   7 C :   -0.499890
   8 H :    0.148905
   9 H :    0.163495
  10 H :    0.153000
  11 H :    0.173204
  12 H :    0.181486
  13 H :    0.149455
  14 H :    0.149427
  15 H :    0.155629
  16 H :    0.174119
  17 H :    0.142089
  18 H :    0.158597
  19 H :    0.144751
  20 H :    0.146587
  21 H :    0.178408
Sum of atomic charges:   -0.0000000

LOEWDIN ATOMIC CHARGES
----------------------
   0 C :   -0.415254
   1 C :   -0.218316
   2 C :   -0.386649
   3 C :    0.241777
   4 O :   -0.478235
   5 C :   -0.221187
   6 C :   -0.384452
   7 C :   -0.392842
   8 H :    0.154932
   9 H :    0.154807
  10 H :    0.158067
  11 H :    0.183029
  12 H :    0.171834
  13 H :    0.154872
  14 H :    0.153346
  15 H :    0.166353
  16 H :    0.165265
  17 H :    0.154246
  18 H :    0.156964
  19 H :    0.151952
  20 H :    0.157528
  21 H :    0.171963

  Mayer bond orders larger than 0.100000
B(  0-C ,  1-C ) :   0.8622 B(  0-C ,  8-H ) :   0.9691 B(  0-C ,  9-H ) :   0.9920
B(  0-C , 10-H ) :   0.9621 B(  1-C ,  2-C ) :   0.9021 B(  1-C ,  3-C ) :   0.9024
B(  1-C , 11-H ) :   0.9496 B(  2-C , 12-H ) :   0.9654 B(  2-C , 13-H ) :   0.9822
B(  2-C , 14-H ) :   0.9742 B(  3-C ,  4-O ) :   1.8800 B(  3-C ,  5-C ) :   0.8675
B(  5-C ,  6-C ) :   0.8961 B(  5-C ,  7-C ) :   0.9152 B(  5-C , 15-H ) :   0.9433
B(  6-C , 16-H ) :   0.9803 B(  6-C , 17-H ) :   0.9649 B(  6-C , 18-H ) :   0.9745
B(  7-C , 19-H ) :   0.9768 B(  7-C , 20-H ) :   0.9751 B(  7-C , 21-H ) :   0.9777

Dispersion correction           -0.006456357
FINAL SINGLE POINT ENERGY      -350.301081242927

DIPOLE MOMENT
-------------

Method             : SCF
Type of density    : Electron Density
Multiplicity       :   1
Irrep              :   0
Energy             :  -350.3051685320245383 Eh
Relativity type    :
Basis              : AO
                                X                 Y                 Z
Electronic contribution:     -0.134046835      -2.711726742      -4.179384000
Nuclear contribution   :      0.309912573       3.124183656       5.134858185
                        -----------------------------------------
Total Dipole Moment    :      0.175865738       0.412456913       0.955474185
                        -----------------------------------------
Magnitude (a.u.)       :      1.055452690
Magnitude (Debye)      :      2.682747537

Rotational constants in cm-1:             0.095340             0.048549             0.040198
Rotational constants in MHz :          2858.223663          1455.471072          1205.110860

                             ****ORCA TERMINATED NORMALLY****
TOTAL RUN TIME: 0 days 0 hours 0 minutes 38 seconds 862 msec
