                         Program Version 6.0.0  -   RELEASE  -
|  1> ! r2scan-3c def2/J RI DEFGRID2 scfconv6 printgap
|  2> %output
|  3>     printlevel normal
|  4> end
|  5> %cpcm
|  6>     smd true
|  7>     smdsolvent "water"
|  8> end
|  9> * xyz 0 1
| 10> C 1.548571657 0.3648545151 1.5862776321
| 11> C 1.4018734579 -0.2702601893 0.2087046967
| 12> C 2.3475773744 0.4062686289 -0.7940406449
| 13> C 0.0075845724 -0.2718566216 -0.4010180946
| 14> O -0.1714269374 -0.8083910157 -1.4784929328
| 15> C -1.1457340097 0.3558666965 0.3559280298
| 16> C -1.8105047911 -0.7659487418 1.1664893987
| 17> C -2.1489647043 0.9773856317 -0.614148848
| 18> H 0.8835445255 -0.0921812319 2.3128806034
| 19> H 1.3540821779 1.4336951365 1.5465383025
| 20> H 2.5707271828 0.225363699 1.93049278
| 21> H 1.6880328898 -1.327613205 0.2706058148
| 22> H 2.2382884997 -0.0470989291 -1.776370234
| 23> H 2.1140700051 1.4659269947 -0.8733038214
| 24> H 3.3781909273 0.2990155437 -0.4679485988
| 25> H -0.777197686 1.1218839417 1.0378852583
| 26> H -2.1804617388 -1.5366135374 0.4935975608
| 27> H -1.1071507491 -1.22182313 1.8582574981
| 28> H -2.6468474286 -0.3635380636 1.7313289566
| 29> H -3.0167098878 1.3441662168 -0.0732085895
| 30> H -1.693753481 1.8056630853 -1.1525492039
| 31> H -2.4717653081 0.2360374691 -1.3415264208
| 32> *
| 33>
| 34>                          ****END OF INPUT****

CARTESIAN COORDINATES (ANGSTROEM)
---------------------------------
  C      1.548572    0.364855    1.586278
  C      1.401873   -0.270260    0.208705
  C      2.347577    0.406269   -0.794041
  C      0.007585   -0.271857   -0.401018
  O     -0.171427   -0.808391   -1.478493
  C     -1.145734    0.355867    0.355928
  C     -1.810505   -0.765949    1.166489
  C     -2.148965    0.977386   -0.614149
  H      0.883545   -0.092181    2.312881
  H      1.354082    1.433695    1.546538
  H      2.570727    0.225364    1.930493
  H      1.688033   -1.327613    0.270606
  H      2.238288   -0.047099   -1.776370
  H      2.114070    1.465927   -0.873304
  H      3.378191    0.299016   -0.467949
  H     -0.777198    1.121884    1.037885
  H     -2.180462   -1.536614    0.493598
  H     -1.107151   -1.221823    1.858257
  H     -2.646847   -0.363538    1.731329
  H     -3.016710    1.344166   -0.073209
  H     -1.693753    1.805663   -1.152549
  H     -2.471765    0.236037   -1.341526

 Total Charge           Charge          ....    0
 Multiplicity           Mult            ....    1
 Number of Electrons    NEL             ....   64
 Basis Dimension        Dim             ....  227

ORBITAL ENERGIES
----------------

  NO   OCC          E(Eh)            E(eV)
   0   2.0000     -18.943474      -515.4781
   1   2.0000     -10.118430      -275.3365
   2   2.0000     -10.038633      -273.1651
   3   2.0000     -10.036687      -273.1121
   4   2.0000     -10.019978      -272.6575
   5   2.0000     -10.016665      -272.5673
   6   2.0000     -10.012901      -272.4649
   7   2.0000     -10.012419      -272.4518
   8   2.0000      -1.013566       -27.5805
   9   2.0000      -0.776250       -21.1228
  10   2.0000      -0.752335       -20.4721
  11   2.0000      -0.651499       -17.7282
  12   2.0000      -0.646761       -17.5993
  13   2.0000      -0.612106       -16.6563
  14   2.0000      -0.559160       -15.2155
  15   2.0000      -0.478187       -13.0121
  16   2.0000      -0.457331       -12.4446
  17   2.0000      -0.426308       -11.6004
  18   2.0000      -0.418696       -11.3933
  19   2.0000      -0.402118       -10.9422
  20   2.0000      -0.388533       -10.5725
  21   2.0000      -0.365086        -9.9345
  22   2.0000      -0.357380        -9.7248
  23   2.0000      -0.350032        -9.5249
  24   2.0000      -0.341282        -9.2867
  25   2.0000      -0.338957        -9.2235
  26   2.0000      -0.326535        -8.8855
  27   2.0000      -0.306887        -8.3508
  28   2.0000      -0.303312        -8.2536
  29   2.0000      -0.299333        -8.1453
  30   2.0000      -0.294670        -8.0184
  31   2.0000      -0.217252        -5.9117
  32   0.0000      -0.051985        -1.4146
  33   0.0000       0.077712         2.1146
  34   0.0000       0.117771         3.2047
  35   0.0000       0.126983         3.4554
  36   0.0000       0.132232         3.5982

MULLIKEN ATOMIC CHARGES
-----------------------
   0 C :   -0.571071
   1 C :   -0.026207
   2 C :   -0.536803
   3 C :    0.273105
   4 O :   -0.465854
   5 C :   -0.001394
   6 C :   -0.533359
   7 C :   -0.553762
   8 H :    0.167596
   9 H :    0.181383
  10 H :    0.166020
  11 H :    0.191868
  12 H :    0.168420
  13 H :    0.171834
  14 H :    0.169731
  15 H :    0.180572
  16 H :    0.174000
  17 H :    0.167563
  18 H :    0.176744
  19 H :    0.165775
  20 H :    0.165609
  21 H :    0.168232
Sum of atomic charges:   -0.0000000

LOEWDIN ATOMIC CHARGES
----------------------
   0 C :   -0.417691
   1 C :   -0.211427
   2 C :   -0.391790
   3 C :    0.259277
   4 O :   -0.551816
   5 C :   -0.213953
   6 C :   -0.386834
   7 C :   -0.400941
   8 H :    0.161355
   9 H :    0.160853
  10 H :    0.162003
  11 H :    0.189825
  12 H :    0.164943
  13 H :    0.161575
  14 H :    0.160629
  15 H :    0.177678
  16 H :    0.163407
  17 H :    0.162889
  18 H :    0.163646
  19 H :    0.159849
  20 H :    0.161203
  21 H :    0.165317

  Mayer bond orders larger than 0.100000
B(  0-C ,  1-C ) :   0.8547 B(  0-C ,  8-H ) :   0.9653 B(  0-C ,  9-H ) :   0.9881
B(  0-C , 10-H ) :   0.9586 B(  1-C ,  2-C ) :   0.8793 B(  1-C ,  3-C ) :   0.9174
B(  1-C , 11-H ) :   0.9441 B(  2-C , 12-H ) :   0.9677 B(  2-C , 13-H ) :   0.9786
B(  2-C , 14-H ) :   0.9696 B(  3-C ,  4-O ) :   1.8079 B(  3-C ,  5-C ) :   0.8818
B(  5-C ,  6-C ) :   0.8795 B(  5-C ,  7-C ) :   0.8879 B(  5-C , 15-H ) :   0.9346
B(  6-C , 16-H ) :   0.9777 B(  6-C , 17-H ) :   0.9600 B(  6-C , 18-H ) :   0.9685
B(  7-C , 19-H ) :   0.9714 B(  7-C , 20-H ) :   0.9752 B(  7-C , 21-H ) :   0.9817

Dispersion correction           -0.006456357
FINAL SINGLE POINT ENERGY      -350.305912605837

DIPOLE MOMENT
-------------

Method             : SCF
Type of density    : Electron Density
Multiplicity       :   1
Irrep              :   0
Energy             :  -350.3099998949343217 Eh
Relativity type    :
Basis              : AO
                                X                 Y                 Z
Electronic contribution:     -0.047685724      -2.464651315      -3.626428297
Nuclear contribution   :      0.309912573       3.124183656       5.134858185
                        -----------------------------------------
Total Dipole Moment    :      0.262226849       0.659532340       1.508429888
                        -----------------------------------------
Magnitude (a.u.)       :      1.667065252
Magnitude (Debye)      :      4.237343124

Rotational constants in cm-1:             0.095340             0.048549             0.040198
Rotational constants in MHz :          2858.223663          1455.471072          1205.110860

                             ****ORCA TERMINATED NORMALLY****
TOTAL RUN TIME: 0 days 0 hours 0 minutes 40 seconds 556 msec
