                         Program Version 6.0.0  -   RELEASE  -
|  1> ! pbe def2-sv(p) def2/J RI DEFGRID1 loosescf d4 GCP(DFT/SV(P)) printgap
|  2> %output
|  3>     printlevel normal
|  4> end
|  5> * xyz 0 1
|  6> C -2.6883691759 -1.1812933351 -0.4166496004
|  7> C -2.447135912 0.1109043305 0.3556080375
|  8> C -1.177469636 0.8679755927 -0.0470128501
|  9> C 0.1272467268 0.3162014938 0.5354140781
| 10> C 0.6058995192 -0.9974128787 -0.1065793911
| 11> C 2.128960025 -0.8973317869 -0.1190172611
| 12> C 2.3619094952 0.5652574204 -0.4785558464
| 13> C 1.3014937602 1.3075072265 0.3390993938
| 14> H -3.6597622332 -1.5949118482 -0.1540415583
| 15> H -2.6777399141 -0.9910728884 -1.4875685988
| 16> H -1.931745912 -1.9254799667 -0.1906572834
| 17> H -3.30096737 0.7717463981 0.1853839934
| 18> H -2.4113845394 -0.1059159815 1.4255817082
| 19> H -1.103771425 0.9010044095 -1.1364951975
| 20> H -1.2839692873 1.8969971098 0.3068101229
| 21> H -0.0258421598 0.1551611556 1.6070692776
| 22> H 0.2607123617 -1.8738792945 0.4396963988
| 23> H 0.2411131461 -1.0618850916 -1.1325891731
| 24> H 2.5276123535 -1.1047948827 0.8756321655
| 25> H 2.5874892307 -1.5865675167 -0.826840828
| 26> H 3.3721019598 0.9019978001 -0.2500224741
| 27> H 2.1847341204 0.7114711125 -1.5452646072
| 28> H 1.71222513 1.5959957582 1.3070993457
| 29> H 0.9764477252 2.2160701823 -0.1662916493
| 30> *
| 31>
| 32>                          ****END OF INPUT****

CARTESIAN COORDINATES (ANGSTROEM)
---------------------------------
  C     -2.688369   -1.181293   -0.416650
  C     -2.447136    0.110904    0.355608
  C     -1.177470    0.867976   -0.047013
  C      0.127247    0.316201    0.535414
  C      0.605900   -0.997413   -0.106579
  C      2.128960   -0.897332   -0.119017
  C      2.361909    0.565257   -0.478556
  C      1.301494    1.307507    0.339099
  H     -3.659762   -1.594912   -0.154042
  H     -2.677740   -0.991073   -1.487569
  H     -1.931746   -1.925480   -0.190657
  H     -3.300967    0.771746    0.185384
  H     -2.411385   -0.105916    1.425582
  H     -1.103771    0.901004   -1.136495
  H     -1.283969    1.896997    0.306810
  H     -0.025842    0.155161    1.607069
  H      0.260712   -1.873879    0.439696
  H      0.241113   -1.061885   -1.132589
  H      2.527612   -1.104795    0.875632
  H      2.587489   -1.586568   -0.826841
  H      3.372102    0.901998   -0.250022
  H      2.184734    0.711471   -1.545265
  H      1.712225    1.595996    1.307099
  H      0.976448    2.216070   -0.166292

 Total Charge           Charge          ....    0
 Multiplicity           Mult            ....    1
 Number of Electrons    NEL             ....   64
 Basis Dimension        Dim             ....  144

ORBITAL ENERGIES
----------------

  NO   OCC          E(Eh)            E(eV)
   0   2.0000      -9.884089      -268.9597
   1   2.0000      -9.878406      -268.8051
   2   2.0000      -9.876507      -268.7534
   3   2.0000      -9.875509      -268.7263
   4   2.0000      -9.874989      -268.7121
   5   2.0000      -9.873993      -268.6850
   6   2.0000      -9.872910      -268.6555
   7   2.0000      -9.867494      -268.5082
   8   2.0000      -0.758357       -20.6359
   9   2.0000      -0.702901       -19.1269
  10   2.0000      -0.644065       -17.5259
  11   2.0000      -0.629331       -17.1250
  12   2.0000      -0.584563       -15.9068
  13   2.0000      -0.514017       -13.9871
  14   2.0000      -0.504088       -13.7169
  15   2.0000      -0.484107       -13.1732
  16   2.0000      -0.433696       -11.8015
  17   2.0000      -0.420222       -11.4348
  18   2.0000      -0.393185       -10.6991
  19   2.0000      -0.383235       -10.4284
  20   2.0000      -0.369718       -10.0606
  21   2.0000      -0.364398        -9.9158
  22   2.0000      -0.334047        -9.0899
  23   2.0000      -0.318836        -8.6760
  24   2.0000      -0.307393        -8.3646
  25   2.0000      -0.290462        -7.9039
  26   2.0000      -0.289133        -7.8677
  27   2.0000      -0.286850        -7.8056
  28   2.0000      -0.281186        -7.6514
  29   2.0000      -0.268046        -7.2939
  30   2.0000      -0.262876        -7.1532
  31   2.0000      -0.257908        -7.0180
  32   0.0000       0.032308         0.8791
  33   0.0000       0.043675         1.1885
  34   0.0000       0.049623         1.3503
  35   0.0000       0.070276         1.9123
  36   0.0000       0.086953         2.3661

MULLIKEN ATOMIC CHARGES
-----------------------
   0 C :   -0.287128
   1 C :   -0.161446
   2 C :   -0.137473
   3 C :   -0.192064
   4 C :   -0.133707
   5 C :   -0.150908
   6 C :   -0.166539
   7 C :   -0.095883
   8 H :    0.099690
   9 H :    0.094435
  10 H :    0.112329
  11 H :    0.080833
  12 H :    0.079886
  13 H :    0.073348
  14 H :    0.079901
  15 H :    0.057832
  16 H :    0.094444
  17 H :    0.074306
  18 H :    0.078618
  19 H :    0.086132
  20 H :    0.085304
  21 H :    0.077678
  22 H :    0.074030
  23 H :    0.076383
Sum of atomic charges:   -0.0000000

LOEWDIN ATOMIC CHARGES
----------------------
   0 C :   -0.344405
   1 C :   -0.232562
   2 C :   -0.218585
   3 C :   -0.144029
   4 C :   -0.224437
   5 C :   -0.227258
   6 C :   -0.228388
   7 C :   -0.221315
   8 H :    0.117697
   9 H :    0.115434
  10 H :    0.117539
  11 H :    0.114836
  12 H :    0.113642
  13 H :    0.110953
  14 H :    0.114607
  15 H :    0.113654
  16 H :    0.116010
  17 H :    0.114918
  18 H :    0.114385
  19 H :    0.114655
  20 H :    0.115211
  21 H :    0.114523
  22 H :    0.117321
  23 H :    0.115594

  Mayer bond orders larger than 0.100000
B(  0-C ,  1-C ) :   1.1690 B(  0-C ,  8-H ) :   0.9506 B(  0-C ,  9-H ) :   0.9534
B(  0-C , 10-H ) :   0.9421 B(  1-C ,  2-C ) :   1.1187 B(  1-C , 11-H ) :   0.9260
B(  1-C , 12-H ) :   0.9228 B(  2-C ,  3-C ) :   1.0990 B(  2-C , 13-H ) :   0.9138
B(  2-C , 14-H ) :   0.9172 B(  3-C ,  4-C ) :   1.1301 B(  3-C ,  7-C ) :   1.1021
B(  3-C , 15-H ) :   0.8911 B(  4-C ,  5-C ) :   1.1218 B(  4-C , 16-H ) :   0.9126
B(  4-C , 17-H ) :   0.9061 B(  5-C ,  6-C ) :   1.1256 B(  5-C , 18-H ) :   0.9215
B(  5-C , 19-H ) :   0.9280 B(  6-C ,  7-C ) :   1.1602 B(  6-C , 20-H ) :   0.9257
B(  6-C , 21-H ) :   0.9191 B(  7-C , 22-H ) :   0.9135 B(  7-C , 23-H ) :   0.9175

Dispersion correction           -0.021052480
FINAL SINGLE POINT ENERGY      -313.690980286526

DIPOLE MOMENT
-------------

Method             : SCF
Type of density    : Electron Density
Multiplicity       :   1
Irrep              :   0
Energy             :  -313.7719526024003471 Eh
Relativity type    :
Basis              : AO
                                X                 Y                 Z
Electronic contribution:      2.382613600       1.030959428       0.736648644
Nuclear contribution   :     -2.376129449      -1.026409980      -0.696584516
                        -----------------------------------------
Total Dipole Moment    :      0.006484151       0.004549447       0.040064128
                        -----------------------------------------
Magnitude (a.u.)       :      0.040839638
Magnitude (Debye)      :      0.103806110

Rotational constants in cm-1:             0.134819             0.039418             0.033312
Rotational constants in MHz :          4041.759013          1181.715596           998.654130

                             ****ORCA TERMINATED NORMALLY****
TOTAL RUN TIME: 0 days 0 hours 0 minutes 10 seconds 750 msec
