                         Program Version 6.0.0  -   RELEASE  -
|  1> ! pbe def2-sv(p) def2/J RI DEFGRID1 loosescf d4 GCP(DFT/SV(P)) printgap
|  2> %output
|  3>     printlevel normal
|  4> end
|  5> * xyz 0 1
|  6> C -3.0156917633 -0.6746429253 2.0550004572
|  7> C -3.0020975749 -1.4636609589 0.7503803401
|  8> C -2.7257872466 -0.5735972667 -0.464405811
|  9> H -3.4885700987 0.2110006526 -0.506094724
| 10> C -2.7425263403 -1.3561308814 -1.7735310238
| 11> N -1.4535854229 0.1568285331 -0.3097881175
| 12> C -0.262232234 -0.5580580686 -0.2111406741
| 13> O -0.2293104451 -1.7741617099 -0.2663688313
| 14> C 0.9191358739 0.261776878 -0.0384780028
| 15> C 0.8780055254 1.6164206284 0.0185740406
| 16> N -0.3479455487 2.2004929382 -0.0906241561
| 17> C -1.5331988758 1.5284699896 -0.2486566288
| 18> O -2.580001312 2.1477509049 -0.3299110397
| 19> C 2.0547249955 2.5007520115 0.2051962679
| 20> Br 2.5529020737 -0.6972100961 0.1139375114
| 21> H -3.3340724855 -1.3123363375 2.8746930308
| 22> H -2.0231884997 -0.2930209019 2.2900113476
| 23> H -3.6986468573 0.1695893777 1.9832529976
| 24> H -2.2540960171 -2.255699652 0.8000160519
| 25> H -3.9763923105 -1.9273464036 0.5951213846
| 26> H -3.7255905951 -1.7945348442 -1.9131020234
| 27> H -2.5326706353 -0.6949971256 -2.6112477979
| 28> H -2.0024129769 -2.1513951212 -1.7539071536
| 29> H -0.4266489328 3.2117666776 -0.0444611946
| 30> H 1.8349096672 3.511997779 -0.1206368791
| 31> H 2.909191816 2.1152199982 -0.3458833696
| 32> H 2.3326904711 2.5237060955 1.2584611077
| 33> *
| 34>
| 35>                          ****END OF INPUT****

CARTESIAN COORDINATES (ANGSTROEM)
---------------------------------
  C     -3.015692   -0.674643    2.055000
  C     -3.002098   -1.463661    0.750380
  C     -2.725787   -0.573597   -0.464406
  H     -3.488570    0.211001   -0.506095
  C     -2.742526   -1.356131   -1.773531
  N     -1.453585    0.156829   -0.309788
  C     -0.262232   -0.558058   -0.211141
  O     -0.229310   -1.774162   -0.266369
  C      0.919136    0.261777   -0.038478
  C      0.878006    1.616421    0.018574
  N     -0.347946    2.200493   -0.090624
  C     -1.533199    1.528470   -0.248657
  O     -2.580001    2.147751   -0.329911
  C      2.054725    2.500752    0.205196
  Br     2.552902   -0.697210    0.113938
  H     -3.334072   -1.312336    2.874693
  H     -2.023188   -0.293021    2.290011
  H     -3.698647    0.169589    1.983253
  H     -2.254096   -2.255700    0.800016
  H     -3.976392   -1.927346    0.595121
  H     -3.725591   -1.794535   -1.913102
  H     -2.532671   -0.694997   -2.611248
  H     -2.002413   -2.151395   -1.753907
  H     -0.426649    3.211767   -0.044461
  H      1.834910    3.511998   -0.120637
  H      2.909192    2.115220   -0.345883
  H      2.332690    2.523706    1.258461

 Total Charge           Charge          ....    0
 Multiplicity           Mult            ....    1
 Number of Electrons    NEL             ....  132
 Basis Dimension        Dim             ....  240

ORBITAL ENERGIES
----------------

  NO   OCC          E(Eh)            E(eV)
   0   2.0000    -480.942081    -13087.0994
   1   2.0000     -61.783815     -1681.2231
   2   2.0000     -55.714503     -1516.0687
   3   2.0000     -55.711417     -1515.9847
   4   2.0000     -55.711161     -1515.9778
   5   2.0000     -18.734571      -509.7936
   6   2.0000     -18.732421      -509.7351
   7   2.0000     -14.067831      -382.8051
   8   2.0000     -14.054078      -382.4309
   9   2.0000     -10.033632      -273.0290
  10   2.0000     -10.003612      -272.2121
  11   2.0000      -9.982331      -271.6330
  12   2.0000      -9.950037      -270.7543
  13   2.0000      -9.931099      -270.2389
  14   2.0000      -9.923383      -270.0290
  15   2.0000      -9.881730      -268.8956
  16   2.0000      -9.873900      -268.6825
  17   2.0000      -9.873695      -268.6769
  18   2.0000      -8.409017      -228.8210
  19   2.0000      -6.291354      -171.1964
  20   2.0000      -6.276711      -170.7980
  21   2.0000      -6.275949      -170.7772
  22   2.0000      -2.492431       -67.8225
  23   2.0000      -2.488893       -67.7262
  24   2.0000      -2.488332       -67.7110
  25   2.0000      -2.477332       -67.4116
  26   2.0000      -2.477321       -67.4113
  27   2.0000      -0.987736       -26.8777
  28   2.0000      -0.948453       -25.8087
  29   2.0000      -0.898246       -24.4425
  30   2.0000      -0.860440       -23.4138
  31   2.0000      -0.768344       -20.9077
  32   2.0000      -0.728456       -19.8223
  33   2.0000      -0.708131       -19.2692
  34   2.0000      -0.668005       -18.1773
  35   2.0000      -0.652354       -17.7515
  36   2.0000      -0.608324       -16.5533
  37   2.0000      -0.602210       -16.3870
  38   2.0000      -0.563028       -15.3208
  39   2.0000      -0.539040       -14.6680
  40   2.0000      -0.528830       -14.3902
  41   2.0000      -0.494053       -13.4439
  42   2.0000      -0.453844       -12.3497
  43   2.0000      -0.438312       -11.9271
  44   2.0000      -0.415999       -11.3199
  45   2.0000      -0.413900       -11.2628
  46   2.0000      -0.393830       -10.7167
  47   2.0000      -0.389021       -10.5858
  48   2.0000      -0.383742       -10.4422
  49   2.0000      -0.381014       -10.3679
  50   2.0000      -0.379983       -10.3399
  51   2.0000      -0.372143       -10.1265
  52   2.0000      -0.362208        -9.8562
  53   2.0000      -0.356603        -9.7037
  54   2.0000      -0.343100        -9.3362
  55   2.0000      -0.322391        -8.7727
  56   2.0000      -0.320217        -8.7135
  57   2.0000      -0.303480        -8.2581
  58   2.0000      -0.295575        -8.0430
  59   2.0000      -0.292059        -7.9473
  60   2.0000      -0.275619        -7.5000
  61   2.0000      -0.253119        -6.8877
  62   2.0000      -0.238529        -6.4907
  63   2.0000      -0.234981        -6.3942
  64   2.0000      -0.215019        -5.8510
  65   2.0000      -0.206124        -5.6089
  66   0.0000      -0.073535        -2.0010
  67   0.0000      -0.031941        -0.8692
  68   0.0000      -0.024865        -0.6766
  69   0.0000       0.013464         0.3664
  70   0.0000       0.046984         1.2785

MULLIKEN ATOMIC CHARGES
-----------------------
   0 C :   -0.269806
   1 C :   -0.174707
   2 C :   -0.082997
   3 H :    0.109596
   4 C :   -0.223257
   5 N :   -0.242377
   6 C :    0.182874
   7 O :   -0.171198
   8 C :   -0.187191
   9 C :   -0.000915
  10 N :   -0.198783
  11 C :    0.169375
  12 O :   -0.207199
  13 C :   -0.206863
  14 Br:    0.008020
  15 H :    0.106347
  16 H :    0.100573
  17 H :    0.104751
  18 H :    0.118119
  19 H :    0.087285
  20 H :    0.101107
  21 H :    0.098866
  22 H :    0.131652
  23 H :    0.248529
  24 H :    0.107092
  25 H :    0.144457
  26 H :    0.146648
Sum of atomic charges:   -0.0000000

LOEWDIN ATOMIC CHARGES
----------------------
   0 C :   -0.343636
   1 C :   -0.236275
   2 C :   -0.077116
   3 H :    0.133930
   4 C :   -0.338423
   5 N :    0.000914
   6 C :    0.022747
   7 O :   -0.165312
   8 C :   -0.217265
   9 C :   -0.007294
  10 N :   -0.086087
  11 C :    0.037694
  12 O :   -0.197986
  13 C :   -0.330841
  14 Br:    0.136757
  15 H :    0.122450
  16 H :    0.114487
  17 H :    0.120249
  18 H :    0.128277
  19 H :    0.121680
  20 H :    0.124729
  21 H :    0.120254
  22 H :    0.131125
  23 H :    0.254745
  24 H :    0.130922
  25 H :    0.146618
  26 H :    0.152657

  Mayer bond orders larger than 0.100000
B(  0-C ,  1-C ) :   1.1600 B(  0-C , 15-H ) :   0.9511 B(  0-C , 16-H ) :   0.9492
B(  0-C , 17-H ) :   0.9499 B(  1-C ,  2-C ) :   1.0883 B(  1-C , 18-H ) :   0.9017
B(  1-C , 19-H ) :   0.9190 B(  2-C ,  3-H ) :   0.8776 B(  2-C ,  4-C ) :   1.1267
B(  2-C ,  5-N ) :   0.9092 B(  4-C , 20-H ) :   0.9442 B(  4-C , 21-H ) :   0.9460
B(  4-C , 22-H ) :   0.9286 B(  5-N ,  6-C ) :   1.0342 B(  5-N , 11-C ) :   1.0769
B(  6-C ,  7-O ) :   2.0848 B(  6-C ,  8-C ) :   1.0377 B(  8-C ,  9-C ) :   1.6161
B(  8-C , 14-Br) :   1.0828 B(  9-C , 10-N ) :   1.1995 B(  9-C , 13-C ) :   1.1625
B( 10-N , 11-C ) :   1.0918 B( 10-N , 23-H ) :   0.8316 B( 11-C , 12-O ) :   2.0455
B( 13-C , 24-H ) :   0.9221 B( 13-C , 25-H ) :   0.9111 B( 13-C , 26-H ) :   0.9159

Dispersion correction           -0.034332284
FINAL SINGLE POINT ENERGY     -3182.943873440989

DIPOLE MOMENT
-------------

Method             : SCF
Type of density    : Electron Density
Multiplicity       :   1
Irrep              :   0
Energy             : -3183.0354171181124912 Eh
Relativity type    :
Basis              : AO
                                X                 Y                 Z
Electronic contribution:     43.465537928      -6.386880325      -1.098366736
Nuclear contribution   :    -42.880236184       7.724782647       1.282346299
                        -----------------------------------------
Total Dipole Moment    :      0.585301744       1.337902322       0.183979563
                        -----------------------------------------
Magnitude (a.u.)       :      1.471872696
Magnitude (Debye)      :      3.741203076

Rotational constants in cm-1:             0.027221             0.012047             0.009682
Rotational constants in MHz :           816.070419           361.145744           290.268234

                             ****ORCA TERMINATED NORMALLY****
TOTAL RUN TIME: 0 days 0 hours 0 minutes 22 seconds 303 msec
