                         Program Version 6.0.0  -   RELEASE  -
|  1> ! r2scan-3c def2/J RI DEFGRID2 scfconv6 printgap
|  2> %output
|  3>     printlevel normal
|  4> end
|  5> * xyz 0 1
|  6> C -2.6001242898 0.3318686746 0.2018805287
|  7> C -2.2205133058 -0.9833288393 0.4131135586
|  8> C -0.9071898005 -1.364524095 0.2123284884
|  9> C 0.0508940983 -0.4458280587 -0.2073676489
| 10> C -0.3408798954 0.8691762811 -0.4161303927
| 11> C -1.6555576076 1.254426109 -0.2104844009
| 12> C 1.4616526446 -0.9306746316 -0.4314839957
| 13> C 2.5425768367 0.1527238081 -0.4397828396
| 14> O 2.5630026306 0.9507641025 0.7239447761
| 15> H -3.6241720012 0.6350162149 0.3610871588
| 16> H -2.9488081384 -1.7117957589 0.7378592491
| 17> H -0.6176070977 -2.392201227 0.3810983712
| 18> H 0.3793377379 1.6094719236 -0.7256799536
| 19> H -1.940771425 2.2832933114 -0.3740367948
| 20> H 1.7003251344 -1.6669349618 0.3408254538
| 21> H 1.5056253264 -1.4468919268 -1.3946483996
| 22> H 3.5212004821 -0.3277877089 -0.5835025945
| 23> H 2.387837947 0.8474604499 -1.2682424266
| 24> H 2.6765717701 0.3790725382 1.4954706814
| 25> *
| 26>
| 27>                          ****END OF INPUT****

CARTESIAN COORDINATES (ANGSTROEM)
---------------------------------
  C     -2.600124    0.331869    0.201881
  C     -2.220513   -0.983329    0.413114
  C     -0.907190   -1.364524    0.212328
  C      0.050894   -0.445828   -0.207368
  C     -0.340880    0.869176   -0.416130
  C     -1.655558    1.254426   -0.210484
  C      1.461653   -0.930675   -0.431484
  C      2.542577    0.152724   -0.439783
  O      2.563003    0.950764    0.723945
  H     -3.624172    0.635016    0.361087
  H     -2.948808   -1.711796    0.737859
  H     -0.617607   -2.392201    0.381098
  H      0.379338    1.609472   -0.725680
  H     -1.940771    2.283293   -0.374037
  H      1.700325   -1.666935    0.340825
  H      1.505625   -1.446892   -1.394648
  H      3.521200   -0.327788   -0.583503
  H      2.387838    0.847460   -1.268242
  H      2.676572    0.379073    1.495471

 Total Charge           Charge          ....    0
 Multiplicity           Mult            ....    1
 Number of Electrons    NEL             ....   66
 Basis Dimension        Dim             ....  226

ORBITAL ENERGIES
----------------

  NO   OCC          E(Eh)            E(eV)
   0   2.0000     -18.950834      -515.6784
   1   2.0000     -10.081740      -274.3381
   2   2.0000     -10.041522      -273.2437
   3   2.0000     -10.040169      -273.2069
   4   2.0000     -10.031049      -272.9587
   5   2.0000     -10.029975      -272.9295
   6   2.0000     -10.029373      -272.9131
   7   2.0000     -10.028697      -272.8947
   8   2.0000     -10.027591      -272.8646
   9   2.0000      -0.988480       -26.8979
  10   2.0000      -0.826206       -22.4822
  11   2.0000      -0.752684       -20.4816
  12   2.0000      -0.712377       -19.3848
  13   2.0000      -0.686623       -18.6840
  14   2.0000      -0.609070       -16.5736
  15   2.0000      -0.570824       -15.5329
  16   2.0000      -0.548314       -14.9204
  17   2.0000      -0.491998       -13.3880
  18   2.0000      -0.457741       -12.4558
  19   2.0000      -0.438095       -11.9212
  20   2.0000      -0.428592       -11.6626
  21   2.0000      -0.417253       -11.3540
  22   2.0000      -0.393578       -10.7098
  23   2.0000      -0.382390       -10.4054
  24   2.0000      -0.367279        -9.9942
  25   2.0000      -0.361543        -9.8381
  26   2.0000      -0.329653        -8.9703
  27   2.0000      -0.311762        -8.4835
  28   2.0000      -0.307181        -8.3588
  29   2.0000      -0.293453        -7.9853
  30   2.0000      -0.241964        -6.5842
  31   2.0000      -0.231335        -6.2949
  32   2.0000      -0.224360        -6.1052
  33   0.0000      -0.028915        -0.7868
  34   0.0000      -0.025532        -0.6948
  35   0.0000       0.058375         1.5885
  36   0.0000       0.090916         2.4740
  37   0.0000       0.101928         2.7736

MULLIKEN ATOMIC CHARGES
-----------------------
   0 C :   -0.151897
   1 C :   -0.154560
   2 C :   -0.207596
   3 C :    0.191310
   4 C :   -0.152718
   5 C :   -0.180134
   6 C :   -0.402902
   7 C :   -0.154265
   8 O :   -0.405569
   9 H :    0.145472
  10 H :    0.144302
  11 H :    0.143748
  12 H :    0.146741
  13 H :    0.144571
  14 H :    0.158790
  15 H :    0.166343
  16 H :    0.135996
  17 H :    0.136709
  18 H :    0.295659
Sum of atomic charges:    0.0000000

LOEWDIN ATOMIC CHARGES
----------------------
   0 C :   -0.172957
   1 C :   -0.163881
   2 C :   -0.165989
   3 C :   -0.088549
   4 C :   -0.149446
   5 C :   -0.161246
   6 C :   -0.271871
   7 C :    0.002586
   8 O :   -0.613676
   9 H :    0.165954
  10 H :    0.166114
  11 H :    0.167427
  12 H :    0.175434
  13 H :    0.166574
  14 H :    0.164927
  15 H :    0.175969
  16 H :    0.160237
  17 H :    0.175768
  18 H :    0.266625

  Mayer bond orders larger than 0.100000
B(  0-C ,  1-C ) :   1.4209 B(  0-C ,  5-C ) :   1.4218 B(  0-C ,  9-H ) :   0.9484
B(  1-C ,  2-C ) :   1.4504 B(  1-C , 10-H ) :   0.9483 B(  2-C ,  3-C ) :   1.3722
B(  2-C , 11-H ) :   0.9541 B(  3-C ,  4-C ) :   1.4612 B(  3-C ,  6-C ) :   0.7733
B(  4-C ,  5-C ) :   1.4498 B(  4-C , 12-H ) :   0.9316 B(  5-C , 13-H ) :   0.9496
B(  6-C ,  7-C ) :   0.9179 B(  6-C , 14-H ) :   1.0365 B(  6-C , 15-H ) :   0.9525
B(  7-C ,  8-O ) :   0.9625 B(  7-C , 16-H ) :   0.9758 B(  7-C , 17-H ) :   0.9622
B(  8-O , 18-H ) :   0.8972

Dispersion correction           -0.006141697
FINAL SINGLE POINT ENERGY      -385.987051266514

DIPOLE MOMENT
-------------

Method             : SCF
Type of density    : Electron Density
Multiplicity       :   1
Irrep              :   0
Energy             :  -385.9881272066542124 Eh
Relativity type    :
Basis              : AO
                                X                 Y                 Z
Electronic contribution:     -2.697480055       1.060895012       0.945889664
Nuclear contribution   :      2.889584981      -1.666448574      -0.955368401
                        -----------------------------------------
Total Dipole Moment    :      0.192104926      -0.605553562      -0.009478736
                        -----------------------------------------
Magnitude (a.u.)       :      0.635365458
Magnitude (Debye)      :      1.614970651

Rotational constants in cm-1:             0.121922             0.035188             0.029886
Rotational constants in MHz :          3655.127637          1054.905139           895.974717

                             ****ORCA TERMINATED NORMALLY****
TOTAL RUN TIME: 0 days 0 hours 0 minutes 25 seconds 609 msec
