                         Program Version 6.0.0  -   RELEASE  -
|  1> ! r2scan-3c def2/J RI DEFGRID2 scfconv6 printgap
|  2> %output
|  3>     printlevel normal
|  4> end
|  5> %cpcm
|  6>     smd true
|  7>     smdsolvent "water"
|  8> end
|  9> * xyz 0 1
| 10> C -2.6001242898 0.3318686746 0.2018805287
| 11> C -2.2205133058 -0.9833288393 0.4131135586
| 12> C -0.9071898005 -1.364524095 0.2123284884
| 13> C 0.0508940983 -0.4458280587 -0.2073676489
| 14> C -0.3408798954 0.8691762811 -0.4161303927
| 15> C -1.6555576076 1.254426109 -0.2104844009
| 16> C 1.4616526446 -0.9306746316 -0.4314839957
| 17> C 2.5425768367 0.1527238081 -0.4397828396
| 18> O 2.5630026306 0.9507641025 0.7239447761
| 19> H -3.6241720012 0.6350162149 0.3610871588
| 20> H -2.9488081384 -1.7117957589 0.7378592491
| 21> H -0.6176070977 -2.392201227 0.3810983712
| 22> H 0.3793377379 1.6094719236 -0.7256799536
| 23> H -1.940771425 2.2832933114 -0.3740367948
| 24> H 1.7003251344 -1.6669349618 0.3408254538
| 25> H 1.5056253264 -1.4468919268 -1.3946483996
| 26> H 3.5212004821 -0.3277877089 -0.5835025945
| 27> H 2.387837947 0.8474604499 -1.2682424266
| 28> H 2.6765717701 0.3790725382 1.4954706814
| 29> *
| 30>
| 31>                          ****END OF INPUT****

CARTESIAN COORDINATES (ANGSTROEM)
---------------------------------
  C     -2.600124    0.331869    0.201881
  C     -2.220513   -0.983329    0.413114
  C     -0.907190   -1.364524    0.212328
  C      0.050894   -0.445828   -0.207368
  C     -0.340880    0.869176   -0.416130
  C     -1.655558    1.254426   -0.210484
  C      1.461653   -0.930675   -0.431484
  C      2.542577    0.152724   -0.439783
  O      2.563003    0.950764    0.723945
  H     -3.624172    0.635016    0.361087
  H     -2.948808   -1.711796    0.737859
  H     -0.617607   -2.392201    0.381098
  H      0.379338    1.609472   -0.725680
  H     -1.940771    2.283293   -0.374037
  H      1.700325   -1.666935    0.340825
  H      1.505625   -1.446892   -1.394648
  H      3.521200   -0.327788   -0.583503
  H      2.387838    0.847460   -1.268242
  H      2.676572    0.379073    1.495471

 Total Charge           Charge          ....    0
 Multiplicity           Mult            ....    1
 Number of Electrons    NEL             ....   66
 Basis Dimension        Dim             ....  226

ORBITAL ENERGIES
----------------

  NO   OCC          E(Eh)            E(eV)
   0   2.0000     -18.951708      -515.7022
   1   2.0000     -10.071917      -274.0708
   2   2.0000     -10.041515      -273.2435
   3   2.0000     -10.030924      -272.9553
   4   2.0000     -10.030846      -272.9532
   5   2.0000     -10.028810      -272.8978
   6   2.0000     -10.028409      -272.8869
   7   2.0000     -10.028243      -272.8824
   8   2.0000     -10.028008      -272.8760
   9   2.0000      -0.987944       -26.8833
  10   2.0000      -0.827736       -22.5238
  11   2.0000      -0.748235       -20.3605
  12   2.0000      -0.713369       -19.4118
  13   2.0000      -0.682371       -18.5682
  14   2.0000      -0.603296       -16.4165
  15   2.0000      -0.569872       -15.5070
  16   2.0000      -0.545509       -14.8440
  17   2.0000      -0.488435       -13.2910
  18   2.0000      -0.452667       -12.3177
  19   2.0000      -0.432697       -11.7743
  20   2.0000      -0.423619       -11.5273
  21   2.0000      -0.413673       -11.2566
  22   2.0000      -0.390081       -10.6146
  23   2.0000      -0.379122       -10.3164
  24   2.0000      -0.363730        -9.8976
  25   2.0000      -0.360165        -9.8006
  26   2.0000      -0.329537        -8.9672
  27   2.0000      -0.309581        -8.4241
  28   2.0000      -0.305217        -8.3054
  29   2.0000      -0.289091        -7.8666
  30   2.0000      -0.244449        -6.6518
  31   2.0000      -0.235406        -6.4057
  32   2.0000      -0.227007        -6.1772
  33   0.0000      -0.031867        -0.8671
  34   0.0000      -0.028386        -0.7724
  35   0.0000       0.073944         2.0121
  36   0.0000       0.102241         2.7821
  37   0.0000       0.109639         2.9834

MULLIKEN ATOMIC CHARGES
-----------------------
   0 C :   -0.186676
   1 C :   -0.193502
   2 C :   -0.222532
   3 C :    0.133963
   4 C :   -0.204591
   5 C :   -0.212221
   6 C :   -0.375782
   7 C :   -0.151513
   8 O :   -0.495724
   9 H :    0.177811
  10 H :    0.176486
  11 H :    0.176513
  12 H :    0.174662
  13 H :    0.175969
  14 H :    0.185237
  15 H :    0.187649
  16 H :    0.149739
  17 H :    0.153467
  18 H :    0.351049
Sum of atomic charges:    0.0000000

LOEWDIN ATOMIC CHARGES
----------------------
   0 C :   -0.187739
   1 C :   -0.174548
   2 C :   -0.171428
   3 C :   -0.093604
   4 C :   -0.171092
   5 C :   -0.174780
   6 C :   -0.267567
   7 C :    0.004694
   8 O :   -0.651708
   9 H :    0.176158
  10 H :    0.176836
  11 H :    0.179629
  12 H :    0.182695
  13 H :    0.176610
  14 H :    0.176557
  15 H :    0.184777
  16 H :    0.168965
  17 H :    0.180749
  18 H :    0.284796

  Mayer bond orders larger than 0.100000
B(  0-C ,  1-C ) :   1.3776 B(  0-C ,  5-C ) :   1.3857 B(  0-C ,  9-H ) :   0.9557
B(  1-C ,  2-C ) :   1.4119 B(  1-C , 10-H ) :   0.9593 B(  2-C ,  3-C ) :   1.3560
B(  2-C , 11-H ) :   0.9618 B(  3-C ,  4-C ) :   1.4116 B(  3-C ,  6-C ) :   0.7896
B(  4-C ,  5-C ) :   1.4037 B(  4-C , 12-H ) :   0.9461 B(  5-C , 13-H ) :   0.9598
B(  6-C ,  7-C ) :   0.9151 B(  6-C , 14-H ) :   1.0228 B(  6-C , 15-H ) :   0.9518
B(  7-C ,  8-O ) :   0.9500 B(  7-C , 16-H ) :   0.9662 B(  7-C , 17-H ) :   0.9604
B(  8-O , 18-H ) :   0.8688

Dispersion correction           -0.006141697
FINAL SINGLE POINT ENERGY      -385.998194869011

DIPOLE MOMENT
-------------

Method             : SCF
Type of density    : Electron Density
Multiplicity       :   1
Irrep              :   0
Energy             :  -385.9992708091513691 Eh
Relativity type    :
Basis              : AO
                                X                 Y                 Z
Electronic contribution:     -2.586590304       0.703749206       0.911536293
Nuclear contribution   :      2.889584981      -1.666448574      -0.955368401
                        -----------------------------------------
Total Dipole Moment    :      0.302994677      -0.962699367      -0.043832108
                        -----------------------------------------
Magnitude (a.u.)       :      1.010206464
Magnitude (Debye)      :      2.567740770

Rotational constants in cm-1:             0.121922             0.035188             0.029886
Rotational constants in MHz :          3655.127637          1054.905139           895.974717

                             ****ORCA TERMINATED NORMALLY****
TOTAL RUN TIME: 0 days 0 hours 0 minutes 30 seconds 132 msec
