                         Program Version 6.0.0  -   RELEASE  -
|  1> ! pbe def2-sv(p) def2/J RI DEFGRID1 loosescf d4 GCP(DFT/SV(P)) printgap
|  2> %output
|  3>     printlevel normal
|  4> end
|  5> * xyz 0 1
|  6> C -2.3974989007 -0.629489163 -1.0050815777
|  7> C -1.843582296 0.2662599204 0.1005054477
|  8> C -1.5450450439 -0.5411614492 1.3619798965
|  9> C -0.5907356014 1.0057050873 -0.3833187436
| 10> O 0.4616177595 0.0892875587 -0.7075693453
| 11> C 1.5484334836 0.0558024435 0.0535658216
| 12> O 1.7235057099 0.7719333802 1.0182313832
| 13> C 2.5321276589 -0.9603468146 -0.4472878631
| 14> H -3.27570755 -1.162592833 -0.6516510441
| 15> H -1.6471622336 -1.355041342 -1.308612856
| 16> H -2.6762779456 -0.0371462977 -1.8725291284
| 17> H -2.5815542935 1.0375460584 0.3422265246
| 18> H -1.0990709621 0.0910907763 2.127252956
| 19> H -0.8509035799 -1.3498147353 1.1410981262
| 20> H -2.4596772439 -0.9738867578 1.7577202409
| 21> H -0.8034282284 1.5555073334 -1.3029562479
| 22> H -0.2272447491 1.6942817881 0.3858816879
| 23> H 2.0270589715 -1.9057220359 -0.6207056673
| 24> H 3.3333269753 -1.0784087691 0.2745211916
| 25> H 2.9386875354 -0.6148538173 -1.394624968
| 26> *
| 27>
| 28>                          ****END OF INPUT****

CARTESIAN COORDINATES (ANGSTROEM)
---------------------------------
  C     -2.397499   -0.629489   -1.005082
  C     -1.843582    0.266260    0.100505
  C     -1.545045   -0.541161    1.361980
  C     -0.590736    1.005705   -0.383319
  O      0.461618    0.089288   -0.707569
  C      1.548433    0.055802    0.053566
  O      1.723506    0.771933    1.018231
  C      2.532128   -0.960347   -0.447288
  H     -3.275708   -1.162593   -0.651651
  H     -1.647162   -1.355041   -1.308613
  H     -2.676278   -0.037146   -1.872529
  H     -2.581554    1.037546    0.342227
  H     -1.099071    0.091091    2.127253
  H     -0.850904   -1.349815    1.141098
  H     -2.459677   -0.973887    1.757720
  H     -0.803428    1.555507   -1.302956
  H     -0.227245    1.694282    0.385882
  H      2.027059   -1.905722   -0.620706
  H      3.333327   -1.078409    0.274521
  H      2.938688   -0.614854   -1.394625

 Total Charge           Charge          ....    0
 Multiplicity           Mult            ....    1
 Number of Electrons    NEL             ....   64
 Basis Dimension        Dim             ....  136

ORBITAL ENERGIES
----------------

  NO   OCC          E(Eh)            E(eV)
   0   2.0000     -18.797604      -511.5088
   1   2.0000     -18.731223      -509.7025
   2   2.0000     -10.009094      -272.3613
   3   2.0000      -9.939400      -270.4648
   4   2.0000      -9.903737      -269.4944
   5   2.0000      -9.894137      -269.2331
   6   2.0000      -9.877669      -268.7850
   7   2.0000      -9.876914      -268.7645
   8   2.0000      -1.004711       -27.3396
   9   2.0000      -0.909063       -24.7369
  10   2.0000      -0.736926       -20.0528
  11   2.0000      -0.684411       -18.6238
  12   2.0000      -0.624572       -16.9955
  13   2.0000      -0.615114       -16.7381
  14   2.0000      -0.538175       -14.6445
  15   2.0000      -0.479581       -13.0501
  16   2.0000      -0.445261       -12.1162
  17   2.0000      -0.442552       -12.0425
  18   2.0000      -0.415427       -11.3043
  19   2.0000      -0.404843       -11.0163
  20   2.0000      -0.388830       -10.5806
  21   2.0000      -0.382239       -10.4012
  22   2.0000      -0.360355        -9.8057
  23   2.0000      -0.348924        -9.4947
  24   2.0000      -0.339082        -9.2269
  25   2.0000      -0.334655        -9.1064
  26   2.0000      -0.311796        -8.4844
  27   2.0000      -0.303572        -8.2606
  28   2.0000      -0.296812        -8.0767
  29   2.0000      -0.282048        -7.6749
  30   2.0000      -0.251210        -6.8358
  31   2.0000      -0.218412        -5.9433
  32   0.0000      -0.019681        -0.5356
  33   0.0000       0.031395         0.8543
  34   0.0000       0.049461         1.3459
  35   0.0000       0.078677         2.1409
  36   0.0000       0.082852         2.2545

MULLIKEN ATOMIC CHARGES
-----------------------
   0 C :   -0.247996
   1 C :   -0.198270
   2 C :   -0.257106
   3 C :    0.034671
   4 O :   -0.249608
   5 C :    0.083198
   6 O :   -0.207421
   7 C :   -0.245297
   8 H :    0.101702
   9 H :    0.104748
  10 H :    0.095827
  11 H :    0.082756
  12 H :    0.112164
  13 H :    0.106413
  14 H :    0.102751
  15 H :    0.091668
  16 H :    0.110682
  17 H :    0.123879
  18 H :    0.124054
  19 H :    0.131185
Sum of atomic charges:    0.0000000

LOEWDIN ATOMIC CHARGES
----------------------
   0 C :   -0.332469
   1 C :   -0.169358
   2 C :   -0.332479
   3 C :   -0.101645
   4 O :   -0.067575
   5 C :    0.029835
   6 O :   -0.170146
   7 C :   -0.358368
   8 H :    0.118754
   9 H :    0.119738
  10 H :    0.116974
  11 H :    0.122935
  12 H :    0.124208
  13 H :    0.118398
  14 H :    0.120044
  15 H :    0.114165
  16 H :    0.119653
  17 H :    0.140685
  18 H :    0.139297
  19 H :    0.147354

  Mayer bond orders larger than 0.100000
B(  0-C ,  1-C ) :   1.1050 B(  0-C ,  8-H ) :   0.9533 B(  0-C ,  9-H ) :   0.9475
B(  0-C , 10-H ) :   0.9513 B(  1-C ,  2-C ) :   1.1147 B(  1-C ,  3-C ) :   1.0810
B(  1-C , 11-H ) :   0.8987 B(  2-C , 12-H ) :   0.9482 B(  2-C , 13-H ) :   0.9431
B(  2-C , 14-H ) :   0.9501 B(  3-C ,  4-O ) :   0.9247 B(  3-C , 15-H ) :   0.9289
B(  3-C , 16-H ) :   0.8973 B(  4-O ,  5-C ) :   1.1753 B(  5-C ,  6-O ) :   2.0623
B(  5-C ,  7-C ) :   1.0808 B(  7-C , 17-H ) :   0.9324 B(  7-C , 18-H ) :   0.9427
B(  7-C , 19-H ) :   0.9254

Dispersion correction           -0.015984970
FINAL SINGLE POINT ENERGY      -385.457797069902

DIPOLE MOMENT
-------------

Method             : SCF
Type of density    : Electron Density
Multiplicity       :   1
Irrep              :   0
Energy             :  -385.5327171822286232 Eh
Relativity type    :
Basis              : AO
                                X                 Y                 Z
Electronic contribution:      6.429087029       3.530222436       0.503935648
Nuclear contribution   :     -6.836811385      -3.832813090      -1.048372226
                        -----------------------------------------
Total Dipole Moment    :     -0.407724355      -0.302590655      -0.544436578
                        -----------------------------------------
Magnitude (a.u.)       :      0.744453788
Magnitude (Debye)      :      1.892251148

Rotational constants in cm-1:             0.119111             0.040596             0.037717
Rotational constants in MHz :          3570.864834          1217.027636          1130.727042

                             ****ORCA TERMINATED NORMALLY****
TOTAL RUN TIME: 0 days 0 hours 0 minutes 11 seconds 944 msec
