                         Program Version 6.0.0  -   RELEASE  -
|  1> ! pbe def2-sv(p) def2/J RI DEFGRID1 loosescf d4 GCP(DFT/SV(P)) printgap
|  2> %output
|  3>     printlevel normal
|  4> end
|  5> * xyz 0 1
|  6> C 2.2579435249 -0.2499383528 0.1337080972
|  7> O 0.9524459481 -0.2272810007 -0.3977288336
|  8> C 0.0889041315 0.6516778218 0.2915921133
|  9> C -1.3212783595 0.5310371348 -0.2831053554
| 10> N -1.9819296774 -0.6723736139 0.1973569619
| 11> H 2.8225746147 -0.9505625254 -0.4757858778
| 12> H 2.2516803939 -0.5867863409 1.1764443671
| 13> H 2.7191837068 0.7433984866 0.0825037596
| 14> H 0.0805966581 0.4035263294 1.3635398881
| 15> H 0.4496616444 1.6860419886 0.1783202684
| 16> H -1.8686624407 1.4562659756 -0.0351255405
| 17> H -1.2360871262 0.4577117723 -1.3693650421
| 18> H -2.8893251052 -0.7637657602 -0.2435230521
| 19> H -2.1273382188 -0.6096456319 1.1993310958
| 20> *
| 21>
| 22>                          ****END OF INPUT****

CARTESIAN COORDINATES (ANGSTROEM)
---------------------------------
  C      2.257944   -0.249938    0.133708
  O      0.952446   -0.227281   -0.397729
  C      0.088904    0.651678    0.291592
  C     -1.321278    0.531037   -0.283105
  N     -1.981930   -0.672374    0.197357
  H      2.822575   -0.950563   -0.475786
  H      2.251680   -0.586786    1.176444
  H      2.719184    0.743398    0.082504
  H      0.080597    0.403526    1.363540
  H      0.449662    1.686042    0.178320
  H     -1.868662    1.456266   -0.035126
  H     -1.236087    0.457712   -1.369365
  H     -2.889325   -0.763766   -0.243523
  H     -2.127338   -0.609646    1.199331

 Total Charge           Charge          ....    0
 Multiplicity           Mult            ....    1
 Number of Electrons    NEL             ....   42
 Basis Dimension        Dim             ....   88

ORBITAL ENERGIES
----------------

  NO   OCC          E(Eh)            E(eV)
   0   2.0000     -18.742445      -510.0079
   1   2.0000     -13.957956      -379.8153
   2   2.0000      -9.925948      -270.0988
   3   2.0000      -9.918723      -269.9022
   4   2.0000      -9.905587      -269.5447
   5   2.0000      -0.925510       -25.1844
   6   2.0000      -0.791385       -21.5347
   7   2.0000      -0.661383       -17.9972
   8   2.0000      -0.587445       -15.9852
   9   2.0000      -0.529194       -14.4001
  10   2.0000      -0.448024       -12.1914
  11   2.0000      -0.437174       -11.8961
  12   2.0000      -0.415412       -11.3039
  13   2.0000      -0.391916       -10.6646
  14   2.0000      -0.382727       -10.4145
  15   2.0000      -0.344482        -9.3738
  16   2.0000      -0.327184        -8.9031
  17   2.0000      -0.309680        -8.4268
  18   2.0000      -0.259395        -7.0585
  19   2.0000      -0.199053        -5.4165
  20   2.0000      -0.177607        -4.8329
  21   0.0000       0.033484         0.9112
  22   0.0000       0.052491         1.4283
  23   0.0000       0.078682         2.1411
  24   0.0000       0.085301         2.3212
  25   0.0000       0.103883         2.8268

MULLIKEN ATOMIC CHARGES
-----------------------
   0 C :   -0.099426
   1 O :   -0.334689
   2 C :    0.004055
   3 C :   -0.057017
   4 N :   -0.462792
   5 H :    0.114951
   6 H :    0.083540
   7 H :    0.079019
   8 H :    0.055089
   9 H :    0.063995
  10 H :    0.061060
  11 H :    0.091955
  12 H :    0.203401
  13 H :    0.196859
Sum of atomic charges:   -0.0000000

LOEWDIN ATOMIC CHARGES
----------------------
   0 C :   -0.206857
   1 O :   -0.177629
   2 C :   -0.114643
   3 C :   -0.187310
   4 N :   -0.414629
   5 H :    0.115474
   6 H :    0.095209
   7 H :    0.092959
   8 H :    0.091677
   9 H :    0.092331
  10 H :    0.090056
  11 H :    0.120481
  12 H :    0.204170
  13 H :    0.198710

  Mayer bond orders larger than 0.100000
B(  0-C ,  1-O ) :   1.0270 B(  0-C ,  5-H ) :   0.9645 B(  0-C ,  6-H ) :   0.9420
B(  0-C ,  7-H ) :   0.9406 B(  1-O ,  2-C ) :   1.0315 B(  2-C ,  3-C ) :   1.1054
B(  2-C ,  8-H ) :   0.9103 B(  2-C ,  9-H ) :   0.9143 B(  3-C ,  4-N ) :   1.1042
B(  3-C , 10-H ) :   0.9141 B(  3-C , 11-H ) :   0.9217 B(  4-N , 12-H ) :   0.9058
B(  4-N , 13-H ) :   0.9045

Dispersion correction           -0.008056226
FINAL SINGLE POINT ENERGY      -249.089846131571

DIPOLE MOMENT
-------------

Method             : SCF
Type of density    : Electron Density
Multiplicity       :   1
Irrep              :   0
Energy             :  -249.1505719983756251 Eh
Relativity type    :
Basis              : AO
                                X                 Y                 Z
Electronic contribution:     -0.439140939      -1.183197679      -1.299087531
Nuclear contribution   :      0.193028274       1.715573043       1.755500951
                        -----------------------------------------
Total Dipole Moment    :     -0.246112665       0.532375364       0.456413419
                        -----------------------------------------
Magnitude (a.u.)       :      0.743174395
Magnitude (Debye)      :      1.888999191

Rotational constants in cm-1:             0.458672             0.083115             0.078297
Rotational constants in MHz :         13750.653366          2491.724943          2347.285254

                             ****ORCA TERMINATED NORMALLY****
TOTAL RUN TIME: 0 days 0 hours 0 minutes 5 seconds 897 msec
