                         Program Version 6.0.0  -   RELEASE  -
|  1> ! pbe def2-sv(p) def2/J RI DEFGRID1 loosescf d4 GCP(DFT/SV(P)) printgap
|  2> %output
|  3>     printlevel normal
|  4> end
|  5> * xyz 0 1
|  6> C 0.0419227224 -3.1283254087 0.0548737689
|  7> C 0.67062644 -1.7734277257 -0.0133467484
|  8> C 2.0554347754 -1.5745543251 0.0749852598
|  9> N 2.6014116967 -0.3705700256 0.0309880969
| 10> C 1.7907939042 0.6865849079 -0.1229134604
| 11> N 0.4531018322 0.6010528249 -0.2444158902
| 12> C -0.0692269212 -0.604457008 -0.1659667786
| 13> O -1.4401497496 -0.6917881536 -0.3093520952
| 14> C -2.2153726637 0.2024312845 0.3840977362
| 15> O -1.8231154271 0.7636723868 1.3935097921
| 16> N -3.4358162464 0.3294020572 -0.1382640757
| 17> C -4.4290814981 1.1350939695 0.5403136657
| 18> C -3.8870455921 -0.3534630455 -1.3312182627
| 19> N 2.3265771761 1.9101104449 -0.186866761
| 20> C 3.7371039892 2.1346454217 0.0191314561
| 21> C 1.4586635652 3.0618612958 -0.2872849978
| 22> C 2.9884460939 -2.72915832 0.2369918699
| 23> H 0.3286987797 -3.6336701529 0.9757243434
| 24> H -1.0402155516 -3.0370899902 0.0233100893
| 25> H 0.3683202359 -3.7410614892 -0.7841569123
| 26> H -4.7646868065 1.9360296565 -0.1181268385
| 27> H -3.9780423141 1.561823258 1.4327370525
| 28> H -5.280250851 0.51376377 0.8195816942
| 29> H -4.4065674751 0.3611033695 -1.9685633393
| 30> H -4.5723397556 -1.1600626165 -1.0651605595
| 31> H -3.0372316577 -0.7661401458 -1.8660111332
| 32> H 3.9012797485 2.6839615843 0.9481807673
| 33> H 4.1428497664 2.7078643768 -0.8149212717
| 34> H 4.2320110011 1.1699641781 0.0763151459
| 35> H 0.8201415524 3.1420522362 0.5954561966
| 36> H 0.8104255467 2.9625423221 -1.1574263376
| 37> H 2.0713454086 3.9527166761 -0.3829621809
| 38> H 2.8710547178 -3.4214612543 -0.5935144538
| 39> H 4.0101708633 -2.3662359145 0.2703858639
| 40> H 2.7617176266 -3.2639467614 1.1568332949
| 41> *
| 42>
| 43>                          ****END OF INPUT****

CARTESIAN COORDINATES (ANGSTROEM)
---------------------------------
  C      0.041923   -3.128325    0.054874
  C      0.670626   -1.773428   -0.013347
  C      2.055435   -1.574554    0.074985
  N      2.601412   -0.370570    0.030988
  C      1.790794    0.686585   -0.122913
  N      0.453102    0.601053   -0.244416
  C     -0.069227   -0.604457   -0.165967
  O     -1.440150   -0.691788   -0.309352
  C     -2.215373    0.202431    0.384098
  O     -1.823115    0.763672    1.393510
  N     -3.435816    0.329402   -0.138264
  C     -4.429081    1.135094    0.540314
  C     -3.887046   -0.353463   -1.331218
  N      2.326577    1.910110   -0.186867
  C      3.737104    2.134645    0.019131
  C      1.458664    3.061861   -0.287285
  C      2.988446   -2.729158    0.236992
  H      0.328699   -3.633670    0.975724
  H     -1.040216   -3.037090    0.023310
  H      0.368320   -3.741061   -0.784157
  H     -4.764687    1.936030   -0.118127
  H     -3.978042    1.561823    1.432737
  H     -5.280251    0.513764    0.819582
  H     -4.406567    0.361103   -1.968563
  H     -4.572340   -1.160063   -1.065161
  H     -3.037232   -0.766140   -1.866011
  H      3.901280    2.683962    0.948181
  H      4.142850    2.707864   -0.814921
  H      4.232011    1.169964    0.076315
  H      0.820142    3.142052    0.595456
  H      0.810426    2.962542   -1.157426
  H      2.071345    3.952717   -0.382962
  H      2.871055   -3.421461   -0.593514
  H      4.010171   -2.366236    0.270386
  H      2.761718   -3.263947    1.156833

 Total Charge           Charge          ....    0
 Multiplicity           Mult            ....    1
 Number of Electrons    NEL             ....  128
 Basis Dimension        Dim             ....  274

ORBITAL ENERGIES
----------------

  NO   OCC          E(Eh)            E(eV)
   0   2.0000     -18.797245      -511.4990
   1   2.0000     -18.708251      -509.0774
   2   2.0000     -14.028333      -381.7304
   3   2.0000     -14.014138      -381.3441
   4   2.0000     -13.965894      -380.0313
   5   2.0000     -13.963293      -379.9605
   6   2.0000     -10.015825      -272.5444
   7   2.0000      -9.975862      -271.4570
   8   2.0000      -9.968111      -271.2461
   9   2.0000      -9.929344      -270.1912
  10   2.0000      -9.921456      -269.9765
  11   2.0000      -9.916709      -269.8474
  12   2.0000      -9.905379      -269.5391
  13   2.0000      -9.905255      -269.5357
  14   2.0000      -9.888665      -269.0842
  15   2.0000      -9.881177      -268.8805
  16   2.0000      -9.877773      -268.7879
  17   2.0000      -1.007401       -27.4128
  18   2.0000      -0.913813       -24.8661
  19   2.0000      -0.899914       -24.4879
  20   2.0000      -0.856089       -23.2954
  21   2.0000      -0.837067       -22.7778
  22   2.0000      -0.787238       -21.4218
  23   2.0000      -0.722105       -19.6495
  24   2.0000      -0.667792       -18.1715
  25   2.0000      -0.656405       -17.8617
  26   2.0000      -0.651244       -17.7213
  27   2.0000      -0.643512       -17.5109
  28   2.0000      -0.632147       -17.2016
  29   2.0000      -0.588416       -16.0116
  30   2.0000      -0.567099       -15.4315
  31   2.0000      -0.519925       -14.1479
  32   2.0000      -0.507723       -13.8158
  33   2.0000      -0.486406       -13.2358
  34   2.0000      -0.471343       -12.8259
  35   2.0000      -0.449871       -12.2416
  36   2.0000      -0.437214       -11.8972
  37   2.0000      -0.429125       -11.6771
  38   2.0000      -0.421825       -11.4784
  39   2.0000      -0.403761       -10.9869
  40   2.0000      -0.398423       -10.8416
  41   2.0000      -0.389461       -10.5978
  42   2.0000      -0.374720       -10.1967
  43   2.0000      -0.371647       -10.1130
  44   2.0000      -0.364732        -9.9248
  45   2.0000      -0.363717        -9.8972
  46   2.0000      -0.357580        -9.7302
  47   2.0000      -0.357082        -9.7167
  48   2.0000      -0.354355        -9.6425
  49   2.0000      -0.351633        -9.5684
  50   2.0000      -0.345406        -9.3990
  51   2.0000      -0.342916        -9.3312
  52   2.0000      -0.335989        -9.1427
  53   2.0000      -0.334241        -9.0952
  54   2.0000      -0.327488        -8.9114
  55   2.0000      -0.321847        -8.7579
  56   2.0000      -0.281522        -7.6606
  57   2.0000      -0.249683        -6.7942
  58   2.0000      -0.248911        -6.7732
  59   2.0000      -0.232277        -6.3206
  60   2.0000      -0.212143        -5.7727
  61   2.0000      -0.204381        -5.5615
  62   2.0000      -0.186264        -5.0685
  63   2.0000      -0.167936        -4.5698
  64   0.0000      -0.039536        -1.0758
  65   0.0000      -0.012432        -0.3383
  66   0.0000       0.026890         0.7317
  67   0.0000       0.033736         0.9180
  68   0.0000       0.044985         1.2241

MULLIKEN ATOMIC CHARGES
-----------------------
   0 C :   -0.184947
   1 C :   -0.131637
   2 C :   -0.125914
   3 N :   -0.102245
   4 C :    0.048009
   5 N :   -0.100254
   6 C :    0.108973
   7 O :   -0.255057
   8 C :    0.221774
   9 O :   -0.233664
  10 N :   -0.242650
  11 C :   -0.171398
  12 C :   -0.172018
  13 N :   -0.209485
  14 C :   -0.174705
  15 C :   -0.138950
  16 C :   -0.184688
  17 H :    0.105020
  18 H :    0.106275
  19 H :    0.104544
  20 H :    0.110413
  21 H :    0.145292
  22 H :    0.106947
  23 H :    0.107309
  24 H :    0.108855
  25 H :    0.143258
  26 H :    0.105152
  27 H :    0.105199
  28 H :    0.136835
  29 H :    0.121722
  30 H :    0.112871
  31 H :    0.101777
  32 H :    0.108826
  33 H :    0.105739
  34 H :    0.112824
Sum of atomic charges:    0.0000000

LOEWDIN ATOMIC CHARGES
----------------------
   0 C :   -0.323400
   1 C :   -0.132345
   2 C :    0.005959
   3 N :   -0.121955
   4 C :    0.028126
   5 N :   -0.119667
   6 C :    0.068139
   7 O :   -0.055310
   8 C :    0.044031
   9 O :   -0.204433
  10 N :   -0.058204
  11 C :   -0.246790
  12 C :   -0.250785
  13 N :   -0.041135
  14 C :   -0.255282
  15 C :   -0.247110
  16 C :   -0.330665
  17 H :    0.127922
  18 H :    0.128110
  19 H :    0.126905
  20 H :    0.116644
  21 H :    0.138888
  22 H :    0.115150
  23 H :    0.117053
  24 H :    0.114597
  25 H :    0.132869
  26 H :    0.112843
  27 H :    0.113143
  28 H :    0.132857
  29 H :    0.125461
  30 H :    0.122985
  31 H :    0.116365
  32 H :    0.133179
  33 H :    0.130924
  34 H :    0.134931

  Mayer bond orders larger than 0.100000
B(  0-C ,  1-C ) :   1.1647 B(  0-C , 17-H ) :   0.9226 B(  0-C , 18-H ) :   0.9261
B(  0-C , 19-H ) :   0.9260 B(  1-C ,  2-C ) :   1.3108 B(  1-C ,  6-C ) :   1.3629
B(  2-C ,  3-N ) :   1.6029 B(  2-C , 16-C ) :   1.1614 B(  3-N ,  4-C ) :   1.4161
B(  4-C ,  5-N ) :   1.3956 B(  4-C , 13-N ) :   1.2202 B(  5-N ,  6-C ) :   1.5447
B(  6-C ,  7-O ) :   1.0494 B(  7-O ,  8-C ) :   1.0238 B(  8-C ,  9-O ) :   2.0217
B(  8-C , 10-N ) :   1.1978 B( 10-N , 11-C ) :   1.0121 B( 10-N , 12-C ) :   1.0078
B( 11-C , 20-H ) :   0.9532 B( 11-C , 21-H ) :   0.9325 B( 11-C , 22-H ) :   0.9516
B( 12-C , 23-H ) :   0.9486 B( 12-C , 24-H ) :   0.9505 B( 12-C , 25-H ) :   0.9414
B( 13-N , 14-C ) :   1.0196 B( 13-N , 15-C ) :   1.0111 B( 14-C , 26-H ) :   0.9500
B( 14-C , 27-H ) :   0.9512 B( 14-C , 28-H ) :   0.9238 B( 15-C , 29-H ) :   0.9485
B( 15-C , 30-H ) :   0.9483 B( 15-C , 31-H ) :   0.9469 B( 16-C , 32-H ) :   0.9231
B( 16-C , 33-H ) :   0.9274 B( 16-C , 34-H ) :   0.9227

Dispersion correction           -0.039382030
FINAL SINGLE POINT ENERGY      -797.788338255393

DIPOLE MOMENT
-------------

Method             : SCF
Type of density    : Electron Density
Multiplicity       :   1
Irrep              :   0
Energy             :  -797.9075115306177395 Eh
Relativity type    :
Basis              : AO
                                X                 Y                 Z
Electronic contribution:      0.191995466       0.294868146       1.548792328
Nuclear contribution   :     -0.751929993      -0.358633852      -2.287579437
                        -----------------------------------------
Total Dipole Moment    :     -0.559934527      -0.063765707      -0.738787108
                        -----------------------------------------
Magnitude (a.u.)       :      0.929192731
Magnitude (Debye)      :      2.361820225

Rotational constants in cm-1:             0.022442             0.010639             0.007756
Rotational constants in MHz :           672.795681           318.945247           232.523602

                             ****ORCA TERMINATED NORMALLY****
TOTAL RUN TIME: 0 days 0 hours 0 minutes 26 seconds 49 msec
