                         Program Version 6.0.0  -   RELEASE  -
|  1> ! r2scan-3c def2/J RI DEFGRID2 scfconv6 printgap
|  2> %output
|  3>     printlevel normal
|  4> end
|  5> * xyz 0 1
|  6> C -0.0769304046 -2.546569427 -0.024169338
|  7> C -0.0154572034 -1.0377226116 -0.1611708463
|  8> O 1.071073675 -0.5505106313 0.6144584453
|  9> C 1.8653704686 0.4171764353 0.1245389653
| 10> O 1.7399185186 0.8803799106 -0.9849786904
| 11> C 2.903615634 0.8117245676 1.1240300863
| 12> O -1.2037533483 -0.4780764739 0.3809477533
| 13> C -1.8237371827 0.5297232243 -0.257629043
| 14> O -1.4551030968 0.9671023459 -1.3224740307
| 15> C -3.007471722 1.004755137 0.5204017191
| 16> H -0.9227367758 -2.9247661198 -0.5886066319
| 17> H -0.1940233975 -2.7978582144 1.0255128846
| 18> H 0.8420399383 -2.979711709 -0.4047933027
| 19> H 0.101989747 -0.6977590768 -1.2012517504
| 20> H 3.8698902515 0.8715619161 0.6314097514
| 21> H 2.6602126761 1.8023489254 1.5022136448
| 22> H 2.9209811736 0.0992378244 1.9411059767
| 23> H -3.2895116954 0.2604410939 1.2567684706
| 24> H -2.7369106421 1.9301412404 1.0250202873
| 25> H -3.8244633307 1.2199250367 -0.1617293712
| 26> *
| 27>
| 28>                          ****END OF INPUT****

CARTESIAN COORDINATES (ANGSTROEM)
---------------------------------
  C     -0.076930   -2.546569   -0.024169
  C     -0.015457   -1.037723   -0.161171
  O      1.071074   -0.550511    0.614458
  C      1.865370    0.417176    0.124539
  O      1.739919    0.880380   -0.984979
  C      2.903616    0.811725    1.124030
  O     -1.203753   -0.478076    0.380948
  C     -1.823737    0.529723   -0.257629
  O     -1.455103    0.967102   -1.322474
  C     -3.007472    1.004755    0.520402
  H     -0.922737   -2.924766   -0.588607
  H     -0.194023   -2.797858    1.025513
  H      0.842040   -2.979712   -0.404793
  H      0.101990   -0.697759   -1.201252
  H      3.869890    0.871562    0.631410
  H      2.660213    1.802349    1.502214
  H      2.920981    0.099238    1.941106
  H     -3.289512    0.260441    1.256768
  H     -2.736911    1.930141    1.025020
  H     -3.824463    1.219925   -0.161729

 Total Charge           Charge          ....    0
 Multiplicity           Mult            ....    1
 Number of Electrons    NEL             ....   78
 Basis Dimension        Dim             ....  260

ORBITAL ENERGIES
----------------

  NO   OCC          E(Eh)            E(eV)
   0   2.0000     -19.005294      -517.1604
   1   2.0000     -19.005133      -517.1560
   2   2.0000     -18.934800      -515.2421
   3   2.0000     -18.934764      -515.2411
   4   2.0000     -10.163982      -276.5760
   5   2.0000     -10.163913      -276.5741
   6   2.0000     -10.154230      -276.3106
   7   2.0000     -10.044624      -273.3281
   8   2.0000     -10.044612      -273.3278
   9   2.0000     -10.040575      -273.2179
  10   2.0000      -1.098233       -29.8844
  11   2.0000      -1.063774       -28.9468
  12   2.0000      -0.993364       -27.0308
  13   2.0000      -0.975529       -26.5455
  14   2.0000      -0.774503       -21.0753
  15   2.0000      -0.727658       -19.8006
  16   2.0000      -0.712332       -19.3835
  17   2.0000      -0.634245       -17.2587
  18   2.0000      -0.582694       -15.8559
  19   2.0000      -0.538671       -14.6580
  20   2.0000      -0.469798       -12.7839
  21   2.0000      -0.463335       -12.6080
  22   2.0000      -0.457128       -12.4391
  23   2.0000      -0.438997       -11.9457
  24   2.0000      -0.436840       -11.8870
  25   2.0000      -0.428506       -11.6602
  26   2.0000      -0.396602       -10.7921
  27   2.0000      -0.396162       -10.7801
  28   2.0000      -0.389422       -10.5967
  29   2.0000      -0.377068       -10.2606
  30   2.0000      -0.376454       -10.2438
  31   2.0000      -0.358016        -9.7421
  32   2.0000      -0.353200        -9.6111
  33   2.0000      -0.342596        -9.3225
  34   2.0000      -0.306424        -8.3382
  35   2.0000      -0.297364        -8.0917
  36   2.0000      -0.279971        -7.6184
  37   2.0000      -0.248427        -6.7600
  38   2.0000      -0.237647        -6.4667
  39   0.0000      -0.028460        -0.7744
  40   0.0000      -0.018505        -0.5035
  41   0.0000       0.069977         1.9042
  42   0.0000       0.091378         2.4865
  43   0.0000       0.105645         2.8747

MULLIKEN ATOMIC CHARGES
-----------------------
   0 C :   -0.490336
   1 C :    0.012493
   2 O :   -0.126542
   3 C :    0.430206
   4 O :   -0.400686
   5 C :   -0.536159
   6 O :   -0.124727
   7 C :    0.429690
   8 O :   -0.400930
   9 C :   -0.536613
  10 H :    0.159105
  11 H :    0.169983
  12 H :    0.159043
  13 H :    0.199516
  14 H :    0.176433
  15 H :    0.177903
  16 H :    0.173851
  17 H :    0.172931
  18 H :    0.178062
  19 H :    0.176776
Sum of atomic charges:    0.0000000

LOEWDIN ATOMIC CHARGES
----------------------
   0 C :   -0.337657
   1 C :    0.317883
   2 O :   -0.529796
   3 C :    0.369823
   4 O :   -0.408682
   5 C :   -0.332245
   6 O :   -0.529333
   7 C :    0.369742
   8 O :   -0.408489
   9 C :   -0.332036
  10 H :    0.168202
  11 H :    0.171998
  12 H :    0.168214
  13 H :    0.233190
  14 H :    0.180281
  15 H :    0.183497
  16 H :    0.176009
  17 H :    0.176261
  18 H :    0.183769
  19 H :    0.179370

  Mayer bond orders larger than 0.100000
B(  0-C ,  1-C ) :   0.9137 B(  0-C , 10-H ) :   0.9683 B(  0-C , 11-H ) :   0.9791
B(  0-C , 12-H ) :   0.9684 B(  1-C ,  2-O ) :   0.8435 B(  1-C ,  6-O ) :   0.8423
B(  1-C , 13-H ) :   0.9442 B(  2-O ,  3-C ) :   0.9633 B(  3-C ,  4-O ) :   1.8486
B(  3-C ,  5-C ) :   0.9369 B(  5-C , 14-H ) :   0.9651 B(  5-C , 15-H ) :   0.9415
B(  5-C , 16-H ) :   0.9841 B(  6-O ,  7-C ) :   0.9608 B(  7-C ,  8-O ) :   1.8503
B(  7-C ,  9-C ) :   0.9398 B(  9-C , 17-H ) :   0.9814 B(  9-C , 18-H ) :   0.9381
B(  9-C , 19-H ) :   0.9706

Dispersion correction           -0.005515623
FINAL SINGLE POINT ENERGY      -535.488450351522

DIPOLE MOMENT
-------------

Method             : SCF
Type of density    : Electron Density
Multiplicity       :   1
Irrep              :   0
Energy             :  -535.4974736159858821 Eh
Relativity type    :
Basis              : AO
                                X                 Y                 Z
Electronic contribution:      0.394128898       2.289774966      -3.443861277
Nuclear contribution   :     -0.534878461      -3.005434469       4.695475652
                        -----------------------------------------
Total Dipole Moment    :     -0.140749562      -0.715659503       1.251614375
                        -----------------------------------------
Magnitude (a.u.)       :      1.448626075
Magnitude (Debye)      :      3.682114861

Rotational constants in cm-1:             0.063187             0.029949             0.024960
Rotational constants in MHz :          1894.310028           897.858499           748.294050

                             ****ORCA TERMINATED NORMALLY****
TOTAL RUN TIME: 0 days 0 hours 0 minutes 34 seconds 744 msec
