                         Program Version 6.0.0  -   RELEASE  -
|  1> ! r2scan-3c def2/J RI DEFGRID2 scfconv6 printgap
|  2> %output
|  3>     printlevel normal
|  4> end
|  5> %cpcm
|  6>     smd true
|  7>     smdsolvent "water"
|  8> end
|  9> * xyz 0 1
| 10> C -0.0769304046 -2.546569427 -0.024169338
| 11> C -0.0154572034 -1.0377226116 -0.1611708463
| 12> O 1.071073675 -0.5505106313 0.6144584453
| 13> C 1.8653704686 0.4171764353 0.1245389653
| 14> O 1.7399185186 0.8803799106 -0.9849786904
| 15> C 2.903615634 0.8117245676 1.1240300863
| 16> O -1.2037533483 -0.4780764739 0.3809477533
| 17> C -1.8237371827 0.5297232243 -0.257629043
| 18> O -1.4551030968 0.9671023459 -1.3224740307
| 19> C -3.007471722 1.004755137 0.5204017191
| 20> H -0.9227367758 -2.9247661198 -0.5886066319
| 21> H -0.1940233975 -2.7978582144 1.0255128846
| 22> H 0.8420399383 -2.979711709 -0.4047933027
| 23> H 0.101989747 -0.6977590768 -1.2012517504
| 24> H 3.8698902515 0.8715619161 0.6314097514
| 25> H 2.6602126761 1.8023489254 1.5022136448
| 26> H 2.9209811736 0.0992378244 1.9411059767
| 27> H -3.2895116954 0.2604410939 1.2567684706
| 28> H -2.7369106421 1.9301412404 1.0250202873
| 29> H -3.8244633307 1.2199250367 -0.1617293712
| 30> *
| 31>
| 32>                          ****END OF INPUT****

CARTESIAN COORDINATES (ANGSTROEM)
---------------------------------
  C     -0.076930   -2.546569   -0.024169
  C     -0.015457   -1.037723   -0.161171
  O      1.071074   -0.550511    0.614458
  C      1.865370    0.417176    0.124539
  O      1.739919    0.880380   -0.984979
  C      2.903616    0.811725    1.124030
  O     -1.203753   -0.478076    0.380948
  C     -1.823737    0.529723   -0.257629
  O     -1.455103    0.967102   -1.322474
  C     -3.007472    1.004755    0.520402
  H     -0.922737   -2.924766   -0.588607
  H     -0.194023   -2.797858    1.025513
  H      0.842040   -2.979712   -0.404793
  H      0.101990   -0.697759   -1.201252
  H      3.869890    0.871562    0.631410
  H      2.660213    1.802349    1.502214
  H      2.920981    0.099238    1.941106
  H     -3.289512    0.260441    1.256768
  H     -2.736911    1.930141    1.025020
  H     -3.824463    1.219925   -0.161729

 Total Charge           Charge          ....    0
 Multiplicity           Mult            ....    1
 Number of Electrons    NEL             ....   78
 Basis Dimension        Dim             ....  260

ORBITAL ENERGIES
----------------

  NO   OCC          E(Eh)            E(eV)
   0   2.0000     -19.011242      -517.3222
   1   2.0000     -19.011093      -517.3182
   2   2.0000     -18.950914      -515.6806
   3   2.0000     -18.950871      -515.6794
   4   2.0000     -10.174787      -276.8700
   5   2.0000     -10.174738      -276.8687
   6   2.0000     -10.153122      -276.2805
   7   2.0000     -10.033371      -273.0219
   8   2.0000     -10.033353      -273.0214
   9   2.0000     -10.026681      -272.8399
  10   2.0000      -1.104682       -30.0599
  11   2.0000      -1.072974       -29.1971
  12   2.0000      -1.008473       -27.4419
  13   2.0000      -0.988522       -26.8990
  14   2.0000      -0.772025       -21.0079
  15   2.0000      -0.721632       -19.6366
  16   2.0000      -0.703146       -19.1336
  17   2.0000      -0.628173       -17.0934
  18   2.0000      -0.582954       -15.8630
  19   2.0000      -0.541382       -14.7318
  20   2.0000      -0.476303       -12.9609
  21   2.0000      -0.467856       -12.7310
  22   2.0000      -0.466624       -12.6975
  23   2.0000      -0.446039       -12.1373
  24   2.0000      -0.437422       -11.9029
  25   2.0000      -0.431971       -11.7545
  26   2.0000      -0.394458       -10.7338
  27   2.0000      -0.383649       -10.4396
  28   2.0000      -0.378514       -10.2999
  29   2.0000      -0.374033       -10.1780
  30   2.0000      -0.368815       -10.0360
  31   2.0000      -0.353000        -9.6056
  32   2.0000      -0.350090        -9.5264
  33   2.0000      -0.345838        -9.4107
  34   2.0000      -0.309652        -8.4261
  35   2.0000      -0.307951        -8.3798
  36   2.0000      -0.291572        -7.9341
  37   2.0000      -0.265300        -7.2192
  38   2.0000      -0.254774        -6.9328
  39   0.0000      -0.035998        -0.9795
  40   0.0000      -0.025280        -0.6879
  41   0.0000       0.073250         1.9932
  42   0.0000       0.098448         2.6789
  43   0.0000       0.114067         3.1039

MULLIKEN ATOMIC CHARGES
-----------------------
   0 C :   -0.540699
   1 C :    0.026935
   2 O :   -0.133109
   3 C :    0.482293
   4 O :   -0.493199
   5 C :   -0.571052
   6 O :   -0.131041
   7 C :    0.480988
   8 O :   -0.493548
   9 C :   -0.571203
  10 H :    0.181754
  11 H :    0.185313
  12 H :    0.181683
  13 H :    0.199353
  14 H :    0.197464
  15 H :    0.207935
  16 H :    0.192523
  17 H :    0.192580
  18 H :    0.209715
  19 H :    0.195314
Sum of atomic charges:    0.0000000

LOEWDIN ATOMIC CHARGES
----------------------
   0 C :   -0.336905
   1 C :    0.322401
   2 O :   -0.525236
   3 C :    0.385258
   4 O :   -0.475714
   5 C :   -0.327958
   6 O :   -0.524851
   7 C :    0.385188
   8 O :   -0.475554
   9 C :   -0.327809
  10 H :    0.176857
  11 H :    0.176847
  12 H :    0.176846
  13 H :    0.231121
  14 H :    0.189063
  15 H :    0.195670
  16 H :    0.185178
  17 H :    0.185762
  18 H :    0.196586
  19 H :    0.187249

  Mayer bond orders larger than 0.100000
B(  0-C ,  1-C ) :   0.9234 B(  0-C , 10-H ) :   0.9606 B(  0-C , 11-H ) :   0.9722
B(  0-C , 12-H ) :   0.9607 B(  1-C ,  2-O ) :   0.8316 B(  1-C ,  6-O ) :   0.8305
B(  1-C , 13-H ) :   0.9378 B(  2-O ,  3-C ) :   0.9914 B(  3-C ,  4-O ) :   1.7715
B(  3-C ,  5-C ) :   0.9387 B(  5-C , 14-H ) :   0.9544 B(  5-C , 15-H ) :   0.9275
B(  5-C , 16-H ) :   0.9732 B(  6-O ,  7-C ) :   0.9888 B(  7-C ,  8-O ) :   1.7740
B(  7-C ,  9-C ) :   0.9416 B(  9-C , 17-H ) :   0.9703 B(  9-C , 18-H ) :   0.9238
B(  9-C , 19-H ) :   0.9604

Dispersion correction           -0.005515623
FINAL SINGLE POINT ENERGY      -535.501626235086

DIPOLE MOMENT
-------------

Method             : SCF
Type of density    : Electron Density
Multiplicity       :   1
Irrep              :   0
Energy             :  -535.5106494995492312 Eh
Relativity type    :
Basis              : AO
                                X                 Y                 Z
Electronic contribution:      0.329404197       1.963207755      -2.865453853
Nuclear contribution   :     -0.534878461      -3.005434469       4.695475652
                        -----------------------------------------
Total Dipole Moment    :     -0.205474264      -1.042226714       1.830021799
                        -----------------------------------------
Magnitude (a.u.)       :      2.115995270
Magnitude (Debye)      :      5.378432544

Rotational constants in cm-1:             0.063187             0.029949             0.024960
Rotational constants in MHz :          1894.310028           897.858499           748.294050

                             ****ORCA TERMINATED NORMALLY****
TOTAL RUN TIME: 0 days 0 hours 0 minutes 40 seconds 968 msec
