                         Program Version 6.0.0  -   RELEASE  -
|  1> ! pbe def2-sv(p) def2/J RI DEFGRID1 loosescf d4 GCP(DFT/SV(P)) printgap
|  2> %output
|  3>     printlevel normal
|  4> end
|  5> * xyz 0 1
|  6> C 1.0160678746 -1.2424694595 0.4921239409
|  7> C 0.9919201823 0.2754957077 0.3216781805
|  8> C 2.2457518878 0.7376809917 -0.4197531816
|  9> C -0.2549179932 0.7583619197 -0.4302892722
| 10> C -1.5846128733 0.4299043618 0.261211934
| 11> O -2.1877125978 -0.7632321851 -0.1980561999
| 12> H 0.9328803321 -1.7351497669 -0.474351832
| 13> H 0.2090874922 -1.577590095 1.1391229681
| 14> H 1.9536638526 -1.5509546099 0.9494682173
| 15> H 0.9886365841 0.7361798281 1.3164995284
| 16> H 2.2834076545 0.2931730115 -1.4118350134
| 17> H 3.1403564714 0.4424822567 0.1230583669
| 18> H 2.2514928519 1.8195549869 -0.5278808399
| 19> H -0.2750518029 0.3225839878 -1.431796083
| 20> H -0.1858185063 1.8412333178 -0.5438253365
| 21> H -1.4461947737 0.3883893143 1.3505375348
| 22> H -2.3221025122 1.2058641445 0.0430687741
| 23> H -1.5724017953 -1.4981723141 -0.0690774387
| 24> *
| 25>
| 26>                          ****END OF INPUT****

CARTESIAN COORDINATES (ANGSTROEM)
---------------------------------
  C      1.016068   -1.242469    0.492124
  C      0.991920    0.275496    0.321678
  C      2.245752    0.737681   -0.419753
  C     -0.254918    0.758362   -0.430289
  C     -1.584613    0.429904    0.261212
  O     -2.187713   -0.763232   -0.198056
  H      0.932880   -1.735150   -0.474352
  H      0.209087   -1.577590    1.139123
  H      1.953664   -1.550955    0.949468
  H      0.988637    0.736180    1.316500
  H      2.283408    0.293173   -1.411835
  H      3.140356    0.442482    0.123058
  H      2.251493    1.819555   -0.527881
  H     -0.275052    0.322584   -1.431796
  H     -0.185819    1.841233   -0.543825
  H     -1.446195    0.388389    1.350538
  H     -2.322103    1.205864    0.043069
  H     -1.572402   -1.498172   -0.069077

 Total Charge           Charge          ....    0
 Multiplicity           Mult            ....    1
 Number of Electrons    NEL             ....   50
 Basis Dimension        Dim             ....  108

ORBITAL ENERGIES
----------------

  NO   OCC          E(Eh)            E(eV)
   0   2.0000     -18.734638      -509.7954
   1   2.0000      -9.924300      -270.0539
   2   2.0000      -9.899905      -269.3901
   3   2.0000      -9.883609      -268.9467
   4   2.0000      -9.881323      -268.8845
   5   2.0000      -9.875679      -268.7309
   6   2.0000      -0.911264       -24.7967
   7   2.0000      -0.734548       -19.9881
   8   2.0000      -0.650497       -17.7009
   9   2.0000      -0.618019       -16.8171
  10   2.0000      -0.560327       -15.2473
  11   2.0000      -0.503659       -13.7053
  12   2.0000      -0.451363       -12.2822
  13   2.0000      -0.421099       -11.4587
  14   2.0000      -0.398745       -10.8504
  15   2.0000      -0.396505       -10.7894
  16   2.0000      -0.359889        -9.7931
  17   2.0000      -0.351164        -9.5557
  18   2.0000      -0.333607        -9.0779
  19   2.0000      -0.332634        -9.0514
  20   2.0000      -0.307468        -8.3666
  21   2.0000      -0.290318        -7.9000
  22   2.0000      -0.287626        -7.8267
  23   2.0000      -0.257928        -7.0186
  24   2.0000      -0.207545        -5.6476
  25   0.0000       0.023787         0.6473
  26   0.0000       0.051463         1.4004
  27   0.0000       0.056771         1.5448
  28   0.0000       0.070313         1.9133
  29   0.0000       0.086883         2.3642

MULLIKEN ATOMIC CHARGES
-----------------------
   0 C :   -0.281663
   1 C :   -0.186988
   2 C :   -0.234942
   3 C :   -0.182461
   4 C :    0.037345
   5 O :   -0.444031
   6 H :    0.100315
   7 H :    0.105367
   8 H :    0.105488
   9 H :    0.075654
  10 H :    0.094581
  11 H :    0.098650
  12 H :    0.098960
  13 H :    0.085695
  14 H :    0.081126
  15 H :    0.071220
  16 H :    0.083592
  17 H :    0.292091
Sum of atomic charges:   -0.0000000

LOEWDIN ATOMIC CHARGES
----------------------
   0 C :   -0.338515
   1 C :   -0.159615
   2 C :   -0.329021
   3 C :   -0.245851
   4 C :   -0.120852
   5 O :   -0.343245
   6 H :    0.117422
   7 H :    0.112911
   8 H :    0.122190
   9 H :    0.113790
  10 H :    0.117339
  11 H :    0.116644
  12 H :    0.117638
  13 H :    0.118739
  14 H :    0.120062
  15 H :    0.093290
  16 H :    0.113269
  17 H :    0.273806

  Mayer bond orders larger than 0.100000
B(  0-C ,  1-C ) :   1.1040 B(  0-C ,  6-H ) :   0.9466 B(  0-C ,  7-H ) :   0.9356
B(  0-C ,  8-H ) :   0.9469 B(  1-C ,  2-C ) :   1.1151 B(  1-C ,  3-C ) :   1.0963
B(  1-C ,  9-H ) :   0.9009 B(  2-C , 10-H ) :   0.9502 B(  2-C , 11-H ) :   0.9502
B(  2-C , 12-H ) :   0.9500 B(  3-C ,  4-C ) :   1.0864 B(  3-C , 13-H ) :   0.9140
B(  3-C , 14-H ) :   0.9114 B(  4-C ,  5-O ) :   1.0706 B(  4-C , 15-H ) :   0.9238
B(  4-C , 16-H ) :   0.9307 B(  5-O , 17-H ) :   0.8480

Dispersion correction           -0.013025312
FINAL SINGLE POINT ENERGY      -272.298561197822

DIPOLE MOMENT
-------------

Method             : SCF
Type of density    : Electron Density
Multiplicity       :   1
Irrep              :   0
Energy             :  -272.3686705526463925 Eh
Relativity type    :
Basis              : AO
                                X                 Y                 Z
Electronic contribution:     -4.899234356      -0.612954452      -0.200050614
Nuclear contribution   :      5.557070832       0.633749030       0.431420052
                        -----------------------------------------
Total Dipole Moment    :      0.657836476       0.020794578       0.231369438
                        -----------------------------------------
Magnitude (a.u.)       :      0.697648236
Magnitude (Debye)      :      1.773280891

Rotational constants in cm-1:             0.208231             0.067802             0.056821
Rotational constants in MHz :          6242.615520          2032.646744          1703.456986

                             ****ORCA TERMINATED NORMALLY****
TOTAL RUN TIME: 0 days 0 hours 0 minutes 8 seconds 232 msec
