                         Program Version 6.0.0  -   RELEASE  -
|  1> ! pbe def2-sv(p) def2/J RI DEFGRID1 loosescf d4 GCP(DFT/SV(P)) printgap
|  2> %output
|  3>     printlevel normal
|  4> end
|  5> * xyz 0 1
|  6> C -2.4775044254 0.9695888951 -0.3457441441
|  7> C -1.7735962097 0.0729474234 0.6771474815
|  8> C -0.517670546 -0.4902957743 0.063938698
|  9> O -0.4289933368 -1.5885389343 -0.4473697091
| 10> O 0.4811856693 0.3765036748 0.1244390601
| 11> C 1.7541161973 0.0197630384 -0.4410908878
| 12> C 2.8535822753 0.6150248148 0.4198968766
| 13> H -1.8325701938 1.7982397612 -0.6261205156
| 14> H -2.7262483045 0.4005752693 -1.2384774166
| 15> H -3.3930463977 1.3651951745 0.0832926674
| 16> H -2.4212813995 -0.7563699528 0.9586096904
| 17> H -1.5046385056 0.657234313 1.5559172861
| 18> H 1.8182225714 -1.0718882038 -0.4903951507
| 19> H 1.7866027674 0.4226545071 -1.4577969599
| 20> H 2.7364634626 1.6931725807 0.476280786
| 21> H 2.8093879498 0.2043977403 1.424753047
| 22> H 3.8180876077 0.3809835205 -0.0185322251
| 23> *
| 24>
| 25>                          ****END OF INPUT****

CARTESIAN COORDINATES (ANGSTROEM)
---------------------------------
  C     -2.477504    0.969589   -0.345744
  C     -1.773596    0.072947    0.677147
  C     -0.517671   -0.490296    0.063939
  O     -0.428993   -1.588539   -0.447370
  O      0.481186    0.376504    0.124439
  C      1.754116    0.019763   -0.441091
  C      2.853582    0.615025    0.419897
  H     -1.832570    1.798240   -0.626121
  H     -2.726248    0.400575   -1.238477
  H     -3.393046    1.365195    0.083293
  H     -2.421281   -0.756370    0.958610
  H     -1.504639    0.657234    1.555917
  H      1.818223   -1.071888   -0.490395
  H      1.786603    0.422655   -1.457797
  H      2.736463    1.693173    0.476281
  H      2.809388    0.204398    1.424753
  H      3.818088    0.380984   -0.018532

 Total Charge           Charge          ....    0
 Multiplicity           Mult            ....    1
 Number of Electrons    NEL             ....   56
 Basis Dimension        Dim             ....  118

ORBITAL ENERGIES
----------------

  NO   OCC          E(Eh)            E(eV)
   0   2.0000     -18.797042      -511.4935
   1   2.0000     -18.728267      -509.6221
   2   2.0000     -10.003221      -272.2015
   3   2.0000      -9.945688      -270.6359
   4   2.0000      -9.897931      -269.3364
   5   2.0000      -9.889437      -269.1053
   6   2.0000      -9.887816      -269.0612
   7   2.0000      -1.003370       -27.3031
   8   2.0000      -0.905858       -24.6496
   9   2.0000      -0.722677       -19.6650
  10   2.0000      -0.688989       -18.7483
  11   2.0000      -0.603053       -16.4099
  12   2.0000      -0.559989       -15.2381
  13   2.0000      -0.505334       -13.7508
  14   2.0000      -0.453444       -12.3388
  15   2.0000      -0.428690       -11.6652
  16   2.0000      -0.416039       -11.3210
  17   2.0000      -0.394739       -10.7414
  18   2.0000      -0.386085       -10.5059
  19   2.0000      -0.359985        -9.7957
  20   2.0000      -0.354098        -9.6355
  21   2.0000      -0.346154        -9.4193
  22   2.0000      -0.324367        -8.8265
  23   2.0000      -0.315054        -8.5731
  24   2.0000      -0.310684        -8.4541
  25   2.0000      -0.291438        -7.9304
  26   2.0000      -0.253730        -6.9044
  27   2.0000      -0.213157        -5.8003
  28   0.0000      -0.017687        -0.4813
  29   0.0000       0.041720         1.1353
  30   0.0000       0.055942         1.5223
  31   0.0000       0.079882         2.1737
  32   0.0000       0.089217         2.4277

MULLIKEN ATOMIC CHARGES
-----------------------
   0 C :   -0.303776
   1 C :   -0.130920
   2 C :    0.093847
   3 O :   -0.210171
   4 O :   -0.246197
   5 C :   -0.026292
   6 C :   -0.282609
   7 H :    0.112307
   8 H :    0.116463
   9 H :    0.116012
  10 H :    0.104050
  11 H :    0.100762
  12 H :    0.115343
  13 H :    0.102266
  14 H :    0.113538
  15 H :    0.113972
  16 H :    0.111405
Sum of atomic charges:    0.0000000

LOEWDIN ATOMIC CHARGES
----------------------
   0 C :   -0.330976
   1 C :   -0.249054
   2 C :    0.034509
   3 O :   -0.172779
   4 O :   -0.071309
   5 C :   -0.111768
   6 C :   -0.351093
   7 H :    0.122099
   8 H :    0.125165
   9 H :    0.123880
  10 H :    0.134024
  11 H :    0.131045
  12 H :    0.119792
  13 H :    0.115273
  14 H :    0.125239
  15 H :    0.126131
  16 H :    0.129822

  Mayer bond orders larger than 0.100000
B(  0-C ,  1-C ) :   1.1410 B(  0-C ,  7-H ) :   0.9541 B(  0-C ,  8-H ) :   0.9534
B(  0-C ,  9-H ) :   0.9525 B(  1-C ,  2-C ) :   1.0247 B(  1-C , 10-H ) :   0.9120
B(  1-C , 11-H ) :   0.9063 B(  2-C ,  3-O ) :   2.0652 B(  2-C ,  4-O ) :   1.1963
B(  4-O ,  5-C ) :   0.9118 B(  5-C ,  6-C ) :   1.1605 B(  5-C , 12-H ) :   0.9128
B(  5-C , 13-H ) :   0.9356 B(  6-C , 14-H ) :   0.9490 B(  6-C , 15-H ) :   0.9523
B(  6-C , 16-H ) :   0.9449

Dispersion correction           -0.011679764
FINAL SINGLE POINT ENERGY      -346.243412510389

DIPOLE MOMENT
-------------

Method             : SCF
Type of density    : Electron Density
Multiplicity       :   1
Irrep              :   0
Energy             :  -346.3080116872140479 Eh
Relativity type    :
Basis              : AO
                                X                 Y                 Z
Electronic contribution:     -0.742705087      -4.033087917      -0.429824415
Nuclear contribution   :      1.024295050       4.761236570       0.621468066
                        -----------------------------------------
Total Dipole Moment    :      0.281589964       0.728148653       0.191643651
                        -----------------------------------------
Magnitude (a.u.)       :      0.803878509
Magnitude (Debye)      :      2.043296787

Rotational constants in cm-1:             0.174156             0.048705             0.042328
Rotational constants in MHz :          5221.056298          1460.138510          1268.961226

                             ****ORCA TERMINATED NORMALLY****
TOTAL RUN TIME: 0 days 0 hours 0 minutes 9 seconds 90 msec
