                         Program Version 6.0.0  -   RELEASE  -
|  1> ! r2scan-3c def2/J RI DEFGRID2 scfconv6 printgap
|  2> %output
|  3>     printlevel normal
|  4> end
|  5> * xyz 0 1
|  6> C -2.9655168806 0.000408474 0.2398408824
|  7> C -1.6516697986 0.7674955093 0.1708701577
|  8> C -0.4883652834 -0.1270996245 -0.1722339535
|  9> O -0.570663867 -1.2366246653 -0.6560114311
| 10> O 0.6700466581 0.4576426306 0.1107289377
| 11> C 1.878961974 -0.2635167343 -0.1838537371
| 12> C 3.0337998502 0.4499489367 0.492089505
| 13> H -3.1320940873 -0.5381212641 -0.6896096755
| 14> H -2.9396368792 -0.7257975678 1.0481522712
| 15> H -3.7908005166 0.6853369556 0.4073486511
| 16> H -1.4284225619 1.2703783232 1.1118431453
| 17> H -1.7007699736 1.5322339679 -0.6078308538
| 18> H 1.7655185857 -1.2916161082 0.175504925
| 19> H 2.0038000301 -0.2928365882 -1.271199165
| 20> H 2.8826500444 0.4693935633 1.5673613207
| 21> H 3.9581121209 -0.0726497472 0.26950826
| 22> H 3.1014937431 1.4711760629 0.1296341182
| 23> *
| 24>
| 25>                          ****END OF INPUT****

CARTESIAN COORDINATES (ANGSTROEM)
---------------------------------
  C     -2.965517    0.000408    0.239841
  C     -1.651670    0.767496    0.170870
  C     -0.488365   -0.127100   -0.172234
  O     -0.570664   -1.236625   -0.656011
  O      0.670047    0.457643    0.110729
  C      1.878962   -0.263517   -0.183854
  C      3.033800    0.449949    0.492090
  H     -3.132094   -0.538121   -0.689610
  H     -2.939637   -0.725798    1.048152
  H     -3.790801    0.685337    0.407349
  H     -1.428423    1.270378    1.111843
  H     -1.700770    1.532234   -0.607831
  H      1.765519   -1.291616    0.175505
  H      2.003800   -0.292837   -1.271199
  H      2.882650    0.469394    1.567361
  H      3.958112   -0.072650    0.269508
  H      3.101494    1.471176    0.129634

 Total Charge           Charge          ....    0
 Multiplicity           Mult            ....    1
 Number of Electrons    NEL             ....   56
 Basis Dimension        Dim             ....  193

ORBITAL ENERGIES
----------------

  NO   OCC          E(Eh)            E(eV)
   0   2.0000     -18.995316      -516.8888
   1   2.0000     -18.928317      -515.0657
   2   2.0000     -10.151108      -276.2257
   3   2.0000     -10.091126      -274.5935
   4   2.0000     -10.044403      -273.3221
   5   2.0000     -10.031973      -272.9839
   6   2.0000     -10.021665      -272.7034
   7   2.0000      -1.070644       -29.1337
   8   2.0000      -0.974859       -26.5273
   9   2.0000      -0.763803       -20.7841
  10   2.0000      -0.733125       -19.9494
  11   2.0000      -0.640872       -17.4390
  12   2.0000      -0.587477       -15.9861
  13   2.0000      -0.530107       -14.4249
  14   2.0000      -0.467470       -12.7205
  15   2.0000      -0.465211       -12.6590
  16   2.0000      -0.436469       -11.8769
  17   2.0000      -0.425564       -11.5802
  18   2.0000      -0.383091       -10.4244
  19   2.0000      -0.379742       -10.3333
  20   2.0000      -0.374419       -10.1885
  21   2.0000      -0.342841        -9.3292
  22   2.0000      -0.339674        -9.2430
  23   2.0000      -0.332410        -9.0453
  24   2.0000      -0.315420        -8.5830
  25   2.0000      -0.312173        -8.4947
  26   2.0000      -0.271212        -7.3800
  27   2.0000      -0.235675        -6.4130
  28   0.0000      -0.012592        -0.3426
  29   0.0000       0.076724         2.0878
  30   0.0000       0.094045         2.5591
  31   0.0000       0.107026         2.9123
  32   0.0000       0.131158         3.5690

MULLIKEN ATOMIC CHARGES
-----------------------
   0 C :   -0.457408
   1 C :   -0.262849
   2 C :    0.357321
   3 O :   -0.427008
   4 O :   -0.162340
   5 C :   -0.151240
   6 C :   -0.440411
   7 H :    0.163700
   8 H :    0.148297
   9 H :    0.145325
  10 H :    0.160055
  11 H :    0.161369
  12 H :    0.164776
  13 H :    0.149232
  14 H :    0.152217
  15 H :    0.147040
  16 H :    0.151924
Sum of atomic charges:    0.0000000

LOEWDIN ATOMIC CHARGES
----------------------
   0 C :   -0.402069
   1 C :   -0.240603
   2 C :    0.359828
   3 O :   -0.430715
   4 O :   -0.600902
   5 C :    0.033202
   6 C :   -0.386943
   7 H :    0.165618
   8 H :    0.157736
   9 H :    0.150310
  10 H :    0.177401
  11 H :    0.180237
  12 H :    0.183519
  13 H :    0.175665
  14 H :    0.159092
  15 H :    0.159403
  16 H :    0.159221

  Mayer bond orders larger than 0.100000
B(  0-C ,  1-C ) :   0.9303 B(  0-C ,  7-H ) :   0.9694 B(  0-C ,  8-H ) :   0.9768
B(  0-C ,  9-H ) :   0.9730 B(  1-C ,  2-C ) :   0.9887 B(  1-C , 10-H ) :   0.9629
B(  1-C , 11-H ) :   0.9284 B(  2-C ,  3-O ) :   1.8222 B(  2-C ,  4-O ) :   1.0973
B(  4-O ,  5-C ) :   0.7985 B(  5-C ,  6-C ) :   0.9424 B(  5-C , 12-H ) :   0.9599
B(  5-C , 13-H ) :   0.9472 B(  6-C , 14-H ) :   0.9742 B(  6-C , 15-H ) :   0.9681
B(  6-C , 16-H ) :   0.9700

Dispersion correction           -0.003821621
FINAL SINGLE POINT ENERGY      -346.937536451399

DIPOLE MOMENT
-------------

Method             : SCF
Type of density    : Electron Density
Multiplicity       :   1
Irrep              :   0
Energy             :  -346.9440856532062867 Eh
Relativity type    :
Basis              : AO
                                X                 Y                 Z
Electronic contribution:     -0.281331615      -1.687834229      -1.704649419
Nuclear contribution   :      0.676813599       2.340902694       2.000262278
                        -----------------------------------------
Total Dipole Moment    :      0.395481985       0.653068465       0.295612859
                        -----------------------------------------
Magnitude (a.u.)       :      0.818713248
Magnitude (Debye)      :      2.081003697

Rotational constants in cm-1:             0.253702             0.042650             0.037955
Rotational constants in MHz :          7605.784512          1278.616391          1137.850643

                             ****ORCA TERMINATED NORMALLY****
TOTAL RUN TIME: 0 days 0 hours 0 minutes 20 seconds 781 msec
