                         Program Version 6.0.0  -   RELEASE  -
|  1> ! r2scan-3c def2/J RI DEFGRID2 scfconv6 printgap
|  2> %output
|  3>     printlevel normal
|  4> end
|  5> %cpcm
|  6>     smd true
|  7>     smdsolvent "water"
|  8> end
|  9> * xyz 0 1
| 10> C -2.9655168806 0.000408474 0.2398408824
| 11> C -1.6516697986 0.7674955093 0.1708701577
| 12> C -0.4883652834 -0.1270996245 -0.1722339535
| 13> O -0.570663867 -1.2366246653 -0.6560114311
| 14> O 0.6700466581 0.4576426306 0.1107289377
| 15> C 1.878961974 -0.2635167343 -0.1838537371
| 16> C 3.0337998502 0.4499489367 0.492089505
| 17> H -3.1320940873 -0.5381212641 -0.6896096755
| 18> H -2.9396368792 -0.7257975678 1.0481522712
| 19> H -3.7908005166 0.6853369556 0.4073486511
| 20> H -1.4284225619 1.2703783232 1.1118431453
| 21> H -1.7007699736 1.5322339679 -0.6078308538
| 22> H 1.7655185857 -1.2916161082 0.175504925
| 23> H 2.0038000301 -0.2928365882 -1.271199165
| 24> H 2.8826500444 0.4693935633 1.5673613207
| 25> H 3.9581121209 -0.0726497472 0.26950826
| 26> H 3.1014937431 1.4711760629 0.1296341182
| 27> *
| 28>
| 29>                          ****END OF INPUT****

CARTESIAN COORDINATES (ANGSTROEM)
---------------------------------
  C     -2.965517    0.000408    0.239841
  C     -1.651670    0.767496    0.170870
  C     -0.488365   -0.127100   -0.172234
  O     -0.570664   -1.236625   -0.656011
  O      0.670047    0.457643    0.110729
  C      1.878962   -0.263517   -0.183854
  C      3.033800    0.449949    0.492090
  H     -3.132094   -0.538121   -0.689610
  H     -2.939637   -0.725798    1.048152
  H     -3.790801    0.685337    0.407349
  H     -1.428423    1.270378    1.111843
  H     -1.700770    1.532234   -0.607831
  H      1.765519   -1.291616    0.175505
  H      2.003800   -0.292837   -1.271199
  H      2.882650    0.469394    1.567361
  H      3.958112   -0.072650    0.269508
  H      3.101494    1.471176    0.129634

 Total Charge           Charge          ....    0
 Multiplicity           Mult            ....    1
 Number of Electrons    NEL             ....   56
 Basis Dimension        Dim             ....  193

ORBITAL ENERGIES
----------------

  NO   OCC          E(Eh)            E(eV)
   0   2.0000     -19.001198      -517.0489
   1   2.0000     -18.944449      -515.5047
   2   2.0000     -10.162004      -276.5222
   3   2.0000     -10.083601      -274.3887
   4   2.0000     -10.038294      -273.1559
   5   2.0000     -10.018683      -272.6222
   6   2.0000     -10.016723      -272.5689
   7   2.0000      -1.078381       -29.3442
   8   2.0000      -0.988680       -26.9033
   9   2.0000      -0.759939       -20.6790
  10   2.0000      -0.725868       -19.7519
  11   2.0000      -0.635989       -17.3061
  12   2.0000      -0.581126       -15.8132
  13   2.0000      -0.529573       -14.4104
  14   2.0000      -0.470407       -12.8004
  15   2.0000      -0.465097       -12.6559
  16   2.0000      -0.444895       -12.1062
  17   2.0000      -0.422716       -11.5027
  18   2.0000      -0.381983       -10.3943
  19   2.0000      -0.377627       -10.2758
  20   2.0000      -0.363592        -9.8938
  21   2.0000      -0.337131        -9.1738
  22   2.0000      -0.334645        -9.1062
  23   2.0000      -0.328370        -8.9354
  24   2.0000      -0.314338        -8.5536
  25   2.0000      -0.312756        -8.5105
  26   2.0000      -0.276452        -7.5227
  27   2.0000      -0.252543        -6.8720
  28   0.0000      -0.020787        -0.5656
  29   0.0000       0.079685         2.1683
  30   0.0000       0.100665         2.7392
  31   0.0000       0.118411         3.2221
  32   0.0000       0.138906         3.7798

MULLIKEN ATOMIC CHARGES
-----------------------
   0 C :   -0.512206
   1 C :   -0.261241
   2 C :    0.400403
   3 O :   -0.513109
   4 O :   -0.180276
   5 C :   -0.153352
   6 C :   -0.488572
   7 H :    0.161695
   8 H :    0.164758
   9 H :    0.166492
  10 H :    0.181268
  11 H :    0.192949
  12 H :    0.171338
  13 H :    0.171435
  14 H :    0.165444
  15 H :    0.168732
  16 H :    0.164240
Sum of atomic charges:    0.0000000

LOEWDIN ATOMIC CHARGES
----------------------
   0 C :   -0.408757
   1 C :   -0.236085
   2 C :    0.371887
   3 O :   -0.492177
   4 O :   -0.603182
   5 C :    0.035514
   6 C :   -0.390052
   7 H :    0.161841
   8 H :    0.159792
   9 H :    0.159021
  10 H :    0.187212
  11 H :    0.192720
  12 H :    0.186283
  13 H :    0.182997
  14 H :    0.162335
  15 H :    0.168140
  16 H :    0.162510

  Mayer bond orders larger than 0.100000
B(  0-C ,  1-C ) :   0.8978 B(  0-C ,  7-H ) :   0.9723 B(  0-C ,  8-H ) :   0.9789
B(  0-C ,  9-H ) :   0.9661 B(  1-C ,  2-C ) :   0.9967 B(  1-C , 10-H ) :   0.9517
B(  1-C , 11-H ) :   0.9169 B(  2-C ,  3-O ) :   1.7571 B(  2-C ,  4-O ) :   1.1233
B(  4-O ,  5-C ) :   0.7853 B(  5-C ,  6-C ) :   0.9423 B(  5-C , 12-H ) :   0.9537
B(  5-C , 13-H ) :   0.9388 B(  6-C , 14-H ) :   0.9727 B(  6-C , 15-H ) :   0.9616
B(  6-C , 16-H ) :   0.9675

Dispersion correction           -0.003821621
FINAL SINGLE POINT ENERGY      -346.943112874518

DIPOLE MOMENT
-------------

Method             : SCF
Type of density    : Electron Density
Multiplicity       :   1
Irrep              :   0
Energy             :  -346.9496620763253532 Eh
Relativity type    :
Basis              : AO
                                X                 Y                 Z
Electronic contribution:     -0.161675356      -1.373368647      -1.581637647
Nuclear contribution   :      0.676813599       2.340902694       2.000262278
                        -----------------------------------------
Total Dipole Moment    :      0.515138243       0.967534047       0.418624631
                        -----------------------------------------
Magnitude (a.u.)       :      1.173343992
Magnitude (Debye)      :      2.982403413

Rotational constants in cm-1:             0.253702             0.042650             0.037955
Rotational constants in MHz :          7605.784512          1278.616391          1137.850643

                             ****ORCA TERMINATED NORMALLY****
TOTAL RUN TIME: 0 days 0 hours 0 minutes 26 seconds 383 msec
