                         Program Version 6.0.0  -   RELEASE  -
|  1> ! pbe def2-sv(p) def2/J RI DEFGRID1 loosescf d4 GCP(DFT/SV(P)) printgap
|  2> %output
|  3>     printlevel normal
|  4> end
|  5> * xyz 0 1
|  6> C -2.9753218905 -1.1269150629 -0.473463729
|  7> C -1.806419558 -0.387657807 0.1796439455
|  8> C -2.3403607232 0.7096221813 1.0971119803
|  9> C -0.894511473 0.1730376088 -0.9185124778
| 10> C 0.3698017653 0.924259168 -0.4840042457
| 11> C 1.5895729986 0.1187957592 0.0116198297
| 12> C 1.9320335052 -1.0229787827 -0.9481554808
| 13> C 2.7773357355 1.0909537532 0.059280429
| 14> C 1.3867142883 -0.4451524859 1.4201051551
| 15> H -3.6262222342 -1.5577824033 0.2839463651
| 16> H -2.6150699126 -1.9303683725 -1.112230981
| 17> H -3.563641876 -0.4432650418 -1.0821216693
| 18> H -1.2525260671 -1.1083176759 0.7858721277
| 19> H -1.5377058462 1.1768751395 1.660622442
| 20> H -2.8475052929 1.476309548 0.5147891878
| 21> H -3.0504448892 0.2926074375 1.8077507613
| 22> H -0.6149654959 -0.641151105 -1.5884924706
| 23> H -1.4945035581 0.8745273625 -1.5063590547
| 24> H 0.1086909557 1.6572054336 0.281020724
| 25> H 0.7040931921 1.4888069543 -1.3592691941
| 26> H 2.0157420754 -0.6540293801 -1.9680279716
| 27> H 2.8821971248 -1.4723804632 -0.6676571606
| 28> H 1.172628989 -1.8000344892 -0.9193784903
| 29> H 3.6670224023 0.5895342677 0.4336507964
| 30> H 2.9980030846 1.4797740613 -0.9323402904
| 31> H 2.557253626 1.9304701233 0.7152308749
| 32> H 1.056627583 0.3335001765 2.1037883666
| 33> H 2.3240840937 -0.8517527866 1.7948313074
| 34> H 0.6533359344 -1.2452768675 1.4261822909
| 35> *
| 36>
| 37>                          ****END OF INPUT****

CARTESIAN COORDINATES (ANGSTROEM)
---------------------------------
  C     -2.975322   -1.126915   -0.473464
  C     -1.806420   -0.387658    0.179644
  C     -2.340361    0.709622    1.097112
  C     -0.894511    0.173038   -0.918512
  C      0.369802    0.924259   -0.484004
  C      1.589573    0.118796    0.011620
  C      1.932034   -1.022979   -0.948155
  C      2.777336    1.090954    0.059280
  C      1.386714   -0.445152    1.420105
  H     -3.626222   -1.557782    0.283946
  H     -2.615070   -1.930368   -1.112231
  H     -3.563642   -0.443265   -1.082122
  H     -1.252526   -1.108318    0.785872
  H     -1.537706    1.176875    1.660622
  H     -2.847505    1.476310    0.514789
  H     -3.050445    0.292607    1.807751
  H     -0.614965   -0.641151   -1.588492
  H     -1.494504    0.874527   -1.506359
  H      0.108691    1.657205    0.281021
  H      0.704093    1.488807   -1.359269
  H      2.015742   -0.654029   -1.968028
  H      2.882197   -1.472380   -0.667657
  H      1.172629   -1.800034   -0.919378
  H      3.667022    0.589534    0.433651
  H      2.998003    1.479774   -0.932340
  H      2.557254    1.930470    0.715231
  H      1.056628    0.333500    2.103788
  H      2.324084   -0.851753    1.794831
  H      0.653336   -1.245277    1.426182

 Total Charge           Charge          ....    0
 Multiplicity           Mult            ....    1
 Number of Electrons    NEL             ....   74
 Basis Dimension        Dim             ....  166

ORBITAL ENERGIES
----------------

  NO   OCC          E(Eh)            E(eV)
   0   2.0000      -9.902118      -269.4503
   1   2.0000      -9.888732      -269.0861
   2   2.0000      -9.876418      -268.7510
   3   2.0000      -9.876261      -268.7467
   4   2.0000      -9.868716      -268.5414
   5   2.0000      -9.868371      -268.5320
   6   2.0000      -9.868043      -268.5231
   7   2.0000      -9.867653      -268.5125
   8   2.0000      -9.867383      -268.5051
   9   2.0000      -0.747139       -20.3307
  10   2.0000      -0.718694       -19.5567
  11   2.0000      -0.644837       -17.5469
  12   2.0000      -0.610898       -16.6234
  13   2.0000      -0.608713       -16.5639
  14   2.0000      -0.605875       -16.4867
  15   2.0000      -0.557599       -15.1730
  16   2.0000      -0.495681       -13.4882
  17   2.0000      -0.462744       -12.5919
  18   2.0000      -0.423443       -11.5225
  19   2.0000      -0.407829       -11.0976
  20   2.0000      -0.401765       -10.9326
  21   2.0000      -0.387069       -10.5327
  22   2.0000      -0.383585       -10.4379
  23   2.0000      -0.364561        -9.9202
  24   2.0000      -0.348337        -9.4787
  25   2.0000      -0.343548        -9.3484
  26   2.0000      -0.336232        -9.1493
  27   2.0000      -0.328028        -8.9261
  28   2.0000      -0.319435        -8.6923
  29   2.0000      -0.318294        -8.6612
  30   2.0000      -0.308967        -8.4074
  31   2.0000      -0.291912        -7.9433
  32   2.0000      -0.283728        -7.7206
  33   2.0000      -0.282288        -7.6814
  34   2.0000      -0.267920        -7.2905
  35   2.0000      -0.260840        -7.0978
  36   2.0000      -0.258197        -7.0259
  37   0.0000       0.024593         0.6692
  38   0.0000       0.049988         1.3602
  39   0.0000       0.058473         1.5911
  40   0.0000       0.062866         1.7107
  41   0.0000       0.081094         2.2067

MULLIKEN ATOMIC CHARGES
-----------------------
   0 C :   -0.232348
   1 C :   -0.193893
   2 C :   -0.256352
   3 C :   -0.119413
   4 C :   -0.093071
   5 C :   -0.259884
   6 C :   -0.221548
   7 C :   -0.204794
   8 C :   -0.216240
   9 H :    0.095748
  10 H :    0.094564
  11 H :    0.089229
  12 H :    0.080469
  13 H :    0.108830
  14 H :    0.089982
  15 H :    0.095666
  16 H :    0.077177
  17 H :    0.068242
  18 H :    0.074086
  19 H :    0.068278
  20 H :    0.093613
  21 H :    0.091737
  22 H :    0.103484
  23 H :    0.091875
  24 H :    0.091566
  25 H :    0.091246
  26 H :    0.094215
  27 H :    0.088864
  28 H :    0.108673
Sum of atomic charges:   -0.0000000

LOEWDIN ATOMIC CHARGES
----------------------
   0 C :   -0.327367
   1 C :   -0.161352
   2 C :   -0.330487
   3 C :   -0.217882
   4 C :   -0.209240
   5 C :   -0.105242
   6 C :   -0.318057
   7 C :   -0.315531
   8 C :   -0.318595
   9 H :    0.115449
  10 H :    0.115198
  11 H :    0.114919
  12 H :    0.113298
  13 H :    0.115233
  14 H :    0.116153
  15 H :    0.117596
  16 H :    0.114385
  17 H :    0.115193
  18 H :    0.113241
  19 H :    0.115801
  20 H :    0.116257
  21 H :    0.117070
  22 H :    0.115258
  23 H :    0.113501
  24 H :    0.114041
  25 H :    0.115069
  26 H :    0.115611
  27 H :    0.115948
  28 H :    0.114530

  Mayer bond orders larger than 0.100000
B(  0-C ,  1-C ) :   1.1103 B(  0-C ,  9-H ) :   0.9505 B(  0-C , 10-H ) :   0.9501
B(  0-C , 11-H ) :   0.9491 B(  1-C ,  2-C ) :   1.1086 B(  1-C ,  3-C ) :   1.0948
B(  1-C , 12-H ) :   0.8876 B(  2-C , 13-H ) :   0.9419 B(  2-C , 14-H ) :   0.9488
B(  2-C , 15-H ) :   0.9493 B(  3-C ,  4-C ) :   1.1362 B(  3-C , 16-H ) :   0.9075
B(  3-C , 17-H ) :   0.9054 B(  4-C ,  5-C ) :   1.0486 B(  4-C , 18-H ) :   0.9084
B(  4-C , 19-H ) :   0.9053 B(  5-C ,  6-C ) :   1.0775 B(  5-C ,  7-C ) :   1.0723
B(  5-C ,  8-C ) :   1.0829 B(  6-C , 20-H ) :   0.9466 B(  6-C , 21-H ) :   0.9458
B(  6-C , 22-H ) :   0.9392 B(  7-C , 23-H ) :   0.9458 B(  7-C , 24-H ) :   0.9459
B(  7-C , 25-H ) :   0.9488 B(  8-C , 26-H ) :   0.9442 B(  8-C , 27-H ) :   0.9423
B(  8-C , 28-H ) :   0.9339

Dispersion correction           -0.026723443
FINAL SINGLE POINT ENERGY      -354.085547839843

DIPOLE MOMENT
-------------

Method             : SCF
Type of density    : Electron Density
Multiplicity       :   1
Irrep              :   0
Energy             :  -354.1821952597064751 Eh
Relativity type    :
Basis              : AO
                                X                 Y                 Z
Electronic contribution:      0.458008612       0.356391456      -0.620493717
Nuclear contribution   :     -0.434280824      -0.379719183       0.630264558
                        -----------------------------------------
Total Dipole Moment    :      0.023727788      -0.023327727       0.009770840
                        -----------------------------------------
Magnitude (a.u.)       :      0.034679390
Magnitude (Debye)      :      0.088148004

Rotational constants in cm-1:             0.089492             0.027977             0.026399
Rotational constants in MHz :          2682.893394           838.728722           791.413918

                             ****ORCA TERMINATED NORMALLY****
TOTAL RUN TIME: 0 days 0 hours 0 minutes 14 seconds 824 msec
