                         Program Version 6.0.0  -   RELEASE  -
|  1> ! pbe def2-sv(p) def2/J RI DEFGRID1 loosescf d4 GCP(DFT/SV(P)) printgap
|  2> %output
|  3>     printlevel normal
|  4> end
|  5> * xyz 0 1
|  6> C -3.2569141644 0.4678806305 0.0913947789
|  7> C -1.9487368912 -0.2166412523 -0.2829739357
|  8> C -0.7471174866 0.5209087381 0.3012216991
|  9> C 0.5578104229 -0.1383057976 -0.0549391637
| 10> O 0.6849619461 -1.1402751381 -0.7253177652
| 11> O 1.5914404076 0.5220021369 0.4643659332
| 12> C 2.9002036419 0.0064856726 0.2059707655
| 13> H -4.0990061296 -0.0714338505 -0.3331243428
| 14> H -3.3761371678 0.4974220995 1.1715377472
| 15> H -3.2753072426 1.4872336655 -0.285930714
| 16> H -1.8463647593 -0.2600394958 -1.3687807783
| 17> H -1.9467905533 -1.2453580489 0.0818318637
| 18> H -0.8111913743 0.5649377776 1.3902778274
| 19> H -0.7099211159 1.5500426311 -0.0615043861
| 20> H 3.584866426 0.6844353349 0.7053499263
| 21> H 3.085802414 -0.0186805829 -0.868419572
| 22> H 2.9880808667 -1.0047937293 0.6046941625
| 23> *
| 24>
| 25>                          ****END OF INPUT****

CARTESIAN COORDINATES (ANGSTROEM)
---------------------------------
  C     -3.256914    0.467881    0.091395
  C     -1.948737   -0.216641   -0.282974
  C     -0.747117    0.520909    0.301222
  C      0.557810   -0.138306   -0.054939
  O      0.684962   -1.140275   -0.725318
  O      1.591440    0.522002    0.464366
  C      2.900204    0.006486    0.205971
  H     -4.099006   -0.071434   -0.333124
  H     -3.376137    0.497422    1.171538
  H     -3.275307    1.487234   -0.285931
  H     -1.846365   -0.260039   -1.368781
  H     -1.946791   -1.245358    0.081832
  H     -0.811191    0.564938    1.390278
  H     -0.709921    1.550043   -0.061504
  H      3.584866    0.684435    0.705350
  H      3.085802   -0.018681   -0.868420
  H      2.988081   -1.004794    0.604694

 Total Charge           Charge          ....    0
 Multiplicity           Mult            ....    1
 Number of Electrons    NEL             ....   56
 Basis Dimension        Dim             ....  118

ORBITAL ENERGIES
----------------

  NO   OCC          E(Eh)            E(eV)
   0   2.0000     -18.797031      -511.4932
   1   2.0000     -18.733521      -509.7650
   2   2.0000     -10.004856      -272.2460
   3   2.0000      -9.941070      -270.5103
   4   2.0000      -9.898493      -269.3517
   5   2.0000      -9.886258      -269.0187
   6   2.0000      -9.876605      -268.7561
   7   2.0000      -1.003729       -27.3129
   8   2.0000      -0.909179       -24.7400
   9   2.0000      -0.723235       -19.6802
  10   2.0000      -0.673021       -18.3138
  11   2.0000      -0.619588       -16.8599
  12   2.0000      -0.535300       -14.5662
  13   2.0000      -0.498760       -13.5719
  14   2.0000      -0.448848       -12.2138
  15   2.0000      -0.444898       -12.1063
  16   2.0000      -0.414225       -11.2716
  17   2.0000      -0.411090       -11.1863
  18   2.0000      -0.378964       -10.3121
  19   2.0000      -0.366060        -9.9610
  20   2.0000      -0.363858        -9.9011
  21   2.0000      -0.323998        -8.8164
  22   2.0000      -0.318614        -8.6699
  23   2.0000      -0.301245        -8.1973
  24   2.0000      -0.296149        -8.0586
  25   2.0000      -0.292145        -7.9497
  26   2.0000      -0.256904        -6.9907
  27   2.0000      -0.219015        -5.9597
  28   0.0000      -0.018160        -0.4942
  29   0.0000       0.036723         0.9993
  30   0.0000       0.059262         1.6126
  31   0.0000       0.081422         2.2156
  32   0.0000       0.082180         2.2362

MULLIKEN ATOMIC CHARGES
-----------------------
   0 C :   -0.253089
   1 C :   -0.196808
   2 C :   -0.185273
   3 C :    0.126202
   4 O :   -0.209279
   5 O :   -0.244642
   6 C :   -0.106367
   7 H :    0.105583
   8 H :    0.095650
   9 H :    0.095533
  10 H :    0.098770
  11 H :    0.098742
  12 H :    0.109403
  13 H :    0.109380
  14 H :    0.120243
  15 H :    0.118042
  16 H :    0.117912
Sum of atomic charges:    0.0000000

LOEWDIN ATOMIC CHARGES
----------------------
   0 C :   -0.339498
   1 C :   -0.230242
   2 C :   -0.251409
   3 C :    0.036907
   4 O :   -0.164138
   5 O :   -0.081289
   6 C :   -0.202801
   7 H :    0.121113
   8 H :    0.116421
   9 H :    0.116395
  10 H :    0.121969
  11 H :    0.121954
  12 H :    0.138549
  13 H :    0.138522
  14 H :    0.119942
  15 H :    0.118829
  16 H :    0.118776

  Mayer bond orders larger than 0.100000
B(  0-C ,  1-C ) :   1.1533 B(  0-C ,  7-H ) :   0.9541 B(  0-C ,  8-H ) :   0.9533
B(  0-C ,  9-H ) :   0.9533 B(  1-C ,  2-C ) :   1.1328 B(  1-C , 10-H ) :   0.9275
B(  1-C , 11-H ) :   0.9275 B(  2-C ,  3-C ) :   1.0202 B(  2-C , 12-H ) :   0.8980
B(  2-C , 13-H ) :   0.8981 B(  3-C ,  4-O ) :   2.0543 B(  3-C ,  5-O ) :   1.2135
B(  5-O ,  6-C ) :   0.9410 B(  6-C , 14-H ) :   0.9597 B(  6-C , 15-H ) :   0.9525
B(  6-C , 16-H ) :   0.9527

Dispersion correction           -0.011707583
FINAL SINGLE POINT ENERGY      -346.240831024804

DIPOLE MOMENT
-------------

Method             : SCF
Type of density    : Electron Density
Multiplicity       :   1
Irrep              :   0
Energy             :  -346.3056463578961939 Eh
Relativity type    :
Basis              : AO
                                X                 Y                 Z
Electronic contribution:      6.204171179      -1.534741097      -0.610022020
Nuclear contribution   :     -5.976119370       2.039570838       0.968008263
                        -----------------------------------------
Total Dipole Moment    :      0.228051809       0.504829742       0.357986243
                        -----------------------------------------
Magnitude (a.u.)       :      0.659556552
Magnitude (Debye)      :      1.676459526

Rotational constants in cm-1:             0.280768             0.040159             0.036076
Rotational constants in MHz :          8417.207250          1203.926623          1081.539298

                             ****ORCA TERMINATED NORMALLY****
TOTAL RUN TIME: 0 days 0 hours 0 minutes 10 seconds 421 msec
