                         Program Version 6.0.0  -   RELEASE  -
|  1> ! pbe def2-sv(p) def2/J RI DEFGRID1 loosescf d4 GCP(DFT/SV(P)) printgap
|  2> %output
|  3>     printlevel normal
|  4> end
|  5> * xyz 0 1
|  6> C -2.8141955707 -0.1921209801 -0.4625136027
|  7> C -1.6879646397 0.7361881146 -0.0257784228
|  8> C -0.4057875802 -0.012399234 0.2358145169
|  9> O -0.3224713201 -1.1967760988 0.4808186847
| 10> O 0.6426387166 0.8050748472 0.1919228411
| 11> C 1.9485071307 0.2563304817 0.4384048084
| 12> C 2.5513505824 -0.3216395381 -0.8328527603
| 13> H -2.9424114051 -0.9894343644 0.2651235065
| 14> H -3.7434128263 0.3619133413 -0.550755186
| 15> H -2.5820853419 -0.646358322 -1.4223018478
| 16> H -1.9544306022 1.2366418826 0.9082369483
| 17> H -1.4882709079 1.5075329797 -0.7692695376
| 18> H 2.5334807004 1.0986525208 0.808609585
| 19> H 1.8628734894 -0.5160222861 1.2088114762
| 20> H 2.5798742941 0.4358202671 -1.6113898191
| 21> H 3.560158914 -0.6651343333 -0.6287313487
| 22> H 1.9550389212 -1.1632793829 -1.1781115944
| 23> *
| 24>
| 25>                          ****END OF INPUT****

CARTESIAN COORDINATES (ANGSTROEM)
---------------------------------
  C     -2.814196   -0.192121   -0.462514
  C     -1.687965    0.736188   -0.025778
  C     -0.405788   -0.012399    0.235815
  O     -0.322471   -1.196776    0.480819
  O      0.642639    0.805075    0.191923
  C      1.948507    0.256330    0.438405
  C      2.551351   -0.321640   -0.832853
  H     -2.942411   -0.989434    0.265124
  H     -3.743413    0.361913   -0.550755
  H     -2.582085   -0.646358   -1.422302
  H     -1.954431    1.236642    0.908237
  H     -1.488271    1.507533   -0.769270
  H      2.533481    1.098653    0.808610
  H      1.862873   -0.516022    1.208811
  H      2.579874    0.435820   -1.611390
  H      3.560159   -0.665134   -0.628731
  H      1.955039   -1.163279   -1.178112

 Total Charge           Charge          ....    0
 Multiplicity           Mult            ....    1
 Number of Electrons    NEL             ....   56
 Basis Dimension        Dim             ....  118

ORBITAL ENERGIES
----------------

  NO   OCC          E(Eh)            E(eV)
   0   2.0000     -18.795806      -511.4599
   1   2.0000     -18.732933      -509.7490
   2   2.0000     -10.005440      -272.2619
   3   2.0000      -9.945938      -270.6427
   4   2.0000      -9.899730      -269.3854
   5   2.0000      -9.886107      -269.0146
   6   2.0000      -9.878592      -268.8101
   7   2.0000      -1.002866       -27.2894
   8   2.0000      -0.909518       -24.7493
   9   2.0000      -0.718033       -19.5387
  10   2.0000      -0.686010       -18.6673
  11   2.0000      -0.608510       -16.5584
  12   2.0000      -0.557651       -15.1745
  13   2.0000      -0.491720       -13.3804
  14   2.0000      -0.451352       -12.2819
  15   2.0000      -0.433404       -11.7935
  16   2.0000      -0.422453       -11.4955
  17   2.0000      -0.392759       -10.6875
  18   2.0000      -0.386785       -10.5250
  19   2.0000      -0.359277        -9.7764
  20   2.0000      -0.347545        -9.4572
  21   2.0000      -0.339155        -9.2289
  22   2.0000      -0.324182        -8.8214
  23   2.0000      -0.317042        -8.6271
  24   2.0000      -0.304678        -8.2907
  25   2.0000      -0.289127        -7.8675
  26   2.0000      -0.255538        -6.9535
  27   2.0000      -0.219297        -5.9674
  28   0.0000      -0.018860        -0.5132
  29   0.0000       0.041187         1.1208
  30   0.0000       0.059118         1.6087
  31   0.0000       0.080106         2.1798
  32   0.0000       0.090140         2.4528

MULLIKEN ATOMIC CHARGES
-----------------------
   0 C :   -0.273414
   1 C :   -0.183894
   2 C :    0.111009
   3 O :   -0.208693
   4 O :   -0.240938
   5 C :   -0.011462
   6 C :   -0.304135
   7 H :    0.119191
   8 H :    0.102393
   9 H :    0.107723
  10 H :    0.118499
  11 H :    0.107205
  12 H :    0.100538
  13 H :    0.105972
  14 H :    0.111888
  15 H :    0.111359
  16 H :    0.126759
Sum of atomic charges:    0.0000000

LOEWDIN ATOMIC CHARGES
----------------------
   0 C :   -0.337106
   1 C :   -0.258594
   2 C :    0.038520
   3 O :   -0.168906
   4 O :   -0.072118
   5 C :   -0.112690
   6 C :   -0.356527
   7 H :    0.127638
   8 H :    0.120573
   9 H :    0.122930
  10 H :    0.144057
  11 H :    0.133642
  12 H :    0.116418
  13 H :    0.118377
  14 H :    0.123752
  15 H :    0.129783
  16 H :    0.130251

  Mayer bond orders larger than 0.100000
B(  0-C ,  1-C ) :   1.1519 B(  0-C ,  7-H ) :   0.9475 B(  0-C ,  8-H ) :   0.9498
B(  0-C ,  9-H ) :   0.9601 B(  1-C ,  2-C ) :   1.0193 B(  1-C , 10-H ) :   0.8945
B(  1-C , 11-H ) :   0.9125 B(  2-C ,  3-O ) :   2.0433 B(  2-C ,  4-O ) :   1.2128
B(  4-O ,  5-C ) :   0.9243 B(  5-C ,  6-C ) :   1.1726 B(  5-C , 12-H ) :   0.9377
B(  5-C , 13-H ) :   0.9147 B(  6-C , 14-H ) :   0.9491 B(  6-C , 15-H ) :   0.9445
B(  6-C , 16-H ) :   0.9464

Dispersion correction           -0.011922193
FINAL SINGLE POINT ENERGY      -346.246089430656

DIPOLE MOMENT
-------------

Method             : SCF
Type of density    : Electron Density
Multiplicity       :   1
Irrep              :   0
Energy             :  -346.3109207719865594 Eh
Relativity type    :
Basis              : AO
                                X                 Y                 Z
Electronic contribution:      0.489543159      -0.011960821       2.654271398
Nuclear contribution   :     -0.200885105       0.613694684      -2.776173973
                        -----------------------------------------
Total Dipole Moment    :      0.288658055       0.601733864      -0.121902575
                        -----------------------------------------
Magnitude (a.u.)       :      0.678430065
Magnitude (Debye)      :      1.724432182

Rotational constants in cm-1:             0.211544             0.046710             0.043959
Rotational constants in MHz :          6341.942655          1400.326336          1317.868874

                             ****ORCA TERMINATED NORMALLY****
TOTAL RUN TIME: 0 days 0 hours 0 minutes 9 seconds 478 msec
