                         Program Version 6.0.0  -   RELEASE  -
|  1> ! r2scan-3c def2/J RI DEFGRID2 scfconv6 printgap
|  2> %output
|  3>     printlevel normal
|  4> end
|  5> * xyz 0 1
|  6> C 2.8646415364 -0.3782773398 -0.0806833168
|  7> C 1.419091965 -0.3506600695 0.4007675444
|  8> C 0.6450596551 0.8097469833 -0.220595335
|  9> C -0.7729370604 0.9432810926 0.3137934124
| 10> S -1.882713562 -0.4211726182 -0.205554178
| 11> H 3.3980088163 -1.2142566592 0.3645665607
| 12> H 3.3763222196 0.5416969063 0.1930460446
| 13> H 2.9031997352 -0.4828284766 -1.1625838173
| 14> H 1.400528658 -0.2559356285 1.4891465082
| 15> H 0.9371030169 -1.2934563571 0.1339380212
| 16> H 0.6088868881 0.6848322674 -1.3051168569
| 17> H 1.1685970208 1.7452420375 -0.0079019069
| 18> H -0.7932306152 0.9842280538 1.4015783425
| 19> H -1.2510992122 1.8369461062 -0.0866753431
| 20> H -1.3767543992 -1.3512313956 0.5944092482
| 21> *
| 22>
| 23>                          ****END OF INPUT****

CARTESIAN COORDINATES (ANGSTROEM)
---------------------------------
  C      2.864642   -0.378277   -0.080683
  C      1.419092   -0.350660    0.400768
  C      0.645060    0.809747   -0.220595
  C     -0.772937    0.943281    0.313793
  S     -1.882714   -0.421173   -0.205554
  H      3.398009   -1.214257    0.364567
  H      3.376322    0.541697    0.193046
  H      2.903200   -0.482828   -1.162584
  H      1.400529   -0.255936    1.489147
  H      0.937103   -1.293456    0.133938
  H      0.608887    0.684832   -1.305117
  H      1.168597    1.745242   -0.007902
  H     -0.793231    0.984228    1.401578
  H     -1.251099    1.836946   -0.086675
  H     -1.376754   -1.351231    0.594409

 Total Charge           Charge          ....    0
 Multiplicity           Mult            ....    1
 Number of Electrons    NEL             ....   50
 Basis Dimension        Dim             ....  153

ORBITAL ENERGIES
----------------

  NO   OCC          E(Eh)            E(eV)
   0   2.0000     -88.549277     -2409.5483
   1   2.0000     -10.065685      -273.9012
   2   2.0000     -10.033646      -273.0294
   3   2.0000     -10.030368      -272.9402
   4   2.0000     -10.020282      -272.6657
   5   2.0000      -7.844458      -213.4586
   6   2.0000      -5.791575      -157.5968
   7   2.0000      -5.787929      -157.4975
   8   2.0000      -5.781539      -157.3237
   9   2.0000      -0.784438       -21.3456
  10   2.0000      -0.729381       -19.8475
  11   2.0000      -0.660027       -17.9603
  12   2.0000      -0.592041       -16.1103
  13   2.0000      -0.544286       -14.8108
  14   2.0000      -0.449433       -12.2297
  15   2.0000      -0.424031       -11.5385
  16   2.0000      -0.406278       -11.0554
  17   2.0000      -0.392458       -10.6793
  18   2.0000      -0.351918        -9.5762
  19   2.0000      -0.349596        -9.5130
  20   2.0000      -0.319038        -8.6815
  21   2.0000      -0.307315        -8.3625
  22   2.0000      -0.299448        -8.1484
  23   2.0000      -0.292216        -7.9516
  24   2.0000      -0.209484        -5.7004
  25   0.0000       0.014731         0.4009
  26   0.0000       0.048408         1.3173
  27   0.0000       0.100970         2.7475
  28   0.0000       0.105833         2.8799
  29   0.0000       0.127225         3.4620

MULLIKEN ATOMIC CHARGES
-----------------------
   0 C :   -0.468263
   1 C :   -0.274790
   2 C :   -0.201424
   3 C :   -0.242659
   4 S :   -0.273030
   5 H :    0.147641
   6 H :    0.141608
   7 H :    0.143735
   8 H :    0.137507
   9 H :    0.145438
  10 H :    0.149062
  11 H :    0.135225
  12 H :    0.161889
  13 H :    0.159927
  14 H :    0.138133
Sum of atomic charges:    0.0000000

LOEWDIN ATOMIC CHARGES
----------------------
   0 C :   -0.422366
   1 C :   -0.325272
   2 C :   -0.321801
   3 C :   -0.361960
   4 S :   -0.101354
   5 H :    0.150968
   6 H :    0.149467
   7 H :    0.151515
   8 H :    0.150721
   9 H :    0.153396
  10 H :    0.161647
  11 H :    0.156733
  12 H :    0.162917
  13 H :    0.169202
  14 H :    0.126188

  Mayer bond orders larger than 0.100000
B(  0-C ,  1-C ) :   0.9092 B(  0-C ,  5-H ) :   0.9750 B(  0-C ,  6-H ) :   0.9850
B(  0-C ,  7-H ) :   0.9802 B(  1-C ,  2-C ) :   0.9196 B(  1-C ,  8-H ) :   0.9730
B(  1-C ,  9-H ) :   0.9641 B(  2-C ,  3-C ) :   0.8817 B(  2-C , 10-H ) :   0.9654
B(  2-C , 11-H ) :   0.9587 B(  3-C ,  4-S ) :   0.9645 B(  3-C , 12-H ) :   0.9729
B(  3-C , 13-H ) :   0.9597 B(  4-S , 14-H ) :   0.9607

Dispersion correction           -0.003645178
FINAL SINGLE POINT ENERGY      -556.556136566444

DIPOLE MOMENT
-------------

Method             : SCF
Type of density    : Electron Density
Multiplicity       :   1
Irrep              :   0
Energy             :  -556.5628461109550926 Eh
Relativity type    :
Basis              : AO
                                X                 Y                 Z
Electronic contribution:     -9.205424525      -0.894889116      -1.203454017
Nuclear contribution   :      9.783745850       1.133291163       1.520425733
                        -----------------------------------------
Total Dipole Moment    :      0.578321325       0.238402047       0.316971717
                        -----------------------------------------
Magnitude (a.u.)       :      0.701257557
Magnitude (Debye)      :      1.782455055

Rotational constants in cm-1:             0.314528             0.055865             0.051021
Rotational constants in MHz :          9429.306848          1674.781602          1529.574876

                             ****ORCA TERMINATED NORMALLY****
TOTAL RUN TIME: 0 days 0 hours 0 minutes 13 seconds 869 msec
