                         Program Version 6.0.0  -   RELEASE  -
|  1> ! r2scan-3c def2/J RI DEFGRID2 scfconv6 printgap
|  2> %output
|  3>     printlevel normal
|  4> end
|  5> %cpcm
|  6>     smd true
|  7>     smdsolvent "water"
|  8> end
|  9> * xyz 0 1
| 10> C 2.8646415364 -0.3782773398 -0.0806833168
| 11> C 1.419091965 -0.3506600695 0.4007675444
| 12> C 0.6450596551 0.8097469833 -0.220595335
| 13> C -0.7729370604 0.9432810926 0.3137934124
| 14> S -1.882713562 -0.4211726182 -0.205554178
| 15> H 3.3980088163 -1.2142566592 0.3645665607
| 16> H 3.3763222196 0.5416969063 0.1930460446
| 17> H 2.9031997352 -0.4828284766 -1.1625838173
| 18> H 1.400528658 -0.2559356285 1.4891465082
| 19> H 0.9371030169 -1.2934563571 0.1339380212
| 20> H 0.6088868881 0.6848322674 -1.3051168569
| 21> H 1.1685970208 1.7452420375 -0.0079019069
| 22> H -0.7932306152 0.9842280538 1.4015783425
| 23> H -1.2510992122 1.8369461062 -0.0866753431
| 24> H -1.3767543992 -1.3512313956 0.5944092482
| 25> *
| 26>
| 27>                          ****END OF INPUT****

CARTESIAN COORDINATES (ANGSTROEM)
---------------------------------
  C      2.864642   -0.378277   -0.080683
  C      1.419092   -0.350660    0.400768
  C      0.645060    0.809747   -0.220595
  C     -0.772937    0.943281    0.313793
  S     -1.882714   -0.421173   -0.205554
  H      3.398009   -1.214257    0.364567
  H      3.376322    0.541697    0.193046
  H      2.903200   -0.482828   -1.162584
  H      1.400529   -0.255936    1.489147
  H      0.937103   -1.293456    0.133938
  H      0.608887    0.684832   -1.305117
  H      1.168597    1.745242   -0.007902
  H     -0.793231    0.984228    1.401578
  H     -1.251099    1.836946   -0.086675
  H     -1.376754   -1.351231    0.594409

 Total Charge           Charge          ....    0
 Multiplicity           Mult            ....    1
 Number of Electrons    NEL             ....   50
 Basis Dimension        Dim             ....  153

ORBITAL ENERGIES
----------------

  NO   OCC          E(Eh)            E(eV)
   0   2.0000     -88.547538     -2409.5010
   1   2.0000     -10.054555      -273.5984
   2   2.0000     -10.021241      -272.6918
   3   2.0000     -10.017433      -272.5882
   4   2.0000     -10.008513      -272.3455
   5   2.0000      -7.842860      -213.4151
   6   2.0000      -5.789725      -157.5464
   7   2.0000      -5.786189      -157.4502
   8   2.0000      -5.780371      -157.2919
   9   2.0000      -0.773961       -21.0606
  10   2.0000      -0.720269       -19.5995
  11   2.0000      -0.651782       -17.7359
  12   2.0000      -0.581545       -15.8246
  13   2.0000      -0.532546       -14.4913
  14   2.0000      -0.437896       -11.9157
  15   2.0000      -0.413294       -11.2463
  16   2.0000      -0.394803       -10.7431
  17   2.0000      -0.382025       -10.3954
  18   2.0000      -0.341175        -9.2838
  19   2.0000      -0.339929        -9.2499
  20   2.0000      -0.308132        -8.3847
  21   2.0000      -0.297108        -8.0847
  22   2.0000      -0.287189        -7.8148
  23   2.0000      -0.284899        -7.7525
  24   2.0000      -0.210105        -5.7172
  25   0.0000       0.018603         0.5062
  26   0.0000       0.055214         1.5024
  27   0.0000       0.113216         3.0808
  28   0.0000       0.118874         3.2347
  29   0.0000       0.134215         3.6522

MULLIKEN ATOMIC CHARGES
-----------------------
   0 C :   -0.509055
   1 C :   -0.271265
   2 C :   -0.231392
   3 C :   -0.241103
   4 S :   -0.352664
   5 H :    0.156883
   6 H :    0.154142
   7 H :    0.152637
   8 H :    0.150735
   9 H :    0.148255
  10 H :    0.154525
  11 H :    0.152478
  12 H :    0.181445
  13 H :    0.179665
  14 H :    0.174713
Sum of atomic charges:    0.0000000

LOEWDIN ATOMIC CHARGES
----------------------
   0 C :   -0.431692
   1 C :   -0.325403
   2 C :   -0.321802
   3 C :   -0.357171
   4 S :   -0.140454
   5 H :    0.152749
   6 H :    0.152487
   7 H :    0.152856
   8 H :    0.155391
   9 H :    0.153549
  10 H :    0.161055
  11 H :    0.163299
  12 H :    0.170507
  13 H :    0.175965
  14 H :    0.138665

  Mayer bond orders larger than 0.100000
B(  0-C ,  1-C ) :   0.8972 B(  0-C ,  5-H ) :   0.9728 B(  0-C ,  6-H ) :   0.9823
B(  0-C ,  7-H ) :   0.9785 B(  1-C ,  2-C ) :   0.9177 B(  1-C ,  8-H ) :   0.9712
B(  1-C ,  9-H ) :   0.9640 B(  2-C ,  3-C ) :   0.8833 B(  2-C , 10-H ) :   0.9713
B(  2-C , 11-H ) :   0.9560 B(  3-C ,  4-S ) :   0.9484 B(  3-C , 12-H ) :   0.9667
B(  3-C , 13-H ) :   0.9524 B(  4-S , 14-H ) :   0.9537

Dispersion correction           -0.003645178
FINAL SINGLE POINT ENERGY      -556.557919515456

DIPOLE MOMENT
-------------

Method             : SCF
Type of density    : Electron Density
Multiplicity       :   1
Irrep              :   0
Energy             :  -556.5646290599668191 Eh
Relativity type    :
Basis              : AO
                                X                 Y                 Z
Electronic contribution:     -9.043007198      -0.779794504      -1.054595164
Nuclear contribution   :      9.783745850       1.133291163       1.520425733
                        -----------------------------------------
Total Dipole Moment    :      0.740738652       0.353496659       0.465830570
                        -----------------------------------------
Magnitude (a.u.)       :      0.943743481
Magnitude (Debye)      :      2.398805292

Rotational constants in cm-1:             0.314528             0.055865             0.051021
Rotational constants in MHz :          9429.306848          1674.781602          1529.574876

                             ****ORCA TERMINATED NORMALLY****
TOTAL RUN TIME: 0 days 0 hours 0 minutes 16 seconds 280 msec
