                         Program Version 6.0.0  -   RELEASE  -
|  1> ! r2scan-3c def2/J RI DEFGRID2 scfconv6 printgap
|  2> %output
|  3>     printlevel normal
|  4> end
|  5> * xyz 0 1
|  6> C -2.1490761469 1.0279834773 0.5439538224
|  7> C -1.4711135107 0.0207281432 -0.3766013581
|  8> C -0.0673926099 -0.3876297322 0.0957913781
|  9> C 0.9689256238 0.7176668697 -0.1395888942
| 10> C 2.3201638432 0.366132446 0.4724369626
| 11> O 0.3322732668 -1.6017535718 -0.5203444326
| 12> H -2.2053941735 0.638214883 1.5574753838
| 13> H -1.6051669241 1.9684095605 0.5663531809
| 14> H -3.158986122 1.2277569041 0.195322752
| 15> H -2.0781115758 -0.8866648077 -0.4215601655
| 16> H -1.4039251663 0.4324822208 -1.3866644235
| 17> H -0.103126287 -0.6304571248 1.1643016435
| 18> H 1.0813354385 0.8694434218 -1.2162212565
| 19> H 0.6015528271 1.646508047 0.2957409416
| 20> H 2.6550743104 -0.6032866446 0.11066018
| 21> H 3.0642385509 1.1143469113 0.2120668612
| 22> H 2.2425036408 0.3150580979 1.5559986806
| 23> H 0.3842828132 -1.4590820762 -1.4758789045
| 24> *
| 25>
| 26>                          ****END OF INPUT****

CARTESIAN COORDINATES (ANGSTROEM)
---------------------------------
  C     -2.149076    1.027983    0.543954
  C     -1.471114    0.020728   -0.376601
  C     -0.067393   -0.387630    0.095791
  C      0.968926    0.717667   -0.139589
  C      2.320164    0.366132    0.472437
  O      0.332273   -1.601754   -0.520344
  H     -2.205394    0.638215    1.557475
  H     -1.605167    1.968410    0.566353
  H     -3.158986    1.227757    0.195323
  H     -2.078112   -0.886665   -0.421560
  H     -1.403925    0.432482   -1.386664
  H     -0.103126   -0.630457    1.164302
  H      1.081335    0.869443   -1.216221
  H      0.601553    1.646508    0.295741
  H      2.655074   -0.603287    0.110660
  H      3.064239    1.114347    0.212067
  H      2.242504    0.315058    1.555999
  H      0.384283   -1.459082   -1.475879

 Total Charge           Charge          ....    0
 Multiplicity           Mult            ....    1
 Number of Electrons    NEL             ....   50
 Basis Dimension        Dim             ....  179

ORBITAL ENERGIES
----------------

  NO   OCC          E(Eh)            E(eV)
   0   2.0000     -18.943110      -515.4682
   1   2.0000     -10.076624      -274.1989
   2   2.0000     -10.026176      -272.8261
   3   2.0000     -10.025468      -272.8068
   4   2.0000     -10.021150      -272.6894
   5   2.0000     -10.012963      -272.4666
   6   2.0000      -0.982006       -26.7217
   7   2.0000      -0.759991       -20.6804
   8   2.0000      -0.720614       -19.6089
   9   2.0000      -0.637973       -17.3601
  10   2.0000      -0.578813       -15.7503
  11   2.0000      -0.556182       -15.1345
  12   2.0000      -0.452237       -12.3060
  13   2.0000      -0.435470       -11.8498
  14   2.0000      -0.414262       -11.2726
  15   2.0000      -0.410545       -11.1715
  16   2.0000      -0.380260       -10.3474
  17   2.0000      -0.356008        -9.6875
  18   2.0000      -0.340072        -9.2538
  19   2.0000      -0.333815        -9.0836
  20   2.0000      -0.320211        -8.7134
  21   2.0000      -0.308799        -8.4028
  22   2.0000      -0.300394        -8.1741
  23   2.0000      -0.278543        -7.5796
  24   2.0000      -0.231107        -6.2887
  25   0.0000       0.067470         1.8360
  26   0.0000       0.089605         2.4383
  27   0.0000       0.109543         2.9808
  28   0.0000       0.118524         3.2252
  29   0.0000       0.130072         3.5394

MULLIKEN ATOMIC CHARGES
-----------------------
   0 C :   -0.501059
   1 C :   -0.210408
   2 C :    0.000337
   3 C :   -0.239894
   4 C :   -0.504689
   5 O :   -0.420072
   6 H :    0.147595
   7 H :    0.142989
   8 H :    0.148850
   9 H :    0.162524
  10 H :    0.122050
  11 H :    0.132994
  12 H :    0.136613
  13 H :    0.135215
  14 H :    0.168065
  15 H :    0.144962
  16 H :    0.144446
  17 H :    0.289481
Sum of atomic charges:    0.0000000

LOEWDIN ATOMIC CHARGES
----------------------
   0 C :   -0.420962
   1 C :   -0.295107
   2 C :    0.047689
   3 C :   -0.293770
   4 C :   -0.419961
   5 O :   -0.612002
   6 H :    0.151970
   7 H :    0.148315
   8 H :    0.152768
   9 H :    0.165087
  10 H :    0.153921
  11 H :    0.180998
  12 H :    0.154788
  13 H :    0.157938
  14 H :    0.161551
  15 H :    0.148829
  16 H :    0.151318
  17 H :    0.266628

  Mayer bond orders larger than 0.100000
B(  0-C ,  1-C ) :   0.8970 B(  0-C ,  6-H ) :   0.9871 B(  0-C ,  7-H ) :   0.9801
B(  0-C ,  8-H ) :   0.9680 B(  1-C ,  2-C ) :   0.9165 B(  1-C ,  9-H ) :   0.9771
B(  1-C , 10-H ) :   0.9506 B(  2-C ,  3-C ) :   0.9323 B(  2-C ,  5-O ) :   0.9111
B(  2-C , 11-H ) :   0.9683 B(  3-C ,  4-C ) :   0.9027 B(  3-C , 12-H ) :   0.9708
B(  3-C , 13-H ) :   0.9652 B(  4-C , 14-H ) :   0.9780 B(  4-C , 15-H ) :   0.9747
B(  4-C , 16-H ) :   0.9849 B(  5-O , 17-H ) :   0.8967

Dispersion correction           -0.004251691
FINAL SINGLE POINT ENERGY      -272.902362990525

DIPOLE MOMENT
-------------

Method             : SCF
Type of density    : Electron Density
Multiplicity       :   1
Irrep              :   0
Energy             :  -272.9076879775654447 Eh
Relativity type    :
Basis              : AO
                                X                 Y                 Z
Electronic contribution:      0.331986203      -3.794845926      -1.360204066
Nuclear contribution   :     -0.488282800       4.322487469       1.078291260
                        -----------------------------------------
Total Dipole Moment    :     -0.156296597       0.527641543      -0.281912805
                        -----------------------------------------
Magnitude (a.u.)       :      0.618311454
Magnitude (Debye)      :      1.571622817

Rotational constants in cm-1:             0.168420             0.074952             0.057316
Rotational constants in MHz :          5049.103267          2246.990610          1718.279072

                             ****ORCA TERMINATED NORMALLY****
TOTAL RUN TIME: 0 days 0 hours 0 minutes 23 seconds 735 msec
