                         Program Version 6.0.0  -   RELEASE  -
|  1> ! r2scan-3c def2/J RI DEFGRID2 scfconv6 printgap
|  2> %output
|  3>     printlevel normal
|  4> end
|  5> %cpcm
|  6>     smd true
|  7>     smdsolvent "water"
|  8> end
|  9> * xyz 0 1
| 10> C -2.1490761469 1.0279834773 0.5439538224
| 11> C -1.4711135107 0.0207281432 -0.3766013581
| 12> C -0.0673926099 -0.3876297322 0.0957913781
| 13> C 0.9689256238 0.7176668697 -0.1395888942
| 14> C 2.3201638432 0.366132446 0.4724369626
| 15> O 0.3322732668 -1.6017535718 -0.5203444326
| 16> H -2.2053941735 0.638214883 1.5574753838
| 17> H -1.6051669241 1.9684095605 0.5663531809
| 18> H -3.158986122 1.2277569041 0.195322752
| 19> H -2.0781115758 -0.8866648077 -0.4215601655
| 20> H -1.4039251663 0.4324822208 -1.3866644235
| 21> H -0.103126287 -0.6304571248 1.1643016435
| 22> H 1.0813354385 0.8694434218 -1.2162212565
| 23> H 0.6015528271 1.646508047 0.2957409416
| 24> H 2.6550743104 -0.6032866446 0.11066018
| 25> H 3.0642385509 1.1143469113 0.2120668612
| 26> H 2.2425036408 0.3150580979 1.5559986806
| 27> H 0.3842828132 -1.4590820762 -1.4758789045
| 28> *
| 29>
| 30>                          ****END OF INPUT****

CARTESIAN COORDINATES (ANGSTROEM)
---------------------------------
  C     -2.149076    1.027983    0.543954
  C     -1.471114    0.020728   -0.376601
  C     -0.067393   -0.387630    0.095791
  C      0.968926    0.717667   -0.139589
  C      2.320164    0.366132    0.472437
  O      0.332273   -1.601754   -0.520344
  H     -2.205394    0.638215    1.557475
  H     -1.605167    1.968410    0.566353
  H     -3.158986    1.227757    0.195323
  H     -2.078112   -0.886665   -0.421560
  H     -1.403925    0.432482   -1.386664
  H     -0.103126   -0.630457    1.164302
  H      1.081335    0.869443   -1.216221
  H      0.601553    1.646508    0.295741
  H      2.655074   -0.603287    0.110660
  H      3.064239    1.114347    0.212067
  H      2.242504    0.315058    1.555999
  H      0.384283   -1.459082   -1.475879

 Total Charge           Charge          ....    0
 Multiplicity           Mult            ....    1
 Number of Electrons    NEL             ....   50
 Basis Dimension        Dim             ....  179

ORBITAL ENERGIES
----------------

  NO   OCC          E(Eh)            E(eV)
   0   2.0000     -18.946678      -515.5653
   1   2.0000     -10.071070      -274.0477
   2   2.0000     -10.016398      -272.5600
   3   2.0000     -10.016231      -272.5555
   4   2.0000     -10.010052      -272.3874
   5   2.0000     -10.007740      -272.3244
   6   2.0000      -0.984272       -26.7834
   7   2.0000      -0.752128       -20.4664
   8   2.0000      -0.712475       -19.3874
   9   2.0000      -0.631547       -17.1853
  10   2.0000      -0.570945       -15.5362
  11   2.0000      -0.550014       -14.9666
  12   2.0000      -0.446437       -12.1482
  13   2.0000      -0.430144       -11.7048
  14   2.0000      -0.407346       -11.0845
  15   2.0000      -0.402538       -10.9536
  16   2.0000      -0.376749       -10.2519
  17   2.0000      -0.347799        -9.4641
  18   2.0000      -0.333434        -9.0732
  19   2.0000      -0.329703        -8.9717
  20   2.0000      -0.311662        -8.4807
  21   2.0000      -0.301145        -8.1946
  22   2.0000      -0.293770        -7.9939
  23   2.0000      -0.275545        -7.4979
  24   2.0000      -0.234111        -6.3705
  25   0.0000       0.082852         2.2545
  26   0.0000       0.100224         2.7272
  27   0.0000       0.118788         3.2324
  28   0.0000       0.127395         3.4666
  29   0.0000       0.139961         3.8085

MULLIKEN ATOMIC CHARGES
-----------------------
   0 C :   -0.536757
   1 C :   -0.230844
   2 C :    0.027409
   3 C :   -0.256072
   4 C :   -0.547953
   5 O :   -0.512221
   6 H :    0.157680
   7 H :    0.158156
   8 H :    0.159310
   9 H :    0.156527
  10 H :    0.144090
  11 H :    0.144840
  12 H :    0.158872
  13 H :    0.152003
  14 H :    0.160353
  15 H :    0.158421
  16 H :    0.159567
  17 H :    0.346619
Sum of atomic charges:    0.0000000

LOEWDIN ATOMIC CHARGES
----------------------
   0 C :   -0.427488
   1 C :   -0.294031
   2 C :    0.048301
   3 C :   -0.292730
   4 C :   -0.429021
   5 O :   -0.650527
   6 H :    0.154421
   7 H :    0.152994
   8 H :    0.155181
   9 H :    0.162978
  10 H :    0.160765
  11 H :    0.183914
  12 H :    0.162569
  13 H :    0.164153
  14 H :    0.156148
  15 H :    0.153094
  16 H :    0.154163
  17 H :    0.285117

  Mayer bond orders larger than 0.100000
B(  0-C ,  1-C ) :   0.8909 B(  0-C ,  6-H ) :   0.9834 B(  0-C ,  7-H ) :   0.9766
B(  0-C ,  8-H ) :   0.9659 B(  1-C ,  2-C ) :   0.9134 B(  1-C ,  9-H ) :   0.9764
B(  1-C , 10-H ) :   0.9565 B(  2-C ,  3-C ) :   0.9259 B(  2-C ,  5-O ) :   0.8923
B(  2-C , 11-H ) :   0.9692 B(  3-C ,  4-C ) :   0.8828 B(  3-C , 12-H ) :   0.9705
B(  3-C , 13-H ) :   0.9619 B(  4-C , 14-H ) :   0.9813 B(  4-C , 15-H ) :   0.9708
B(  4-C , 16-H ) :   0.9832 B(  5-O , 17-H ) :   0.8691

Dispersion correction           -0.004251691
FINAL SINGLE POINT ENERGY      -272.908301138124

DIPOLE MOMENT
-------------

Method             : SCF
Type of density    : Electron Density
Multiplicity       :   1
Irrep              :   0
Energy             :  -272.9136261251647966 Eh
Relativity type    :
Basis              : AO
                                X                 Y                 Z
Electronic contribution:      0.276989724      -3.525017681      -1.502889461
Nuclear contribution   :     -0.488282800       4.322487469       1.078291260
                        -----------------------------------------
Total Dipole Moment    :     -0.211293076       0.797469789      -0.424598201
                        -----------------------------------------
Magnitude (a.u.)       :      0.927839673
Magnitude (Debye)      :      2.358381026

Rotational constants in cm-1:             0.168420             0.074952             0.057316
Rotational constants in MHz :          5049.103267          2246.990610          1718.279072

                             ****ORCA TERMINATED NORMALLY****
TOTAL RUN TIME: 0 days 0 hours 0 minutes 28 seconds 16 msec
