                         Program Version 6.0.0  -   RELEASE  -
|  1> ! pbe def2-sv(p) def2/J RI DEFGRID1 loosescf d4 GCP(DFT/SV(P)) printgap
|  2> %output
|  3>     printlevel normal
|  4> end
|  5> * xyz 0 1
|  6> C -3.4115498048 -0.6909569172 -0.5228793848
|  7> C -2.7834124112 0.1047138155 0.6162450805
|  8> C -1.2881754984 -0.1717846265 0.7949180794
|  9> C -0.4799289296 0.3431914774 -0.380238304
| 10> Br 1.4533437613 0.0795062549 -0.0809991916
| 11> H -3.0198536033 -0.3784543367 -1.4873620168
| 12> H -3.2174252006 -1.7536054296 -0.3972915669
| 13> H -4.4876281128 -0.5393444795 -0.5326956208
| 14> H -3.2851378528 -0.1569510867 1.5491312487
| 15> H -2.9361460339 1.1722189299 0.4454245936
| 16> H -0.9416234433 0.3178292113 1.7079288054
| 17> H -1.1245659092 -1.2457198816 0.9084317307
| 18> H -0.6101863766 1.414469192 -0.5244383881
| 19> H -0.7010518846 -0.1899879042 -1.3019234926
| 20> *
| 21>
| 22>                          ****END OF INPUT****

CARTESIAN COORDINATES (ANGSTROEM)
---------------------------------
  C     -3.411550   -0.690957   -0.522879
  C     -2.783412    0.104714    0.616245
  C     -1.288175   -0.171785    0.794918
  C     -0.479929    0.343191   -0.380238
  Br     1.453344    0.079506   -0.080999
  H     -3.019854   -0.378454   -1.487362
  H     -3.217425   -1.753605   -0.397292
  H     -4.487628   -0.539344   -0.532696
  H     -3.285138   -0.156951    1.549131
  H     -2.936146    1.172219    0.445425
  H     -0.941623    0.317829    1.707929
  H     -1.124566   -1.245720    0.908432
  H     -0.610186    1.414469   -0.524438
  H     -0.701052   -0.189988   -1.301923

 Total Charge           Charge          ....    0
 Multiplicity           Mult            ....    1
 Number of Electrons    NEL             ....   68
 Basis Dimension        Dim             ....  106

ORBITAL ENERGIES
----------------

  NO   OCC          E(Eh)            E(eV)
   0   2.0000    -480.917699    -13086.4359
   1   2.0000     -61.760035     -1680.5760
   2   2.0000     -55.690688     -1515.4207
   3   2.0000     -55.687570     -1515.3358
   4   2.0000     -55.687455     -1515.3327
   5   2.0000      -9.938738      -270.4468
   6   2.0000      -9.897299      -269.3192
   7   2.0000      -9.895782      -269.2779
   8   2.0000      -9.882218      -268.9088
   9   2.0000      -8.385052      -228.1689
  10   2.0000      -6.267027      -170.5345
  11   2.0000      -6.252644      -170.1431
  12   2.0000      -6.252516      -170.1396
  13   2.0000      -2.468121       -67.1610
  14   2.0000      -2.464590       -67.0649
  15   2.0000      -2.464489       -67.0622
  16   2.0000      -2.453716       -66.7690
  17   2.0000      -2.453705       -66.7687
  18   2.0000      -0.749317       -20.3900
  19   2.0000      -0.703636       -19.1469
  20   2.0000      -0.636393       -17.3171
  21   2.0000      -0.572142       -15.5688
  22   2.0000      -0.518597       -14.1117
  23   2.0000      -0.434326       -11.8186
  24   2.0000      -0.415725       -11.3124
  25   2.0000      -0.393488       -10.7073
  26   2.0000      -0.365219        -9.9381
  27   2.0000      -0.344956        -9.3867
  28   2.0000      -0.339317        -9.2333
  29   2.0000      -0.301919        -8.2156
  30   2.0000      -0.300215        -8.1693
  31   2.0000      -0.296319        -8.0633
  32   2.0000      -0.231440        -6.2978
  33   2.0000      -0.230747        -6.2789
  34   0.0000      -0.028352        -0.7715
  35   0.0000       0.039647         1.0788
  36   0.0000       0.060112         1.6357
  37   0.0000       0.061572         1.6755
  38   0.0000       0.081182         2.2091

MULLIKEN ATOMIC CHARGES
-----------------------
   0 C :   -0.295788
   1 C :   -0.183865
   2 C :   -0.143148
   3 C :   -0.253495
   4 Br:   -0.122456
   5 H :    0.108737
   6 H :    0.104298
   7 H :    0.108761
   8 H :    0.096719
   9 H :    0.089745
  10 H :    0.102970
  11 H :    0.099885
  12 H :    0.138722
  13 H :    0.148915
Sum of atomic charges:    0.0000000

LOEWDIN ATOMIC CHARGES
----------------------
   0 C :   -0.344258
   1 C :   -0.233002
   2 C :   -0.246553
   3 C :   -0.274624
   4 Br:   -0.000484
   5 H :    0.116651
   6 H :    0.119921
   7 H :    0.122884
   8 H :    0.122064
   9 H :    0.116385
  10 H :    0.123028
  11 H :    0.121444
  12 H :    0.128292
  13 H :    0.128252

  Mayer bond orders larger than 0.100000
B(  0-C ,  1-C ) :   1.1467 B(  0-C ,  5-H ) :   0.9529 B(  0-C ,  6-H ) :   0.9546
B(  0-C ,  7-H ) :   0.9512 B(  1-C ,  2-C ) :   1.1066 B(  1-C ,  8-H ) :   0.9255
B(  1-C ,  9-H ) :   0.9273 B(  2-C ,  3-C ) :   1.1008 B(  2-C , 10-H ) :   0.9212
B(  2-C , 11-H ) :   0.9214 B(  3-C ,  4-Br) :   1.0404 B(  3-C , 12-H ) :   0.9251
B(  3-C , 13-H ) :   0.9197

Dispersion correction           -0.010141917
FINAL SINGLE POINT ENERGY     -2730.886808738021

DIPOLE MOMENT
-------------

Method             : SCF
Type of density    : Electron Density
Multiplicity       :   1
Irrep              :   0
Energy             : -2730.9394696028193721 Eh
Relativity type    :
Basis              : AO
                                X                 Y                 Z
Electronic contribution:     31.721885660       2.077382966      -1.126016265
Nuclear contribution   :    -32.561494500      -2.013712609       1.096583908
                        -----------------------------------------
Total Dipole Moment    :     -0.839608840       0.063670357      -0.029432356
                        -----------------------------------------
Magnitude (a.u.)       :      0.842533787
Magnitude (Debye)      :      2.141550696

Rotational constants in cm-1:             0.408917             0.033483             0.032413
Rotational constants in MHz :         12259.020199          1003.785301           971.702785

                             ****ORCA TERMINATED NORMALLY****
TOTAL RUN TIME: 0 days 0 hours 0 minutes 6 seconds 46 msec
