                         Program Version 6.0.0  -   RELEASE  -
|  1> ! pbe def2-sv(p) def2/J RI DEFGRID1 loosescf d4 GCP(DFT/SV(P)) printgap
|  2> %output
|  3>     printlevel normal
|  4> end
|  5> * xyz 0 1
|  6> C -1.1445365184 0.11705693 -0.4616298678
|  7> C 0.089870239 0.6287268764 0.3006844143
|  8> C 1.3531048331 -0.1531874129 -0.0943171685
|  9> O 1.1747489219 -1.5445917561 -0.1197250964
| 10> O 0.3664178532 1.9846907401 0.0366247109
| 11> O -1.7064161753 -0.9352741444 0.2912765838
| 12> H -0.8445592362 -0.2241593786 -1.4583910613
| 13> H -1.8658773668 0.9389782166 -0.5706623396
| 14> H -0.1109701655 0.4738444887 1.3723163443
| 15> H 2.169063684 0.1311551025 0.5836988998
| 16> H 1.6345582104 0.1399888012 -1.1089339243
| 17> H 0.8172272961 -1.8372225608 0.7306234963
| 18> H -0.3307432021 2.5409522549 0.4127701236
| 19> H -2.4018637778 -1.3648896621 -0.2241387218
| 20> *
| 21>
| 22>                          ****END OF INPUT****

CARTESIAN COORDINATES (ANGSTROEM)
---------------------------------
  C     -1.144537    0.117057   -0.461630
  C      0.089870    0.628727    0.300684
  C      1.353105   -0.153187   -0.094317
  O      1.174749   -1.544592   -0.119725
  O      0.366418    1.984691    0.036625
  O     -1.706416   -0.935274    0.291277
  H     -0.844559   -0.224159   -1.458391
  H     -1.865877    0.938978   -0.570662
  H     -0.110970    0.473844    1.372316
  H      2.169064    0.131155    0.583699
  H      1.634558    0.139989   -1.108934
  H      0.817227   -1.837223    0.730623
  H     -0.330743    2.540952    0.412770
  H     -2.401864   -1.364890   -0.224139

 Total Charge           Charge          ....    0
 Multiplicity           Mult            ....    1
 Number of Electrons    NEL             ....   50
 Basis Dimension        Dim             ....  100

ORBITAL ENERGIES
----------------

  NO   OCC          E(Eh)            E(eV)
   0   2.0000     -18.751328      -510.2496
   1   2.0000     -18.750764      -510.2342
   2   2.0000     -18.738820      -509.9092
   3   2.0000      -9.936809      -270.3943
   4   2.0000      -9.929867      -270.2054
   5   2.0000      -9.922832      -270.0140
   6   2.0000      -0.934912       -25.4403
   7   2.0000      -0.920509       -25.0483
   8   2.0000      -0.913061       -24.8456
   9   2.0000      -0.675542       -18.3824
  10   2.0000      -0.604351       -16.4452
  11   2.0000      -0.535795       -14.5797
  12   2.0000      -0.487098       -13.2546
  13   2.0000      -0.445347       -12.1185
  14   2.0000      -0.436704       -11.8833
  15   2.0000      -0.427062       -11.6210
  16   2.0000      -0.384166       -10.4537
  17   2.0000      -0.353871        -9.6293
  18   2.0000      -0.346676        -9.4335
  19   2.0000      -0.303277        -8.2526
  20   2.0000      -0.288483        -7.8500
  21   2.0000      -0.263889        -7.1808
  22   2.0000      -0.227077        -6.1791
  23   2.0000      -0.221212        -6.0195
  24   2.0000      -0.204261        -5.5582
  25   0.0000       0.019377         0.5273
  26   0.0000       0.027058         0.7363
  27   0.0000       0.047069         1.2808
  28   0.0000       0.079024         2.1504
  29   0.0000       0.094004         2.5580

MULLIKEN ATOMIC CHARGES
-----------------------
   0 C :    0.038355
   1 C :   -0.048680
   2 C :    0.039877
   3 O :   -0.431019
   4 O :   -0.421259
   5 O :   -0.441220
   6 H :    0.078376
   7 H :    0.053792
   8 H :    0.065389
   9 H :    0.080117
  10 H :    0.088256
  11 H :    0.296358
  12 H :    0.300218
  13 H :    0.301440
Sum of atomic charges:    0.0000000

LOEWDIN ATOMIC CHARGES
----------------------
   0 C :   -0.135897
   1 C :   -0.091247
   2 C :   -0.126247
   3 O :   -0.331789
   4 O :   -0.321747
   5 O :   -0.346057
   6 H :    0.104257
   7 H :    0.087984
   8 H :    0.096380
   9 H :    0.096601
  10 H :    0.114142
  11 H :    0.280988
  12 H :    0.285342
  13 H :    0.287289

  Mayer bond orders larger than 0.100000
B(  0-C ,  1-C ) :   1.0139 B(  0-C ,  5-O ) :   1.0663 B(  0-C ,  6-H ) :   0.9130
B(  0-C ,  7-H ) :   0.9213 B(  1-C ,  2-C ) :   1.0594 B(  1-C ,  4-O ) :   1.0738
B(  1-C ,  8-H ) :   0.9067 B(  2-C ,  3-O ) :   1.0835 B(  2-C ,  9-H ) :   0.9262
B(  2-C , 10-H ) :   0.9130 B(  3-O , 11-H ) :   0.8448 B(  4-O , 12-H ) :   0.8477
B(  5-O , 13-H ) :   0.8493

Dispersion correction           -0.009215982
FINAL SINGLE POINT ENERGY      -344.003068012690

DIPOLE MOMENT
-------------

Method             : SCF
Type of density    : Electron Density
Multiplicity       :   1
Irrep              :   0
Energy             :  -344.0762323774891343 Eh
Relativity type    :
Basis              : AO
                                X                 Y                 Z
Electronic contribution:     -0.046460963      -0.512969138       0.500263791
Nuclear contribution   :     -0.877924318       0.741915587      -0.243382572
                        -----------------------------------------
Total Dipole Moment    :     -0.924385281       0.228946449       0.256881219
                        -----------------------------------------
Magnitude (a.u.)       :      0.986353174
Magnitude (Debye)      :      2.507110526

Rotational constants in cm-1:             0.123382             0.114117             0.064748
Rotational constants in MHz :          3698.887195          3421.136505          1941.092598

                             ****ORCA TERMINATED NORMALLY****
TOTAL RUN TIME: 0 days 0 hours 0 minutes 7 seconds 8 msec
