                         Program Version 6.0.0  -   RELEASE  -
|  1> ! pbe def2-sv(p) def2/J RI DEFGRID1 loosescf d4 GCP(DFT/SV(P)) printgap
|  2> %output
|  3>     printlevel normal
|  4> end
|  5> * xyz 0 1
|  6> C -2.5157470689 -0.0730198224 0.6464590646
|  7> C -1.6359463074 0.7633364227 -0.2791548389
|  8> C -0.50781814 -0.060229809 -0.9128704779
|  9> C 0.8058307736 -0.1221936586 -0.0983792595
| 10> C 1.5684793403 1.2031012309 -0.2076660235
| 11> C 1.6750872188 -1.2618531552 -0.6384256674
| 12> O 0.5637874235 -0.4325371537 1.2710054615
| 13> H -1.9148648471 -0.590537952 1.3893970603
| 14> H -3.0581056881 -0.8211627135 0.0720924444
| 15> H -3.2407733498 0.5565874144 1.1575026951
| 16> H -2.2603424566 1.1750034772 -1.0748721635
| 17> H -1.2228458399 1.6107669519 0.2716238122
| 18> H -0.869981059 -1.0786956174 -1.0641421023
| 19> H -0.2574735879 0.3513466861 -1.8915429243
| 20> H 1.8818793503 1.3713590234 -1.2336627729
| 21> H 2.4517760454 1.1703418574 0.4263521888
| 22> H 0.9467844685 2.0391419819 0.1051196739
| 23> H 1.1813681089 -2.2127673504 -0.4561435594
| 24> H 2.6325259208 -1.270718304 -0.1244711991
| 25> H 1.8393784341 -1.1408449841 -1.7044403462
| 26> H 0.2117588902 0.3539208548 1.7078123149
| 27> *
| 28>
| 29>                          ****END OF INPUT****

CARTESIAN COORDINATES (ANGSTROEM)
---------------------------------
  C     -2.515747   -0.073020    0.646459
  C     -1.635946    0.763336   -0.279155
  C     -0.507818   -0.060230   -0.912870
  C      0.805831   -0.122194   -0.098379
  C      1.568479    1.203101   -0.207666
  C      1.675087   -1.261853   -0.638426
  O      0.563787   -0.432537    1.271005
  H     -1.914865   -0.590538    1.389397
  H     -3.058106   -0.821163    0.072092
  H     -3.240773    0.556587    1.157503
  H     -2.260342    1.175003   -1.074872
  H     -1.222846    1.610767    0.271624
  H     -0.869981   -1.078696   -1.064142
  H     -0.257474    0.351347   -1.891543
  H      1.881879    1.371359   -1.233663
  H      2.451776    1.170342    0.426352
  H      0.946784    2.039142    0.105120
  H      1.181368   -2.212767   -0.456144
  H      2.632526   -1.270718   -0.124471
  H      1.839378   -1.140845   -1.704440
  H      0.211759    0.353921    1.707812

 Total Charge           Charge          ....    0
 Multiplicity           Mult            ....    1
 Number of Electrons    NEL             ....   58
 Basis Dimension        Dim             ....  126

ORBITAL ENERGIES
----------------

  NO   OCC          E(Eh)            E(eV)
   0   2.0000     -18.740001      -509.9413
   1   2.0000      -9.946079      -270.6466
   2   2.0000      -9.886204      -269.0173
   3   2.0000      -9.878514      -268.8080
   4   2.0000      -9.875696      -268.7314
   5   2.0000      -9.868869      -268.5456
   6   2.0000      -9.868295      -268.5300
   7   2.0000      -0.918787       -25.0015
   8   2.0000      -0.720539       -19.6069
   9   2.0000      -0.684485       -18.6258
  10   2.0000      -0.618441       -16.8286
  11   2.0000      -0.604105       -16.4385
  12   2.0000      -0.531086       -14.4516
  13   2.0000      -0.504765       -13.7354
  14   2.0000      -0.443800       -12.0764
  15   2.0000      -0.417475       -11.3601
  16   2.0000      -0.393650       -10.7118
  17   2.0000      -0.384184       -10.4542
  18   2.0000      -0.372923       -10.1478
  19   2.0000      -0.362301        -9.8587
  20   2.0000      -0.336908        -9.1677
  21   2.0000      -0.331130        -9.0105
  22   2.0000      -0.321630        -8.7520
  23   2.0000      -0.310997        -8.4627
  24   2.0000      -0.296098        -8.0572
  25   2.0000      -0.290729        -7.9111
  26   2.0000      -0.285380        -7.7656
  27   2.0000      -0.263314        -7.1651
  28   2.0000      -0.211143        -5.7455
  29   0.0000       0.018489         0.5031
  30   0.0000       0.055936         1.5221
  31   0.0000       0.063807         1.7363
  32   0.0000       0.073457         1.9989
  33   0.0000       0.079291         2.1576

MULLIKEN ATOMIC CHARGES
-----------------------
   0 C :   -0.289614
   1 C :   -0.195069
   2 C :   -0.086113
   3 C :   -0.073070
   4 C :   -0.243787
   5 C :   -0.202511
   6 O :   -0.413744
   7 H :    0.102420
   8 H :    0.099659
   9 H :    0.098107
  10 H :    0.086434
  11 H :    0.075380
  12 H :    0.076182
  13 H :    0.072053
  14 H :    0.097109
  15 H :    0.105603
  16 H :    0.095742
  17 H :    0.104129
  18 H :    0.097822
  19 H :    0.092830
  20 H :    0.300437
Sum of atomic charges:    0.0000000

LOEWDIN ATOMIC CHARGES
----------------------
   0 C :   -0.349060
   1 C :   -0.239694
   2 C :   -0.225492
   3 C :   -0.015212
   4 C :   -0.340607
   5 C :   -0.325713
   6 O :   -0.313805
   7 H :    0.115497
   8 H :    0.117714
   9 H :    0.115647
  10 H :    0.118921
  11 H :    0.104973
  12 H :    0.117723
  13 H :    0.117391
  14 H :    0.123446
  15 H :    0.121403
  16 H :    0.113136
  17 H :    0.122794
  18 H :    0.120302
  19 H :    0.120272
  20 H :    0.280363

  Mayer bond orders larger than 0.100000
B(  0-C ,  1-C ) :   1.1549 B(  0-C ,  7-H ) :   0.9407 B(  0-C ,  8-H ) :   0.9517
B(  0-C ,  9-H ) :   0.9511 B(  1-C ,  2-C ) :   1.0930 B(  1-C , 10-H ) :   0.9255
B(  1-C , 11-H ) :   0.9219 B(  2-C ,  3-C ) :   1.0245 B(  2-C , 12-H ) :   0.9146
B(  2-C , 13-H ) :   0.9092 B(  3-C ,  4-C ) :   1.0926 B(  3-C ,  5-C ) :   1.0851
B(  3-C ,  6-O ) :   1.0464 B(  4-C , 14-H ) :   0.9390 B(  4-C , 15-H ) :   0.9404
B(  4-C , 16-H ) :   0.9346 B(  5-C , 17-H ) :   0.9390 B(  5-C , 18-H ) :   0.9435
B(  5-C , 19-H ) :   0.9456 B(  6-O , 20-H ) :   0.8401

Dispersion correction           -0.016950696
FINAL SINGLE POINT ENERGY      -311.518912513108

DIPOLE MOMENT
-------------

Method             : SCF
Type of density    : Electron Density
Multiplicity       :   1
Irrep              :   0
Energy             :  -311.5986863711241881 Eh
Relativity type    :
Basis              : AO
                                X                 Y                 Z
Electronic contribution:      1.495057313      -0.899563093       2.027355708
Nuclear contribution   :     -1.566730383       1.413717746      -2.250906613
                        -----------------------------------------
Total Dipole Moment    :     -0.071673070       0.514154653      -0.223550905
                        -----------------------------------------
Magnitude (a.u.)       :      0.565214157
Magnitude (Debye)      :      1.436660213

Rotational constants in cm-1:             0.132040             0.055282             0.053339
Rotational constants in MHz :          3958.472435          1657.309255          1599.056510

                             ****ORCA TERMINATED NORMALLY****
TOTAL RUN TIME: 0 days 0 hours 0 minutes 9 seconds 367 msec
