                         Program Version 6.0.0  -   RELEASE  -
|  1> ! r2scan-3c def2/J RI DEFGRID2 scfconv6 printgap
|  2> %output
|  3>     printlevel normal
|  4> end
|  5> * xyz 0 1
|  6> C 1.9422091803 0.4671673291 0.8000554583
|  7> C 1.5093244928 -0.3751990122 -0.3947118713
|  8> C 0.2438068854 0.1078322019 -1.1100764885
|  9> C -1.1011157581 -0.0052653599 -0.3684325033
| 10> C -1.3492128922 1.1406158954 0.6120007862
| 11> C -1.272120224 -1.3532878158 0.3282925673
| 12> H 2.9508041887 0.1918032407 1.1017784404
| 13> H 1.9378040911 1.5242577011 0.5446383809
| 14> H 1.287505401 0.3135948325 1.6529274638
| 15> H 2.3158626072 -0.3575889957 -1.1330577118
| 16> H 1.3841221922 -1.412730909 -0.0826660544
| 17> H 0.3858484327 1.1500446701 -1.4066514997
| 18> H 0.1585226696 -0.4792902425 -2.02898084
| 19> H -1.876189563 0.068327297 -1.1425509824
| 20> H -2.3731333814 1.0980627336 0.9782235871
| 21> H -1.2025334256 2.1009083143 0.1229174867
| 22> H -0.6839237767 1.0851030943 1.4673714009
| 23> H -1.0763725322 -2.1696210292 -0.3632866575
| 24> H -0.5953710366 -1.441799587 1.1741492545
| 25> H -2.289899949 -1.4549379294 0.6986049444
| 26> *
| 27>
| 28>                          ****END OF INPUT****

CARTESIAN COORDINATES (ANGSTROEM)
---------------------------------
  C      1.942209    0.467167    0.800055
  C      1.509324   -0.375199   -0.394712
  C      0.243807    0.107832   -1.110076
  C     -1.101116   -0.005265   -0.368433
  C     -1.349213    1.140616    0.612001
  C     -1.272120   -1.353288    0.328293
  H      2.950804    0.191803    1.101778
  H      1.937804    1.524258    0.544638
  H      1.287505    0.313595    1.652927
  H      2.315863   -0.357589   -1.133058
  H      1.384122   -1.412731   -0.082666
  H      0.385848    1.150045   -1.406651
  H      0.158523   -0.479290   -2.028981
  H     -1.876190    0.068327   -1.142551
  H     -2.373133    1.098063    0.978224
  H     -1.202533    2.100908    0.122917
  H     -0.683924    1.085103    1.467371
  H     -1.076373   -2.169621   -0.363287
  H     -0.595371   -1.441800    1.174149
  H     -2.289900   -1.454938    0.698605

 Total Charge           Charge          ....    0
 Multiplicity           Mult            ....    1
 Number of Electrons    NEL             ....   50
 Basis Dimension        Dim             ....  184

ORBITAL ENERGIES
----------------

  NO   OCC          E(Eh)            E(eV)
   0   2.0000     -10.029721      -272.9226
   1   2.0000     -10.021191      -272.6905
   2   2.0000     -10.018395      -272.6144
   3   2.0000     -10.012975      -272.4669
   4   2.0000     -10.012728      -272.4602
   5   2.0000     -10.010194      -272.3912
   6   2.0000      -0.777289       -21.1511
   7   2.0000      -0.723250       -19.6806
   8   2.0000      -0.648167       -17.6375
   9   2.0000      -0.645183       -17.5563
  10   2.0000      -0.564951       -15.3731
  11   2.0000      -0.504096       -13.7171
  12   2.0000      -0.442047       -12.0287
  13   2.0000      -0.420711       -11.4481
  14   2.0000      -0.398402       -10.8411
  15   2.0000      -0.380913       -10.3652
  16   2.0000      -0.380636       -10.3576
  17   2.0000      -0.350781        -9.5452
  18   2.0000      -0.343191        -9.3387
  19   2.0000      -0.325837        -8.8665
  20   2.0000      -0.319306        -8.6888
  21   2.0000      -0.307375        -8.3641
  22   2.0000      -0.285244        -7.7619
  23   2.0000      -0.276798        -7.5320
  24   2.0000      -0.269145        -7.3238
  25   0.0000       0.078334         2.1316
  26   0.0000       0.111612         3.0371
  27   0.0000       0.118395         3.2217
  28   0.0000       0.127815         3.4780
  29   0.0000       0.135193         3.6788

MULLIKEN ATOMIC CHARGES
-----------------------
   0 C :   -0.473377
   1 C :   -0.258808
   2 C :   -0.283368
   3 C :   -0.019727
   4 C :   -0.489704
   5 C :   -0.503431
   6 H :    0.143124
   7 H :    0.147625
   8 H :    0.140793
   9 H :    0.137341
  10 H :    0.148981
  11 H :    0.142179
  12 H :    0.143430
  13 H :    0.141951
  14 H :    0.142466
  15 H :    0.146464
  16 H :    0.144646
  17 H :    0.150796
  18 H :    0.152968
  19 H :    0.145651
Sum of atomic charges:   -0.0000000

LOEWDIN ATOMIC CHARGES
----------------------
   0 C :   -0.427481
   1 C :   -0.315802
   2 C :   -0.308773
   3 C :   -0.247366
   4 C :   -0.418377
   5 C :   -0.417977
   6 H :    0.149724
   7 H :    0.150646
   8 H :    0.145482
   9 H :    0.152296
  10 H :    0.152926
  11 H :    0.155850
  12 H :    0.157577
  13 H :    0.155033
  14 H :    0.151688
  15 H :    0.152769
  16 H :    0.152006
  17 H :    0.154291
  18 H :    0.152010
  19 H :    0.153475

  Mayer bond orders larger than 0.100000
B(  0-C ,  1-C ) :   0.8844 B(  0-C ,  6-H ) :   0.9686 B(  0-C ,  7-H ) :   0.9822
B(  0-C ,  8-H ) :   0.9819 B(  1-C ,  2-C ) :   0.9024 B(  1-C ,  9-H ) :   0.9610
B(  1-C , 10-H ) :   0.9792 B(  2-C ,  3-C ) :   0.8958 B(  2-C , 11-H ) :   0.9918
B(  2-C , 12-H ) :   0.9654 B(  3-C ,  4-C ) :   0.9330 B(  3-C ,  5-C ) :   0.8874
B(  3-C , 13-H ) :   0.9638 B(  4-C , 14-H ) :   0.9721 B(  4-C , 15-H ) :   0.9777
B(  4-C , 16-H ) :   0.9762 B(  5-C , 17-H ) :   0.9766 B(  5-C , 18-H ) :   0.9784
B(  5-C , 19-H ) :   0.9700

Dispersion correction           -0.005265785
FINAL SINGLE POINT ENERGY      -236.983616160786

DIPOLE MOMENT
-------------

Method             : SCF
Type of density    : Electron Density
Multiplicity       :   1
Irrep              :   0
Energy             :  -236.9880212342679329 Eh
Relativity type    :
Basis              : AO
                                X                 Y                 Z
Electronic contribution:     -0.307153249      -0.222267054      -1.549142729
Nuclear contribution   :      0.303069138       0.202767768       1.485500553
                        -----------------------------------------
Total Dipole Moment    :     -0.004084111      -0.019499286      -0.063642175
                        -----------------------------------------
Magnitude (a.u.)       :      0.066687544
Magnitude (Debye)      :      0.169506267

Rotational constants in cm-1:             0.148736             0.078785             0.070605
Rotational constants in MHz :          4458.990100          2361.929033          2116.688814

                             ****ORCA TERMINATED NORMALLY****
TOTAL RUN TIME: 0 days 0 hours 0 minutes 17 seconds 723 msec
