                         Program Version 6.0.0  -   RELEASE  -
|  1> ! r2scan-3c def2/J RI DEFGRID2 scfconv6 printgap
|  2> %output
|  3>     printlevel normal
|  4> end
|  5> %cpcm
|  6>     smd true
|  7>     smdsolvent "water"
|  8> end
|  9> * xyz 0 1
| 10> C 1.9422091803 0.4671673291 0.8000554583
| 11> C 1.5093244928 -0.3751990122 -0.3947118713
| 12> C 0.2438068854 0.1078322019 -1.1100764885
| 13> C -1.1011157581 -0.0052653599 -0.3684325033
| 14> C -1.3492128922 1.1406158954 0.6120007862
| 15> C -1.272120224 -1.3532878158 0.3282925673
| 16> H 2.9508041887 0.1918032407 1.1017784404
| 17> H 1.9378040911 1.5242577011 0.5446383809
| 18> H 1.287505401 0.3135948325 1.6529274638
| 19> H 2.3158626072 -0.3575889957 -1.1330577118
| 20> H 1.3841221922 -1.412730909 -0.0826660544
| 21> H 0.3858484327 1.1500446701 -1.4066514997
| 22> H 0.1585226696 -0.4792902425 -2.02898084
| 23> H -1.876189563 0.068327297 -1.1425509824
| 24> H -2.3731333814 1.0980627336 0.9782235871
| 25> H -1.2025334256 2.1009083143 0.1229174867
| 26> H -0.6839237767 1.0851030943 1.4673714009
| 27> H -1.0763725322 -2.1696210292 -0.3632866575
| 28> H -0.5953710366 -1.441799587 1.1741492545
| 29> H -2.289899949 -1.4549379294 0.6986049444
| 30> *
| 31>
| 32>                          ****END OF INPUT****

CARTESIAN COORDINATES (ANGSTROEM)
---------------------------------
  C      1.942209    0.467167    0.800055
  C      1.509324   -0.375199   -0.394712
  C      0.243807    0.107832   -1.110076
  C     -1.101116   -0.005265   -0.368433
  C     -1.349213    1.140616    0.612001
  C     -1.272120   -1.353288    0.328293
  H      2.950804    0.191803    1.101778
  H      1.937804    1.524258    0.544638
  H      1.287505    0.313595    1.652927
  H      2.315863   -0.357589   -1.133058
  H      1.384122   -1.412731   -0.082666
  H      0.385848    1.150045   -1.406651
  H      0.158523   -0.479290   -2.028981
  H     -1.876190    0.068327   -1.142551
  H     -2.373133    1.098063    0.978224
  H     -1.202533    2.100908    0.122917
  H     -0.683924    1.085103    1.467371
  H     -1.076373   -2.169621   -0.363287
  H     -0.595371   -1.441800    1.174149
  H     -2.289900   -1.454938    0.698605

 Total Charge           Charge          ....    0
 Multiplicity           Mult            ....    1
 Number of Electrons    NEL             ....   50
 Basis Dimension        Dim             ....  184

ORBITAL ENERGIES
----------------

  NO   OCC          E(Eh)            E(eV)
   0   2.0000     -10.022524      -272.7268
   1   2.0000     -10.013866      -272.4911
   2   2.0000     -10.010771      -272.4069
   3   2.0000     -10.005343      -272.2592
   4   2.0000     -10.004827      -272.2452
   5   2.0000     -10.003082      -272.1977
   6   2.0000      -0.769974       -20.9520
   7   2.0000      -0.716140       -19.4872
   8   2.0000      -0.641446       -17.4546
   9   2.0000      -0.638045       -17.3621
  10   2.0000      -0.558077       -15.1861
  11   2.0000      -0.497067       -13.5259
  12   2.0000      -0.434510       -11.8236
  13   2.0000      -0.413440       -11.2503
  14   2.0000      -0.391317       -10.6483
  15   2.0000      -0.373718       -10.1694
  16   2.0000      -0.373167       -10.1544
  17   2.0000      -0.343545        -9.3483
  18   2.0000      -0.336215        -9.1489
  19   2.0000      -0.318201        -8.6587
  20   2.0000      -0.312014        -8.4903
  21   2.0000      -0.300210        -8.1691
  22   2.0000      -0.277925        -7.5627
  23   2.0000      -0.269579        -7.3356
  24   2.0000      -0.261651        -7.1199
  25   0.0000       0.086547         2.3551
  26   0.0000       0.119041         3.2393
  27   0.0000       0.125294         3.4094
  28   0.0000       0.133748         3.6395
  29   0.0000       0.140541         3.8243

MULLIKEN ATOMIC CHARGES
-----------------------
   0 C :   -0.514430
   1 C :   -0.264669
   2 C :   -0.301376
   3 C :    0.000064
   4 C :   -0.537914
   5 C :   -0.543212
   6 H :    0.151540
   7 H :    0.156326
   8 H :    0.157598
   9 H :    0.144504
  10 H :    0.154443
  11 H :    0.150705
  12 H :    0.150317
  13 H :    0.147648
  14 H :    0.152733
  15 H :    0.157501
  16 H :    0.157638
  17 H :    0.159803
  18 H :    0.164910
  19 H :    0.155872
Sum of atomic charges:   -0.0000000

LOEWDIN ATOMIC CHARGES
----------------------
   0 C :   -0.436067
   1 C :   -0.317962
   2 C :   -0.311861
   3 C :   -0.245487
   4 C :   -0.427796
   5 C :   -0.426001
   6 H :    0.151258
   7 H :    0.152334
   8 H :    0.149915
   9 H :    0.153615
  10 H :    0.154320
  11 H :    0.157894
  12 H :    0.159038
  13 H :    0.156635
  14 H :    0.153651
  15 H :    0.154885
  16 H :    0.154790
  17 H :    0.156440
  18 H :    0.155124
  19 H :    0.155274

  Mayer bond orders larger than 0.100000
B(  0-C ,  1-C ) :   0.8733 B(  0-C ,  6-H ) :   0.9666 B(  0-C ,  7-H ) :   0.9797
B(  0-C ,  8-H ) :   0.9794 B(  1-C ,  2-C ) :   0.8991 B(  1-C ,  9-H ) :   0.9619
B(  1-C , 10-H ) :   0.9794 B(  2-C ,  3-C ) :   0.8921 B(  2-C , 11-H ) :   0.9913
B(  2-C , 12-H ) :   0.9655 B(  3-C ,  4-C ) :   0.9205 B(  3-C ,  5-C ) :   0.8820
B(  3-C , 13-H ) :   0.9649 B(  4-C , 14-H ) :   0.9705 B(  4-C , 15-H ) :   0.9754
B(  4-C , 16-H ) :   0.9756 B(  5-C , 17-H ) :   0.9737 B(  5-C , 18-H ) :   0.9761
B(  5-C , 19-H ) :   0.9688

Dispersion correction           -0.005265785
FINAL SINGLE POINT ENERGY      -236.980462932789

DIPOLE MOMENT
-------------

Method             : SCF
Type of density    : Electron Density
Multiplicity       :   1
Irrep              :   0
Energy             :  -236.9848680062705739 Eh
Relativity type    :
Basis              : AO
                                X                 Y                 Z
Electronic contribution:     -0.311314290      -0.231263926      -1.555609585
Nuclear contribution   :      0.303069138       0.202767768       1.485500553
                        -----------------------------------------
Total Dipole Moment    :     -0.008245152      -0.028496158      -0.070109032
                        -----------------------------------------
Magnitude (a.u.)       :      0.076126802
Magnitude (Debye)      :      0.193498952

Rotational constants in cm-1:             0.148736             0.078785             0.070605
Rotational constants in MHz :          4458.990100          2361.929033          2116.688814

                             ****ORCA TERMINATED NORMALLY****
TOTAL RUN TIME: 0 days 0 hours 0 minutes 20 seconds 682 msec
