                         Program Version 6.0.0  -   RELEASE  -
|  1> ! pbe def2-sv(p) def2/J RI DEFGRID1 loosescf d4 GCP(DFT/SV(P)) printgap
|  2> %output
|  3>     printlevel normal
|  4> end
|  5> * xyz 0 1
|  6> C 3.4866728543 0.8431659616 -0.511347112
|  7> C 2.5780795917 -0.070934938 0.2544375989
|  8> C 3.0173283992 -0.8098591067 1.2608069262
|  9> C 1.1358136072 -0.0523784356 -0.1980681804
| 10> H 1.1175758458 0.200183253 -1.26355216
| 11> C 0.4027179566 -1.3835371176 -0.0196080499
| 12> C -0.9605526085 -1.3143207365 -0.7030552896
| 13> C -1.7141993145 -0.091895306 -0.2598892835
| 14> C -1.0998931482 0.9543980389 0.3172429863
| 15> C 0.360724089 1.0363602435 0.559480597
| 16> C -3.1517600501 -0.0610034242 -0.4644419042
| 17> O -3.8964898826 0.8588481813 -0.1732598217
| 18> H 3.0949774251 1.8589012877 -0.5071396709
| 19> H 4.4849759721 0.8511629835 -0.0832535043
| 20> H 3.5549112403 0.518827403 -1.5489767432
| 21> H 2.3797192914 -1.4712798858 1.8197339759
| 22> H 4.0496822597 -0.7845873102 1.5664729606
| 23> H 0.9933912252 -2.1962719062 -0.4431853724
| 24> H 0.2556894002 -1.5833888385 1.0420689112
| 25> H -0.8340584113 -1.2822124117 -1.789004744
| 26> H -1.5452548259 -2.2065898956 -0.4702986158
| 27> H -1.7052923595 1.7933995269 0.6356220619
| 28> H 0.7163553028 2.0305823716 0.280712952
| 29> H 0.5382668231 0.9316402106 1.6351251035
| 30> H -3.5701132522 -0.9726474639 -0.9311139393
| 31> *
| 32>
| 33>                          ****END OF INPUT****

CARTESIAN COORDINATES (ANGSTROEM)
---------------------------------
  C      3.486673    0.843166   -0.511347
  C      2.578080   -0.070935    0.254438
  C      3.017328   -0.809859    1.260807
  C      1.135814   -0.052378   -0.198068
  H      1.117576    0.200183   -1.263552
  C      0.402718   -1.383537   -0.019608
  C     -0.960553   -1.314321   -0.703055
  C     -1.714199   -0.091895   -0.259889
  C     -1.099893    0.954398    0.317243
  C      0.360724    1.036360    0.559481
  C     -3.151760   -0.061003   -0.464442
  O     -3.896490    0.858848   -0.173260
  H      3.094977    1.858901   -0.507140
  H      4.484976    0.851163   -0.083254
  H      3.554911    0.518827   -1.548977
  H      2.379719   -1.471280    1.819734
  H      4.049682   -0.784587    1.566473
  H      0.993391   -2.196272   -0.443185
  H      0.255689   -1.583389    1.042069
  H     -0.834058   -1.282212   -1.789005
  H     -1.545255   -2.206590   -0.470299
  H     -1.705292    1.793400    0.635622
  H      0.716355    2.030582    0.280713
  H      0.538267    0.931640    1.635125
  H     -3.570113   -0.972647   -0.931114

 Total Charge           Charge          ....    0
 Multiplicity           Mult            ....    1
 Number of Electrons    NEL             ....   82
 Basis Dimension        Dim             ....  182

ORBITAL ENERGIES
----------------

  NO   OCC          E(Eh)            E(eV)
   0   2.0000     -18.741185      -509.9736
   1   2.0000      -9.962077      -271.0819
   2   2.0000      -9.911120      -269.6953
   3   2.0000      -9.907084      -269.5855
   4   2.0000      -9.905372      -269.5389
   5   2.0000      -9.905105      -269.5316
   6   2.0000      -9.901397      -269.4307
   7   2.0000      -9.900085      -269.3950
   8   2.0000      -9.894461      -269.2420
   9   2.0000      -9.887907      -269.0636
  10   2.0000      -9.877287      -268.7746
  11   2.0000      -0.930727       -25.3264
  12   2.0000      -0.782801       -21.3011
  13   2.0000      -0.733282       -19.9536
  14   2.0000      -0.685568       -18.6552
  15   2.0000      -0.676432       -18.4066
  16   2.0000      -0.619717       -16.8634
  17   2.0000      -0.585241       -15.9252
  18   2.0000      -0.569969       -15.5096
  19   2.0000      -0.526588       -14.3292
  20   2.0000      -0.482476       -13.1289
  21   2.0000      -0.466174       -12.6853
  22   2.0000      -0.445815       -12.1312
  23   2.0000      -0.423029       -11.5112
  24   2.0000      -0.409577       -11.1452
  25   2.0000      -0.394143       -10.7252
  26   2.0000      -0.391143       -10.6436
  27   2.0000      -0.381902       -10.3921
  28   2.0000      -0.373983       -10.1766
  29   2.0000      -0.360374        -9.8063
  30   2.0000      -0.358651        -9.7594
  31   2.0000      -0.351307        -9.5595
  32   2.0000      -0.339856        -9.2480
  33   2.0000      -0.333473        -9.0743
  34   2.0000      -0.325431        -8.8554
  35   2.0000      -0.301698        -8.2096
  36   2.0000      -0.289424        -7.8756
  37   2.0000      -0.279204        -7.5975
  38   2.0000      -0.230994        -6.2857
  39   2.0000      -0.223399        -6.0790
  40   2.0000      -0.199880        -5.4390
  41   0.0000      -0.091715        -2.4957
  42   0.0000      -0.018828        -0.5123
  43   0.0000       0.020607         0.5608
  44   0.0000       0.030484         0.8295
  45   0.0000       0.050498         1.3741

MULLIKEN ATOMIC CHARGES
-----------------------
   0 C :   -0.212391
   1 C :   -0.023072
   2 C :   -0.241412
   3 C :   -0.177652
   4 H :    0.066156
   5 C :   -0.131276
   6 C :   -0.060534
   7 C :   -0.082400
   8 C :   -0.140084
   9 C :   -0.053647
  10 C :    0.047649
  11 O :   -0.170899
  12 H :    0.108068
  13 H :    0.098110
  14 H :    0.111232
  15 H :    0.091719
  16 H :    0.083700
  17 H :    0.090011
  18 H :    0.094725
  19 H :    0.096350
  20 H :    0.092346
  21 H :    0.076160
  22 H :    0.100061
  23 H :    0.107697
  24 H :    0.029384
Sum of atomic charges:   -0.0000000

LOEWDIN ATOMIC CHARGES
----------------------
   0 C :   -0.321262
   1 C :   -0.048680
   2 C :   -0.268106
   3 C :   -0.130794
   4 H :    0.121273
   5 C :   -0.208225
   6 C :   -0.211888
   7 C :   -0.120665
   8 C :   -0.067482
   9 C :   -0.206592
  10 C :    0.000051
  11 O :   -0.135303
  12 H :    0.126120
  13 H :    0.124462
  14 H :    0.129905
  15 H :    0.117857
  16 H :    0.119352
  17 H :    0.122096
  18 H :    0.121156
  19 H :    0.129552
  20 H :    0.126991
  21 H :    0.131492
  22 H :    0.132224
  23 H :    0.140378
  24 H :    0.076089

  Mayer bond orders larger than 0.100000
B(  0-C ,  1-C ) :   1.1282 B(  0-C , 12-H ) :   0.9310 B(  0-C , 13-H ) :   0.9386
B(  0-C , 14-H ) :   0.9274 B(  1-C ,  2-C ) :   2.0419 B(  1-C ,  3-C ) :   0.9952
B(  2-C , 15-H ) :   0.9070 B(  2-C , 16-H ) :   0.9003 B(  3-C ,  4-H ) :   0.8898
B(  3-C ,  5-C ) :   1.0736 B(  3-C ,  9-C ) :   1.0799 B(  5-C ,  6-C ) :   1.1350
B(  5-C , 17-H ) :   0.9171 B(  5-C , 18-H ) :   0.9041 B(  6-C ,  7-C ) :   1.0457
B(  6-C , 19-H ) :   0.8847 B(  6-C , 20-H ) :   0.8972 B(  7-C ,  8-C ) :   1.8189
B(  7-C , 10-C ) :   1.0117 B(  8-C ,  9-C ) :   1.0549 B(  8-C , 11-O ) :   0.1093
B(  8-C , 21-H ) :   0.9207 B(  9-C , 22-H ) :   0.8931 B(  9-C , 23-H ) :   0.8741
B( 10-C , 11-O ) :   2.1362 B( 10-C , 24-H ) :   0.9160

Dispersion correction           -0.026166353
FINAL SINGLE POINT ENERGY      -463.624661068527

DIPOLE MOMENT
-------------

Method             : SCF
Type of density    : Electron Density
Multiplicity       :   1
Irrep              :   0
Energy             :  -463.7007688187253507 Eh
Relativity type    :
Basis              : AO
                                X                 Y                 Z
Electronic contribution:    -11.498689821       1.797118870      -0.106561561
Nuclear contribution   :     12.636420571      -2.156575125      -0.055845859
                        -----------------------------------------
Total Dipole Moment    :      1.137730750      -0.359456255      -0.162407420
                        -----------------------------------------
Magnitude (a.u.)       :      1.204166196
Magnitude (Debye)      :      3.060747230

Rotational constants in cm-1:             0.096465             0.018273             0.016880
Rotational constants in MHz :          2891.937905           547.813408           506.054231

                             ****ORCA TERMINATED NORMALLY****
TOTAL RUN TIME: 0 days 0 hours 0 minutes 18 seconds 997 msec
