                         Program Version 6.0.0  -   RELEASE  -
|  1> ! pbe def2-sv(p) def2/J RI DEFGRID1 loosescf d4 GCP(DFT/SV(P)) printgap
|  2> %output
|  3>     printlevel normal
|  4> end
|  5> * xyz 0 1
|  6> C 1.9050757867 -0.9824519196 0.5795221291
|  7> C 1.1842007854 0.3426421791 0.3399620846
|  8> H 0.8451896722 0.7502509653 1.3054085009
|  9> C -0.0166629454 0.189440885 -0.5997966446
| 10> C -1.2425232688 -0.4993466964 0.0082491393
| 11> C -1.9418883333 0.3909450113 1.0335071968
| 12> C -2.2213579842 -0.8718197198 -1.1049428344
| 13> O 2.0484018681 1.2912425841 -0.2732076294
| 14> H 1.2242027781 -1.7078208966 1.0135390285
| 15> H 2.2825200629 -1.3712387003 -0.3634750989
| 16> H 2.7406586425 -0.8453223304 1.2626077782
| 17> H -0.2945725967 1.19071327 -0.9368943962
| 18> H 0.3189500083 -0.3669041913 -1.4774703673
| 19> H -0.9238147694 -1.4210986066 0.5057143276
| 20> H -2.8186080975 -0.1131220334 1.4331586436
| 21> H -2.2617814941 1.3206332286 0.5682858853
| 22> H -1.2824759671 0.6311254827 1.8629612284
| 23> H -3.098400431 -1.3639027966 -0.6914430663
| 24> H -2.5455256061 0.0205610678 -1.6356843852
| 25> H -1.7541597604 -1.5454705072 -1.8191356856
| 26> H 2.8553811866 1.3725564781 0.2526377306
| 27> *
| 28>
| 29>                          ****END OF INPUT****

CARTESIAN COORDINATES (ANGSTROEM)
---------------------------------
  C      1.905076   -0.982452    0.579522
  C      1.184201    0.342642    0.339962
  H      0.845190    0.750251    1.305409
  C     -0.016663    0.189441   -0.599797
  C     -1.242523   -0.499347    0.008249
  C     -1.941888    0.390945    1.033507
  C     -2.221358   -0.871820   -1.104943
  O      2.048402    1.291243   -0.273208
  H      1.224203   -1.707821    1.013539
  H      2.282520   -1.371239   -0.363475
  H      2.740659   -0.845322    1.262608
  H     -0.294573    1.190713   -0.936894
  H      0.318950   -0.366904   -1.477470
  H     -0.923815   -1.421099    0.505714
  H     -2.818608   -0.113122    1.433159
  H     -2.261781    1.320633    0.568286
  H     -1.282476    0.631125    1.862961
  H     -3.098400   -1.363903   -0.691443
  H     -2.545526    0.020561   -1.635684
  H     -1.754160   -1.545471   -1.819136
  H      2.855381    1.372556    0.252638

 Total Charge           Charge          ....    0
 Multiplicity           Mult            ....    1
 Number of Electrons    NEL             ....   58
 Basis Dimension        Dim             ....  126

ORBITAL ENERGIES
----------------

  NO   OCC          E(Eh)            E(eV)
   0   2.0000     -18.734686      -509.7967
   1   2.0000      -9.933897      -270.3151
   2   2.0000      -9.894487      -269.2427
   3   2.0000      -9.875472      -268.7253
   4   2.0000      -9.875139      -268.7162
   5   2.0000      -9.871009      -268.6038
   6   2.0000      -9.870270      -268.5837
   7   2.0000      -0.912047       -24.8181
   8   2.0000      -0.731615       -19.9083
   9   2.0000      -0.674085       -18.3428
  10   2.0000      -0.610715       -16.6184
  11   2.0000      -0.608684       -16.5631
  12   2.0000      -0.534250       -14.5377
  13   2.0000      -0.491122       -13.3641
  14   2.0000      -0.450663       -12.2632
  15   2.0000      -0.422730       -11.5031
  16   2.0000      -0.394939       -10.7468
  17   2.0000      -0.385012       -10.4767
  18   2.0000      -0.375335       -10.2134
  19   2.0000      -0.361288        -9.8311
  20   2.0000      -0.339373        -9.2348
  21   2.0000      -0.331396        -9.0177
  22   2.0000      -0.314432        -8.5561
  23   2.0000      -0.310825        -8.4580
  24   2.0000      -0.293765        -7.9938
  25   2.0000      -0.282595        -7.6898
  26   2.0000      -0.279920        -7.6170
  27   2.0000      -0.260317        -7.0836
  28   2.0000      -0.208893        -5.6843
  29   0.0000       0.026647         0.7251
  30   0.0000       0.043232         1.1764
  31   0.0000       0.065356         1.7784
  32   0.0000       0.070021         1.9054
  33   0.0000       0.079661         2.1677

MULLIKEN ATOMIC CHARGES
-----------------------
   0 C :   -0.275661
   1 C :    0.026306
   2 H :    0.059074
   3 C :   -0.108715
   4 C :   -0.199491
   5 C :   -0.250219
   6 C :   -0.233049
   7 O :   -0.427092
   8 H :    0.103912
   9 H :    0.102646
  10 H :    0.091858
  11 H :    0.084951
  12 H :    0.075639
  13 H :    0.075747
  14 H :    0.096654
  15 H :    0.094722
  16 H :    0.104581
  17 H :    0.096050
  18 H :    0.093727
  19 H :    0.097874
  20 H :    0.290488
Sum of atomic charges:   -0.0000000

LOEWDIN ATOMIC CHARGES
----------------------
   0 C :   -0.353958
   1 C :   -0.056192
   2 H :    0.093820
   3 C :   -0.217864
   4 C :   -0.158065
   5 C :   -0.330291
   6 C :   -0.326817
   7 O :   -0.336270
   8 H :    0.122031
   9 H :    0.121943
  10 H :    0.113680
  11 H :    0.121447
  12 H :    0.116320
  13 H :    0.111906
  14 H :    0.117346
  15 H :    0.118016
  16 H :    0.113997
  17 H :    0.115771
  18 H :    0.117378
  19 H :    0.116543
  20 H :    0.279258

  Mayer bond orders larger than 0.100000
B(  0-C ,  1-C ) :   1.1063 B(  0-C ,  8-H ) :   0.9310 B(  0-C ,  9-H ) :   0.9405
B(  0-C , 10-H ) :   0.9446 B(  1-C ,  2-H ) :   0.9059 B(  1-C ,  3-C ) :   1.0799
B(  1-C ,  7-O ) :   1.0612 B(  3-C ,  4-C ) :   1.0649 B(  3-C , 11-H ) :   0.9064
B(  3-C , 12-H ) :   0.9136 B(  4-C ,  5-C ) :   1.1042 B(  4-C ,  6-C ) :   1.1123
B(  4-C , 13-H ) :   0.8986 B(  5-C , 14-H ) :   0.9490 B(  5-C , 15-H ) :   0.9493
B(  5-C , 16-H ) :   0.9447 B(  6-C , 17-H ) :   0.9516 B(  6-C , 18-H ) :   0.9499
B(  6-C , 19-H ) :   0.9493 B(  7-O , 20-H ) :   0.8536

Dispersion correction           -0.016136504
FINAL SINGLE POINT ENERGY      -311.517804778011

DIPOLE MOMENT
-------------

Method             : SCF
Type of density    : Electron Density
Multiplicity       :   1
Irrep              :   0
Energy             :  -311.5972970292662012 Eh
Relativity type    :
Basis              : AO
                                X                 Y                 Z
Electronic contribution:      4.564266235       2.934630110      -0.706778336
Nuclear contribution   :     -4.390636153      -3.216600158       1.196991858
                        -----------------------------------------
Total Dipole Moment    :      0.173630082      -0.281970047       0.490213522
                        -----------------------------------------
Magnitude (a.u.)       :      0.591577391
Magnitude (Debye)      :      1.503670231

Rotational constants in cm-1:             0.140722             0.044852             0.043855
Rotational constants in MHz :          4218.752470          1344.640322          1314.750284

                             ****ORCA TERMINATED NORMALLY****
TOTAL RUN TIME: 0 days 0 hours 0 minutes 10 seconds 195 msec
