                         Program Version 6.0.0  -   RELEASE  -
|  1> ! pbe def2-sv(p) def2/J RI DEFGRID1 loosescf d4 GCP(DFT/SV(P)) printgap
|  2> %output
|  3>     printlevel normal
|  4> end
|  5> * xyz 0 1
|  6> C 2.4899582493 0.7873522475 0.333078243
|  7> C 1.2446803061 -0.0895747716 0.2329007388
|  8> C 1.4121631597 -1.1359189453 -0.8669237507
|  9> C 0.006955494 0.7709448704 -0.0400297382
| 10> C -1.2956851274 0.0325185791 0.1415034426
| 11> O -1.3974642151 -0.9782953091 0.8091125461
| 12> C -2.469984937 0.6522371735 -0.5605982052
| 13> H 2.6455288228 1.330169486 -0.5965979278
| 14> H 2.3928369838 1.506462893 1.1429166082
| 15> H 3.367651924 0.1749964768 0.5233945508
| 16> H 1.0918171397 -0.6094974342 1.1850150593
| 17> H 1.5499532564 -0.6549256347 -1.8331181791
| 18> H 0.534172752 -1.7764796898 -0.9163637581
| 19> H 2.2782230948 -1.7618041252 -0.6671170949
| 20> H 0.0487845157 1.1940147527 -1.044229014
| 21> H -0.0175408789 1.6050867507 0.6671680632
| 22> H -2.4640673352 1.730542051 -0.4347060478
| 23> H -2.3862176243 0.4348590975 -1.6237238649
| 24> H -3.3994378488 0.229923897 -0.1888505915
| 25> *
| 26>
| 27>                          ****END OF INPUT****

CARTESIAN COORDINATES (ANGSTROEM)
---------------------------------
  C      2.489958    0.787352    0.333078
  C      1.244680   -0.089575    0.232901
  C      1.412163   -1.135919   -0.866924
  C      0.006955    0.770945   -0.040030
  C     -1.295685    0.032519    0.141503
  O     -1.397464   -0.978295    0.809113
  C     -2.469985    0.652237   -0.560598
  H      2.645529    1.330169   -0.596598
  H      2.392837    1.506463    1.142917
  H      3.367652    0.174996    0.523395
  H      1.091817   -0.609497    1.185015
  H      1.549953   -0.654926   -1.833118
  H      0.534173   -1.776480   -0.916364
  H      2.278223   -1.761804   -0.667117
  H      0.048785    1.194015   -1.044229
  H     -0.017541    1.605087    0.667168
  H     -2.464067    1.730542   -0.434706
  H     -2.386218    0.434859   -1.623724
  H     -3.399438    0.229924   -0.188851

 Total Charge           Charge          ....    0
 Multiplicity           Mult            ....    1
 Number of Electrons    NEL             ....   56
 Basis Dimension        Dim             ....  122

ORBITAL ENERGIES
----------------

  NO   OCC          E(Eh)            E(eV)
   0   2.0000     -18.738819      -509.9092
   1   2.0000      -9.973498      -271.3927
   2   2.0000      -9.896114      -269.2870
   3   2.0000      -9.892127      -269.1785
   4   2.0000      -9.886513      -269.0257
   5   2.0000      -9.874216      -268.6911
   6   2.0000      -9.870857      -268.5997
   7   2.0000      -0.935653       -25.4604
   8   2.0000      -0.734949       -19.9990
   9   2.0000      -0.683253       -18.5923
  10   2.0000      -0.624945       -17.0056
  11   2.0000      -0.610853       -16.6222
  12   2.0000      -0.510278       -13.8854
  13   2.0000      -0.465554       -12.6684
  14   2.0000      -0.430929       -11.7262
  15   2.0000      -0.417200       -11.3526
  16   2.0000      -0.398557       -10.8453
  17   2.0000      -0.391578       -10.6554
  18   2.0000      -0.371229       -10.1017
  19   2.0000      -0.363256        -9.8847
  20   2.0000      -0.346064        -9.4169
  21   2.0000      -0.340720        -9.2714
  22   2.0000      -0.326015        -8.8713
  23   2.0000      -0.310497        -8.4491
  24   2.0000      -0.291107        -7.9214
  25   2.0000      -0.287932        -7.8350
  26   2.0000      -0.284440        -7.7400
  27   2.0000      -0.196724        -5.3531
  28   0.0000      -0.049241        -1.3399
  29   0.0000       0.026914         0.7324
  30   0.0000       0.055119         1.4999
  31   0.0000       0.073323         1.9952
  32   0.0000       0.084089         2.2882

MULLIKEN ATOMIC CHARGES
-----------------------
   0 C :   -0.231457
   1 C :   -0.169887
   2 C :   -0.258990
   3 C :   -0.152394
   4 C :   -0.010102
   5 O :   -0.172214
   6 C :   -0.244486
   7 H :    0.089400
   8 H :    0.096395
   9 H :    0.100590
  10 H :    0.088420
  11 H :    0.086718
  12 H :    0.114221
  13 H :    0.101643
  14 H :    0.089333
  15 H :    0.110014
  16 H :    0.117218
  17 H :    0.127957
  18 H :    0.117624
Sum of atomic charges:   -0.0000000

LOEWDIN ATOMIC CHARGES
----------------------
   0 C :   -0.328361
   1 C :   -0.155731
   2 C :   -0.331170
   3 C :   -0.246515
   4 C :    0.043837
   5 O :   -0.131308
   6 C :   -0.361756
   7 H :    0.114593
   8 H :    0.115797
   9 H :    0.118862
  10 H :    0.123073
  11 H :    0.112484
  12 H :    0.121602
  13 H :    0.119514
  14 H :    0.126428
  15 H :    0.143076
  16 H :    0.135394
  17 H :    0.146080
  18 H :    0.134101

  Mayer bond orders larger than 0.100000
B(  0-C ,  1-C ) :   1.1115 B(  0-C ,  7-H ) :   0.9478 B(  0-C ,  8-H ) :   0.9505
B(  0-C ,  9-H ) :   0.9522 B(  1-C ,  2-C ) :   1.1137 B(  1-C ,  3-C ) :   1.0802
B(  1-C , 10-H ) :   0.8927 B(  2-C , 11-H ) :   0.9483 B(  2-C , 12-H ) :   0.9475
B(  2-C , 13-H ) :   0.9527 B(  3-C ,  4-C ) :   0.9782 B(  3-C , 14-H ) :   0.9089
B(  3-C , 15-H ) :   0.8788 B(  4-C ,  5-O ) :   2.1662 B(  4-C ,  6-C ) :   1.0750
B(  6-C , 16-H ) :   0.9326 B(  6-C , 17-H ) :   0.9211 B(  6-C , 18-H ) :   0.9338

Dispersion correction           -0.014721764
FINAL SINGLE POINT ENERGY      -310.357458667776

DIPOLE MOMENT
-------------

Method             : SCF
Type of density    : Electron Density
Multiplicity       :   1
Irrep              :   0
Energy             :  -310.4221571063633860 Eh
Relativity type    :
Basis              : AO
                                X                 Y                 Z
Electronic contribution:     -5.182264362      -2.391884284       3.041641059
Nuclear contribution   :      5.272120470       3.178390672      -3.540089745
                        -----------------------------------------
Total Dipole Moment    :      0.089856108       0.786506388      -0.498448686
                        -----------------------------------------
Magnitude (a.u.)       :      0.935477157
Magnitude (Debye)      :      2.377793966

Rotational constants in cm-1:             0.157358             0.050078             0.045839
Rotational constants in MHz :          4717.473831          1501.309897          1374.233017

                             ****ORCA TERMINATED NORMALLY****
TOTAL RUN TIME: 0 days 0 hours 0 minutes 9 seconds 560 msec
