                         Program Version 6.0.0  -   RELEASE  -
|  1> ! r2scan-3c def2/J RI DEFGRID2 scfconv6 printgap
|  2> %output
|  3>     printlevel normal
|  4> end
|  5> * xyz 0 1
|  6> C -2.3954950925 0.2594860773 1.0414519562
|  7> C -1.7942890792 0.6062680551 -0.3239263352
|  8> C -0.5293744225 -0.1858522989 -0.5274333832
|  9> O -0.4504151559 -1.2252925859 -1.1510878532
| 10> O 0.5030763604 0.3709743235 0.0870914537
| 11> C 1.770307827 -0.3039051743 0.0168613839
| 12> C 2.7850115259 0.5132346068 0.7925927861
| 13> H -1.6990988369 0.5162072753 1.8353049829
| 14> H -3.3165676587 0.8155151605 1.187228141
| 15> H -2.6158319202 -0.8039120281 1.0977293171
| 16> H -1.5530545103 1.6675873704 -0.3610708939
| 17> H -2.4932777197 0.3499756973 -1.1190110765
| 18> H 1.6508216939 -1.3091537988 0.4343028756
| 19> H 2.0488358038 -0.4049493568 -1.0373374966
| 20> H 2.8658234701 1.5080125808 0.3649295775
| 21> H 2.4770960049 0.6020535991 1.8300192442
| 22> H 3.7517587346 0.0232660123 0.7463278798
| 23> *
| 24>
| 25>                          ****END OF INPUT****

CARTESIAN COORDINATES (ANGSTROEM)
---------------------------------
  C     -2.395495    0.259486    1.041452
  C     -1.794289    0.606268   -0.323926
  C     -0.529374   -0.185852   -0.527433
  O     -0.450415   -1.225293   -1.151088
  O      0.503076    0.370974    0.087091
  C      1.770308   -0.303905    0.016861
  C      2.785012    0.513235    0.792593
  H     -1.699099    0.516207    1.835305
  H     -3.316568    0.815515    1.187228
  H     -2.615832   -0.803912    1.097729
  H     -1.553055    1.667587   -0.361071
  H     -2.493278    0.349976   -1.119011
  H      1.650822   -1.309154    0.434303
  H      2.048836   -0.404949   -1.037337
  H      2.865823    1.508013    0.364930
  H      2.477096    0.602054    1.830019
  H      3.751759    0.023266    0.746328

 Total Charge           Charge          ....    0
 Multiplicity           Mult            ....    1
 Number of Electrons    NEL             ....   56
 Basis Dimension        Dim             ....  193

ORBITAL ENERGIES
----------------

  NO   OCC          E(Eh)            E(eV)
   0   2.0000     -18.996268      -516.9147
   1   2.0000     -18.926192      -515.0079
   2   2.0000     -10.149952      -276.1942
   3   2.0000     -10.091861      -274.6135
   4   2.0000     -10.043083      -273.2862
   5   2.0000     -10.032336      -272.9937
   6   2.0000     -10.031658      -272.9753
   7   2.0000      -1.071892       -29.1677
   8   2.0000      -0.972923       -26.4746
   9   2.0000      -0.767180       -20.8760
  10   2.0000      -0.733545       -19.9608
  11   2.0000      -0.638241       -17.3674
  12   2.0000      -0.594320       -16.1723
  13   2.0000      -0.534710       -14.5502
  14   2.0000      -0.469488       -12.7754
  15   2.0000      -0.456529       -12.4228
  16   2.0000      -0.440772       -11.9940
  17   2.0000      -0.410611       -11.1733
  18   2.0000      -0.404067       -10.9952
  19   2.0000      -0.377490       -10.2720
  20   2.0000      -0.372681       -10.1412
  21   2.0000      -0.352744        -9.5986
  22   2.0000      -0.343103        -9.3363
  23   2.0000      -0.327157        -8.9024
  24   2.0000      -0.320934        -8.7330
  25   2.0000      -0.313716        -8.5367
  26   2.0000      -0.270913        -7.3719
  27   2.0000      -0.231313        -6.2944
  28   0.0000      -0.013885        -0.3778
  29   0.0000       0.072182         1.9642
  30   0.0000       0.095659         2.6030
  31   0.0000       0.119129         3.2417
  32   0.0000       0.123929         3.3723

MULLIKEN ATOMIC CHARGES
-----------------------
   0 C :   -0.471477
   1 C :   -0.295726
   2 C :    0.399910
   3 O :   -0.422120
   4 O :   -0.168621
   5 C :   -0.148828
   6 C :   -0.441209
   7 H :    0.156639
   8 H :    0.153363
   9 H :    0.158350
  10 H :    0.152349
  11 H :    0.162896
  12 H :    0.156114
  13 H :    0.157214
  14 H :    0.152372
  15 H :    0.151493
  16 H :    0.147280
Sum of atomic charges:    0.0000000

LOEWDIN ATOMIC CHARGES
----------------------
   0 C :   -0.392615
   1 C :   -0.237060
   2 C :    0.352390
   3 O :   -0.425305
   4 O :   -0.599389
   5 C :    0.034173
   6 C :   -0.386678
   7 H :    0.157787
   8 H :    0.152978
   9 H :    0.159039
  10 H :    0.173707
  11 H :    0.174523
  12 H :    0.179008
  13 H :    0.179494
  14 H :    0.159419
  15 H :    0.158925
  16 H :    0.159604

  Mayer bond orders larger than 0.100000
B(  0-C ,  1-C ) :   0.8968 B(  0-C ,  7-H ) :   0.9775 B(  0-C ,  8-H ) :   0.9708
B(  0-C ,  9-H ) :   0.9743 B(  1-C ,  2-C ) :   0.9509 B(  1-C , 10-H ) :   0.9735
B(  1-C , 11-H ) :   0.9766 B(  2-C ,  3-O ) :   1.8219 B(  2-C ,  4-O ) :   1.0597
B(  4-O ,  5-C ) :   0.8110 B(  5-C ,  6-C ) :   0.9400 B(  5-C , 12-H ) :   0.9521
B(  5-C , 13-H ) :   0.9548 B(  6-C , 14-H ) :   0.9721 B(  6-C , 15-H ) :   0.9721
B(  6-C , 16-H ) :   0.9682

Dispersion correction           -0.003900916
FINAL SINGLE POINT ENERGY      -346.936105362312

DIPOLE MOMENT
-------------

Method             : SCF
Type of density    : Electron Density
Multiplicity       :   1
Irrep              :   0
Energy             :  -346.9425015525009712 Eh
Relativity type    :
Basis              : AO
                                X                 Y                 Z
Electronic contribution:     -0.768852570      -2.125247021      -4.088246293
Nuclear contribution   :      1.048249192       2.768626586       4.654817775
                        -----------------------------------------
Total Dipole Moment    :      0.279396622       0.643379565       0.566571482
                        -----------------------------------------
Magnitude (a.u.)       :      0.901666780
Magnitude (Debye)      :      2.291854817

Rotational constants in cm-1:             0.163109             0.050321             0.042234
Rotational constants in MHz :          4889.897421          1508.581275          1266.157706

                             ****ORCA TERMINATED NORMALLY****
TOTAL RUN TIME: 0 days 0 hours 0 minutes 19 seconds 79 msec
