                         Program Version 6.0.0  -   RELEASE  -
|  1> ! pbe def2-sv(p) def2/J RI DEFGRID1 loosescf d4 GCP(DFT/SV(P)) printgap
|  2> %output
|  3>     printlevel normal
|  4> end
|  5> * xyz 0 1
|  6> C -2.6583119447 -0.4832154886 1.4623470263
|  7> C -2.0837146277 -0.3054320764 0.0581208022
|  8> C -3.2167001364 -0.0632105864 -0.937588631
|  9> C -1.070961454 0.8612355228 0.0074897509
| 10> C 0.353593778 0.4082350992 -0.0451120433
| 11> C 0.9136519346 -0.4613772651 0.8948742971
| 12> N 2.1733829442 -0.8581892578 0.8307094687
| 13> C 2.9041357575 -0.3916963798 -0.1752485833
| 14> C 2.3622603282 0.4729104502 -1.1138200677
| 15> N 1.0985503959 0.866745152 -1.0490617238
| 16> H -3.3284204433 -1.3392499977 1.489989961
| 17> H -3.221339504 0.4014878685 1.7516717771
| 18> H -1.8716396339 -0.644667968 2.1948316954
| 19> H -1.568366338 -1.229581844 -0.2281093839
| 20> H -2.8284680886 0.0126254541 -1.9502360034
| 21> H -3.9299723927 -0.8833255502 -0.904799283
| 22> H -3.7409597998 0.8583445725 -0.695696635
| 23> H -1.2048191579 1.4955488025 0.8860623166
| 24> H -1.2443414275 1.473970989 -0.8771246069
| 25> H 0.3398424709 -0.8514432964 1.7228208888
| 26> H 3.9315077396 -0.7216987159 -0.2169421996
| 27> H 2.942226272 0.862811497 -1.9382367296
| 28> *
| 29>
| 30>                          ****END OF INPUT****

CARTESIAN COORDINATES (ANGSTROEM)
---------------------------------
  C     -2.658312   -0.483215    1.462347
  C     -2.083715   -0.305432    0.058121
  C     -3.216700   -0.063211   -0.937589
  C     -1.070961    0.861236    0.007490
  C      0.353594    0.408235   -0.045112
  C      0.913652   -0.461377    0.894874
  N      2.173383   -0.858189    0.830709
  C      2.904136   -0.391696   -0.175249
  C      2.362260    0.472910   -1.113820
  N      1.098550    0.866745   -1.049062
  H     -3.328420   -1.339250    1.489990
  H     -3.221340    0.401488    1.751672
  H     -1.871640   -0.644668    2.194832
  H     -1.568366   -1.229582   -0.228109
  H     -2.828468    0.012625   -1.950236
  H     -3.929972   -0.883326   -0.904799
  H     -3.740960    0.858345   -0.695697
  H     -1.204819    1.495549    0.886062
  H     -1.244341    1.473971   -0.877125
  H      0.339842   -0.851443    1.722821
  H      3.931508   -0.721699   -0.216942
  H      2.942226    0.862811   -1.938237

 Total Charge           Charge          ....    0
 Multiplicity           Mult            ....    1
 Number of Electrons    NEL             ....   74
 Basis Dimension        Dim             ....  164

ORBITAL ENERGIES
----------------

  NO   OCC          E(Eh)            E(eV)
   0   2.0000     -13.998747      -380.9253
   1   2.0000     -13.997719      -380.8973
   2   2.0000      -9.942522      -270.5498
   3   2.0000      -9.930678      -270.2275
   4   2.0000      -9.930540      -270.2237
   5   2.0000      -9.928280      -270.1622
   6   2.0000      -9.905571      -269.5443
   7   2.0000      -9.891614      -269.1645
   8   2.0000      -9.881132      -268.8793
   9   2.0000      -9.878490      -268.8074
  10   2.0000      -0.896984       -24.4082
  11   2.0000      -0.822432       -22.3795
  12   2.0000      -0.745540       -20.2872
  13   2.0000      -0.702445       -19.1145
  14   2.0000      -0.636278       -17.3140
  15   2.0000      -0.617729       -16.8093
  16   2.0000      -0.592387       -16.1197
  17   2.0000      -0.563665       -15.3381
  18   2.0000      -0.511184       -13.9100
  19   2.0000      -0.473184       -12.8760
  20   2.0000      -0.466869       -12.7041
  21   2.0000      -0.432341       -11.7646
  22   2.0000      -0.410786       -11.1781
  23   2.0000      -0.404628       -11.0105
  24   2.0000      -0.386712       -10.5230
  25   2.0000      -0.383559       -10.4372
  26   2.0000      -0.369387       -10.0515
  27   2.0000      -0.349495        -9.5102
  28   2.0000      -0.345557        -9.4031
  29   2.0000      -0.326608        -8.8875
  30   2.0000      -0.305126        -8.3029
  31   2.0000      -0.294933        -8.0255
  32   2.0000      -0.294330        -8.0091
  33   2.0000      -0.290401        -7.9022
  34   2.0000      -0.247925        -6.7464
  35   2.0000      -0.242430        -6.5969
  36   2.0000      -0.197483        -5.3738
  37   0.0000      -0.075740        -2.0610
  38   0.0000      -0.056308        -1.5322
  39   0.0000       0.034324         0.9340
  40   0.0000       0.063778         1.7355
  41   0.0000       0.066548         1.8109

MULLIKEN ATOMIC CHARGES
-----------------------
   0 C :   -0.262479
   1 C :   -0.199621
   2 C :   -0.251424
   3 C :   -0.015621
   4 C :   -0.109897
   5 C :   -0.079436
   6 N :   -0.040173
   7 C :   -0.060869
   8 C :   -0.047714
   9 N :   -0.045571
  10 H :    0.102623
  11 H :    0.098905
  12 H :    0.110338
  13 H :    0.092295
  14 H :    0.109669
  15 H :    0.100064
  16 H :    0.098813
  17 H :    0.098259
  18 H :    0.082964
  19 H :    0.069057
  20 H :    0.075363
  21 H :    0.074453
Sum of atomic charges:    0.0000000

LOEWDIN ATOMIC CHARGES
----------------------
   0 C :   -0.330759
   1 C :   -0.151922
   2 C :   -0.327802
   3 C :   -0.211325
   4 C :   -0.020632
   5 C :   -0.095969
   6 N :   -0.050226
   7 C :   -0.105045
   8 C :   -0.096027
   9 N :   -0.055615
  10 H :    0.119581
  11 H :    0.118173
  12 H :    0.114171
  13 H :    0.116762
  14 H :    0.120412
  15 H :    0.118021
  16 H :    0.117970
  17 H :    0.134442
  18 H :    0.129672
  19 H :    0.117521
  20 H :    0.119303
  21 H :    0.119294

  Mayer bond orders larger than 0.100000
B(  0-C ,  1-C ) :   1.1037 B(  0-C , 10-H ) :   0.9473 B(  0-C , 11-H ) :   0.9460
B(  0-C , 12-H ) :   0.9447 B(  1-C ,  2-C ) :   1.1204 B(  1-C ,  3-C ) :   1.0176
B(  1-C , 13-H ) :   0.9178 B(  2-C , 14-H ) :   0.9481 B(  2-C , 15-H ) :   0.9513
B(  2-C , 16-H ) :   0.9488 B(  3-C ,  4-C ) :   1.0700 B(  3-C , 17-H ) :   0.8906
B(  3-C , 18-H ) :   0.8957 B(  4-C ,  5-C ) :   1.3237 B(  4-C ,  7-C ) :   0.1031
B(  4-C ,  9-N ) :   1.5727 B(  5-C ,  6-N ) :   1.5688 B(  5-C , 19-H ) :   0.9411
B(  6-N ,  7-C ) :   1.5320 B(  7-C ,  8-C ) :   1.3655 B(  7-C , 20-H ) :   0.9474
B(  8-C ,  9-N ) :   1.5251 B(  8-C , 21-H ) :   0.9457

Dispersion correction           -0.021814712
FINAL SINGLE POINT ENERGY      -420.620716047976

DIPOLE MOMENT
-------------

Method             : SCF
Type of density    : Electron Density
Multiplicity       :   1
Irrep              :   0
Energy             :  -420.6888955755138682 Eh
Relativity type    :
Basis              : AO
                                X                 Y                 Z
Electronic contribution:     14.434570925       0.565534501      -1.177061658
Nuclear contribution   :    -14.734523593      -0.530185269       1.156719982
                        -----------------------------------------
Total Dipole Moment    :     -0.299952668       0.035349232      -0.020341676
                        -----------------------------------------
Magnitude (a.u.)       :      0.302712661
Magnitude (Debye)      :      0.769434436

Rotational constants in cm-1:             0.104233             0.025486             0.021950
Rotational constants in MHz :          3124.823974           764.052808           658.049544

                             ****ORCA TERMINATED NORMALLY****
TOTAL RUN TIME: 0 days 0 hours 0 minutes 11 seconds 422 msec
