                         Program Version 6.0.0  -   RELEASE  -
|  1> ! r2scan-3c def2/J RI DEFGRID2 scfconv6 printgap
|  2> %output
|  3>     printlevel normal
|  4> end
|  5> * xyz 0 1
|  6> C -2.4775044254 0.9695888951 -0.3457441441
|  7> C -1.7735962097 0.0729474234 0.6771474815
|  8> C -0.517670546 -0.4902957743 0.063938698
|  9> O -0.4289933368 -1.5885389343 -0.4473697091
| 10> O 0.4811856693 0.3765036748 0.1244390601
| 11> C 1.7541161973 0.0197630384 -0.4410908878
| 12> C 2.8535822753 0.6150248148 0.4198968766
| 13> H -1.8325701938 1.7982397612 -0.6261205156
| 14> H -2.7262483045 0.4005752693 -1.2384774166
| 15> H -3.3930463977 1.3651951745 0.0832926674
| 16> H -2.4212813995 -0.7563699528 0.9586096904
| 17> H -1.5046385056 0.657234313 1.5559172861
| 18> H 1.8182225714 -1.0718882038 -0.4903951507
| 19> H 1.7866027674 0.4226545071 -1.4577969599
| 20> H 2.7364634626 1.6931725807 0.476280786
| 21> H 2.8093879498 0.2043977403 1.424753047
| 22> H 3.8180876077 0.3809835205 -0.0185322251
| 23> *
| 24>
| 25>                          ****END OF INPUT****

CARTESIAN COORDINATES (ANGSTROEM)
---------------------------------
  C     -2.477504    0.969589   -0.345744
  C     -1.773596    0.072947    0.677147
  C     -0.517671   -0.490296    0.063939
  O     -0.428993   -1.588539   -0.447370
  O      0.481186    0.376504    0.124439
  C      1.754116    0.019763   -0.441091
  C      2.853582    0.615025    0.419897
  H     -1.832570    1.798240   -0.626121
  H     -2.726248    0.400575   -1.238477
  H     -3.393046    1.365195    0.083293
  H     -2.421281   -0.756370    0.958610
  H     -1.504639    0.657234    1.555917
  H      1.818223   -1.071888   -0.490395
  H      1.786603    0.422655   -1.457797
  H      2.736463    1.693173    0.476281
  H      2.809388    0.204398    1.424753
  H      3.818088    0.380984   -0.018532

 Total Charge           Charge          ....    0
 Multiplicity           Mult            ....    1
 Number of Electrons    NEL             ....   56
 Basis Dimension        Dim             ....  193

ORBITAL ENERGIES
----------------

  NO   OCC          E(Eh)            E(eV)
   0   2.0000     -18.996456      -516.9199
   1   2.0000     -18.925597      -514.9917
   2   2.0000     -10.150532      -276.2100
   3   2.0000     -10.090681      -274.5814
   4   2.0000     -10.042883      -273.2807
   5   2.0000     -10.032167      -272.9891
   6   2.0000     -10.031657      -272.9753
   7   2.0000      -1.071137       -29.1471
   8   2.0000      -0.973434       -26.4885
   9   2.0000      -0.767016       -20.8716
  10   2.0000      -0.732865       -19.9423
  11   2.0000      -0.639528       -17.4025
  12   2.0000      -0.595049       -16.1921
  13   2.0000      -0.532589       -14.4925
  14   2.0000      -0.473432       -12.8828
  15   2.0000      -0.451657       -12.2902
  16   2.0000      -0.436849       -11.8873
  17   2.0000      -0.412272       -11.2185
  18   2.0000      -0.409274       -11.1369
  19   2.0000      -0.375694       -10.2232
  20   2.0000      -0.369132       -10.0446
  21   2.0000      -0.360431        -9.8078
  22   2.0000      -0.337973        -9.1967
  23   2.0000      -0.327865        -8.9217
  24   2.0000      -0.323810        -8.8113
  25   2.0000      -0.308687        -8.3998
  26   2.0000      -0.269849        -7.3430
  27   2.0000      -0.231909        -6.3106
  28   0.0000      -0.013090        -0.3562
  29   0.0000       0.074191         2.0188
  30   0.0000       0.095172         2.5898
  31   0.0000       0.118601         3.2273
  32   0.0000       0.125182         3.4064

MULLIKEN ATOMIC CHARGES
-----------------------
   0 C :   -0.472597
   1 C :   -0.294131
   2 C :    0.414968
   3 O :   -0.433064
   4 O :   -0.176434
   5 C :   -0.154875
   6 C :   -0.442964
   7 H :    0.156556
   8 H :    0.158914
   9 H :    0.153378
  10 H :    0.162253
  11 H :    0.151843
  12 H :    0.181639
  13 H :    0.143277
  14 H :    0.152214
  15 H :    0.152374
  16 H :    0.146648
Sum of atomic charges:   -0.0000000

LOEWDIN ATOMIC CHARGES
----------------------
   0 C :   -0.392686
   1 C :   -0.236485
   2 C :    0.356519
   3 O :   -0.435583
   4 O :   -0.598300
   5 C :    0.032435
   6 C :   -0.387031
   7 H :    0.157797
   8 H :    0.159217
   9 H :    0.153064
  10 H :    0.174458
  11 H :    0.173677
  12 H :    0.192658
  13 H :    0.174149
  14 H :    0.158297
  15 H :    0.158550
  16 H :    0.159266

  Mayer bond orders larger than 0.100000
B(  0-C ,  1-C ) :   0.8977 B(  0-C ,  7-H ) :   0.9777 B(  0-C ,  8-H ) :   0.9741
B(  0-C ,  9-H ) :   0.9706 B(  1-C ,  2-C ) :   0.9579 B(  1-C , 10-H ) :   0.9754
B(  1-C , 11-H ) :   0.9694 B(  2-C ,  3-O ) :   1.8409 B(  2-C ,  4-O ) :   1.0573
B(  4-O ,  5-C ) :   0.7816 B(  5-C ,  6-C ) :   0.9497 B(  5-C , 12-H ) :   0.9666
B(  5-C , 13-H ) :   0.9457 B(  6-C , 14-H ) :   0.9693 B(  6-C , 15-H ) :   0.9742
B(  6-C , 16-H ) :   0.9674

Dispersion correction           -0.003901651
FINAL SINGLE POINT ENERGY      -346.934885454309

DIPOLE MOMENT
-------------

Method             : SCF
Type of density    : Electron Density
Multiplicity       :   1
Irrep              :   0
Energy             :  -346.9413912705072107 Eh
Relativity type    :
Basis              : AO
                                X                 Y                 Z
Electronic contribution:     -0.748625232      -3.948371691      -0.383218104
Nuclear contribution   :      1.024295050       4.761236570       0.621468066
                        -----------------------------------------
Total Dipole Moment    :      0.275669818       0.812864879       0.238249962
                        -----------------------------------------
Magnitude (a.u.)       :      0.890789652
Magnitude (Debye)      :      2.264207356

Rotational constants in cm-1:             0.174156             0.048705             0.042328
Rotational constants in MHz :          5221.056298          1460.138510          1268.961226

                             ****ORCA TERMINATED NORMALLY****
TOTAL RUN TIME: 0 days 0 hours 0 minutes 21 seconds 88 msec
