                         Program Version 6.0.0  -   RELEASE  -
|  1> ! r2scan-3c def2/J RI DEFGRID2 scfconv6 printgap
|  2> %output
|  3>     printlevel normal
|  4> end
|  5> %cpcm
|  6>     smd true
|  7>     smdsolvent "water"
|  8> end
|  9> * xyz 0 1
| 10> C -2.4775044254 0.9695888951 -0.3457441441
| 11> C -1.7735962097 0.0729474234 0.6771474815
| 12> C -0.517670546 -0.4902957743 0.063938698
| 13> O -0.4289933368 -1.5885389343 -0.4473697091
| 14> O 0.4811856693 0.3765036748 0.1244390601
| 15> C 1.7541161973 0.0197630384 -0.4410908878
| 16> C 2.8535822753 0.6150248148 0.4198968766
| 17> H -1.8325701938 1.7982397612 -0.6261205156
| 18> H -2.7262483045 0.4005752693 -1.2384774166
| 19> H -3.3930463977 1.3651951745 0.0832926674
| 20> H -2.4212813995 -0.7563699528 0.9586096904
| 21> H -1.5046385056 0.657234313 1.5559172861
| 22> H 1.8182225714 -1.0718882038 -0.4903951507
| 23> H 1.7866027674 0.4226545071 -1.4577969599
| 24> H 2.7364634626 1.6931725807 0.476280786
| 25> H 2.8093879498 0.2043977403 1.424753047
| 26> H 3.8180876077 0.3809835205 -0.0185322251
| 27> *
| 28>
| 29>                          ****END OF INPUT****

CARTESIAN COORDINATES (ANGSTROEM)
---------------------------------
  C     -2.477504    0.969589   -0.345744
  C     -1.773596    0.072947    0.677147
  C     -0.517671   -0.490296    0.063939
  O     -0.428993   -1.588539   -0.447370
  O      0.481186    0.376504    0.124439
  C      1.754116    0.019763   -0.441091
  C      2.853582    0.615025    0.419897
  H     -1.832570    1.798240   -0.626121
  H     -2.726248    0.400575   -1.238477
  H     -3.393046    1.365195    0.083293
  H     -2.421281   -0.756370    0.958610
  H     -1.504639    0.657234    1.555917
  H      1.818223   -1.071888   -0.490395
  H      1.786603    0.422655   -1.457797
  H      2.736463    1.693173    0.476281
  H      2.809388    0.204398    1.424753
  H      3.818088    0.380984   -0.018532

 Total Charge           Charge          ....    0
 Multiplicity           Mult            ....    1
 Number of Electrons    NEL             ....   56
 Basis Dimension        Dim             ....  193

ORBITAL ENERGIES
----------------

  NO   OCC          E(Eh)            E(eV)
   0   2.0000     -19.002296      -517.0788
   1   2.0000     -18.942551      -515.4530
   2   2.0000     -10.161924      -276.5200
   3   2.0000     -10.082870      -274.3688
   4   2.0000     -10.037358      -273.1304
   5   2.0000     -10.022282      -272.7201
   6   2.0000     -10.018556      -272.6188
   7   2.0000      -1.078783       -29.3552
   8   2.0000      -0.988170       -26.8895
   9   2.0000      -0.762647       -20.7527
  10   2.0000      -0.724376       -19.7113
  11   2.0000      -0.633252       -17.2317
  12   2.0000      -0.588082       -16.0025
  13   2.0000      -0.530896       -14.4464
  14   2.0000      -0.472912       -12.8686
  15   2.0000      -0.458929       -12.4881
  16   2.0000      -0.438133       -11.9222
  17   2.0000      -0.413229       -11.2445
  18   2.0000      -0.405108       -11.0235
  19   2.0000      -0.368541       -10.0285
  20   2.0000      -0.363245        -9.8844
  21   2.0000      -0.351254        -9.5581
  22   2.0000      -0.331594        -9.0231
  23   2.0000      -0.324697        -8.8354
  24   2.0000      -0.318683        -8.6718
  25   2.0000      -0.308782        -8.4024
  26   2.0000      -0.276344        -7.5197
  27   2.0000      -0.248636        -6.7657
  28   0.0000      -0.021918        -0.5964
  29   0.0000       0.077502         2.1089
  30   0.0000       0.104373         2.8401
  31   0.0000       0.127852         3.4790
  32   0.0000       0.133590         3.6352

MULLIKEN ATOMIC CHARGES
-----------------------
   0 C :   -0.493221
   1 C :   -0.309379
   2 C :    0.451991
   3 O :   -0.520437
   4 O :   -0.192089
   5 C :   -0.146904
   6 C :   -0.487154
   7 H :    0.166251
   8 H :    0.164693
   9 H :    0.172680
  10 H :    0.173454
  11 H :    0.174766
  12 H :    0.177478
  13 H :    0.170202
  14 H :    0.164712
  15 H :    0.164883
  16 H :    0.168075
Sum of atomic charges:   -0.0000000

LOEWDIN ATOMIC CHARGES
----------------------
   0 C :   -0.393936
   1 C :   -0.233798
   2 C :    0.365682
   3 O :   -0.498457
   4 O :   -0.598389
   5 C :    0.036917
   6 C :   -0.390187
   7 H :    0.160927
   8 H :    0.160609
   9 H :    0.160480
  10 H :    0.179055
  11 H :    0.183412
  12 H :    0.192041
  13 H :    0.184409
  14 H :    0.161930
  15 H :    0.161471
  16 H :    0.167834

  Mayer bond orders larger than 0.100000
B(  0-C ,  1-C ) :   0.8891 B(  0-C ,  7-H ) :   0.9737 B(  0-C ,  8-H ) :   0.9710
B(  0-C ,  9-H ) :   0.9655 B(  1-C ,  2-C ) :   0.9574 B(  1-C , 10-H ) :   0.9711
B(  1-C , 11-H ) :   0.9603 B(  2-C ,  3-O ) :   1.7675 B(  2-C ,  4-O ) :   1.0866
B(  4-O ,  5-C ) :   0.7701 B(  5-C ,  6-C ) :   0.9456 B(  5-C , 12-H ) :   0.9621
B(  5-C , 13-H ) :   0.9370 B(  6-C , 14-H ) :   0.9666 B(  6-C , 15-H ) :   0.9723
B(  6-C , 16-H ) :   0.9612

Dispersion correction           -0.003901651
FINAL SINGLE POINT ENERGY      -346.940167970941

DIPOLE MOMENT
-------------

Method             : SCF
Type of density    : Electron Density
Multiplicity       :   1
Irrep              :   0
Energy             :  -346.9466737871385931 Eh
Relativity type    :
Basis              : AO
                                X                 Y                 Z
Electronic contribution:     -0.669199959      -3.625596012      -0.285415168
Nuclear contribution   :      1.024295050       4.761236570       0.621468066
                        -----------------------------------------
Total Dipole Moment    :      0.355095092       1.135640559       0.336052898
                        -----------------------------------------
Magnitude (a.u.)       :      1.236407519
Magnitude (Debye)      :      3.142698159

Rotational constants in cm-1:             0.174156             0.048705             0.042328
Rotational constants in MHz :          5221.056298          1460.138510          1268.961226

                             ****ORCA TERMINATED NORMALLY****
TOTAL RUN TIME: 0 days 0 hours 0 minutes 24 seconds 433 msec
