                         Program Version 6.0.0  -   RELEASE  -
|  1> ! pbe def2-sv(p) def2/J RI DEFGRID1 loosescf d4 GCP(DFT/SV(P)) printgap
|  2> %output
|  3>     printlevel normal
|  4> end
|  5> * xyz 0 1
|  6> C -1.5306446465 1.1389130391 -0.365515242
|  7> C -1.7515387739 -0.330134827 -0.0268424241
|  8> C -0.5943848128 -0.9513777995 0.7546357224
|  9> C 0.6985866066 -1.0787822882 -0.0685734489
| 10> C 1.4515409337 0.1412863972 -0.130595462
| 11> N 2.0895718573 1.0933205506 -0.1613098254
| 12> H -0.6581720887 1.2699661049 -1.0014881454
| 13> H -2.3955174484 1.5401581176 -0.8881225085
| 14> H -1.3772995672 1.7210325775 0.5407254351
| 15> H -2.6577873294 -0.4205994221 0.5757823087
| 16> H -1.910740974 -0.8954116607 -0.9481072601
| 17> H -0.8876245665 -1.953938431 1.0702691157
| 18> H -0.3984473168 -0.3600527589 1.6516046775
| 19> H 1.3534225183 -1.8273213218 0.3856953301
| 20> H 0.4671953632 -1.3964646964 -1.0883672493
| 21> *
| 22>
| 23>                          ****END OF INPUT****

CARTESIAN COORDINATES (ANGSTROEM)
---------------------------------
  C     -1.530645    1.138913   -0.365515
  C     -1.751539   -0.330135   -0.026842
  C     -0.594385   -0.951378    0.754636
  C      0.698587   -1.078782   -0.068573
  C      1.451541    0.141286   -0.130595
  N      2.089572    1.093321   -0.161310
  H     -0.658172    1.269966   -1.001488
  H     -2.395517    1.540158   -0.888123
  H     -1.377300    1.721033    0.540725
  H     -2.657787   -0.420599    0.575782
  H     -1.910741   -0.895412   -0.948107
  H     -0.887625   -1.953938    1.070269
  H     -0.398447   -0.360053    1.651605
  H      1.353423   -1.827321    0.385695
  H      0.467195   -1.396465   -1.088367

 Total Charge           Charge          ....    0
 Multiplicity           Mult            ....    1
 Number of Electrons    NEL             ....   46
 Basis Dimension        Dim             ....  102

ORBITAL ENERGIES
----------------

  NO   OCC          E(Eh)            E(eV)
   0   2.0000     -13.973763      -380.2454
   1   2.0000      -9.936506      -270.3861
   2   2.0000      -9.924794      -270.0674
   3   2.0000      -9.911107      -269.6949
   4   2.0000      -9.898692      -269.3571
   5   2.0000      -9.878395      -268.8048
   6   2.0000      -0.812850       -22.1188
   7   2.0000      -0.748614       -20.3708
   8   2.0000      -0.684807       -18.6346
   9   2.0000      -0.608053       -16.5460
  10   2.0000      -0.529684       -14.4134
  11   2.0000      -0.471916       -12.8415
  12   2.0000      -0.445622       -12.1260
  13   2.0000      -0.408187       -11.1073
  14   2.0000      -0.390781       -10.6337
  15   2.0000      -0.368130       -10.0173
  16   2.0000      -0.351350        -9.5607
  17   2.0000      -0.319738        -8.7005
  18   2.0000      -0.310019        -8.4360
  19   2.0000      -0.303514        -8.2590
  20   2.0000      -0.292151        -7.9498
  21   2.0000      -0.284248        -7.7348
  22   2.0000      -0.274170        -7.4606
  23   0.0000      -0.002170        -0.0590
  24   0.0000       0.007760         0.2112
  25   0.0000       0.035483         0.9655
  26   0.0000       0.056918         1.5488
  27   0.0000       0.067484         1.8363

MULLIKEN ATOMIC CHARGES
-----------------------
   0 C :   -0.294835
   1 C :   -0.186598
   2 C :   -0.175177
   3 C :   -0.116865
   4 C :   -0.275253
   5 N :    0.055083
   6 H :    0.131146
   7 H :    0.107493
   8 H :    0.105466
   9 H :    0.096465
  10 H :    0.085068
  11 H :    0.099166
  12 H :    0.110663
  13 H :    0.131930
  14 H :    0.126248
Sum of atomic charges:    0.0000000

LOEWDIN ATOMIC CHARGES
----------------------
   0 C :   -0.345555
   1 C :   -0.233163
   2 C :   -0.214743
   3 C :   -0.241052
   4 C :   -0.059711
   5 N :   -0.072166
   6 H :    0.125378
   7 H :    0.121816
   8 H :    0.122413
   9 H :    0.120401
  10 H :    0.115215
  11 H :    0.124087
  12 H :    0.127296
  13 H :    0.157604
  14 H :    0.152180

  Mayer bond orders larger than 0.100000
B(  0-C ,  1-C ) :   1.1687 B(  0-C ,  6-H ) :   0.9398 B(  0-C ,  7-H ) :   0.9488
B(  0-C ,  8-H ) :   0.9526 B(  1-C ,  2-C ) :   1.1278 B(  1-C ,  9-H ) :   0.9239
B(  1-C , 10-H ) :   0.9223 B(  2-C ,  3-C ) :   1.0841 B(  2-C , 11-H ) :   0.9203
B(  2-C , 12-H ) :   0.9236 B(  3-C ,  4-C ) :   1.2159 B(  3-C , 13-H ) :   0.8749
B(  3-C , 14-H ) :   0.8742 B(  4-C ,  5-N ) :   3.0259

Dispersion correction           -0.011024178
FINAL SINGLE POINT ENERGY      -250.093740474976

DIPOLE MOMENT
-------------

Method             : SCF
Type of density    : Electron Density
Multiplicity       :   1
Irrep              :   0
Energy             :  -250.1413069076759541 Eh
Relativity type    :
Basis              : AO
                                X                 Y                 Z
Electronic contribution:      7.023564712       1.039467428      -0.188027298
Nuclear contribution   :     -7.930095709      -2.173007552       0.278679205
                        -----------------------------------------
Total Dipole Moment    :     -0.906530997      -1.133540125       0.090651906
                        -----------------------------------------
Magnitude (a.u.)       :      1.454279695
Magnitude (Debye)      :      3.696485219

Rotational constants in cm-1:             0.183491             0.085261             0.063658
Rotational constants in MHz :          5500.908439          2556.066860          1908.414693

                             ****ORCA TERMINATED NORMALLY****
TOTAL RUN TIME: 0 days 0 hours 0 minutes 6 seconds 802 msec
