                         Program Version 6.0.0  -   RELEASE  -
|  1> ! r2scan-3c def2/J RI DEFGRID2 scfconv6 printgap
|  2> %output
|  3>     printlevel normal
|  4> end
|  5> * xyz 0 1
|  6> C 1.9987859638 -1.0924459112 -0.441308491
|  7> C 1.18424451 -0.035881995 0.3035603259
|  8> C 1.9821977321 1.2585123417 0.4734736538
|  9> O -0.004956 0.2396826394 -0.4365384319
| 10> C -1.237458909 0.1116670737 0.2594111367
| 11> C -2.2784700924 0.8852166707 -0.5445275465
| 12> C -1.6473964405 -1.3548715337 0.4181839224
| 13> H 2.9164944423 -1.3054636768 0.0986422434
| 14> H 1.4230700361 -2.008703697 -0.5431247356
| 15> H 2.2424068995 -0.7261565769 -1.4347399157
| 16> H 0.913752569 -0.4203902671 1.2969516605
| 17> H 2.8891464528 1.0675896869 1.0391918843
| 18> H 1.3853691109 2.000425407 0.9987287824
| 19> H 2.2438586292 1.6547604948 -0.5038135644
| 20> H -1.1355885248 0.5688875954 1.2581264167
| 21> H -2.3673518015 0.4491241995 -1.5354973415
| 22> H -3.240791142 0.8453348454 -0.0441309555
| 23> H -1.9695604726 1.9213402015 -0.6503352988
| 24> H -1.7440349315 -1.813878437 -0.562553534
| 25> H -2.5987877194 -1.4175150146 0.9378029031
| 26> H -0.901986992 -1.9053759314 0.9878214504
| 27> *
| 28>
| 29>                          ****END OF INPUT****

CARTESIAN COORDINATES (ANGSTROEM)
---------------------------------
  C      1.998786   -1.092446   -0.441308
  C      1.184245   -0.035882    0.303560
  C      1.982198    1.258512    0.473474
  O     -0.004956    0.239683   -0.436538
  C     -1.237459    0.111667    0.259411
  C     -2.278470    0.885217   -0.544528
  C     -1.647396   -1.354872    0.418184
  H      2.916494   -1.305464    0.098642
  H      1.423070   -2.008704   -0.543125
  H      2.242407   -0.726157   -1.434740
  H      0.913753   -0.420390    1.296952
  H      2.889146    1.067590    1.039192
  H      1.385369    2.000425    0.998729
  H      2.243859    1.654760   -0.503814
  H     -1.135589    0.568888    1.258126
  H     -2.367352    0.449124   -1.535497
  H     -3.240791    0.845335   -0.044131
  H     -1.969560    1.921340   -0.650335
  H     -1.744035   -1.813878   -0.562554
  H     -2.598788   -1.417515    0.937803
  H     -0.901987   -1.905376    0.987821

 Total Charge           Charge          ....    0
 Multiplicity           Mult            ....    1
 Number of Electrons    NEL             ....   58
 Basis Dimension        Dim             ....  208

ORBITAL ENERGIES
----------------

  NO   OCC          E(Eh)            E(eV)
   0   2.0000     -18.938550      -515.3441
   1   2.0000     -10.080478      -274.3038
   2   2.0000     -10.079446      -274.2757
   3   2.0000     -10.015790      -272.5435
   4   2.0000     -10.013946      -272.4933
   5   2.0000     -10.013902      -272.4921
   6   2.0000     -10.013896      -272.4920
   7   2.0000      -0.986262       -26.8375
   8   2.0000      -0.761302       -20.7161
   9   2.0000      -0.713357       -19.4114
  10   2.0000      -0.654973       -17.8227
  11   2.0000      -0.650084       -17.6897
  12   2.0000      -0.564998       -15.3744
  13   2.0000      -0.533387       -14.5142
  14   2.0000      -0.466984       -12.7073
  15   2.0000      -0.430458       -11.7134
  16   2.0000      -0.413334       -11.2474
  17   2.0000      -0.393474       -10.7070
  18   2.0000      -0.379480       -10.3262
  19   2.0000      -0.373086       -10.1522
  20   2.0000      -0.354699        -9.6519
  21   2.0000      -0.353653        -9.6234
  22   2.0000      -0.337917        -9.1952
  23   2.0000      -0.336589        -9.1590
  24   2.0000      -0.325001        -8.8437
  25   2.0000      -0.308790        -8.4026
  26   2.0000      -0.299111        -8.1392
  27   2.0000      -0.268195        -7.2980
  28   2.0000      -0.210755        -5.7349
  29   0.0000       0.079172         2.1544
  30   0.0000       0.103324         2.8116
  31   0.0000       0.115958         3.1554
  32   0.0000       0.121674         3.3109
  33   0.0000       0.128899         3.5075

MULLIKEN ATOMIC CHARGES
-----------------------
   0 C :   -0.459449
   1 C :    0.021583
   2 C :   -0.471519
   3 O :   -0.198341
   4 C :   -0.016070
   5 C :   -0.462320
   6 C :   -0.448187
   7 H :    0.139380
   8 H :    0.148653
   9 H :    0.155282
  10 H :    0.130941
  11 H :    0.140351
  12 H :    0.144858
  13 H :    0.155834
  14 H :    0.132689
  15 H :    0.152995
  16 H :    0.137395
  17 H :    0.153406
  18 H :    0.158849
  19 H :    0.142701
  20 H :    0.140968
Sum of atomic charges:    0.0000000

LOEWDIN ATOMIC CHARGES
----------------------
   0 C :   -0.389095
   1 C :    0.052801
   2 C :   -0.391037
   3 O :   -0.769701
   4 C :    0.053463
   5 C :   -0.382402
   6 C :   -0.399343
   7 H :    0.154371
   8 H :    0.157876
   9 H :    0.161155
  10 H :    0.167697
  11 H :    0.154098
  12 H :    0.157096
  13 H :    0.160888
  14 H :    0.163035
  15 H :    0.161341
  16 H :    0.155398
  17 H :    0.161256
  18 H :    0.160729
  19 H :    0.155973
  20 H :    0.154400

  Mayer bond orders larger than 0.100000
B(  0-C ,  1-C ) :   0.9575 B(  0-C ,  7-H ) :   0.9752 B(  0-C ,  8-H ) :   0.9665
B(  0-C ,  9-H ) :   0.9802 B(  1-C ,  2-C ) :   0.9628 B(  1-C ,  3-O ) :   0.7396
B(  1-C , 10-H ) :   0.9417 B(  2-C , 11-H ) :   0.9743 B(  2-C , 12-H ) :   0.9683
B(  2-C , 13-H ) :   0.9825 B(  3-O ,  4-C ) :   0.8164 B(  4-C ,  5-C ) :   0.9538
B(  4-C ,  6-C ) :   0.9214 B(  4-C , 14-H ) :   0.9490 B(  5-C , 15-H ) :   0.9809
B(  5-C , 16-H ) :   0.9721 B(  5-C , 17-H ) :   0.9710 B(  6-C , 18-H ) :   0.9806
B(  6-C , 19-H ) :   0.9711 B(  6-C , 20-H ) :   0.9628

Dispersion correction           -0.005346692
FINAL SINGLE POINT ENERGY      -312.195104725600

DIPOLE MOMENT
-------------

Method             : SCF
Type of density    : Electron Density
Multiplicity       :   1
Irrep              :   0
Energy             :  -312.2018148292610249 Eh
Relativity type    :
Basis              : AO
                                X                 Y                 Z
Electronic contribution:     -0.079983597       0.895596404      -0.808686539
Nuclear contribution   :      0.052460377      -1.019061052       1.253540743
                        -----------------------------------------
Total Dipole Moment    :     -0.027523220      -0.123464648       0.444854204
                        -----------------------------------------
Magnitude (a.u.)       :      0.462489254
Magnitude (Debye)      :      1.175554260

Rotational constants in cm-1:             0.137646             0.052968             0.043882
Rotational constants in MHz :          4126.519245          1587.946572          1315.561782

                             ****ORCA TERMINATED NORMALLY****
TOTAL RUN TIME: 0 days 0 hours 0 minutes 23 seconds 387 msec
