                         Program Version 6.0.0  -   RELEASE  -
|  1> ! r2scan-3c def2/J RI DEFGRID2 scfconv6 printgap
|  2> %output
|  3>     printlevel normal
|  4> end
|  5> %cpcm
|  6>     smd true
|  7>     smdsolvent "water"
|  8> end
|  9> * xyz 0 1
| 10> C 1.9987859638 -1.0924459112 -0.441308491
| 11> C 1.18424451 -0.035881995 0.3035603259
| 12> C 1.9821977321 1.2585123417 0.4734736538
| 13> O -0.004956 0.2396826394 -0.4365384319
| 14> C -1.237458909 0.1116670737 0.2594111367
| 15> C -2.2784700924 0.8852166707 -0.5445275465
| 16> C -1.6473964405 -1.3548715337 0.4181839224
| 17> H 2.9164944423 -1.3054636768 0.0986422434
| 18> H 1.4230700361 -2.008703697 -0.5431247356
| 19> H 2.2424068995 -0.7261565769 -1.4347399157
| 20> H 0.913752569 -0.4203902671 1.2969516605
| 21> H 2.8891464528 1.0675896869 1.0391918843
| 22> H 1.3853691109 2.000425407 0.9987287824
| 23> H 2.2438586292 1.6547604948 -0.5038135644
| 24> H -1.1355885248 0.5688875954 1.2581264167
| 25> H -2.3673518015 0.4491241995 -1.5354973415
| 26> H -3.240791142 0.8453348454 -0.0441309555
| 27> H -1.9695604726 1.9213402015 -0.6503352988
| 28> H -1.7440349315 -1.813878437 -0.562553534
| 29> H -2.5987877194 -1.4175150146 0.9378029031
| 30> H -0.901986992 -1.9053759314 0.9878214504
| 31> *
| 32>
| 33>                          ****END OF INPUT****

CARTESIAN COORDINATES (ANGSTROEM)
---------------------------------
  C      1.998786   -1.092446   -0.441308
  C      1.184245   -0.035882    0.303560
  C      1.982198    1.258512    0.473474
  O     -0.004956    0.239683   -0.436538
  C     -1.237459    0.111667    0.259411
  C     -2.278470    0.885217   -0.544528
  C     -1.647396   -1.354872    0.418184
  H      2.916494   -1.305464    0.098642
  H      1.423070   -2.008704   -0.543125
  H      2.242407   -0.726157   -1.434740
  H      0.913753   -0.420390    1.296952
  H      2.889146    1.067590    1.039192
  H      1.385369    2.000425    0.998729
  H      2.243859    1.654760   -0.503814
  H     -1.135589    0.568888    1.258126
  H     -2.367352    0.449124   -1.535497
  H     -3.240791    0.845335   -0.044131
  H     -1.969560    1.921340   -0.650335
  H     -1.744035   -1.813878   -0.562554
  H     -2.598788   -1.417515    0.937803
  H     -0.901987   -1.905376    0.987821

 Total Charge           Charge          ....    0
 Multiplicity           Mult            ....    1
 Number of Electrons    NEL             ....   58
 Basis Dimension        Dim             ....  208

ORBITAL ENERGIES
----------------

  NO   OCC          E(Eh)            E(eV)
   0   2.0000     -18.946270      -515.5542
   1   2.0000     -10.077083      -274.2114
   2   2.0000     -10.075816      -274.1769
   3   2.0000     -10.010096      -272.3886
   4   2.0000     -10.009226      -272.3649
   5   2.0000     -10.008871      -272.3552
   6   2.0000     -10.008561      -272.3468
   7   2.0000      -0.992225       -26.9998
   8   2.0000      -0.758465       -20.6389
   9   2.0000      -0.709551       -19.3079
  10   2.0000      -0.650782       -17.7087
  11   2.0000      -0.645929       -17.5766
  12   2.0000      -0.563385       -15.3305
  13   2.0000      -0.530284       -14.4298
  14   2.0000      -0.464328       -12.6350
  15   2.0000      -0.426935       -11.6175
  16   2.0000      -0.411866       -11.2074
  17   2.0000      -0.389027       -10.5860
  18   2.0000      -0.374954       -10.2030
  19   2.0000      -0.369752       -10.0615
  20   2.0000      -0.349893        -9.5211
  21   2.0000      -0.349416        -9.5081
  22   2.0000      -0.335210        -9.1215
  23   2.0000      -0.333305        -9.0697
  24   2.0000      -0.321428        -8.7465
  25   2.0000      -0.304498        -8.2858
  26   2.0000      -0.294307        -8.0085
  27   2.0000      -0.271921        -7.3993
  28   2.0000      -0.216373        -5.8878
  29   0.0000       0.085803         2.3348
  30   0.0000       0.107777         2.9328
  31   0.0000       0.122439         3.3317
  32   0.0000       0.127927         3.4811
  33   0.0000       0.133517         3.6332

MULLIKEN ATOMIC CHARGES
-----------------------
   0 C :   -0.512965
   1 C :    0.054478
   2 C :   -0.527037
   3 O :   -0.271380
   4 C :    0.010086
   5 C :   -0.510805
   6 C :   -0.497002
   7 H :    0.161654
   8 H :    0.160573
   9 H :    0.163993
  10 H :    0.156429
  11 H :    0.162046
  12 H :    0.159261
  13 H :    0.164273
  14 H :    0.152924
  15 H :    0.162705
  16 H :    0.161520
  17 H :    0.161064
  18 H :    0.165201
  19 H :    0.162814
  20 H :    0.160168
Sum of atomic charges:    0.0000000

LOEWDIN ATOMIC CHARGES
----------------------
   0 C :   -0.397512
   1 C :    0.055677
   2 C :   -0.399189
   3 O :   -0.808926
   4 C :    0.055447
   5 C :   -0.391522
   6 C :   -0.404550
   7 H :    0.162949
   8 H :    0.159893
   9 H :    0.161270
  10 H :    0.178615
  11 H :    0.162450
  12 H :    0.160017
  13 H :    0.160924
  14 H :    0.172371
  15 H :    0.161990
  16 H :    0.164556
  17 H :    0.161298
  18 H :    0.160952
  19 H :    0.163203
  20 H :    0.160087

  Mayer bond orders larger than 0.100000
B(  0-C ,  1-C ) :   0.9414 B(  0-C ,  7-H ) :   0.9697 B(  0-C ,  8-H ) :   0.9657
B(  0-C ,  9-H ) :   0.9780 B(  1-C ,  2-C ) :   0.9469 B(  1-C ,  3-O ) :   0.7376
B(  1-C , 10-H ) :   0.9386 B(  2-C , 11-H ) :   0.9685 B(  2-C , 12-H ) :   0.9675
B(  2-C , 13-H ) :   0.9803 B(  3-O ,  4-C ) :   0.8103 B(  4-C ,  5-C ) :   0.9393
B(  4-C ,  6-C ) :   0.9169 B(  4-C , 14-H ) :   0.9461 B(  5-C , 15-H ) :   0.9773
B(  5-C , 16-H ) :   0.9667 B(  5-C , 17-H ) :   0.9705 B(  6-C , 18-H ) :   0.9770
B(  6-C , 19-H ) :   0.9665 B(  6-C , 20-H ) :   0.9604

Dispersion correction           -0.005346692
FINAL SINGLE POINT ENERGY      -312.196994439923

DIPOLE MOMENT
-------------

Method             : SCF
Type of density    : Electron Density
Multiplicity       :   1
Irrep              :   0
Energy             :  -312.2037045435841947 Eh
Relativity type    :
Basis              : AO
                                X                 Y                 Z
Electronic contribution:     -0.086650373       0.801041860      -0.472840710
Nuclear contribution   :      0.052460377      -1.019061052       1.253540743
                        -----------------------------------------
Total Dipole Moment    :     -0.034189996      -0.218019192       0.780700032
                        -----------------------------------------
Magnitude (a.u.)       :      0.811291479
Magnitude (Debye)      :      2.062139059

Rotational constants in cm-1:             0.137646             0.052968             0.043882
Rotational constants in MHz :          4126.519245          1587.946572          1315.561782

                             ****ORCA TERMINATED NORMALLY****
TOTAL RUN TIME: 0 days 0 hours 0 minutes 27 seconds 561 msec
