                         Program Version 6.0.0  -   RELEASE  -
|  1> ! pbe def2-sv(p) def2/J RI DEFGRID1 loosescf d4 GCP(DFT/SV(P)) printgap
|  2> %output
|  3>     printlevel normal
|  4> end
|  5> * xyz 0 1
|  6> C 1.8762833627 1.2373735281 0.1093135653
|  7> C 1.1505117502 -0.1054597105 0.124757401
|  8> C 2.1034132428 -1.2243719135 -0.2896832394
|  9> C -0.0891689494 -0.0793586914 -0.8092351175
| 10> C -1.3483417418 -0.0588411789 0.018354489
| 11> O -1.9590983084 -1.0787347439 0.2803236704
| 12> C -1.7760375434 1.2846721977 0.5280178505
| 13> H 2.7095491211 1.2201602551 0.8076892867
| 14> H 2.2667686099 1.4395759889 -0.8852880151
| 15> H 1.2130851725 2.0503812792 0.3921836692
| 16> H 0.8128805427 -0.3133739743 1.1472559499
| 17> H 2.4504134829 -1.069002826 -1.308527875
| 18> H 1.6061916339 -2.1898980521 -0.2331522723
| 19> H 2.9677705389 -1.2464363916 0.3698050355
| 20> H -0.1014379156 -0.9801901095 -1.4231417209
| 21> H -0.0466676738 0.7947499399 -1.4558931766
| 22> H -2.6480118216 1.1866183908 1.1688224565
| 23> H -0.9600496033 1.7421992155 1.0813040812
| 24> H -2.0123387407 1.9285099909 -0.3156924954
| 25> *
| 26>
| 27>                          ****END OF INPUT****

CARTESIAN COORDINATES (ANGSTROEM)
---------------------------------
  C      1.876283    1.237374    0.109314
  C      1.150512   -0.105460    0.124757
  C      2.103413   -1.224372   -0.289683
  C     -0.089169   -0.079359   -0.809235
  C     -1.348342   -0.058841    0.018354
  O     -1.959098   -1.078735    0.280324
  C     -1.776038    1.284672    0.528018
  H      2.709549    1.220160    0.807689
  H      2.266769    1.439576   -0.885288
  H      1.213085    2.050381    0.392184
  H      0.812881   -0.313374    1.147256
  H      2.450413   -1.069003   -1.308528
  H      1.606192   -2.189898   -0.233152
  H      2.967771   -1.246436    0.369805
  H     -0.101438   -0.980190   -1.423142
  H     -0.046668    0.794750   -1.455893
  H     -2.648012    1.186618    1.168822
  H     -0.960050    1.742199    1.081304
  H     -2.012339    1.928510   -0.315692

 Total Charge           Charge          ....    0
 Multiplicity           Mult            ....    1
 Number of Electrons    NEL             ....   56
 Basis Dimension        Dim             ....  122

ORBITAL ENERGIES
----------------

  NO   OCC          E(Eh)            E(eV)
   0   2.0000     -18.731767      -509.7173
   1   2.0000      -9.970097      -271.3001
   2   2.0000      -9.911861      -269.7154
   3   2.0000      -9.887983      -269.0657
   4   2.0000      -9.885923      -269.0096
   5   2.0000      -9.883503      -268.9438
   6   2.0000      -9.879714      -268.8407
   7   2.0000      -0.929101       -25.2821
   8   2.0000      -0.742774       -20.2119
   9   2.0000      -0.679318       -18.4852
  10   2.0000      -0.628033       -17.0897
  11   2.0000      -0.618760       -16.8373
  12   2.0000      -0.515804       -14.0357
  13   2.0000      -0.474432       -12.9100
  14   2.0000      -0.426277       -11.5996
  15   2.0000      -0.412407       -11.2222
  16   2.0000      -0.406968       -11.0742
  17   2.0000      -0.388378       -10.5683
  18   2.0000      -0.379290       -10.3210
  19   2.0000      -0.363609        -9.8943
  20   2.0000      -0.350523        -9.5382
  21   2.0000      -0.343190        -9.3387
  22   2.0000      -0.323407        -8.8003
  23   2.0000      -0.317918        -8.6510
  24   2.0000      -0.296671        -8.0728
  25   2.0000      -0.293717        -7.9924
  26   2.0000      -0.288814        -7.8590
  27   2.0000      -0.190221        -5.1762
  28   0.0000      -0.045329        -1.2335
  29   0.0000       0.027338         0.7439
  30   0.0000       0.056554         1.5389
  31   0.0000       0.066601         1.8123
  32   0.0000       0.080600         2.1932

MULLIKEN ATOMIC CHARGES
-----------------------
   0 C :   -0.256268
   1 C :   -0.206450
   2 C :   -0.251723
   3 C :   -0.078635
   4 C :   -0.043234
   5 O :   -0.172001
   6 C :   -0.261409
   7 H :    0.103918
   8 H :    0.101038
   9 H :    0.102297
  10 H :    0.099936
  11 H :    0.099397
  12 H :    0.115142
  13 H :    0.101679
  14 H :    0.091615
  15 H :    0.086638
  16 H :    0.116338
  17 H :    0.130265
  18 H :    0.121456
Sum of atomic charges:    0.0000000

LOEWDIN ATOMIC CHARGES
----------------------
   0 C :   -0.330912
   1 C :   -0.145090
   2 C :   -0.327503
   3 C :   -0.237114
   4 C :    0.039051
   5 O :   -0.137625
   6 C :   -0.363136
   7 H :    0.120231
   8 H :    0.118968
   9 H :    0.113962
  10 H :    0.119064
  11 H :    0.118088
  12 H :    0.123394
  13 H :    0.118582
  14 H :    0.131347
  15 H :    0.124602
  16 H :    0.133557
  17 H :    0.138795
  18 H :    0.141738

  Mayer bond orders larger than 0.100000
B(  0-C ,  1-C ) :   1.1111 B(  0-C ,  7-H ) :   0.9481 B(  0-C ,  8-H ) :   0.9460
B(  0-C ,  9-H ) :   0.9435 B(  1-C ,  2-C ) :   1.1205 B(  1-C ,  3-C ) :   1.0045
B(  1-C , 10-H ) :   0.9097 B(  2-C , 11-H ) :   0.9488 B(  2-C , 12-H ) :   0.9468
B(  2-C , 13-H ) :   0.9506 B(  3-C ,  4-C ) :   1.0048 B(  3-C , 14-H ) :   0.8994
B(  3-C , 15-H ) :   0.9054 B(  4-C ,  5-O ) :   2.1880 B(  4-C ,  6-C ) :   1.0624
B(  6-C , 16-H ) :   0.9328 B(  6-C , 17-H ) :   0.9205 B(  6-C , 18-H ) :   0.9232

Dispersion correction           -0.014914760
FINAL SINGLE POINT ENERGY      -310.351241986060

DIPOLE MOMENT
-------------

Method             : SCF
Type of density    : Electron Density
Multiplicity       :   1
Irrep              :   0
Energy             :  -310.4154310784523432 Eh
Relativity type    :
Basis              : AO
                                X                 Y                 Z
Electronic contribution:     -7.052070879      -3.450941099       0.448022681
Nuclear contribution   :      7.718449884       4.265120884      -0.609997412
                        -----------------------------------------
Total Dipole Moment    :      0.666379005       0.814179786      -0.161974731
                        -----------------------------------------
Magnitude (a.u.)       :      1.064511867
Magnitude (Debye)      :      2.705774135

Rotational constants in cm-1:             0.137410             0.056103             0.044081
Rotational constants in MHz :          4119.443696          1681.916653          1321.510343

                             ****ORCA TERMINATED NORMALLY****
TOTAL RUN TIME: 0 days 0 hours 0 minutes 8 seconds 997 msec
