                         Program Version 6.0.0  -   RELEASE  -
|  1> ! pbe def2-sv(p) def2/J RI DEFGRID1 loosescf d4 GCP(DFT/SV(P)) printgap
|  2> %output
|  3>     printlevel normal
|  4> end
|  5> * xyz 0 1
|  6> C -4.3627331591 -1.8651407363 0.8239450789
|  7> C -2.9041933952 -1.4290400944 0.7623468549
|  8> C -2.6399690402 -0.4829199379 -0.4135356975
|  9> H -3.4062572516 0.2995433043 -0.4141896692
| 10> C -2.6410968911 -1.1852168253 -1.7666210602
| 11> N -1.3695809045 0.2433947653 -0.2165585063
| 12> C -0.1797284948 -0.4748099394 -0.1379149628
| 13> O -0.1508115969 -1.6887147911 -0.2258420345
| 14> C 1.0074239428 0.3352373221 0.0553506989
| 15> C 0.9681542799 1.6866357803 0.1537395227
| 16> N -0.2601608649 2.2749541711 0.0619745876
| 17> C -1.4459312306 1.6138875731 -0.1203203496
| 18> O -2.4921253412 2.2357140843 -0.1888493816
| 19> C 2.1243106246 2.5945736023 0.3508136378
| 20> Br 2.6259047042 -0.6561320194 0.1600303652
| 21> H -4.5260128715 -2.4767853124 1.706869191
| 22> H -5.0169484235 -0.9981207237 0.8773674091
| 23> H -4.6310008257 -2.4510196085 -0.0500283247
| 24> H -2.6490278859 -0.9055545732 1.6877827831
| 25> H -2.2565044996 -2.3024563081 0.6799395034
| 26> H -1.9018873094 -1.981622162 -1.7842820781
| 27> H -3.6222599754 -1.6093073053 -1.9512031798
| 28> H -2.4175208051 -0.4735137468 -2.5583568964
| 29> H -0.3310857498 3.2855618619 0.1311382034
| 30> H 2.1899494835 3.2934797128 -0.4804779096
| 31> H 3.0519600153 2.0350696403 0.4162823273
| 32> H 1.9908411246 3.1684915968 1.2654287017
| 33> *
| 34>
| 35>                          ****END OF INPUT****

CARTESIAN COORDINATES (ANGSTROEM)
---------------------------------
  C     -4.362733   -1.865141    0.823945
  C     -2.904193   -1.429040    0.762347
  C     -2.639969   -0.482920   -0.413536
  H     -3.406257    0.299543   -0.414190
  C     -2.641097   -1.185217   -1.766621
  N     -1.369581    0.243395   -0.216559
  C     -0.179728   -0.474810   -0.137915
  O     -0.150812   -1.688715   -0.225842
  C      1.007424    0.335237    0.055351
  C      0.968154    1.686636    0.153740
  N     -0.260161    2.274954    0.061975
  C     -1.445931    1.613888   -0.120320
  O     -2.492125    2.235714   -0.188849
  C      2.124311    2.594574    0.350814
  Br     2.625905   -0.656132    0.160030
  H     -4.526013   -2.476785    1.706869
  H     -5.016948   -0.998121    0.877367
  H     -4.631001   -2.451020   -0.050028
  H     -2.649028   -0.905555    1.687783
  H     -2.256504   -2.302456    0.679940
  H     -1.901887   -1.981622   -1.784282
  H     -3.622260   -1.609307   -1.951203
  H     -2.417521   -0.473514   -2.558357
  H     -0.331086    3.285562    0.131138
  H      2.189949    3.293480   -0.480478
  H      3.051960    2.035070    0.416282
  H      1.990841    3.168492    1.265429

 Total Charge           Charge          ....    0
 Multiplicity           Mult            ....    1
 Number of Electrons    NEL             ....  132
 Basis Dimension        Dim             ....  240

ORBITAL ENERGIES
----------------

  NO   OCC          E(Eh)            E(eV)
   0   2.0000    -480.940893    -13087.0670
   1   2.0000     -61.782630     -1681.1908
   2   2.0000     -55.713328     -1516.0367
   3   2.0000     -55.710210     -1515.9519
   4   2.0000     -55.709994     -1515.9460
   5   2.0000     -18.734462      -509.7906
   6   2.0000     -18.732317      -509.7323
   7   2.0000     -14.066230      -382.7616
   8   2.0000     -14.053943      -382.4272
   9   2.0000     -10.033462      -273.0244
  10   2.0000     -10.003428      -272.2071
  11   2.0000      -9.981698      -271.6158
  12   2.0000      -9.951280      -270.7881
  13   2.0000      -9.931911      -270.2610
  14   2.0000      -9.921639      -269.9815
  15   2.0000      -9.882136      -268.9066
  16   2.0000      -9.875445      -268.7245
  17   2.0000      -9.874730      -268.7051
  18   2.0000      -8.407840      -228.7890
  19   2.0000      -6.290264      -171.1668
  20   2.0000      -6.275378      -170.7617
  21   2.0000      -6.274837      -170.7470
  22   2.0000      -2.491296       -67.7916
  23   2.0000      -2.487683       -67.6933
  24   2.0000      -2.487285       -67.6825
  25   2.0000      -2.476091       -67.3779
  26   2.0000      -2.476080       -67.3776
  27   2.0000      -0.987320       -26.8663
  28   2.0000      -0.948466       -25.8091
  29   2.0000      -0.897644       -24.4261
  30   2.0000      -0.859807       -23.3965
  31   2.0000      -0.767087       -20.8735
  32   2.0000      -0.729647       -19.8547
  33   2.0000      -0.708601       -19.2820
  34   2.0000      -0.669305       -18.2127
  35   2.0000      -0.649050       -17.6615
  36   2.0000      -0.608261       -16.5516
  37   2.0000      -0.602780       -16.4025
  38   2.0000      -0.568549       -15.4710
  39   2.0000      -0.536971       -14.6117
  40   2.0000      -0.523674       -14.2499
  41   2.0000      -0.493687       -13.4339
  42   2.0000      -0.451888       -12.2965
  43   2.0000      -0.439090       -11.9482
  44   2.0000      -0.414839       -11.2883
  45   2.0000      -0.413474       -11.2512
  46   2.0000      -0.411396       -11.1946
  47   2.0000      -0.388412       -10.5692
  48   2.0000      -0.383353       -10.4316
  49   2.0000      -0.380780       -10.3616
  50   2.0000      -0.374906       -10.2017
  51   2.0000      -0.369555       -10.0561
  52   2.0000      -0.359492        -9.7823
  53   2.0000      -0.350159        -9.5283
  54   2.0000      -0.344068        -9.3626
  55   2.0000      -0.325073        -8.8457
  56   2.0000      -0.320794        -8.7292
  57   2.0000      -0.312660        -8.5079
  58   2.0000      -0.294096        -8.0028
  59   2.0000      -0.288585        -7.8528
  60   2.0000      -0.274260        -7.4630
  61   2.0000      -0.252238        -6.8638
  62   2.0000      -0.237876        -6.4729
  63   2.0000      -0.235832        -6.4173
  64   2.0000      -0.214530        -5.8377
  65   2.0000      -0.206509        -5.6194
  66   0.0000      -0.073963        -2.0126
  67   0.0000      -0.031828        -0.8661
  68   0.0000      -0.023603        -0.6423
  69   0.0000       0.016350         0.4449
  70   0.0000       0.043641         1.1875

MULLIKEN ATOMIC CHARGES
-----------------------
   0 C :   -0.271927
   1 C :   -0.158774
   2 C :   -0.080371
   3 H :    0.106932
   4 C :   -0.246581
   5 N :   -0.238277
   6 C :    0.184268
   7 O :   -0.171648
   8 C :   -0.189181
   9 C :    0.015659
  10 N :   -0.202506
  11 C :    0.170061
  12 O :   -0.208070
  13 C :   -0.213846
  14 Br:    0.007891
  15 H :    0.106551
  16 H :    0.099579
  17 H :    0.106294
  18 H :    0.082385
  19 H :    0.117635
  20 H :    0.132335
  21 H :    0.107339
  22 H :    0.101244
  23 H :    0.246599
  24 H :    0.130974
  25 H :    0.134952
  26 H :    0.130483
Sum of atomic charges:   -0.0000000

LOEWDIN ATOMIC CHARGES
----------------------
   0 C :   -0.338964
   1 C :   -0.234600
   2 C :   -0.075992
   3 H :    0.133011
   4 C :   -0.339530
   5 N :   -0.001001
   6 C :    0.023332
   7 O :   -0.164151
   8 C :   -0.214121
   9 C :   -0.006472
  10 N :   -0.089348
  11 C :    0.037870
  12 O :   -0.198750
  13 C :   -0.333847
  14 Br:    0.137867
  15 H :    0.123482
  16 H :    0.118341
  17 H :    0.117878
  18 H :    0.116958
  19 H :    0.127901
  20 H :    0.131326
  21 H :    0.124864
  22 H :    0.121719
  23 H :    0.254679
  24 H :    0.143664
  25 H :    0.140438
  26 H :    0.143445

  Mayer bond orders larger than 0.100000
B(  0-C ,  1-C ) :   1.1624 B(  0-C , 15-H ) :   0.9494 B(  0-C , 16-H ) :   0.9495
B(  0-C , 17-H ) :   0.9499 B(  1-C ,  2-C ) :   1.0856 B(  1-C , 18-H ) :   0.9204
B(  1-C , 19-H ) :   0.9048 B(  2-C ,  3-H ) :   0.8766 B(  2-C ,  4-C ) :   1.1181
B(  2-C ,  5-N ) :   0.9138 B(  4-C , 20-H ) :   0.9291 B(  4-C , 21-H ) :   0.9422
B(  4-C , 22-H ) :   0.9447 B(  5-N ,  6-C ) :   1.0385 B(  5-N , 11-C ) :   1.0755
B(  6-C ,  7-O ) :   2.0840 B(  6-C ,  8-C ) :   1.0275 B(  8-C ,  9-C ) :   1.6407
B(  8-C , 14-Br) :   1.0541 B(  9-C , 10-N ) :   1.1786 B(  9-C , 13-C ) :   1.1597
B( 10-N , 11-C ) :   1.0936 B( 10-N , 23-H ) :   0.8392 B( 11-C , 12-O ) :   2.0471
B( 13-C , 24-H ) :   0.9196 B( 13-C , 25-H ) :   0.9086 B( 13-C , 26-H ) :   0.9195

Dispersion correction           -0.033446142
FINAL SINGLE POINT ENERGY     -3182.942212340037

DIPOLE MOMENT
-------------

Method             : SCF
Type of density    : Electron Density
Multiplicity       :   1
Irrep              :   0
Energy             : -3183.0342319939500157 Eh
Relativity type    :
Basis              : AO
                                X                 Y                 Z
Electronic contribution:     47.049591192      -3.747226717       2.121866472
Nuclear contribution   :    -46.500767904       5.066887558      -1.937302714
                        -----------------------------------------
Total Dipole Moment    :      0.548823288       1.319660840       0.184563758
                        -----------------------------------------
Magnitude (a.u.)       :      1.441102188
Magnitude (Debye)      :      3.662990659

Rotational constants in cm-1:             0.027924             0.011205             0.008663
Rotational constants in MHz :           837.153291           335.920147           259.700585

                             ****ORCA TERMINATED NORMALLY****
TOTAL RUN TIME: 0 days 0 hours 0 minutes 21 seconds 870 msec
