                         Program Version 6.0.0  -   RELEASE  -
|  1> ! pbe def2-sv(p) def2/J RI DEFGRID1 loosescf d4 GCP(DFT/SV(P)) printgap
|  2> %output
|  3>     printlevel normal
|  4> end
|  5> * xyz 0 1
|  6> C 3.668368982 0.2450804199 1.6563677318
|  7> C 3.0576624427 -0.8088511527 0.7261683709
|  8> C 3.1812558261 -0.3035533675 -0.6909317828
|  9> O 4.2354481038 -0.3665405678 -1.312744227
| 10> N 2.1217971985 0.3386506151 -1.2425918213
| 11> C 0.8027288663 0.4599838622 -0.784166045
| 12> C 0.1947903883 1.713795862 -0.7718876442
| 13> C -1.1105601259 1.8542983988 -0.3426487984
| 14> C -1.8289546839 0.7447306388 0.076561356
| 15> C -1.2361095688 -0.5123740526 0.040523768
| 16> C 0.0690436948 -0.6589793307 -0.3964423992
| 17> Cl -2.1329223816 -1.9150512606 0.5240167524
| 18> Cl -3.4632888176 0.9240649513 0.6246083665
| 19> H 3.6707758142 -0.1216273524 2.6786126101
| 20> H 3.0915847225 1.1659332646 1.6166094726
| 21> H 4.691959088 0.4603933052 1.3585564427
| 22> H 2.0241440581 -0.984109086 1.0086383082
| 23> H 3.6265640805 -1.7352692462 0.8068558345
| 24> H 2.3430025462 0.8440538852 -2.0938916809
| 25> H 0.7482702403 2.5809484682 -1.0930822093
| 26> H -1.5804916058 2.8233834873 -0.3248357204
| 27> H 0.4981707069 -1.6456340705 -0.4567776369
| 28> *
| 29>
| 30>                          ****END OF INPUT****

CARTESIAN COORDINATES (ANGSTROEM)
---------------------------------
  C      3.668369    0.245080    1.656368
  C      3.057662   -0.808851    0.726168
  C      3.181256   -0.303553   -0.690932
  O      4.235448   -0.366541   -1.312744
  N      2.121797    0.338651   -1.242592
  C      0.802729    0.459984   -0.784166
  C      0.194790    1.713796   -0.771888
  C     -1.110560    1.854298   -0.342649
  C     -1.828955    0.744731    0.076561
  C     -1.236110   -0.512374    0.040524
  C      0.069044   -0.658979   -0.396442
  Cl    -2.132922   -1.915051    0.524017
  Cl    -3.463289    0.924065    0.624608
  H      3.670776   -0.121627    2.678613
  H      3.091585    1.165933    1.616609
  H      4.691959    0.460393    1.358556
  H      2.024144   -0.984109    1.008638
  H      3.626564   -1.735269    0.806856
  H      2.343003    0.844054   -2.093892
  H      0.748270    2.580948   -1.093082
  H     -1.580492    2.823383   -0.324836
  H      0.498171   -1.645634   -0.456778

 Total Charge           Charge          ....    0
 Multiplicity           Mult            ....    1
 Number of Electrons    NEL             ....  112
 Basis Dimension        Dim             ....  208

ORBITAL ENERGIES
----------------

  NO   OCC          E(Eh)            E(eV)
   0   2.0000    -100.655034     -2738.9627
   1   2.0000    -100.653330     -2738.9164
   2   2.0000     -18.722220      -509.4575
   3   2.0000     -14.038461      -382.0059
   4   2.0000      -9.992677      -271.9146
   5   2.0000      -9.975341      -271.4428
   6   2.0000      -9.970744      -271.3178
   7   2.0000      -9.963918      -271.1320
   8   2.0000      -9.925630      -270.0901
   9   2.0000      -9.925320      -270.0817
  10   2.0000      -9.920932      -269.9623
  11   2.0000      -9.900972      -269.4191
  12   2.0000      -9.889321      -269.1021
  13   2.0000      -9.190750      -250.0930
  14   2.0000      -9.189017      -250.0459
  15   2.0000      -7.022343      -191.0877
  16   2.0000      -7.020628      -191.0410
  17   2.0000      -7.010779      -190.7730
  18   2.0000      -7.009893      -190.7489
  19   2.0000      -7.009011      -190.7249
  20   2.0000      -7.008189      -190.7025
  21   2.0000      -0.943911       -25.6851
  22   2.0000      -0.867515       -23.6063
  23   2.0000      -0.843234       -22.9456
  24   2.0000      -0.791731       -21.5441
  25   2.0000      -0.769489       -20.9389
  26   2.0000      -0.710180       -19.3250
  27   2.0000      -0.693023       -18.8581
  28   2.0000      -0.672161       -18.2904
  29   2.0000      -0.602692       -16.4001
  30   2.0000      -0.577032       -15.7018
  31   2.0000      -0.570670       -15.5287
  32   2.0000      -0.531765       -14.4701
  33   2.0000      -0.502428       -13.6718
  34   2.0000      -0.464951       -12.6520
  35   2.0000      -0.456303       -12.4166
  36   2.0000      -0.435896       -11.8613
  37   2.0000      -0.423192       -11.5156
  38   2.0000      -0.412037       -11.2121
  39   2.0000      -0.409570       -11.1450
  40   2.0000      -0.392274       -10.6743
  41   2.0000      -0.380422       -10.3518
  42   2.0000      -0.372590       -10.1387
  43   2.0000      -0.358182        -9.7466
  44   2.0000      -0.352859        -9.6018
  45   2.0000      -0.331414        -9.0182
  46   2.0000      -0.328847        -8.9484
  47   2.0000      -0.318612        -8.6699
  48   2.0000      -0.313748        -8.5375
  49   2.0000      -0.307453        -8.3662
  50   2.0000      -0.292585        -7.9616
  51   2.0000      -0.269488        -7.3331
  52   2.0000      -0.258617        -7.0373
  53   2.0000      -0.241311        -6.5664
  54   2.0000      -0.214116        -5.8264
  55   2.0000      -0.205545        -5.5932
  56   0.0000      -0.068238        -1.8569
  57   0.0000      -0.065911        -1.7935
  58   0.0000      -0.028371        -0.7720
  59   0.0000      -0.012811        -0.3486
  60   0.0000       0.027963         0.7609

MULLIKEN ATOMIC CHARGES
-----------------------
   0 C :   -0.293975
   1 C :   -0.175911
   2 C :    0.040053
   3 O :   -0.213979
   4 N :   -0.204528
   5 C :    0.189841
   6 C :   -0.099623
   7 C :   -0.111729
   8 C :    0.090881
   9 C :    0.070659
  10 C :   -0.154181
  11 Cl:   -0.048125
  12 Cl:   -0.052149
  13 H :    0.116517
  14 H :    0.106349
  15 H :    0.121935
  16 H :    0.105022
  17 H :    0.108407
  18 H :    0.236968
  19 H :    0.046764
  20 H :    0.060137
  21 H :    0.060666
Sum of atomic charges:   -0.0000000

LOEWDIN ATOMIC CHARGES
----------------------
   0 C :   -0.327513
   1 C :   -0.257622
   2 C :    0.029285
   3 O :   -0.195559
   4 N :   -0.115223
   5 C :   -0.006659
   6 C :   -0.132762
   7 C :   -0.124813
   8 C :   -0.160055
   9 C :   -0.148253
  10 C :   -0.145096
  11 Cl:    0.147821
  12 Cl:    0.144238
  13 H :    0.124485
  14 H :    0.119926
  15 H :    0.128043
  16 H :    0.126112
  17 H :    0.138753
  18 H :    0.243633
  19 H :    0.132565
  20 H :    0.137782
  21 H :    0.140913

  Mayer bond orders larger than 0.100000
B(  0-C ,  1-C ) :   1.1394 B(  0-C , 13-H ) :   0.9507 B(  0-C , 14-H ) :   0.9558
B(  0-C , 15-H ) :   0.9493 B(  1-C ,  2-C ) :   1.0278 B(  1-C , 16-H ) :   0.8911
B(  1-C , 17-H ) :   0.9010 B(  2-C ,  3-O ) :   2.0847 B(  2-C ,  4-N ) :   1.1612
B(  4-N ,  5-C ) :   0.9900 B(  4-N , 18-H ) :   0.8410 B(  5-C ,  6-C ) :   1.3475
B(  5-C , 10-C ) :   1.3240 B(  6-C ,  7-C ) :   1.3320 B(  6-C , 19-H ) :   0.9700
B(  7-C ,  8-C ) :   1.3740 B(  7-C , 20-H ) :   0.9625 B(  8-C ,  9-C ) :   1.4147
B(  8-C , 12-Cl) :   1.0383 B(  9-C , 10-C ) :   1.3586 B(  9-C , 11-Cl) :   1.0377
B( 10-C , 21-H ) :   0.9582

Dispersion correction           -0.028695277
FINAL SINGLE POINT ENERGY     -1397.087081040178

DIPOLE MOMENT
-------------

Method             : SCF
Type of density    : Electron Density
Multiplicity       :   1
Irrep              :   0
Energy             : -1397.1458960835243488 Eh
Relativity type    :
Basis              : AO
                                X                 Y                 Z
Electronic contribution:    -25.967045993      -3.882493589      -1.553075942
Nuclear contribution   :     25.517861958       4.505147464       1.716296912
                        -----------------------------------------
Total Dipole Moment    :     -0.449184035       0.622653875       0.163220970
                        -----------------------------------------
Magnitude (a.u.)       :      0.784923710
Magnitude (Debye)      :      1.995117517

Rotational constants in cm-1:             0.039425             0.010352             0.009323
Rotational constants in MHz :          1181.923227           310.356501           279.493177

                             ****ORCA TERMINATED NORMALLY****
TOTAL RUN TIME: 0 days 0 hours 0 minutes 15 seconds 404 msec
