                         Program Version 6.0.0  -   RELEASE  -
|  1> ! pbe def2-sv(p) def2/J RI DEFGRID1 loosescf d4 GCP(DFT/SV(P)) printgap
|  2> %output
|  3>     printlevel normal
|  4> end
|  5> * xyz 0 1
|  6> C -2.4250444732 0.1018119617 -0.1336047511
|  7> C -1.0007362331 0.4146432498 0.3072559496
|  8> C -0.0179023882 -0.6285950685 -0.2304553107
|  9> O 1.2955871807 -0.5118964482 0.2871367769
| 10> C 2.0234123162 0.5994906134 -0.1933407689
| 11> H -3.1101508605 0.8543765293 0.2467376564
| 12> H -2.4927336653 0.089055048 -1.218819862
| 13> H -2.7354120256 -0.8702346167 0.2413709999
| 14> H -0.937590685 0.4194063672 1.3971773576
| 15> H -0.7190836504 1.4056191093 -0.0532459801
| 16> H -0.3404045049 -1.6283798152 0.0713606838
| 17> H 0.012233156 -0.5842169547 -1.3293009068
| 18> H 3.0411875421 0.4682005736 0.1666190844
| 19> H 1.621571015 1.5419463511 0.1895392674
| 20> H 2.0191709505 0.6224165752 -1.2885086366
| 21> *
| 22>
| 23>                          ****END OF INPUT****

CARTESIAN COORDINATES (ANGSTROEM)
---------------------------------
  C     -2.425044    0.101812   -0.133605
  C     -1.000736    0.414643    0.307256
  C     -0.017902   -0.628595   -0.230455
  O      1.295587   -0.511896    0.287137
  C      2.023412    0.599491   -0.193341
  H     -3.110151    0.854377    0.246738
  H     -2.492734    0.089055   -1.218820
  H     -2.735412   -0.870235    0.241371
  H     -0.937591    0.419406    1.397177
  H     -0.719084    1.405619   -0.053246
  H     -0.340405   -1.628380    0.071361
  H      0.012233   -0.584217   -1.329301
  H      3.041188    0.468201    0.166619
  H      1.621571    1.541946    0.189539
  H      2.019171    0.622417   -1.288509

 Total Charge           Charge          ....    0
 Multiplicity           Mult            ....    1
 Number of Electrons    NEL             ....   42
 Basis Dimension        Dim             ....   90

ORBITAL ENERGIES
----------------

  NO   OCC          E(Eh)            E(eV)
   0   2.0000     -18.745678      -510.0958
   1   2.0000      -9.925544      -270.0878
   2   2.0000      -9.920502      -269.9506
   3   2.0000      -9.883934      -268.9555
   4   2.0000      -9.878628      -268.8111
   5   2.0000      -0.924818       -25.1656
   6   2.0000      -0.704803       -19.1787
   7   2.0000      -0.635256       -17.2862
   8   2.0000      -0.572084       -15.5672
   9   2.0000      -0.519654       -14.1405
  10   2.0000      -0.437267       -11.8986
  11   2.0000      -0.431904       -11.7527
  12   2.0000      -0.400085       -10.8869
  13   2.0000      -0.386493       -10.5170
  14   2.0000      -0.361664        -9.8414
  15   2.0000      -0.336789        -9.1645
  16   2.0000      -0.325255        -8.8506
  17   2.0000      -0.309281        -8.4160
  18   2.0000      -0.295561        -8.0426
  19   2.0000      -0.254593        -6.9278
  20   2.0000      -0.199152        -5.4192
  21   0.0000       0.037705         1.0260
  22   0.0000       0.054970         1.4958
  23   0.0000       0.071530         1.9464
  24   0.0000       0.082108         2.2343
  25   0.0000       0.100992         2.7481

MULLIKEN ATOMIC CHARGES
-----------------------
   0 C :   -0.285543
   1 C :   -0.215904
   2 C :    0.009188
   3 O :   -0.337065
   4 C :   -0.105241
   5 H :    0.108178
   6 H :    0.100925
   7 H :    0.102644
   8 H :    0.095008
   9 H :    0.092447
  10 H :    0.085700
  11 H :    0.063287
  12 H :    0.113224
  13 H :    0.093004
  14 H :    0.080146
Sum of atomic charges:    0.0000000

LOEWDIN ATOMIC CHARGES
----------------------
   0 C :   -0.338820
   1 C :   -0.257464
   2 C :   -0.114214
   3 O :   -0.183512
   4 C :   -0.208192
   5 H :    0.122146
   6 H :    0.117621
   7 H :    0.118554
   8 H :    0.119887
   9 H :    0.114853
  10 H :    0.110306
  11 H :    0.092527
  12 H :    0.115279
  13 H :    0.095620
  14 H :    0.095408

  Mayer bond orders larger than 0.100000
B(  0-C ,  1-C ) :   1.1391 B(  0-C ,  5-H ) :   0.9519 B(  0-C ,  6-H ) :   0.9556
B(  0-C ,  7-H ) :   0.9546 B(  1-C ,  2-C ) :   1.1068 B(  1-C ,  8-H ) :   0.9203
B(  1-C ,  9-H ) :   0.9220 B(  2-C ,  3-O ) :   1.0446 B(  2-C , 10-H ) :   0.9343
B(  2-C , 11-H ) :   0.9177 B(  3-O ,  4-C ) :   1.0229 B(  4-C , 12-H ) :   0.9642
B(  4-C , 13-H ) :   0.9399 B(  4-C , 14-H ) :   0.9391

Dispersion correction           -0.009006855
FINAL SINGLE POINT ENERGY      -233.083408060983

DIPOLE MOMENT
-------------

Method             : SCF
Type of density    : Electron Density
Multiplicity       :   1
Irrep              :   0
Energy             :  -233.1423440738393253 Eh
Relativity type    :
Basis              : AO
                                X                 Y                 Z
Electronic contribution:      3.195936504      -1.819223752       1.211206367
Nuclear contribution   :     -3.396797679       2.167239811      -1.475288685
                        -----------------------------------------
Total Dipole Moment    :     -0.200861175       0.348016059      -0.264082318
                        -----------------------------------------
Magnitude (a.u.)       :      0.480832466
Magnitude (Debye)      :      1.222179000

Rotational constants in cm-1:             0.468114             0.079997             0.074921
Rotational constants in MHz :         14033.708573          2398.258923          2246.064128

                             ****ORCA TERMINATED NORMALLY****
TOTAL RUN TIME: 0 days 0 hours 0 minutes 6 seconds 582 msec
