                         Program Version 6.0.0  -   RELEASE  -
|  1> ! pbe def2-sv(p) def2/J RI DEFGRID1 loosescf d4 GCP(DFT/SV(P)) printgap
|  2> %output
|  3>     printlevel normal
|  4> end
|  5> * xyz 0 1
|  6> C -2.776157315 0.0040233411 -0.0019744987
|  7> C -1.3613763542 0.3978759627 -0.4102100108
|  8> C -0.3174398088 -0.2494678335 0.5021038018
|  9> C 1.1098056276 -0.0116614535 0.0744138486
| 10> C 1.5595474476 1.1660775794 -0.3290641568
| 11> C 2.0039218972 -1.2121292178 0.1578249789
| 12> H -3.5068622611 0.4756714512 -0.6545261581
| 13> H -2.9772482604 0.3147731817 1.020983092
| 14> H -2.9062224864 -1.0742491528 -0.063905742
| 15> H -1.1764958182 0.0868814247 -1.4407740181
| 16> H -1.2666526135 1.4836568271 -0.3700173773
| 17> H -0.4500380943 0.1324590913 1.51901853
| 18> H -0.5016812465 -1.3254716876 0.533576055
| 19> H 2.5864361227 1.3073919648 -0.6218066342
| 20> H 0.9310237015 2.0375668794 -0.385451065
| 21> H 1.9945966746 -1.6143239777 1.1700417338
| 22> H 1.6455166774 -1.9920258481 -0.5129931769
| 23> H 3.0261599496 -0.9610755079 -0.1118469849
| 24> *
| 25>
| 26>                          ****END OF INPUT****

CARTESIAN COORDINATES (ANGSTROEM)
---------------------------------
  C     -2.776157    0.004023   -0.001974
  C     -1.361376    0.397876   -0.410210
  C     -0.317440   -0.249468    0.502104
  C      1.109806   -0.011661    0.074414
  C      1.559547    1.166078   -0.329064
  C      2.003922   -1.212129    0.157825
  H     -3.506862    0.475671   -0.654526
  H     -2.977248    0.314773    1.020983
  H     -2.906222   -1.074249   -0.063906
  H     -1.176496    0.086881   -1.440774
  H     -1.266653    1.483657   -0.370017
  H     -0.450038    0.132459    1.519019
  H     -0.501681   -1.325472    0.533576
  H      2.586436    1.307392   -0.621807
  H      0.931024    2.037567   -0.385451
  H      1.994597   -1.614324    1.170042
  H      1.645517   -1.992026   -0.512993
  H      3.026160   -0.961076   -0.111847

 Total Charge           Charge          ....    0
 Multiplicity           Mult            ....    1
 Number of Electrons    NEL             ....   48
 Basis Dimension        Dim             ....  108

ORBITAL ENERGIES
----------------

  NO   OCC          E(Eh)            E(eV)
   0   2.0000      -9.895051      -269.2580
   1   2.0000      -9.884736      -268.9773
   2   2.0000      -9.884120      -268.9606
   3   2.0000      -9.877150      -268.7709
   4   2.0000      -9.872955      -268.6568
   5   2.0000      -9.862195      -268.3640
   6   2.0000      -0.736050       -20.0289
   7   2.0000      -0.686452       -18.6793
   8   2.0000      -0.611743       -16.6464
   9   2.0000      -0.601953       -16.3800
  10   2.0000      -0.526900       -14.3377
  11   2.0000      -0.460751       -12.5377
  12   2.0000      -0.421268       -11.4633
  13   2.0000      -0.409697       -11.1484
  14   2.0000      -0.385158       -10.4807
  15   2.0000      -0.373338       -10.1590
  16   2.0000      -0.356789        -9.7087
  17   2.0000      -0.336422        -9.1545
  18   2.0000      -0.328170        -8.9299
  19   2.0000      -0.316394        -8.6095
  20   2.0000      -0.294662        -8.0181
  21   2.0000      -0.291654        -7.9363
  22   2.0000      -0.274201        -7.4614
  23   2.0000      -0.210928        -5.7396
  24   0.0000      -0.008291        -0.2256
  25   0.0000       0.038670         1.0523
  26   0.0000       0.061453         1.6722
  27   0.0000       0.072281         1.9669
  28   0.0000       0.086016         2.3406

MULLIKEN ATOMIC CHARGES
-----------------------
   0 C :   -0.260895
   1 C :   -0.207932
   2 C :   -0.125372
   3 C :   -0.078896
   4 C :   -0.237644
   5 C :   -0.222001
   6 H :    0.103043
   7 H :    0.095796
   8 H :    0.096921
   9 H :    0.090982
  10 H :    0.095699
  11 H :    0.097616
  12 H :    0.071366
  13 H :    0.080623
  14 H :    0.086523
  15 H :    0.109434
  16 H :    0.109195
  17 H :    0.095542
Sum of atomic charges:    0.0000000

LOEWDIN ATOMIC CHARGES
----------------------
   0 C :   -0.340644
   1 C :   -0.228799
   2 C :   -0.216094
   3 C :   -0.059962
   4 C :   -0.271826
   5 C :   -0.323056
   6 H :    0.119348
   7 H :    0.116706
   8 H :    0.116215
   9 H :    0.117504
  10 H :    0.116146
  11 H :    0.130014
  12 H :    0.115479
  13 H :    0.116643
  14 H :    0.115345
  15 H :    0.127483
  16 H :    0.127693
  17 H :    0.121806

  Mayer bond orders larger than 0.100000
B(  0-C ,  1-C ) :   1.1538 B(  0-C ,  6-H ) :   0.9528 B(  0-C ,  7-H ) :   0.9536
B(  0-C ,  8-H ) :   0.9538 B(  1-C ,  2-C ) :   1.1343 B(  1-C ,  9-H ) :   0.9324
B(  1-C , 10-H ) :   0.9183 B(  2-C ,  3-C ) :   1.0506 B(  2-C , 11-H ) :   0.8961
B(  2-C , 12-H ) :   0.9178 B(  3-C ,  4-C ) :   2.0434 B(  3-C ,  5-C ) :   1.1261
B(  4-C , 13-H ) :   0.9036 B(  4-C , 14-H ) :   0.9138 B(  5-C , 15-H ) :   0.9337
B(  5-C , 16-H ) :   0.9283 B(  5-C , 17-H ) :   0.9420

Dispersion correction           -0.013067555
FINAL SINGLE POINT ENERGY      -235.242614269894

DIPOLE MOMENT
-------------

Method             : SCF
Type of density    : Electron Density
Multiplicity       :   1
Irrep              :   0
Energy             :  -235.3005765580209356 Eh
Relativity type    :
Basis              : AO
                                X                 Y                 Z
Electronic contribution:      2.337215492       0.902045187      -0.009152365
Nuclear contribution   :     -2.440600802      -1.058947172       0.077209180
                        -----------------------------------------
Total Dipole Moment    :     -0.103385310      -0.156901986       0.068056816
                        -----------------------------------------
Magnitude (a.u.)       :      0.199846155
Magnitude (Debye)      :      0.507968557

Rotational constants in cm-1:             0.243627             0.060694             0.051852
Rotational constants in MHz :          7303.760879          1819.555420          1554.485853

                             ****ORCA TERMINATED NORMALLY****
TOTAL RUN TIME: 0 days 0 hours 0 minutes 7 seconds 664 msec
