                         Program Version 6.0.0  -   RELEASE  -
|  1> ! r2scan-3c def2/J RI DEFGRID2 scfconv6 printgap
|  2> %output
|  3>     printlevel normal
|  4> end
|  5> * xyz 0 1
|  6> C 1.6040131218 0.8009915182 1.3304087577
|  7> C 1.2585819277 -0.3183158349 0.3431709013
|  8> C 2.428032886 -0.578978544 -0.604098369
|  9> C -2.29186e-05 0.001196615 -0.4467089007
| 10> O 0.0002409392 0.0043622951 -1.6616448454
| 11> C -1.2589063601 0.3168930443 0.3442993023
| 12> C -1.6031586928 -0.8054019948 1.3285224031
| 13> C -2.4288224254 0.5791874677 -0.6019678186
| 14> H 2.5550596651 0.5784706795 1.8072349122
| 15> H 0.8493390135 0.90053066 2.1042411799
| 16> H 1.6988648341 1.7490235539 0.8056816549
| 17> H 1.0556561257 -1.2353412194 0.9060041644
| 18> H 3.3075657157 -0.8840188885 -0.0442893298
| 19> H 2.1721405095 -1.361081476 -1.3149593465
| 20> H 2.6624062424 0.321009067 -1.1682286237
| 21> H -1.0567409241 1.2325672711 0.9096454116
| 22> H -0.8487498925 -0.9058453022 2.1024958541
| 23> H -2.5547331797 -0.5854481686 1.8054753488
| 24> H -1.6964481856 -1.7522180936 0.8013336528
| 25> H -2.1736280853 1.3631609529 -1.3110093609
| 26> H -2.6627770392 -0.3195999377 -1.1681843161
| 27> H -3.3084134143 0.8823084549 -0.0412003664
| 28> *
| 29>
| 30>                          ****END OF INPUT****

CARTESIAN COORDINATES (ANGSTROEM)
---------------------------------
  C      1.604013    0.800992    1.330409
  C      1.258582   -0.318316    0.343171
  C      2.428033   -0.578979   -0.604098
  C     -0.000023    0.001197   -0.446709
  O      0.000241    0.004362   -1.661645
  C     -1.258906    0.316893    0.344299
  C     -1.603159   -0.805402    1.328522
  C     -2.428822    0.579187   -0.601968
  H      2.555060    0.578471    1.807235
  H      0.849339    0.900531    2.104241
  H      1.698865    1.749024    0.805682
  H      1.055656   -1.235341    0.906004
  H      3.307566   -0.884019   -0.044289
  H      2.172141   -1.361081   -1.314959
  H      2.662406    0.321009   -1.168229
  H     -1.056741    1.232567    0.909645
  H     -0.848750   -0.905845    2.102496
  H     -2.554733   -0.585448    1.805475
  H     -1.696448   -1.752218    0.801334
  H     -2.173628    1.363161   -1.311009
  H     -2.662777   -0.319600   -1.168184
  H     -3.308413    0.882308   -0.041200

 Total Charge           Charge          ....    0
 Multiplicity           Mult            ....    1
 Number of Electrons    NEL             ....   64
 Basis Dimension        Dim             ....  227

ORBITAL ENERGIES
----------------

  NO   OCC          E(Eh)            E(eV)
   0   2.0000     -18.935592      -515.2637
   1   2.0000     -10.111339      -275.1435
   2   2.0000     -10.045828      -273.3609
   3   2.0000     -10.045817      -273.3606
   4   2.0000     -10.032997      -273.0117
   5   2.0000     -10.032986      -273.0114
   6   2.0000     -10.015409      -272.5331
   7   2.0000     -10.015402      -272.5330
   8   2.0000      -1.003102       -27.2958
   9   2.0000      -0.785122       -21.3643
  10   2.0000      -0.759326       -20.6623
  11   2.0000      -0.657562       -17.8932
  12   2.0000      -0.657443       -17.8899
  13   2.0000      -0.620892       -16.8953
  14   2.0000      -0.562461       -15.3053
  15   2.0000      -0.478772       -13.0281
  16   2.0000      -0.466229       -12.6867
  17   2.0000      -0.432033       -11.7562
  18   2.0000      -0.424859       -11.5610
  19   2.0000      -0.410450       -11.1689
  20   2.0000      -0.380560       -10.3556
  21   2.0000      -0.377763       -10.2795
  22   2.0000      -0.362344        -9.8599
  23   2.0000      -0.359007        -9.7691
  24   2.0000      -0.350872        -9.5477
  25   2.0000      -0.340099        -9.2546
  26   2.0000      -0.327651        -8.9158
  27   2.0000      -0.313894        -8.5415
  28   2.0000      -0.311727        -8.4825
  29   2.0000      -0.306951        -8.3526
  30   2.0000      -0.304329        -8.2812
  31   2.0000      -0.208732        -5.6799
  32   0.0000      -0.044395        -1.2080
  33   0.0000       0.062734         1.7071
  34   0.0000       0.106289         2.8923
  35   0.0000       0.109866         2.9896
  36   0.0000       0.111978         3.0471

MULLIKEN ATOMIC CHARGES
-----------------------
   0 C :   -0.502109
   1 C :    0.009218
   2 C :   -0.506414
   3 C :    0.151917
   4 O :   -0.349856
   5 C :    0.009260
   6 C :   -0.502259
   7 C :   -0.506440
   8 H :    0.153962
   9 H :    0.151673
  10 H :    0.166643
  11 H :    0.162196
  12 H :    0.143255
  13 H :    0.161754
  14 H :    0.158815
  15 H :    0.162227
  16 H :    0.151687
  17 H :    0.153949
  18 H :    0.166660
  19 H :    0.161865
  20 H :    0.158722
  21 H :    0.143274
Sum of atomic charges:   -0.0000000

LOEWDIN ATOMIC CHARGES
----------------------
   0 C :   -0.397620
   1 C :   -0.217568
   2 C :   -0.394881
   3 C :    0.237915
   4 O :   -0.471902
   5 C :   -0.217565
   6 C :   -0.397701
   7 C :   -0.394888
   8 H :    0.158108
   9 H :    0.153587
  10 H :    0.159926
  11 H :    0.174961
  12 H :    0.149893
  13 H :    0.166851
  14 H :    0.163768
  15 H :    0.174993
  16 H :    0.153586
  17 H :    0.158108
  18 H :    0.159909
  19 H :    0.166901
  20 H :    0.163726
  21 H :    0.149895

  Mayer bond orders larger than 0.100000
B(  0-C ,  1-C ) :   0.8495 B(  0-C ,  8-H ) :   0.9693 B(  0-C ,  9-H ) :   0.9656
B(  0-C , 10-H ) :   0.9835 B(  1-C ,  2-C ) :   0.9376 B(  1-C ,  3-C ) :   0.9110
B(  1-C , 11-H ) :   0.9242 B(  2-C , 12-H ) :   0.9764 B(  2-C , 13-H ) :   0.9684
B(  2-C , 14-H ) :   0.9823 B(  3-C ,  4-O ) :   1.9534 B(  3-C ,  5-C ) :   0.9110
B(  5-C ,  6-C ) :   0.8493 B(  5-C ,  7-C ) :   0.9375 B(  5-C , 15-H ) :   0.9242
B(  6-C , 16-H ) :   0.9656 B(  6-C , 17-H ) :   0.9693 B(  6-C , 18-H ) :   0.9836
B(  7-C , 19-H ) :   0.9683 B(  7-C , 20-H ) :   0.9823 B(  7-C , 21-H ) :   0.9764

Dispersion correction           -0.006430114
FINAL SINGLE POINT ENERGY      -350.303981962892

DIPOLE MOMENT
-------------

Method             : SCF
Type of density    : Electron Density
Multiplicity       :   1
Irrep              :   0
Energy             :  -350.3080812817369747 Eh
Relativity type    :
Basis              : AO
                                X                 Y                 Z
Electronic contribution:      0.000238348       0.012840289      -4.679439286
Nuclear contribution   :     -0.000426682      -0.015398537       5.786568240
                        -----------------------------------------
Total Dipole Moment    :     -0.000188334      -0.002558248       1.107128954
                        -----------------------------------------
Magnitude (a.u.)       :      1.107131926
Magnitude (Debye)      :      2.814105715

Rotational constants in cm-1:             0.100606             0.047740             0.038652
Rotational constants in MHz :          3016.089976          1431.216610          1158.757092

                             ****ORCA TERMINATED NORMALLY****
TOTAL RUN TIME: 0 days 0 hours 0 minutes 38 seconds 903 msec
