                         Program Version 6.0.0  -   RELEASE  -
|  1> ! r2scan-3c def2/J RI DEFGRID2 scfconv6 printgap
|  2> %output
|  3>     printlevel normal
|  4> end
|  5> %cpcm
|  6>     smd true
|  7>     smdsolvent "water"
|  8> end
|  9> * xyz 0 1
| 10> C 1.6040131218 0.8009915182 1.3304087577
| 11> C 1.2585819277 -0.3183158349 0.3431709013
| 12> C 2.428032886 -0.578978544 -0.604098369
| 13> C -2.29186e-05 0.001196615 -0.4467089007
| 14> O 0.0002409392 0.0043622951 -1.6616448454
| 15> C -1.2589063601 0.3168930443 0.3442993023
| 16> C -1.6031586928 -0.8054019948 1.3285224031
| 17> C -2.4288224254 0.5791874677 -0.6019678186
| 18> H 2.5550596651 0.5784706795 1.8072349122
| 19> H 0.8493390135 0.90053066 2.1042411799
| 20> H 1.6988648341 1.7490235539 0.8056816549
| 21> H 1.0556561257 -1.2353412194 0.9060041644
| 22> H 3.3075657157 -0.8840188885 -0.0442893298
| 23> H 2.1721405095 -1.361081476 -1.3149593465
| 24> H 2.6624062424 0.321009067 -1.1682286237
| 25> H -1.0567409241 1.2325672711 0.9096454116
| 26> H -0.8487498925 -0.9058453022 2.1024958541
| 27> H -2.5547331797 -0.5854481686 1.8054753488
| 28> H -1.6964481856 -1.7522180936 0.8013336528
| 29> H -2.1736280853 1.3631609529 -1.3110093609
| 30> H -2.6627770392 -0.3195999377 -1.1681843161
| 31> H -3.3084134143 0.8823084549 -0.0412003664
| 32> *
| 33>
| 34>                          ****END OF INPUT****

CARTESIAN COORDINATES (ANGSTROEM)
---------------------------------
  C      1.604013    0.800992    1.330409
  C      1.258582   -0.318316    0.343171
  C      2.428033   -0.578979   -0.604098
  C     -0.000023    0.001197   -0.446709
  O      0.000241    0.004362   -1.661645
  C     -1.258906    0.316893    0.344299
  C     -1.603159   -0.805402    1.328522
  C     -2.428822    0.579187   -0.601968
  H      2.555060    0.578471    1.807235
  H      0.849339    0.900531    2.104241
  H      1.698865    1.749024    0.805682
  H      1.055656   -1.235341    0.906004
  H      3.307566   -0.884019   -0.044289
  H      2.172141   -1.361081   -1.314959
  H      2.662406    0.321009   -1.168229
  H     -1.056741    1.232567    0.909645
  H     -0.848750   -0.905845    2.102496
  H     -2.554733   -0.585448    1.805475
  H     -1.696448   -1.752218    0.801334
  H     -2.173628    1.363161   -1.311009
  H     -2.662777   -0.319600   -1.168184
  H     -3.308413    0.882308   -0.041200

 Total Charge           Charge          ....    0
 Multiplicity           Mult            ....    1
 Number of Electrons    NEL             ....   64
 Basis Dimension        Dim             ....  227

ORBITAL ENERGIES
----------------

  NO   OCC          E(Eh)            E(eV)
   0   2.0000     -18.945601      -515.5360
   1   2.0000     -10.117031      -275.2984
   2   2.0000     -10.037415      -273.1319
   3   2.0000     -10.037405      -273.1317
   4   2.0000     -10.017556      -272.5916
   5   2.0000     -10.017538      -272.5911
   6   2.0000     -10.010481      -272.3990
   7   2.0000     -10.010476      -272.3989
   8   2.0000      -1.014553       -27.6074
   9   2.0000      -0.776862       -21.1395
  10   2.0000      -0.750440       -20.4205
  11   2.0000      -0.649285       -17.6679
  12   2.0000      -0.647141       -17.6096
  13   2.0000      -0.613844       -16.7035
  14   2.0000      -0.554947       -15.1009
  15   2.0000      -0.475673       -12.9437
  16   2.0000      -0.460268       -12.5245
  17   2.0000      -0.424339       -11.5468
  18   2.0000      -0.419695       -11.4205
  19   2.0000      -0.414004       -11.2656
  20   2.0000      -0.370659       -10.0861
  21   2.0000      -0.368526       -10.0281
  22   2.0000      -0.351624        -9.5682
  23   2.0000      -0.350270        -9.5313
  24   2.0000      -0.342373        -9.3164
  25   2.0000      -0.340546        -9.2667
  26   2.0000      -0.323533        -8.8038
  27   2.0000      -0.306140        -8.3305
  28   2.0000      -0.305780        -8.3207
  29   2.0000      -0.300810        -8.1854
  30   2.0000      -0.295454        -8.0397
  31   2.0000      -0.217290        -5.9128
  32   0.0000      -0.046867        -1.2753
  33   0.0000       0.074007         2.0138
  34   0.0000       0.116702         3.1756
  35   0.0000       0.120078         3.2675
  36   0.0000       0.128459         3.4955

MULLIKEN ATOMIC CHARGES
-----------------------
   0 C :   -0.536465
   1 C :    0.039418
   2 C :   -0.571248
   3 C :    0.177492
   4 O :   -0.447349
   5 C :    0.039437
   6 C :   -0.536618
   7 C :   -0.571219
   8 H :    0.168123
   9 H :    0.171462
  10 H :    0.176734
  11 H :    0.190016
  12 H :    0.164551
  13 H :    0.162920
  14 H :    0.169426
  15 H :    0.190072
  16 H :    0.171465
  17 H :    0.168090
  18 H :    0.176781
  19 H :    0.162920
  20 H :    0.169426
  21 H :    0.164567
Sum of atomic charges:   -0.0000000

LOEWDIN ATOMIC CHARGES
----------------------
   0 C :   -0.398311
   1 C :   -0.210636
   2 C :   -0.405311
   3 C :    0.255847
   4 O :   -0.543643
   5 C :   -0.210638
   6 C :   -0.398390
   7 C :   -0.405314
   8 H :    0.162437
   9 H :    0.161458
  10 H :    0.162853
  11 H :    0.187784
  12 H :    0.158159
  13 H :    0.162993
  14 H :    0.162499
  15 H :    0.187823
  16 H :    0.161452
  17 H :    0.162428
  18 H :    0.162850
  19 H :    0.163012
  20 H :    0.162488
  21 H :    0.158160

  Mayer bond orders larger than 0.100000
B(  0-C ,  1-C ) :   0.8420 B(  0-C ,  8-H ) :   0.9664 B(  0-C ,  9-H ) :   0.9602
B(  0-C , 10-H ) :   0.9792 B(  1-C ,  2-C ) :   0.8937 B(  1-C ,  3-C ) :   0.9328
B(  1-C , 11-H ) :   0.9122 B(  2-C , 12-H ) :   0.9696 B(  2-C , 13-H ) :   0.9729
B(  2-C , 14-H ) :   0.9874 B(  3-C ,  4-O ) :   1.8833 B(  3-C ,  5-C ) :   0.9328
B(  5-C ,  6-C ) :   0.8418 B(  5-C ,  7-C ) :   0.8936 B(  5-C , 15-H ) :   0.9122
B(  6-C , 16-H ) :   0.9602 B(  6-C , 17-H ) :   0.9664 B(  6-C , 18-H ) :   0.9792
B(  7-C , 19-H ) :   0.9729 B(  7-C , 20-H ) :   0.9874 B(  7-C , 21-H ) :   0.9696

Dispersion correction           -0.006430114
FINAL SINGLE POINT ENERGY      -350.308922860654

DIPOLE MOMENT
-------------

Method             : SCF
Type of density    : Electron Density
Multiplicity       :   1
Irrep              :   0
Energy             :  -350.3130221794982617 Eh
Relativity type    :
Basis              : AO
                                X                 Y                 Z
Electronic contribution:      0.000128822       0.011316160      -4.031575888
Nuclear contribution   :     -0.000426682      -0.015398537       5.786568240
                        -----------------------------------------
Total Dipole Moment    :     -0.000297859      -0.004082377       1.754992352
                        -----------------------------------------
Magnitude (a.u.)       :      1.754997126
Magnitude (Debye)      :      4.460848185

Rotational constants in cm-1:             0.100606             0.047740             0.038652
Rotational constants in MHz :          3016.089976          1431.216610          1158.757092

                             ****ORCA TERMINATED NORMALLY****
TOTAL RUN TIME: 0 days 0 hours 0 minutes 40 seconds 552 msec
