                         Program Version 6.0.0  -   RELEASE  -
|  1> ! pbe def2-sv(p) def2/J RI DEFGRID1 loosescf d4 GCP(DFT/SV(P)) printgap
|  2> %output
|  3>     printlevel normal
|  4> end
|  5> * xyz 0 1
|  6> C -4.0840053857 0.4970641705 0.9478491985
|  7> C -3.449669148 0.5016319642 -0.4351569984
|  8> O -2.0236249444 0.6322334115 -0.3522978626
|  9> C -1.2999562336 -0.4785173034 -0.1950660246
| 10> O -1.7973981987 -1.5917108005 -0.1459231474
| 11> C 0.1434781625 -0.2154470152 -0.1017290345
| 12> C 0.6614720096 1.0784785363 -0.158021337
| 13> C 2.0206835226 1.2872021683 -0.0664695151
| 14> C 2.889859286 0.2059139541 0.0833078718
| 15> C 2.3730462806 -1.0909883675 0.1405919415
| 16> C 1.0162817765 -1.2956776726 0.0491831723
| 17> O 4.2243338914 0.3578700428 0.1768093177
| 18> H -5.1640185566 0.4652702523 0.848119198
| 19> H -3.7542164832 -0.3774565847 1.5044816596
| 20> H -3.7982291467 1.3922331797 1.4935548889
| 21> H -3.7709304186 1.3669418436 -1.0161438077
| 22> H -3.6864160363 -0.424019805 -0.9691790687
| 23> H -0.0115803653 1.9125874586 -0.2739484546
| 24> H 2.4131799391 2.291977304 -0.1109897572
| 25> H 3.0580262605 -1.9151287189 0.2568457799
| 26> H 0.6009215871 -2.2909407177 0.0915562133
| 27> H 4.4793746146 1.2932347591 0.125910268
| 28> *
| 29>
| 30>                          ****END OF INPUT****

CARTESIAN COORDINATES (ANGSTROEM)
---------------------------------
  C     -4.084005    0.497064    0.947849
  C     -3.449669    0.501632   -0.435157
  O     -2.023625    0.632233   -0.352298
  C     -1.299956   -0.478517   -0.195066
  O     -1.797398   -1.591711   -0.145923
  C      0.143478   -0.215447   -0.101729
  C      0.661472    1.078479   -0.158021
  C      2.020684    1.287202   -0.066470
  C      2.889859    0.205914    0.083308
  C      2.373046   -1.090988    0.140592
  C      1.016282   -1.295678    0.049183
  O      4.224334    0.357870    0.176809
  H     -5.164019    0.465270    0.848119
  H     -3.754216   -0.377457    1.504482
  H     -3.798229    1.392233    1.493555
  H     -3.770930    1.366942   -1.016144
  H     -3.686416   -0.424020   -0.969179
  H     -0.011580    1.912587   -0.273948
  H      2.413180    2.291977   -0.110990
  H      3.058026   -1.915129    0.256846
  H      0.600922   -2.290941    0.091556
  H      4.479375    1.293235    0.125910

 Total Charge           Charge          ....    0
 Multiplicity           Mult            ....    1
 Number of Electrons    NEL             ....   88
 Basis Dimension        Dim             ....  188

ORBITAL ENERGIES
----------------

  NO   OCC          E(Eh)            E(eV)
   0   2.0000     -18.799664      -511.5649
   1   2.0000     -18.792237      -511.3628
   2   2.0000     -18.725858      -509.5565
   3   2.0000     -10.001846      -272.1641
   4   2.0000      -9.968018      -271.2436
   5   2.0000      -9.942833      -270.5582
   6   2.0000      -9.903701      -269.4934
   7   2.0000      -9.901959      -269.4460
   8   2.0000      -9.900636      -269.4100
   9   2.0000      -9.899173      -269.3702
  10   2.0000      -9.894878      -269.2533
  11   2.0000      -9.882547      -268.9178
  12   2.0000      -0.998112       -27.1600
  13   2.0000      -0.982318       -26.7302
  14   2.0000      -0.901898       -24.5419
  15   2.0000      -0.782642       -21.2968
  16   2.0000      -0.707087       -19.2408
  17   2.0000      -0.682093       -18.5607
  18   2.0000      -0.675002       -18.3678
  19   2.0000      -0.606027       -16.4908
  20   2.0000      -0.569959       -15.5094
  21   2.0000      -0.557671       -15.1750
  22   2.0000      -0.506228       -13.7752
  23   2.0000      -0.500247       -13.6124
  24   2.0000      -0.474063       -12.8999
  25   2.0000      -0.436499       -11.8777
  26   2.0000      -0.423197       -11.5158
  27   2.0000      -0.408587       -11.1182
  28   2.0000      -0.397621       -10.8198
  29   2.0000      -0.388469       -10.5708
  30   2.0000      -0.384184       -10.4542
  31   2.0000      -0.378602       -10.3023
  32   2.0000      -0.358692        -9.7605
  33   2.0000      -0.356594        -9.7034
  34   2.0000      -0.342203        -9.3118
  35   2.0000      -0.337685        -9.1889
  36   2.0000      -0.322014        -8.7625
  37   2.0000      -0.302957        -8.2439
  38   2.0000      -0.300035        -8.1644
  39   2.0000      -0.286940        -7.8080
  40   2.0000      -0.251489        -6.8434
  41   2.0000      -0.238262        -6.4834
  42   2.0000      -0.216195        -5.8830
  43   2.0000      -0.206907        -5.6302
  44   0.0000      -0.063274        -1.7218
  45   0.0000      -0.041544        -1.1305
  46   0.0000       0.012598         0.3428
  47   0.0000       0.031026         0.8443
  48   0.0000       0.047664         1.2970

MULLIKEN ATOMIC CHARGES
-----------------------
   0 C :   -0.300973
   1 C :   -0.007757
   2 O :   -0.249400
   3 C :    0.161211
   4 O :   -0.206721
   5 C :    0.037803
   6 C :   -0.089683
   7 C :   -0.152525
   8 C :    0.248030
   9 C :   -0.112599
  10 C :   -0.091843
  11 O :   -0.316475
  12 H :    0.110039
  13 H :    0.126734
  14 H :    0.110452
  15 H :    0.098096
  16 H :    0.106746
  17 H :    0.057451
  18 H :    0.031512
  19 H :    0.051966
  20 H :    0.065981
  21 H :    0.321955
Sum of atomic charges:   -0.0000000

LOEWDIN ATOMIC CHARGES
----------------------
   0 C :   -0.356439
   1 C :   -0.112249
   2 O :   -0.069924
   3 C :    0.047402
   4 O :   -0.177520
   5 C :   -0.099174
   6 C :   -0.090962
   7 C :   -0.176123
   8 C :    0.031258
   9 C :   -0.145385
  10 C :   -0.079059
  11 O :   -0.215519
  12 H :    0.129080
  13 H :    0.130782
  14 H :    0.123164
  15 H :    0.115055
  16 H :    0.119467
  17 H :    0.131554
  18 H :    0.121832
  19 H :    0.133698
  20 H :    0.137275
  21 H :    0.301788

  Mayer bond orders larger than 0.100000
B(  0-C ,  1-C ) :   1.1752 B(  0-C , 12-H ) :   0.9444 B(  0-C , 13-H ) :   0.9456
B(  0-C , 14-H ) :   0.9492 B(  1-C ,  2-O ) :   0.9261 B(  1-C , 15-H ) :   0.9376
B(  1-C , 16-H ) :   0.9114 B(  2-O ,  3-C ) :   1.2276 B(  3-C ,  4-O ) :   2.0371
B(  3-C ,  5-C ) :   0.9598 B(  5-C ,  6-C ) :   1.3525 B(  5-C , 10-C ) :   1.3540
B(  6-C ,  7-C ) :   1.3586 B(  6-C , 17-H ) :   0.9551 B(  7-C ,  8-C ) :   1.2895
B(  7-C , 18-H ) :   0.9587 B(  8-C ,  9-C ) :   1.3270 B(  8-C , 11-O ) :   1.2133
B(  9-C , 10-C ) :   1.3649 B(  9-C , 19-H ) :   0.9688 B( 10-C , 20-H ) :   0.9596
B( 11-O , 21-H ) :   0.8382

Dispersion correction           -0.022621523
FINAL SINGLE POINT ENERGY      -573.464321216604

DIPOLE MOMENT
-------------

Method             : SCF
Type of density    : Electron Density
Multiplicity       :   1
Irrep              :   0
Energy             :  -573.5398840980490149 Eh
Relativity type    :
Basis              : AO
                                X                 Y                 Z
Electronic contribution:      9.431557106      -2.192044069      -1.825262230
Nuclear contribution   :     -9.032258606       3.476110897       1.824866331
                        -----------------------------------------
Total Dipole Moment    :      0.399298499       1.284066827      -0.000395899
                        -----------------------------------------
Magnitude (a.u.)       :      1.344718210
Magnitude (Debye)      :      3.418002058

Rotational constants in cm-1:             0.095936             0.014718             0.013254
Rotational constants in MHz :          2876.094416           441.247464           397.352728

                             ****ORCA TERMINATED NORMALLY****
TOTAL RUN TIME: 0 days 0 hours 0 minutes 13 seconds 977 msec
