                         Program Version 6.0.0  -   RELEASE  -
|  1> ! pbe def2-sv(p) def2/J RI DEFGRID1 loosescf d4 GCP(DFT/SV(P)) printgap
|  2> %output
|  3>     printlevel normal
|  4> end
|  5> * xyz 0 1
|  6> C 1.7356996007 0.6325968879 -0.9522847889
|  7> C 1.4137499394 0.0957508094 0.4407151163
|  8> C 1.5920900259 -1.4198788585 0.4949309042
|  9> C 0.0032396752 0.5129827411 0.8785061269
| 10> C -1.1183722681 0.1069937956 -0.0397549852
| 11> O -1.1076646012 -0.7826779682 -0.8623095598
| 12> O -2.1969778102 0.854549169 0.1679139593
| 13> H 1.6017888992 1.7113410826 -0.9895573915
| 14> H 1.0831386883 0.1744340549 -1.6919432671
| 15> H 2.7649107167 0.4034120746 -1.215923663
| 16> H 2.111508108 0.5493421487 1.153691512
| 17> H 0.8970736969 -1.9041133709 -0.1858097008
| 18> H 2.604402429 -1.6896267409 0.2049736338
| 19> H 1.4109804061 -1.7924592953 1.5005066407
| 20> H -0.057519617 1.5962362649 0.995928951
| 21> H -0.2242127283 0.0688135128 1.8514195812
| 22> H -2.9495647503 0.5944433703 -0.397449154
| 23> *
| 24>
| 25>                          ****END OF INPUT****

CARTESIAN COORDINATES (ANGSTROEM)
---------------------------------
  C      1.735700    0.632597   -0.952285
  C      1.413750    0.095751    0.440715
  C      1.592090   -1.419879    0.494931
  C      0.003240    0.512983    0.878506
  C     -1.118372    0.106994   -0.039755
  O     -1.107665   -0.782678   -0.862310
  O     -2.196978    0.854549    0.167914
  H      1.601789    1.711341   -0.989557
  H      1.083139    0.174434   -1.691943
  H      2.764911    0.403412   -1.215924
  H      2.111508    0.549342    1.153692
  H      0.897074   -1.904113   -0.185810
  H      2.604402   -1.689627    0.204974
  H      1.410980   -1.792459    1.500507
  H     -0.057520    1.596236    0.995929
  H     -0.224213    0.068814    1.851420
  H     -2.949565    0.594443   -0.397449

 Total Charge           Charge          ....    0
 Multiplicity           Mult            ....    1
 Number of Electrons    NEL             ....   56
 Basis Dimension        Dim             ....  118

ORBITAL ENERGIES
----------------

  NO   OCC          E(Eh)            E(eV)
   0   2.0000     -18.800606      -511.5905
   1   2.0000     -18.739842      -509.9370
   2   2.0000     -10.016706      -272.5684
   3   2.0000      -9.902372      -269.4572
   4   2.0000      -9.899379      -269.3758
   5   2.0000      -9.870572      -268.5919
   6   2.0000      -9.866445      -268.4796
   7   2.0000      -1.010004       -27.4836
   8   2.0000      -0.913133       -24.8476
   9   2.0000      -0.735746       -20.0207
  10   2.0000      -0.658506       -17.9189
  11   2.0000      -0.607408       -16.5284
  12   2.0000      -0.569288       -15.4911
  13   2.0000      -0.500432       -13.6174
  14   2.0000      -0.440800       -11.9948
  15   2.0000      -0.428325       -11.6553
  16   2.0000      -0.411884       -11.2079
  17   2.0000      -0.396924       -10.8009
  18   2.0000      -0.378634       -10.3031
  19   2.0000      -0.372634       -10.1399
  20   2.0000      -0.333851        -9.0845
  21   2.0000      -0.330937        -9.0053
  22   2.0000      -0.321956        -8.7609
  23   2.0000      -0.293226        -7.9791
  24   2.0000      -0.289367        -7.8741
  25   2.0000      -0.288616        -7.8536
  26   2.0000      -0.274449        -7.4681
  27   2.0000      -0.220847        -6.0096
  28   0.0000      -0.025087        -0.6827
  29   0.0000       0.026174         0.7122
  30   0.0000       0.034448         0.9374
  31   0.0000       0.086512         2.3541
  32   0.0000       0.087949         2.3932

MULLIKEN ATOMIC CHARGES
-----------------------
   0 C :   -0.261812
   1 C :   -0.155805
   2 C :   -0.263591
   3 C :   -0.159040
   4 C :    0.078249
   5 O :   -0.187196
   6 O :   -0.289959
   7 H :    0.093286
   8 H :    0.120970
   9 H :    0.098550
  10 H :    0.072153
  11 H :    0.126383
  12 H :    0.095183
  13 H :    0.089882
  14 H :    0.109701
  15 H :    0.120289
  16 H :    0.312757
Sum of atomic charges:   -0.0000000

LOEWDIN ATOMIC CHARGES
----------------------
   0 C :   -0.335949
   1 C :   -0.150145
   2 C :   -0.338482
   3 C :   -0.242967
   4 C :    0.032986
   5 O :   -0.167046
   6 O :   -0.208795
   7 H :    0.114340
   8 H :    0.124675
   9 H :    0.118794
  10 H :    0.117223
  11 H :    0.127011
  12 H :    0.116596
  13 H :    0.113294
  14 H :    0.136582
  15 H :    0.145616
  16 H :    0.296264

  Mayer bond orders larger than 0.100000
B(  0-C ,  1-C ) :   1.1099 B(  0-C ,  7-H ) :   0.9517 B(  0-C ,  8-H ) :   0.9409
B(  0-C ,  9-H ) :   0.9506 B(  1-C ,  2-C ) :   1.1008 B(  1-C ,  3-C ) :   1.0703
B(  1-C , 10-H ) :   0.9026 B(  2-C , 11-H ) :   0.9390 B(  2-C , 12-H ) :   0.9495
B(  2-C , 13-H ) :   0.9505 B(  3-C ,  4-C ) :   1.0019 B(  3-C , 14-H ) :   0.9048
B(  3-C , 15-H ) :   0.8908 B(  4-C ,  5-O ) :   2.0649 B(  4-C ,  6-O ) :   1.2752
B(  6-O , 16-H ) :   0.8213

Dispersion correction           -0.013371091
FINAL SINGLE POINT ENERGY      -346.245758546033

DIPOLE MOMENT
-------------

Method             : SCF
Type of density    : Electron Density
Multiplicity       :   1
Irrep              :   0
Energy             :  -346.3112204822126046 Eh
Relativity type    :
Basis              : AO
                                X                 Y                 Z
Electronic contribution:     -8.850274456       0.715138601      -0.792241603
Nuclear contribution   :      8.622020700      -0.269292540       1.139744983
                        -----------------------------------------
Total Dipole Moment    :     -0.228253756       0.445846060       0.347503380
                        -----------------------------------------
Magnitude (a.u.)       :      0.609620444
Magnitude (Debye)      :      1.549532025

Rotational constants in cm-1:             0.147586             0.057065             0.054848
Rotational constants in MHz :          4424.527914          1710.776467          1644.291533

                             ****ORCA TERMINATED NORMALLY****
TOTAL RUN TIME: 0 days 0 hours 0 minutes 9 seconds 580 msec
