                         Program Version 6.0.0  -   RELEASE  -
|  1> ! pbe def2-sv(p) def2/J RI DEFGRID1 loosescf d4 GCP(DFT/SV(P)) printgap
|  2> %output
|  3>     printlevel normal
|  4> end
|  5> * xyz 0 1
|  6> C -2.6368836093 0.022183556 -0.8359040028
|  7> C -2.0024897439 -0.3701961004 0.4927694082
|  8> C -0.7698552455 0.4777529481 0.8295182839
|  9> C 0.4333369633 0.1279482531 -0.0069018623
| 10> O 0.4466265559 -0.0759669054 -1.201954325
| 11> O 1.5331182981 0.0713543791 0.7423260048
| 12> C 2.7674436802 -0.2255063917 0.0843509579
| 13> H -3.4885003331 -0.6178730532 -1.0509092856
| 14> H -2.9787246165 1.0540802345 -0.8048708225
| 15> H -1.9146642456 -0.0786607517 -1.6417069854
| 16> H -1.7168847121 -1.4234191074 0.4630147914
| 17> H -2.7317980593 -0.2423135964 1.2939082746
| 18> H -0.4878515916 0.3581899101 1.8753150778
| 19> H -0.9984689046 1.5306139881 0.64925803
| 20> H 2.7073400657 -1.2020285613 -0.3975405437
| 21> H 3.5232070541 -0.2198341393 0.8631658557
| 22> H 2.9776426666 0.5309528517 -0.6726111098
| 23> *
| 24>
| 25>                          ****END OF INPUT****

CARTESIAN COORDINATES (ANGSTROEM)
---------------------------------
  C     -2.636884    0.022184   -0.835904
  C     -2.002490   -0.370196    0.492769
  C     -0.769855    0.477753    0.829518
  C      0.433337    0.127948   -0.006902
  O      0.446627   -0.075967   -1.201954
  O      1.533118    0.071354    0.742326
  C      2.767444   -0.225506    0.084351
  H     -3.488500   -0.617873   -1.050909
  H     -2.978725    1.054080   -0.804871
  H     -1.914664   -0.078661   -1.641707
  H     -1.716885   -1.423419    0.463015
  H     -2.731798   -0.242314    1.293908
  H     -0.487852    0.358190    1.875315
  H     -0.998469    1.530614    0.649258
  H      2.707340   -1.202029   -0.397541
  H      3.523207   -0.219834    0.863166
  H      2.977643    0.530953   -0.672611

 Total Charge           Charge          ....    0
 Multiplicity           Mult            ....    1
 Number of Electrons    NEL             ....   56
 Basis Dimension        Dim             ....  118

ORBITAL ENERGIES
----------------

  NO   OCC          E(Eh)            E(eV)
   0   2.0000     -18.799932      -511.5722
   1   2.0000     -18.734527      -509.7924
   2   2.0000     -10.006482      -272.2902
   3   2.0000      -9.942070      -270.5375
   4   2.0000      -9.897896      -269.3354
   5   2.0000      -9.891029      -269.1486
   6   2.0000      -9.866433      -268.4793
   7   2.0000      -1.006113       -27.3777
   8   2.0000      -0.910684       -24.7810
   9   2.0000      -0.722916       -19.6715
  10   2.0000      -0.672055       -18.2876
  11   2.0000      -0.615838       -16.7578
  12   2.0000      -0.537071       -14.6144
  13   2.0000      -0.502953       -13.6860
  14   2.0000      -0.452264       -12.3067
  15   2.0000      -0.433942       -11.8082
  16   2.0000      -0.421230       -11.4622
  17   2.0000      -0.397830       -10.8255
  18   2.0000      -0.385500       -10.4900
  19   2.0000      -0.373024       -10.1505
  20   2.0000      -0.352880        -9.6024
  21   2.0000      -0.333095        -9.0640
  22   2.0000      -0.307972        -8.3804
  23   2.0000      -0.301130        -8.1942
  24   2.0000      -0.295898        -8.0518
  25   2.0000      -0.292811        -7.9678
  26   2.0000      -0.259566        -7.0632
  27   2.0000      -0.217179        -5.9097
  28   0.0000      -0.021437        -0.5833
  29   0.0000       0.044200         1.2027
  30   0.0000       0.060468         1.6454
  31   0.0000       0.078622         2.1394
  32   0.0000       0.083887         2.2827

MULLIKEN ATOMIC CHARGES
-----------------------
   0 C :   -0.293366
   1 C :   -0.186899
   2 C :   -0.147399
   3 C :    0.099457
   4 O :   -0.204501
   5 O :   -0.239016
   6 C :   -0.110066
   7 H :    0.099424
   8 H :    0.091575
   9 H :    0.131152
  10 H :    0.095743
  11 H :    0.090940
  12 H :    0.099506
  13 H :    0.113716
  14 H :    0.119574
  15 H :    0.121417
  16 H :    0.118744
Sum of atomic charges:   -0.0000000

LOEWDIN ATOMIC CHARGES
----------------------
   0 C :   -0.350123
   1 C :   -0.224519
   2 C :   -0.248834
   3 C :    0.040094
   4 O :   -0.165181
   5 O :   -0.075579
   6 C :   -0.204498
   7 H :    0.117590
   8 H :    0.114148
   9 H :    0.127205
  10 H :    0.119489
  11 H :    0.118063
  12 H :    0.130670
  13 H :    0.141843
  14 H :    0.119653
  15 H :    0.120524
  16 H :    0.119453

  Mayer bond orders larger than 0.100000
B(  0-C ,  1-C ) :   1.1489 B(  0-C ,  7-H ) :   0.9499 B(  0-C ,  8-H ) :   0.9538
B(  0-C ,  9-H ) :   0.9412 B(  1-C ,  2-C ) :   1.0991 B(  1-C , 10-H ) :   0.9324
B(  1-C , 11-H ) :   0.9294 B(  2-C ,  3-C ) :   1.0276 B(  2-C , 12-H ) :   0.9087
B(  2-C , 13-H ) :   0.8934 B(  3-C ,  4-O ) :   2.0352 B(  3-C ,  5-O ) :   1.2214
B(  5-O ,  6-C ) :   0.9401 B(  6-C , 14-H ) :   0.9522 B(  6-C , 15-H ) :   0.9594
B(  6-C , 16-H ) :   0.9519

Dispersion correction           -0.012188398
FINAL SINGLE POINT ENERGY      -346.239277721726

DIPOLE MOMENT
-------------

Method             : SCF
Type of density    : Electron Density
Multiplicity       :   1
Irrep              :   0
Energy             :  -346.3043290507629877 Eh
Relativity type    :
Basis              : AO
                                X                 Y                 Z
Electronic contribution:      5.088832516       0.338611834       0.056887512
Nuclear contribution   :     -4.763465285      -0.291174374       0.534529797
                        -----------------------------------------
Total Dipole Moment    :      0.325367230       0.047437460       0.591417309
                        -----------------------------------------
Magnitude (a.u.)       :      0.676674649
Magnitude (Debye)      :      1.719970269

Rotational constants in cm-1:             0.225667             0.047639             0.041806
Rotational constants in MHz :          6765.327130          1428.168492          1253.318098

                             ****ORCA TERMINATED NORMALLY****
TOTAL RUN TIME: 0 days 0 hours 0 minutes 9 seconds 807 msec
