                         Program Version 6.0.0  -   RELEASE  -
|  1> ! pbe def2-sv(p) def2/J RI DEFGRID1 loosescf d4 GCP(DFT/SV(P)) printgap
|  2> %output
|  3>     printlevel normal
|  4> end
|  5> * xyz 0 1
|  6> C -2.2472640643 0.9267859813 1.3270143535
|  7> C -2.3507355639 -0.0325372579 0.1441191169
|  8> C -2.426817381 0.7320176121 -1.1749212466
|  9> C -1.2060336323 -1.054083273 0.1431832999
| 10> C 0.1929147448 -0.5250769792 0.0254257276
| 11> C 1.2710102396 -1.4192547241 0.0749083232
| 12> N 2.5273388644 -1.0261800353 -0.0267121824
| 13> C 2.7415957936 0.2772204313 -0.1794889109
| 14> C 1.6867160513 1.1723974899 -0.2286383832
| 15> N 0.4262657917 0.7726444848 -0.1279418101
| 16> H -3.112576144 1.5843312258 1.3526073351
| 17> H -1.3521961099 1.5348357493 1.2378879048
| 18> H -2.2057451727 0.3767744412 2.264799224
| 19> H -3.2768927218 -0.6103470933 0.2554871099
| 20> H -1.5332627867 1.3333476951 -1.3099451106
| 21> H -2.5166392665 0.0438095748 -2.0126578014
| 22> H -3.2924795522 1.389562064 -1.1767867015
| 23> H -1.3578364338 -1.7541002913 -0.6839375044
| 24> H -1.254158173 -1.6407333016 1.065304891
| 25> H 1.1144487008 -2.4821328995 0.1989289737
| 26> H 3.7721242943 0.5891174183 -0.2604285308
| 27> H 1.838148342 2.2357069322 -0.3503320319
| 28> *
| 29>
| 30>                          ****END OF INPUT****

CARTESIAN COORDINATES (ANGSTROEM)
---------------------------------
  C     -2.247264    0.926786    1.327014
  C     -2.350736   -0.032537    0.144119
  C     -2.426817    0.732018   -1.174921
  C     -1.206034   -1.054083    0.143183
  C      0.192915   -0.525077    0.025426
  C      1.271010   -1.419255    0.074908
  N      2.527339   -1.026180   -0.026712
  C      2.741596    0.277220   -0.179489
  C      1.686716    1.172397   -0.228638
  N      0.426266    0.772644   -0.127942
  H     -3.112576    1.584331    1.352607
  H     -1.352196    1.534836    1.237888
  H     -2.205745    0.376774    2.264799
  H     -3.276893   -0.610347    0.255487
  H     -1.533263    1.333348   -1.309945
  H     -2.516639    0.043810   -2.012658
  H     -3.292480    1.389562   -1.176787
  H     -1.357836   -1.754100   -0.683938
  H     -1.254158   -1.640733    1.065305
  H      1.114449   -2.482133    0.198929
  H      3.772124    0.589117   -0.260429
  H      1.838148    2.235707   -0.350332

 Total Charge           Charge          ....    0
 Multiplicity           Mult            ....    1
 Number of Electrons    NEL             ....   74
 Basis Dimension        Dim             ....  164

ORBITAL ENERGIES
----------------

  NO   OCC          E(Eh)            E(eV)
   0   2.0000     -14.002089      -381.0162
   1   2.0000     -14.001050      -380.9879
   2   2.0000      -9.946874      -270.6682
   3   2.0000      -9.934323      -270.3267
   4   2.0000      -9.932055      -270.2650
   5   2.0000      -9.931376      -270.2465
   6   2.0000      -9.897472      -269.3239
   7   2.0000      -9.896286      -269.2916
   8   2.0000      -9.864321      -268.4218
   9   2.0000      -9.863513      -268.3998
  10   2.0000      -0.900798       -24.5119
  11   2.0000      -0.826551       -22.4916
  12   2.0000      -0.740752       -20.1569
  13   2.0000      -0.700527       -19.0623
  14   2.0000      -0.636832       -17.3291
  15   2.0000      -0.603978       -16.4351
  16   2.0000      -0.596387       -16.2285
  17   2.0000      -0.567890       -15.4531
  18   2.0000      -0.499501       -13.5921
  19   2.0000      -0.479020       -13.0348
  20   2.0000      -0.461609       -12.5610
  21   2.0000      -0.425987       -11.5917
  22   2.0000      -0.415549       -11.3077
  23   2.0000      -0.403089       -10.9686
  24   2.0000      -0.385529       -10.4908
  25   2.0000      -0.379798       -10.3348
  26   2.0000      -0.369837       -10.0638
  27   2.0000      -0.341784        -9.3004
  28   2.0000      -0.335187        -9.1209
  29   2.0000      -0.324479        -8.8295
  30   2.0000      -0.298822        -8.1314
  31   2.0000      -0.290645        -7.9089
  32   2.0000      -0.287742        -7.8299
  33   2.0000      -0.285225        -7.7614
  34   2.0000      -0.248912        -6.7732
  35   2.0000      -0.244489        -6.6529
  36   2.0000      -0.196894        -5.3578
  37   0.0000      -0.078253        -2.1294
  38   0.0000      -0.059783        -1.6268
  39   0.0000       0.031981         0.8702
  40   0.0000       0.062202         1.6926
  41   0.0000       0.065187         1.7738

MULLIKEN ATOMIC CHARGES
-----------------------
   0 C :   -0.259092
   1 C :   -0.134831
   2 C :   -0.259440
   3 C :   -0.106629
   4 C :   -0.065530
   5 C :   -0.070840
   6 N :   -0.035492
   7 C :   -0.060217
   8 C :   -0.042064
   9 N :   -0.051994
  10 H :    0.094256
  11 H :    0.118056
  12 H :    0.088407
  13 H :    0.065919
  14 H :    0.118540
  15 H :    0.087846
  16 H :    0.093607
  17 H :    0.103523
  18 H :    0.102049
  19 H :    0.062091
  20 H :    0.077299
  21 H :    0.074536
Sum of atomic charges:   -0.0000000

LOEWDIN ATOMIC CHARGES
----------------------
   0 C :   -0.338068
   1 C :   -0.149190
   2 C :   -0.338775
   3 C :   -0.216628
   4 C :   -0.017343
   5 C :   -0.092020
   6 N :   -0.049335
   7 C :   -0.103928
   8 C :   -0.094937
   9 N :   -0.045415
  10 H :    0.116601
  11 H :    0.122816
  12 H :    0.112578
  13 H :    0.115251
  14 H :    0.122999
  15 H :    0.112365
  16 H :    0.116186
  17 H :    0.134905
  18 H :    0.133776
  19 H :    0.118259
  20 H :    0.120206
  21 H :    0.119695

  Mayer bond orders larger than 0.100000
B(  0-C ,  1-C ) :   1.1064 B(  0-C , 10-H ) :   0.9497 B(  0-C , 11-H ) :   0.9365
B(  0-C , 12-H ) :   0.9507 B(  1-C ,  2-C ) :   1.1037 B(  1-C ,  3-C ) :   1.0927
B(  1-C , 13-H ) :   0.8995 B(  2-C , 14-H ) :   0.9361 B(  2-C , 15-H ) :   0.9505
B(  2-C , 16-H ) :   0.9494 B(  3-C ,  4-C ) :   1.0275 B(  3-C , 17-H ) :   0.8970
B(  3-C , 18-H ) :   0.8994 B(  4-C ,  5-C ) :   1.3152 B(  4-C ,  7-C ) :   0.1009
B(  4-C ,  9-N ) :   1.5448 B(  5-C ,  6-N ) :   1.5867 B(  5-C ,  8-C ) :   0.1000
B(  5-C , 19-H ) :   0.9523 B(  6-N ,  7-C ) :   1.5201 B(  7-C ,  8-C ) :   1.3712
B(  7-C , 20-H ) :   0.9483 B(  8-C ,  9-N ) :   1.5021 B(  8-C , 21-H ) :   0.9455

Dispersion correction           -0.022816353
FINAL SINGLE POINT ENERGY      -420.622232749930

DIPOLE MOMENT
-------------

Method             : SCF
Type of density    : Electron Density
Multiplicity       :   1
Irrep              :   0
Energy             :  -420.6903488672553522 Eh
Relativity type    :
Basis              : AO
                                X                 Y                 Z
Electronic contribution:     12.194313106      -2.461257388      -0.536779511
Nuclear contribution   :    -12.346111451       2.438008241       0.544160128
                        -----------------------------------------
Total Dipole Moment    :     -0.151798346      -0.023249147       0.007380617
                        -----------------------------------------
Magnitude (a.u.)       :      0.153745680
Magnitude (Debye)      :      0.390790462

Rotational constants in cm-1:             0.097337             0.028803             0.026034
Rotational constants in MHz :          2918.097871           863.488010           780.489713

                             ****ORCA TERMINATED NORMALLY****
TOTAL RUN TIME: 0 days 0 hours 0 minutes 11 seconds 396 msec
