                         Program Version 6.0.0  -   RELEASE  -
|  1> ! r2scan-3c def2/J RI DEFGRID2 scfconv6 printgap
|  2> %output
|  3>     printlevel normal
|  4> end
|  5> * xyz 0 1
|  6> C 2.8295149675 -0.3284998621 0.1638694253
|  7> C 1.4426561921 -0.4965115462 -0.4460248931
|  8> C 0.3969847169 0.3006471323 0.327682202
|  9> C -1.001523829 0.2530271044 -0.2951134596
| 10> H -0.91664176 0.4816853736 -1.3714505203
| 11> C -1.6714396688 -1.1083351024 -0.1227848867
| 12> O -1.7565931837 1.2804442979 0.3328404474
| 13> H 3.5640936709 -0.9019539042 -0.3958960283
| 14> H 2.8350121844 -0.6738146261 1.1950149607
| 15> H 3.1266103724 0.7175622871 0.1522763407
| 16> H 1.4584757478 -0.1575434577 -1.4842516945
| 17> H 1.1780453199 -1.5549620885 -0.4438445193
| 18> H 0.3331437552 -0.0610457246 1.355625085
| 19> H 0.6961464785 1.3504943236 0.3680837584
| 20> H -1.0767526662 -1.8812626047 -0.5987484428
| 21> H -1.7723650839 -1.3375180544 0.9354825313
| 22> H -2.6597595285 -1.1073151872 -0.5774454527
| 23> H -2.6701950945 1.2412636847 0.019145428
| 24> *
| 25>
| 26>                          ****END OF INPUT****

CARTESIAN COORDINATES (ANGSTROEM)
---------------------------------
  C      2.829515   -0.328500    0.163869
  C      1.442656   -0.496512   -0.446025
  C      0.396985    0.300647    0.327682
  C     -1.001524    0.253027   -0.295113
  H     -0.916642    0.481685   -1.371451
  C     -1.671440   -1.108335   -0.122785
  O     -1.756593    1.280444    0.332840
  H      3.564094   -0.901954   -0.395896
  H      2.835012   -0.673815    1.195015
  H      3.126610    0.717562    0.152276
  H      1.458476   -0.157543   -1.484252
  H      1.178045   -1.554962   -0.443845
  H      0.333144   -0.061046    1.355625
  H      0.696146    1.350494    0.368084
  H     -1.076753   -1.881263   -0.598748
  H     -1.772365   -1.337518    0.935483
  H     -2.659760   -1.107315   -0.577445
  H     -2.670195    1.241264    0.019145

 Total Charge           Charge          ....    0
 Multiplicity           Mult            ....    1
 Number of Electrons    NEL             ....   50
 Basis Dimension        Dim             ....  179

ORBITAL ENERGIES
----------------

  NO   OCC          E(Eh)            E(eV)
   0   2.0000     -18.942627      -515.4551
   1   2.0000     -10.079344      -274.2729
   2   2.0000     -10.026633      -272.8385
   3   2.0000     -10.020109      -272.6610
   4   2.0000     -10.019785      -272.6522
   5   2.0000     -10.016283      -272.5569
   6   2.0000      -0.980234       -26.6735
   7   2.0000      -0.765050       -20.8181
   8   2.0000      -0.711234       -19.3537
   9   2.0000      -0.650008       -17.6876
  10   2.0000      -0.577934       -15.7264
  11   2.0000      -0.535339       -14.5673
  12   2.0000      -0.469489       -12.7754
  13   2.0000      -0.440914       -11.9979
  14   2.0000      -0.414311       -11.2740
  15   2.0000      -0.403551       -10.9812
  16   2.0000      -0.378245       -10.2926
  17   2.0000      -0.357107        -9.7174
  18   2.0000      -0.343706        -9.3527
  19   2.0000      -0.331320        -9.0157
  20   2.0000      -0.317478        -8.6390
  21   2.0000      -0.304415        -8.2836
  22   2.0000      -0.296194        -8.0599
  23   2.0000      -0.279436        -7.6038
  24   2.0000      -0.233046        -6.3415
  25   0.0000       0.065074         1.7707
  26   0.0000       0.095132         2.5887
  27   0.0000       0.111950         3.0463
  28   0.0000       0.126595         3.4448
  29   0.0000       0.130202         3.5430

MULLIKEN ATOMIC CHARGES
-----------------------
   0 C :   -0.471397
   1 C :   -0.266749
   2 C :   -0.263333
   3 C :    0.083861
   4 H :    0.119039
   5 C :   -0.512191
   6 O :   -0.423157
   7 H :    0.145617
   8 H :    0.143342
   9 H :    0.144821
  10 H :    0.140765
  11 H :    0.135334
  12 H :    0.137987
  13 H :    0.155430
  14 H :    0.149577
  15 H :    0.162162
  16 H :    0.136416
  17 H :    0.282474
Sum of atomic charges:    0.0000000

LOEWDIN ATOMIC CHARGES
----------------------
   0 C :   -0.422254
   1 C :   -0.313687
   2 C :   -0.273102
   3 C :    0.048201
   4 H :    0.158414
   5 C :   -0.401633
   6 O :   -0.619226
   7 H :    0.149668
   8 H :    0.150501
   9 H :    0.150743
  10 H :    0.152157
  11 H :    0.150098
  12 H :    0.161420
  13 H :    0.170531
  14 H :    0.158129
  15 H :    0.161428
  16 H :    0.151254
  17 H :    0.267359

  Mayer bond orders larger than 0.100000
B(  0-C ,  1-C ) :   0.8989 B(  0-C ,  7-H ) :   0.9736 B(  0-C ,  8-H ) :   0.9827
B(  0-C ,  9-H ) :   0.9854 B(  1-C ,  2-C ) :   0.9108 B(  1-C , 10-H ) :   0.9749
B(  1-C , 11-H ) :   0.9665 B(  2-C ,  3-C ) :   0.9304 B(  2-C , 12-H ) :   0.9725
B(  2-C , 13-H ) :   0.9689 B(  3-C ,  4-H ) :   0.9561 B(  3-C ,  5-C ) :   0.9124
B(  3-C ,  6-O ) :   0.8906 B(  5-C , 14-H ) :   0.9719 B(  5-C , 15-H ) :   0.9849
B(  5-C , 16-H ) :   0.9664 B(  6-O , 17-H ) :   0.9023

Dispersion correction           -0.004153402
FINAL SINGLE POINT ENERGY      -272.902736980138

DIPOLE MOMENT
-------------

Method             : SCF
Type of density    : Electron Density
Multiplicity       :   1
Irrep              :   0
Energy             :  -272.9080844810098370 Eh
Relativity type    :
Basis              : AO
                                X                 Y                 Z
Electronic contribution:     -3.984461054       3.209325317       0.406982688
Nuclear contribution   :      3.816474520      -3.625209787      -0.788754952
                        -----------------------------------------
Total Dipole Moment    :     -0.167986534      -0.415884470      -0.381772263
                        -----------------------------------------
Magnitude (a.u.)       :      0.589007155
Magnitude (Debye)      :      1.497137208

Rotational constants in cm-1:             0.233437             0.057772             0.050017
Rotational constants in MHz :          6998.268771          1731.960323          1499.480072

                             ****ORCA TERMINATED NORMALLY****
TOTAL RUN TIME: 0 days 0 hours 0 minutes 22 seconds 521 msec
