                         Program Version 6.0.0  -   RELEASE  -
|  1> ! r2scan-3c def2/J RI DEFGRID2 scfconv6 printgap
|  2> %output
|  3>     printlevel normal
|  4> end
|  5> %cpcm
|  6>     smd true
|  7>     smdsolvent "water"
|  8> end
|  9> * xyz 0 1
| 10> C 2.8295149675 -0.3284998621 0.1638694253
| 11> C 1.4426561921 -0.4965115462 -0.4460248931
| 12> C 0.3969847169 0.3006471323 0.327682202
| 13> C -1.001523829 0.2530271044 -0.2951134596
| 14> H -0.91664176 0.4816853736 -1.3714505203
| 15> C -1.6714396688 -1.1083351024 -0.1227848867
| 16> O -1.7565931837 1.2804442979 0.3328404474
| 17> H 3.5640936709 -0.9019539042 -0.3958960283
| 18> H 2.8350121844 -0.6738146261 1.1950149607
| 19> H 3.1266103724 0.7175622871 0.1522763407
| 20> H 1.4584757478 -0.1575434577 -1.4842516945
| 21> H 1.1780453199 -1.5549620885 -0.4438445193
| 22> H 0.3331437552 -0.0610457246 1.355625085
| 23> H 0.6961464785 1.3504943236 0.3680837584
| 24> H -1.0767526662 -1.8812626047 -0.5987484428
| 25> H -1.7723650839 -1.3375180544 0.9354825313
| 26> H -2.6597595285 -1.1073151872 -0.5774454527
| 27> H -2.6701950945 1.2412636847 0.019145428
| 28> *
| 29>
| 30>                          ****END OF INPUT****

CARTESIAN COORDINATES (ANGSTROEM)
---------------------------------
  C      2.829515   -0.328500    0.163869
  C      1.442656   -0.496512   -0.446025
  C      0.396985    0.300647    0.327682
  C     -1.001524    0.253027   -0.295113
  H     -0.916642    0.481685   -1.371451
  C     -1.671440   -1.108335   -0.122785
  O     -1.756593    1.280444    0.332840
  H      3.564094   -0.901954   -0.395896
  H      2.835012   -0.673815    1.195015
  H      3.126610    0.717562    0.152276
  H      1.458476   -0.157543   -1.484252
  H      1.178045   -1.554962   -0.443845
  H      0.333144   -0.061046    1.355625
  H      0.696146    1.350494    0.368084
  H     -1.076753   -1.881263   -0.598748
  H     -1.772365   -1.337518    0.935483
  H     -2.659760   -1.107315   -0.577445
  H     -2.670195    1.241264    0.019145

 Total Charge           Charge          ....    0
 Multiplicity           Mult            ....    1
 Number of Electrons    NEL             ....   50
 Basis Dimension        Dim             ....  179

ORBITAL ENERGIES
----------------

  NO   OCC          E(Eh)            E(eV)
   0   2.0000     -18.947568      -515.5895
   1   2.0000     -10.074788      -274.1489
   2   2.0000     -10.018295      -272.6117
   3   2.0000     -10.015343      -272.5313
   4   2.0000     -10.009471      -272.3716
   5   2.0000     -10.008417      -272.3429
   6   2.0000      -0.983930       -26.7741
   7   2.0000      -0.758900       -20.6507
   8   2.0000      -0.703961       -19.1557
   9   2.0000      -0.643115       -17.5000
  10   2.0000      -0.572347       -15.5743
  11   2.0000      -0.530096       -14.4246
  12   2.0000      -0.466750       -12.7009
  13   2.0000      -0.434362       -11.8196
  14   2.0000      -0.409439       -11.1414
  15   2.0000      -0.397862       -10.8264
  16   2.0000      -0.371139       -10.0992
  17   2.0000      -0.349277        -9.5043
  18   2.0000      -0.336608        -9.1596
  19   2.0000      -0.327195        -8.9034
  20   2.0000      -0.316335        -8.6079
  21   2.0000      -0.298176        -8.1138
  22   2.0000      -0.288988        -7.8638
  23   2.0000      -0.276669        -7.5285
  24   2.0000      -0.238397        -6.4871
  25   0.0000       0.080450         2.1891
  26   0.0000       0.103854         2.8260
  27   0.0000       0.119355         3.2478
  28   0.0000       0.134743         3.6666
  29   0.0000       0.139038         3.7834

MULLIKEN ATOMIC CHARGES
-----------------------
   0 C :   -0.513286
   1 C :   -0.277597
   2 C :   -0.276128
   3 C :    0.096213
   4 H :    0.133075
   5 C :   -0.550920
   6 O :   -0.514815
   7 H :    0.156475
   8 H :    0.154401
   9 H :    0.154959
  10 H :    0.151553
  11 H :    0.151402
  12 H :    0.149019
  13 H :    0.153590
  14 H :    0.166225
  15 H :    0.165201
  16 H :    0.161424
  17 H :    0.339208
Sum of atomic charges:   -0.0000000

LOEWDIN ATOMIC CHARGES
----------------------
   0 C :   -0.430916
   1 C :   -0.312916
   2 C :   -0.279814
   3 C :    0.049376
   4 H :    0.165575
   5 C :   -0.405211
   6 O :   -0.657478
   7 H :    0.152496
   8 H :    0.152719
   9 H :    0.152507
  10 H :    0.155568
  11 H :    0.155443
  12 H :    0.163052
  13 H :    0.167901
  14 H :    0.164359
  15 H :    0.161639
  16 H :    0.159645
  17 H :    0.286053

  Mayer bond orders larger than 0.100000
B(  0-C ,  1-C ) :   0.8853 B(  0-C ,  7-H ) :   0.9707 B(  0-C ,  8-H ) :   0.9809
B(  0-C ,  9-H ) :   0.9834 B(  1-C ,  2-C ) :   0.9200 B(  1-C , 10-H ) :   0.9750
B(  1-C , 11-H ) :   0.9660 B(  2-C ,  3-C ) :   0.9209 B(  2-C , 12-H ) :   0.9665
B(  2-C , 13-H ) :   0.9670 B(  3-C ,  4-H ) :   0.9549 B(  3-C ,  5-C ) :   0.9211
B(  3-C ,  6-O ) :   0.8730 B(  5-C , 14-H ) :   0.9663 B(  5-C , 15-H ) :   0.9805
B(  5-C , 16-H ) :   0.9624 B(  6-O , 17-H ) :   0.8766

Dispersion correction           -0.004153402
FINAL SINGLE POINT ENERGY      -272.909180529764

DIPOLE MOMENT
-------------

Method             : SCF
Type of density    : Electron Density
Multiplicity       :   1
Irrep              :   0
Energy             :  -272.9145280306360632 Eh
Relativity type    :
Basis              : AO
                                X                 Y                 Z
Electronic contribution:     -4.080094483       3.004088880       0.198869032
Nuclear contribution   :      3.816474520      -3.625209787      -0.788754952
                        -----------------------------------------
Total Dipole Moment    :     -0.263619963      -0.621120907      -0.589885920
                        -----------------------------------------
Magnitude (a.u.)       :      0.896243306
Magnitude (Debye)      :      2.278069443

Rotational constants in cm-1:             0.233437             0.057772             0.050017
Rotational constants in MHz :          6998.268771          1731.960323          1499.480072

                             ****ORCA TERMINATED NORMALLY****
TOTAL RUN TIME: 0 days 0 hours 0 minutes 26 seconds 325 msec
