                         Program Version 6.0.0  -   RELEASE  -
|  1> ! pbe def2-sv(p) def2/J RI DEFGRID1 loosescf d4 GCP(DFT/SV(P)) printgap
|  2> %output
|  3>     printlevel normal
|  4> end
|  5> * xyz 0 1
|  6> C -1.2530835211 0.2433691497 -0.2238927356
|  7> C 0.1482735273 0.6704537857 0.2582436409
|  8> C 1.2379607948 -0.23143707 -0.349764483
|  9> O 1.1780694433 -1.5526487545 0.1280160784
| 10> O 0.3815306667 2.0300678754 -0.0253892269
| 11> O -1.6086481669 -1.0507930213 0.2102533676
| 12> H -1.2682382606 0.203749017 -1.317410516
| 13> H -1.9836678998 0.9901552079 0.1076855811
| 14> H 0.1988220339 0.5894313755 1.350407796
| 15> H 2.2227486502 0.1526046696 -0.0709904456
| 16> H 1.1517241655 -0.2170288183 -1.447032786
| 17> H 0.2705469781 -1.878548314 -0.0041900345
| 18> H 0.4034110621 2.162050619 -0.9839226042
| 19> H -1.8034293292 -1.0324313541 1.1574969519
| 20> *
| 21>
| 22>                          ****END OF INPUT****

CARTESIAN COORDINATES (ANGSTROEM)
---------------------------------
  C     -1.253084    0.243369   -0.223893
  C      0.148274    0.670454    0.258244
  C      1.237961   -0.231437   -0.349764
  O      1.178069   -1.552649    0.128016
  O      0.381531    2.030068   -0.025389
  O     -1.608648   -1.050793    0.210253
  H     -1.268238    0.203749   -1.317411
  H     -1.983668    0.990155    0.107686
  H      0.198822    0.589431    1.350408
  H      2.222749    0.152605   -0.070990
  H      1.151724   -0.217029   -1.447033
  H      0.270547   -1.878548   -0.004190
  H      0.403411    2.162051   -0.983923
  H     -1.803429   -1.032431    1.157497

 Total Charge           Charge          ....    0
 Multiplicity           Mult            ....    1
 Number of Electrons    NEL             ....   50
 Basis Dimension        Dim             ....  100

ORBITAL ENERGIES
----------------

  NO   OCC          E(Eh)            E(eV)
   0   2.0000     -18.774290      -510.8744
   1   2.0000     -18.757142      -510.4078
   2   2.0000     -18.732308      -509.7320
   3   2.0000      -9.943465      -270.5754
   4   2.0000      -9.940919      -270.5061
   5   2.0000      -9.926884      -270.1242
   6   2.0000      -0.950723       -25.8705
   7   2.0000      -0.932633       -25.3782
   8   2.0000      -0.907944       -24.7064
   9   2.0000      -0.678550       -18.4643
  10   2.0000      -0.610703       -16.6181
  11   2.0000      -0.559847       -15.2342
  12   2.0000      -0.481429       -13.1003
  13   2.0000      -0.475156       -12.9296
  14   2.0000      -0.448037       -12.1917
  15   2.0000      -0.404480       -11.0065
  16   2.0000      -0.395735       -10.7685
  17   2.0000      -0.358974        -9.7682
  18   2.0000      -0.352646        -9.5960
  19   2.0000      -0.317681        -8.6446
  20   2.0000      -0.304981        -8.2990
  21   2.0000      -0.268149        -7.2967
  22   2.0000      -0.257939        -7.0189
  23   2.0000      -0.225471        -6.1354
  24   2.0000      -0.197658        -5.3785
  25   0.0000       0.004704         0.1280
  26   0.0000       0.023605         0.6423
  27   0.0000       0.054362         1.4793
  28   0.0000       0.080125         2.1803
  29   0.0000       0.091180         2.4811

MULLIKEN ATOMIC CHARGES
-----------------------
   0 C :    0.001088
   1 C :   -0.026867
   2 C :    0.038827
   3 O :   -0.450037
   4 O :   -0.419611
   5 O :   -0.434039
   6 H :    0.077789
   7 H :    0.095811
   8 H :    0.070484
   9 H :    0.095050
  10 H :    0.049800
  11 H :    0.293344
  12 H :    0.298352
  13 H :    0.310008
Sum of atomic charges:    0.0000000

LOEWDIN ATOMIC CHARGES
----------------------
   0 C :   -0.144914
   1 C :   -0.103891
   2 C :   -0.135070
   3 O :   -0.348177
   4 O :   -0.313469
   5 O :   -0.323955
   6 H :    0.109249
   7 H :    0.104704
   8 H :    0.111716
   9 H :    0.113766
  10 H :    0.086244
  11 H :    0.267370
  12 H :    0.284765
  13 H :    0.291660

  Mayer bond orders larger than 0.100000
B(  0-C ,  1-C ) :   1.0211 B(  0-C ,  5-O ) :   1.0322 B(  0-C ,  6-H ) :   0.9196
B(  0-C ,  7-H ) :   0.9253 B(  1-C ,  2-C ) :   1.0354 B(  1-C ,  4-O ) :   1.0219
B(  1-C ,  8-H ) :   0.8931 B(  2-C ,  3-O ) :   1.0867 B(  2-C ,  9-H ) :   0.9263
B(  2-C , 10-H ) :   0.9082 B(  3-O , 11-H ) :   0.8144 B(  4-O , 12-H ) :   0.8506
B(  5-O , 11-H ) :   0.1040 B(  5-O , 13-H ) :   0.8436

Dispersion correction           -0.009334306
FINAL SINGLE POINT ENERGY      -344.009405725191

DIPOLE MOMENT
-------------

Method             : SCF
Type of density    : Electron Density
Multiplicity       :   1
Irrep              :   0
Energy             :  -344.0840033952059116 Eh
Relativity type    :
Basis              : AO
                                X                 Y                 Z
Electronic contribution:      0.043337807      -0.546199034       0.929707509
Nuclear contribution   :     -0.758850010       0.901496298      -1.128625524
                        -----------------------------------------
Total Dipole Moment    :     -0.715512203       0.355297265      -0.198918015
                        -----------------------------------------
Magnitude (a.u.)       :      0.823263163
Magnitude (Debye)      :      2.092568662

Rotational constants in cm-1:             0.130385             0.110715             0.064956
Rotational constants in MHz :          3908.838731          3319.156508          1947.333739

                             ****ORCA TERMINATED NORMALLY****
TOTAL RUN TIME: 0 days 0 hours 0 minutes 6 seconds 829 msec
