                         Program Version 6.0.0  -   RELEASE  -
|  1> ! pbe def2-sv(p) def2/J RI DEFGRID1 loosescf d4 GCP(DFT/SV(P)) printgap
|  2> %output
|  3>     printlevel normal
|  4> end
|  5> * xyz 0 1
|  6> C -2.3954950925 0.2594860773 1.0414519562
|  7> C -1.7942890792 0.6062680551 -0.3239263352
|  8> C -0.5293744225 -0.1858522989 -0.5274333832
|  9> O -0.4504151559 -1.2252925859 -1.1510878532
| 10> O 0.5030763604 0.3709743235 0.0870914537
| 11> C 1.770307827 -0.3039051743 0.0168613839
| 12> C 2.7850115259 0.5132346068 0.7925927861
| 13> H -1.6990988369 0.5162072753 1.8353049829
| 14> H -3.3165676587 0.8155151605 1.187228141
| 15> H -2.6158319202 -0.8039120281 1.0977293171
| 16> H -1.5530545103 1.6675873704 -0.3610708939
| 17> H -2.4932777197 0.3499756973 -1.1190110765
| 18> H 1.6508216939 -1.3091537988 0.4343028756
| 19> H 2.0488358038 -0.4049493568 -1.0373374966
| 20> H 2.8658234701 1.5080125808 0.3649295775
| 21> H 2.4770960049 0.6020535991 1.8300192442
| 22> H 3.7517587346 0.0232660123 0.7463278798
| 23> *
| 24>
| 25>                          ****END OF INPUT****

CARTESIAN COORDINATES (ANGSTROEM)
---------------------------------
  C     -2.395495    0.259486    1.041452
  C     -1.794289    0.606268   -0.323926
  C     -0.529374   -0.185852   -0.527433
  O     -0.450415   -1.225293   -1.151088
  O      0.503076    0.370974    0.087091
  C      1.770308   -0.303905    0.016861
  C      2.785012    0.513235    0.792593
  H     -1.699099    0.516207    1.835305
  H     -3.316568    0.815515    1.187228
  H     -2.615832   -0.803912    1.097729
  H     -1.553055    1.667587   -0.361071
  H     -2.493278    0.349976   -1.119011
  H      1.650822   -1.309154    0.434303
  H      2.048836   -0.404949   -1.037337
  H      2.865823    1.508013    0.364930
  H      2.477096    0.602054    1.830019
  H      3.751759    0.023266    0.746328

 Total Charge           Charge          ....    0
 Multiplicity           Mult            ....    1
 Number of Electrons    NEL             ....   56
 Basis Dimension        Dim             ....  118

ORBITAL ENERGIES
----------------

  NO   OCC          E(Eh)            E(eV)
   0   2.0000     -18.797060      -511.4940
   1   2.0000     -18.728356      -509.6245
   2   2.0000     -10.002330      -272.1772
   3   2.0000      -9.946994      -270.6715
   4   2.0000      -9.898134      -269.3419
   5   2.0000      -9.889596      -269.1096
   6   2.0000      -9.888013      -269.0665
   7   2.0000      -1.004126       -27.3237
   8   2.0000      -0.905210       -24.6320
   9   2.0000      -0.722810       -19.6687
  10   2.0000      -0.689668       -18.7668
  11   2.0000      -0.601600       -16.3704
  12   2.0000      -0.559287       -15.2190
  13   2.0000      -0.507562       -13.8115
  14   2.0000      -0.449830       -12.2405
  15   2.0000      -0.435754       -11.8575
  16   2.0000      -0.416845       -11.3429
  17   2.0000      -0.387652       -10.5486
  18   2.0000      -0.387308       -10.5392
  19   2.0000      -0.360423        -9.8076
  20   2.0000      -0.358179        -9.7465
  21   2.0000      -0.338870        -9.2211
  22   2.0000      -0.329321        -8.9613
  23   2.0000      -0.314513        -8.5583
  24   2.0000      -0.307914        -8.3788
  25   2.0000      -0.295879        -8.0513
  26   2.0000      -0.255077        -6.9410
  27   2.0000      -0.212174        -5.7735
  28   0.0000      -0.017891        -0.4868
  29   0.0000       0.039014         1.0616
  30   0.0000       0.056811         1.5459
  31   0.0000       0.082615         2.2481
  32   0.0000       0.084002         2.2858

MULLIKEN ATOMIC CHARGES
-----------------------
   0 C :   -0.304898
   1 C :   -0.126308
   2 C :    0.094963
   3 O :   -0.216350
   4 O :   -0.245029
   5 C :   -0.028468
   6 C :   -0.271283
   7 H :    0.112344
   8 H :    0.116086
   9 H :    0.116342
  10 H :    0.100888
  11 H :    0.103966
  12 H :    0.104159
  13 H :    0.105185
  14 H :    0.114226
  15 H :    0.113311
  16 H :    0.110863
Sum of atomic charges:    0.0000000

LOEWDIN ATOMIC CHARGES
----------------------
   0 C :   -0.331257
   1 C :   -0.249222
   2 C :    0.033643
   3 O :   -0.172497
   4 O :   -0.072585
   5 C :   -0.107913
   6 C :   -0.350713
   7 H :    0.121907
   8 H :    0.123826
   9 H :    0.125080
  10 H :    0.131437
  11 H :    0.134244
  12 H :    0.115522
  13 H :    0.116215
  14 H :    0.126346
  15 H :    0.125806
  16 H :    0.130160

  Mayer bond orders larger than 0.100000
B(  0-C ,  1-C ) :   1.1407 B(  0-C ,  7-H ) :   0.9539 B(  0-C ,  8-H ) :   0.9525
B(  0-C ,  9-H ) :   0.9534 B(  1-C ,  2-C ) :   1.0349 B(  1-C , 10-H ) :   0.9063
B(  1-C , 11-H ) :   0.9112 B(  2-C ,  3-O ) :   2.0516 B(  2-C ,  4-O ) :   1.1989
B(  4-O ,  5-C ) :   0.9126 B(  5-C ,  6-C ) :   1.1488 B(  5-C , 12-H ) :   0.9317
B(  5-C , 13-H ) :   0.9323 B(  6-C , 14-H ) :   0.9499 B(  6-C , 15-H ) :   0.9499
B(  6-C , 16-H ) :   0.9447

Dispersion correction           -0.011675028
FINAL SINGLE POINT ENERGY      -346.244067328070

DIPOLE MOMENT
-------------

Method             : SCF
Type of density    : Electron Density
Multiplicity       :   1
Irrep              :   0
Energy             :  -346.3085869849489882 Eh
Relativity type    :
Basis              : AO
                                X                 Y                 Z
Electronic contribution:     -0.766108127      -2.212330038      -4.149245060
Nuclear contribution   :      1.048249192       2.768626586       4.654817775
                        -----------------------------------------
Total Dipole Moment    :      0.282141065       0.556296548       0.505572716
                        -----------------------------------------
Magnitude (a.u.)       :      0.802915438
Magnitude (Debye)      :      2.040848853

Rotational constants in cm-1:             0.163109             0.050321             0.042234
Rotational constants in MHz :          4889.897421          1508.581275          1266.157706

                             ****ORCA TERMINATED NORMALLY****
TOTAL RUN TIME: 0 days 0 hours 0 minutes 8 seconds 693 msec
