                         Program Version 6.0.0  -   RELEASE  -
|  1> ! pbe def2-sv(p) def2/J RI DEFGRID1 loosescf d4 GCP(DFT/SV(P)) printgap
|  2> %output
|  3>     printlevel normal
|  4> end
|  5> * xyz 0 1
|  6> C -2.2402502609 0.7317099556 1.0166596919
|  7> C -1.855387918 0.3365965671 -0.4061358082
|  8> C -0.523256926 -0.3658414312 -0.4886201997
|  9> O -0.2954425423 -1.3018000459 -1.2310394515
| 10> O 0.3791330407 0.1663314239 0.3186736465
| 11> C 1.7149482322 -0.3642181254 0.3268409281
| 12> C 2.7009473584 0.787036271 0.4180808029
| 13> H -3.1973176023 1.2445782574 1.0064172678
| 14> H -2.3252219543 -0.149978922 1.6465095632
| 15> H -1.4902880691 1.3911117327 1.4427071937
| 16> H -1.7774558456 1.2319113712 -1.0274082827
| 17> H -2.6021781296 -0.3207311475 -0.8520680339
| 18> H 1.7967327561 -1.0221325429 1.1969333888
| 19> H 1.8606866131 -0.9552392198 -0.5828202448
| 20> H 2.606362547 1.434845254 -0.4489615988
| 21> H 2.5090069952 1.3695309215 1.3142860767
| 22> H 3.7102862498 0.3906887873 0.4574609259
| 23> *
| 24>
| 25>                          ****END OF INPUT****

CARTESIAN COORDINATES (ANGSTROEM)
---------------------------------
  C     -2.240250    0.731710    1.016660
  C     -1.855388    0.336597   -0.406136
  C     -0.523257   -0.365841   -0.488620
  O     -0.295443   -1.301800   -1.231039
  O      0.379133    0.166331    0.318674
  C      1.714948   -0.364218    0.326841
  C      2.700947    0.787036    0.418081
  H     -3.197318    1.244578    1.006417
  H     -2.325222   -0.149979    1.646510
  H     -1.490288    1.391112    1.442707
  H     -1.777456    1.231911   -1.027408
  H     -2.602178   -0.320731   -0.852068
  H      1.796733   -1.022133    1.196933
  H      1.860687   -0.955239   -0.582820
  H      2.606363    1.434845   -0.448962
  H      2.509007    1.369531    1.314286
  H      3.710286    0.390689    0.457461

 Total Charge           Charge          ....    0
 Multiplicity           Mult            ....    1
 Number of Electrons    NEL             ....   56
 Basis Dimension        Dim             ....  118

ORBITAL ENERGIES
----------------

  NO   OCC          E(Eh)            E(eV)
   0   2.0000     -18.798179      -511.5245
   1   2.0000     -18.727432      -509.5993
   2   2.0000     -10.004217      -272.2286
   3   2.0000      -9.946170      -270.6490
   4   2.0000      -9.898998      -269.3654
   5   2.0000      -9.890082      -269.1228
   6   2.0000      -9.883232      -268.9364
   7   2.0000      -1.004505       -27.3340
   8   2.0000      -0.905240       -24.6328
   9   2.0000      -0.722818       -19.6689
  10   2.0000      -0.687526       -18.7085
  11   2.0000      -0.601073       -16.3560
  12   2.0000      -0.564651       -15.3649
  13   2.0000      -0.505637       -13.7591
  14   2.0000      -0.453642       -12.3442
  15   2.0000      -0.426776       -11.6132
  16   2.0000      -0.419905       -11.4262
  17   2.0000      -0.394370       -10.7314
  18   2.0000      -0.378838       -10.3087
  19   2.0000      -0.363327        -9.8866
  20   2.0000      -0.352453        -9.5907
  21   2.0000      -0.345542        -9.4027
  22   2.0000      -0.323171        -8.7939
  23   2.0000      -0.320743        -8.7279
  24   2.0000      -0.307704        -8.3731
  25   2.0000      -0.289774        -7.8852
  26   2.0000      -0.253983        -6.9112
  27   2.0000      -0.212567        -5.7843
  28   0.0000      -0.017733        -0.4825
  29   0.0000       0.040101         1.0912
  30   0.0000       0.053422         1.4537
  31   0.0000       0.078702         2.1416
  32   0.0000       0.087596         2.3836

MULLIKEN ATOMIC CHARGES
-----------------------
   0 C :   -0.287588
   1 C :   -0.166777
   2 C :    0.100704
   3 O :   -0.205983
   4 O :   -0.242987
   5 C :   -0.027206
   6 C :   -0.284690
   7 H :    0.106209
   8 H :    0.108532
   9 H :    0.116526
  10 H :    0.116549
  11 H :    0.107266
  12 H :    0.103433
  13 H :    0.116627
  14 H :    0.113438
  15 H :    0.114081
  16 H :    0.111865
Sum of atomic charges:    0.0000000

LOEWDIN ATOMIC CHARGES
----------------------
   0 C :   -0.340160
   1 C :   -0.252002
   2 C :    0.032969
   3 O :   -0.172419
   4 O :   -0.066705
   5 C :   -0.112291
   6 C :   -0.351159
   7 H :    0.121753
   8 H :    0.121951
   9 H :    0.123046
  10 H :    0.142095
  11 H :    0.135193
  12 H :    0.116264
  13 H :    0.120400
  14 H :    0.125921
  15 H :    0.125060
  16 H :    0.130085

  Mayer bond orders larger than 0.100000
B(  0-C ,  1-C ) :   1.1379 B(  0-C ,  7-H ) :   0.9496 B(  0-C ,  8-H ) :   0.9600
B(  0-C ,  9-H ) :   0.9476 B(  1-C ,  2-C ) :   1.0318 B(  1-C , 10-H ) :   0.8971
B(  1-C , 11-H ) :   0.9183 B(  2-C ,  3-O ) :   2.0740 B(  2-C ,  4-O ) :   1.1971
B(  4-O ,  5-C ) :   0.9129 B(  5-C ,  6-C ) :   1.1618 B(  5-C , 12-H ) :   0.9358
B(  5-C , 13-H ) :   0.9107 B(  6-C , 14-H ) :   0.9521 B(  6-C , 15-H ) :   0.9494
B(  6-C , 16-H ) :   0.9448

Dispersion correction           -0.011726573
FINAL SINGLE POINT ENERGY      -346.243291040640

DIPOLE MOMENT
-------------

Method             : SCF
Type of density    : Electron Density
Multiplicity       :   1
Irrep              :   0
Energy             :  -346.3081250406690970 Eh
Relativity type    :
Basis              : AO
                                X                 Y                 Z
Electronic contribution:     -0.771774487      -3.720602651      -3.357014523
Nuclear contribution   :      1.024418680       4.312417183       3.882734287
                        -----------------------------------------
Total Dipole Moment    :      0.252644193       0.591814532       0.525719764
                        -----------------------------------------
Magnitude (a.u.)       :      0.830936097
Magnitude (Debye)      :      2.112071710

Rotational constants in cm-1:             0.146989             0.054346             0.042940
Rotational constants in MHz :          4406.618634          1629.248534          1287.323097

                             ****ORCA TERMINATED NORMALLY****
TOTAL RUN TIME: 0 days 0 hours 0 minutes 8 seconds 823 msec
