                         Program Version 6.0.0  -   RELEASE  -
|  1> ! r2scan-3c def2/J RI DEFGRID2 scfconv6 printgap
|  2> %output
|  3>     printlevel normal
|  4> end
|  5> * xyz 0 1
|  6> C -1.7108771884 0.8340753031 -0.9315509891
|  7> C -1.8369132263 -0.0580941306 0.3015841795
|  8> C -2.2240707651 -1.4818744858 -0.0912249172
|  9> C -0.5343171317 -0.0580078486 1.1103653874
| 10> O 0.5605895421 -0.5562625791 0.3322481963
| 11> C 1.5229909931 0.2773602006 -0.0402332083
| 12> O 1.5577249437 1.4527476536 0.2639687528
| 13> C 2.5563997863 -0.4173503978 -0.8768655777
| 14> H -1.373936334 1.8306696543 -0.6531251807
| 15> H -2.6699178434 0.9189699982 -1.4348739244
| 16> H -0.9920568308 0.4139429652 -1.6323687027
| 17> H -2.6072807955 0.3560797927 0.9595625156
| 18> H -3.1416006024 -1.4744319426 -0.6729709345
| 19> H -2.3786873731 -2.0935109774 0.7936959603
| 20> H -1.4353569775 -1.9313593724 -0.6891639341
| 21> H -0.2883008997 0.9538770739 1.4474533401
| 22> H -0.6187299486 -0.7255243338 1.9708290715
| 23> H 2.4551795886 -0.0777972606 -1.9053389609
| 24> H 2.4139640359 -1.4912515514 -0.8277944347
| 25> H 3.5469177151 -0.1389201093 -0.5290418072
| 26> *
| 27>
| 28>                          ****END OF INPUT****

CARTESIAN COORDINATES (ANGSTROEM)
---------------------------------
  C     -1.710877    0.834075   -0.931551
  C     -1.836913   -0.058094    0.301584
  C     -2.224071   -1.481874   -0.091225
  C     -0.534317   -0.058008    1.110365
  O      0.560590   -0.556263    0.332248
  C      1.522991    0.277360   -0.040233
  O      1.557725    1.452748    0.263969
  C      2.556400   -0.417350   -0.876866
  H     -1.373936    1.830670   -0.653125
  H     -2.669918    0.918970   -1.434874
  H     -0.992057    0.413943   -1.632369
  H     -2.607281    0.356080    0.959563
  H     -3.141601   -1.474432   -0.672971
  H     -2.378687   -2.093511    0.793696
  H     -1.435357   -1.931359   -0.689164
  H     -0.288301    0.953877    1.447453
  H     -0.618730   -0.725524    1.970829
  H      2.455180   -0.077797   -1.905339
  H      2.413964   -1.491252   -0.827794
  H      3.546918   -0.138920   -0.529042

 Total Charge           Charge          ....    0
 Multiplicity           Mult            ....    1
 Number of Electrons    NEL             ....   64
 Basis Dimension        Dim             ....  222

ORBITAL ENERGIES
----------------

  NO   OCC          E(Eh)            E(eV)
   0   2.0000     -18.998249      -516.9686
   1   2.0000     -18.927446      -515.0420
   2   2.0000     -10.156636      -276.3761
   3   2.0000     -10.084625      -274.4166
   4   2.0000     -10.044924      -273.3363
   5   2.0000     -10.039261      -273.1822
   6   2.0000     -10.019819      -272.6531
   7   2.0000     -10.018797      -272.6253
   8   2.0000      -1.072978       -29.1972
   9   2.0000      -0.976091       -26.5608
  10   2.0000      -0.782544       -21.2941
  11   2.0000      -0.727287       -19.7905
  12   2.0000      -0.663476       -18.0541
  13   2.0000      -0.655017       -17.8239
  14   2.0000      -0.568020       -15.4566
  15   2.0000      -0.508449       -13.8356
  16   2.0000      -0.466129       -12.6840
  17   2.0000      -0.463232       -12.6052
  18   2.0000      -0.442317       -12.0360
  19   2.0000      -0.421234       -11.4624
  20   2.0000      -0.404708       -11.0127
  21   2.0000      -0.400580       -10.9003
  22   2.0000      -0.377033       -10.2596
  23   2.0000      -0.364209        -9.9106
  24   2.0000      -0.354121        -9.6361
  25   2.0000      -0.349118        -9.5000
  26   2.0000      -0.326211        -8.8767
  27   2.0000      -0.315751        -8.5920
  28   2.0000      -0.307908        -8.3786
  29   2.0000      -0.296073        -8.0566
  30   2.0000      -0.266551        -7.2532
  31   2.0000      -0.237588        -6.4651
  32   0.0000      -0.014803        -0.4028
  33   0.0000       0.066979         1.8226
  34   0.0000       0.091273         2.4837
  35   0.0000       0.110708         3.0125
  36   0.0000       0.123120         3.3503

MULLIKEN ATOMIC CHARGES
-----------------------
   0 C :   -0.511000
   1 C :    0.016734
   2 C :   -0.503855
   3 C :   -0.228983
   4 O :   -0.176442
   5 C :    0.438086
   6 O :   -0.430529
   7 C :   -0.524444
   8 H :    0.166302
   9 H :    0.149497
  10 H :    0.149661
  11 H :    0.145624
  12 H :    0.145448
  13 H :    0.142648
  14 H :    0.163519
  15 H :    0.191033
  16 H :    0.147339
  17 H :    0.173914
  18 H :    0.171385
  19 H :    0.174065
Sum of atomic charges:   -0.0000000

LOEWDIN ATOMIC CHARGES
----------------------
   0 C :   -0.405960
   1 C :   -0.219940
   2 C :   -0.410807
   3 C :    0.039001
   4 O :   -0.604801
   5 C :    0.354459
   6 O :   -0.442033
   7 C :   -0.335627
   8 H :    0.163380
   9 H :    0.153900
  10 H :    0.158925
  11 H :    0.162856
  12 H :    0.153934
  13 H :    0.154201
  14 H :    0.161718
  15 H :    0.201303
  16 H :    0.182000
  17 H :    0.180835
  18 H :    0.173893
  19 H :    0.178764

  Mayer bond orders larger than 0.100000
B(  0-C ,  1-C ) :   0.8881 B(  0-C ,  8-H ) :   0.9682 B(  0-C ,  9-H ) :   0.9704
B(  0-C , 10-H ) :   0.9813 B(  1-C ,  2-C ) :   0.9402 B(  1-C ,  3-C ) :   0.9560
B(  1-C , 11-H ) :   0.9419 B(  2-C , 12-H ) :   0.9725 B(  2-C , 13-H ) :   0.9702
B(  2-C , 14-H ) :   0.9840 B(  3-C ,  4-O ) :   0.7971 B(  3-C , 15-H ) :   0.9584
B(  3-C , 16-H ) :   0.9611 B(  4-O ,  5-C ) :   1.0494 B(  5-C ,  6-O ) :   1.8369
B(  5-C ,  7-C ) :   0.9488 B(  7-C , 17-H ) :   0.9397 B(  7-C , 18-H ) :   0.9847
B(  7-C , 19-H ) :   0.9658

Dispersion correction           -0.005423274
FINAL SINGLE POINT ENERGY      -386.237412613579

DIPOLE MOMENT
-------------

Method             : SCF
Type of density    : Electron Density
Multiplicity       :   1
Irrep              :   0
Energy             :  -386.2440564239867626 Eh
Relativity type    :
Basis              : AO
                                X                 Y                 Z
Electronic contribution:      6.262878906       2.513826005       2.853447695
Nuclear contribution   :     -6.620009419      -3.232065611      -2.968090652
                        -----------------------------------------
Total Dipole Moment    :     -0.357130512      -0.718239606      -0.114642957
                        -----------------------------------------
Magnitude (a.u.)       :      0.810279793
Magnitude (Debye)      :      2.059567556

Rotational constants in cm-1:             0.118789             0.040648             0.037927
Rotational constants in MHz :          3561.195188          1218.588850          1137.011601

                             ****ORCA TERMINATED NORMALLY****
TOTAL RUN TIME: 0 days 0 hours 0 minutes 25 seconds 557 msec
