                         Program Version 6.0.0  -   RELEASE  -
|  1> ! r2scan-3c def2/J RI DEFGRID2 scfconv6 printgap
|  2> %output
|  3>     printlevel normal
|  4> end
|  5> %cpcm
|  6>     smd true
|  7>     smdsolvent "water"
|  8> end
|  9> * xyz 0 1
| 10> C -1.7108771884 0.8340753031 -0.9315509891
| 11> C -1.8369132263 -0.0580941306 0.3015841795
| 12> C -2.2240707651 -1.4818744858 -0.0912249172
| 13> C -0.5343171317 -0.0580078486 1.1103653874
| 14> O 0.5605895421 -0.5562625791 0.3322481963
| 15> C 1.5229909931 0.2773602006 -0.0402332083
| 16> O 1.5577249437 1.4527476536 0.2639687528
| 17> C 2.5563997863 -0.4173503978 -0.8768655777
| 18> H -1.373936334 1.8306696543 -0.6531251807
| 19> H -2.6699178434 0.9189699982 -1.4348739244
| 20> H -0.9920568308 0.4139429652 -1.6323687027
| 21> H -2.6072807955 0.3560797927 0.9595625156
| 22> H -3.1416006024 -1.4744319426 -0.6729709345
| 23> H -2.3786873731 -2.0935109774 0.7936959603
| 24> H -1.4353569775 -1.9313593724 -0.6891639341
| 25> H -0.2883008997 0.9538770739 1.4474533401
| 26> H -0.6187299486 -0.7255243338 1.9708290715
| 27> H 2.4551795886 -0.0777972606 -1.9053389609
| 28> H 2.4139640359 -1.4912515514 -0.8277944347
| 29> H 3.5469177151 -0.1389201093 -0.5290418072
| 30> *
| 31>
| 32>                          ****END OF INPUT****

CARTESIAN COORDINATES (ANGSTROEM)
---------------------------------
  C     -1.710877    0.834075   -0.931551
  C     -1.836913   -0.058094    0.301584
  C     -2.224071   -1.481874   -0.091225
  C     -0.534317   -0.058008    1.110365
  O      0.560590   -0.556263    0.332248
  C      1.522991    0.277360   -0.040233
  O      1.557725    1.452748    0.263969
  C      2.556400   -0.417350   -0.876866
  H     -1.373936    1.830670   -0.653125
  H     -2.669918    0.918970   -1.434874
  H     -0.992057    0.413943   -1.632369
  H     -2.607281    0.356080    0.959563
  H     -3.141601   -1.474432   -0.672971
  H     -2.378687   -2.093511    0.793696
  H     -1.435357   -1.931359   -0.689164
  H     -0.288301    0.953877    1.447453
  H     -0.618730   -0.725524    1.970829
  H      2.455180   -0.077797   -1.905339
  H      2.413964   -1.491252   -0.827794
  H      3.546918   -0.138920   -0.529042

 Total Charge           Charge          ....    0
 Multiplicity           Mult            ....    1
 Number of Electrons    NEL             ....   64
 Basis Dimension        Dim             ....  222

ORBITAL ENERGIES
----------------

  NO   OCC          E(Eh)            E(eV)
   0   2.0000     -19.003148      -517.1019
   1   2.0000     -18.942171      -515.4427
   2   2.0000     -10.166009      -276.6312
   3   2.0000     -10.077256      -274.2161
   4   2.0000     -10.034538      -273.0537
   5   2.0000     -10.030064      -272.9319
   6   2.0000     -10.010203      -272.3915
   7   2.0000     -10.009080      -272.3609
   8   2.0000      -1.079270       -29.3684
   9   2.0000      -0.989078       -26.9142
  10   2.0000      -0.774661       -21.0796
  11   2.0000      -0.721941       -19.6450
  12   2.0000      -0.656966       -17.8769
  13   2.0000      -0.645791       -17.5729
  14   2.0000      -0.562632       -15.3100
  15   2.0000      -0.504536       -13.7291
  16   2.0000      -0.466618       -12.6973
  17   2.0000      -0.463145       -12.6028
  18   2.0000      -0.448717       -12.2102
  19   2.0000      -0.415370       -11.3028
  20   2.0000      -0.398388       -10.8407
  21   2.0000      -0.395518       -10.7626
  22   2.0000      -0.371599       -10.1117
  23   2.0000      -0.357123        -9.7178
  24   2.0000      -0.348636        -9.4869
  25   2.0000      -0.342366        -9.3163
  26   2.0000      -0.324630        -8.8336
  27   2.0000      -0.313195        -8.5225
  28   2.0000      -0.297963        -8.1080
  29   2.0000      -0.290766        -7.9122
  30   2.0000      -0.269645        -7.3374
  31   2.0000      -0.253174        -6.8892
  32   0.0000      -0.021293        -0.5794
  33   0.0000       0.072534         1.9738
  34   0.0000       0.102620         2.7924
  35   0.0000       0.117609         3.2003
  36   0.0000       0.131690         3.5835

MULLIKEN ATOMIC CHARGES
-----------------------
   0 C :   -0.567202
   1 C :    0.049454
   2 C :   -0.548702
   3 C :   -0.234988
   4 O :   -0.194029
   5 C :    0.483714
   6 O :   -0.519218
   7 C :   -0.560509
   8 H :    0.166903
   9 H :    0.165635
  10 H :    0.165366
  11 H :    0.164628
  12 H :    0.159441
  13 H :    0.159454
  14 H :    0.165643
  15 H :    0.186782
  16 H :    0.173791
  17 H :    0.202922
  18 H :    0.188091
  19 H :    0.192822
Sum of atomic charges:    0.0000000

LOEWDIN ATOMIC CHARGES
----------------------
   0 C :   -0.415133
   1 C :   -0.214372
   2 C :   -0.417661
   3 C :    0.043373
   4 O :   -0.605657
   5 C :    0.365328
   6 O :   -0.504927
   7 C :   -0.333825
   8 H :    0.160817
   9 H :    0.158885
  10 H :    0.161643
  11 H :    0.170408
  12 H :    0.157971
  13 H :    0.159002
  14 H :    0.160686
  15 H :    0.200270
  16 H :    0.192830
  17 H :    0.192216
  18 H :    0.182084
  19 H :    0.186060

  Mayer bond orders larger than 0.100000
B(  0-C ,  1-C ) :   0.8651 B(  0-C ,  8-H ) :   0.9708 B(  0-C ,  9-H ) :   0.9666
B(  0-C , 10-H ) :   0.9780 B(  1-C ,  2-C ) :   0.9319 B(  1-C ,  3-C ) :   0.9540
B(  1-C , 11-H ) :   0.9405 B(  2-C , 12-H ) :   0.9698 B(  2-C , 13-H ) :   0.9675
B(  2-C , 14-H ) :   0.9835 B(  3-C ,  4-O ) :   0.7836 B(  3-C , 15-H ) :   0.9549
B(  3-C , 16-H ) :   0.9535 B(  4-O ,  5-C ) :   1.0785 B(  5-C ,  6-O ) :   1.7622
B(  5-C ,  7-C ) :   0.9497 B(  7-C , 17-H ) :   0.9284 B(  7-C , 18-H ) :   0.9742
B(  7-C , 19-H ) :   0.9559

Dispersion correction           -0.005423274
FINAL SINGLE POINT ENERGY      -386.242246234626

DIPOLE MOMENT
-------------

Method             : SCF
Type of density    : Electron Density
Multiplicity       :   1
Irrep              :   0
Energy             :  -386.2488900450342726 Eh
Relativity type    :
Basis              : AO
                                X                 Y                 Z
Electronic contribution:      6.118427877       2.190345816       2.834947610
Nuclear contribution   :     -6.620009419      -3.232065611      -2.968090652
                        -----------------------------------------
Total Dipole Moment    :     -0.501581542      -1.041719795      -0.133143042
                        -----------------------------------------
Magnitude (a.u.)       :      1.163826123
Magnitude (Debye)      :      2.958210911

Rotational constants in cm-1:             0.118789             0.040648             0.037927
Rotational constants in MHz :          3561.195188          1218.588850          1137.011601

                             ****ORCA TERMINATED NORMALLY****
TOTAL RUN TIME: 0 days 0 hours 0 minutes 30 seconds 892 msec
