                         Program Version 6.0.0  -   RELEASE  -
|  1> ! r2scan-3c def2/J RI DEFGRID2 scfconv6 printgap
|  2> %output
|  3>     printlevel normal
|  4> end
|  5> * xyz 0 1
|  6> C -1.949180844 0.6956767751 1.7025206911
|  7> O -1.8115044654 0.7643763195 0.2667777648
|  8> C -0.85148839 0.0528608747 -0.330427105
|  9> C 0.609354844 0.4885566927 -0.0662423149
| 10> Cl 1.1472959108 -0.0697166185 1.5216005713
| 11> Cl 1.6719153806 -0.1942544942 -1.3228936072
| 12> F -0.9760521834 -1.2915524519 -0.074755824
| 13> F -1.0905849072 0.1648099484 -1.6651417978
| 14> H -2.926452011 1.129937352 1.8902950138
| 15> H -1.169504194 1.2792956453 2.189107027
| 16> H -1.9217770352 -0.3395360392 2.039986374
| 17> H 0.6759257602 1.5782159211 -0.1091039248
| 18> *
| 19>
| 20>                          ****END OF INPUT****

CARTESIAN COORDINATES (ANGSTROEM)
---------------------------------
  C     -1.949181    0.695677    1.702521
  O     -1.811504    0.764376    0.266778
  C     -0.851488    0.052861   -0.330427
  C      0.609355    0.488557   -0.066242
  Cl     1.147296   -0.069717    1.521601
  Cl     1.671915   -0.194254   -1.322894
  F     -0.976052   -1.291552   -0.074756
  F     -1.090585    0.164810   -1.665142
  H     -2.926452    1.129937    1.890295
  H     -1.169504    1.279296    2.189107
  H     -1.921777   -0.339536    2.039986
  H      0.675926    1.578216   -0.109104

 Total Charge           Charge          ....    0
 Multiplicity           Mult            ....    1
 Number of Electrons    NEL             ....   82
 Basis Dimension        Dim             ....  203

ORBITAL ENERGIES
----------------

  NO   OCC          E(Eh)            E(eV)
   0   2.0000    -101.242193     -2754.9401
   1   2.0000    -101.231996     -2754.6626
   2   2.0000     -24.509570      -666.9393
   3   2.0000     -24.506338      -666.8514
   4   2.0000     -19.012915      -517.3677
   5   2.0000     -10.271528      -279.5025
   6   2.0000     -10.184720      -277.1403
   7   2.0000     -10.107142      -275.0293
   8   2.0000      -9.398338      -255.7418
   9   2.0000      -9.387764      -255.4540
  10   2.0000      -7.145168      -194.4299
  11   2.0000      -7.134803      -194.1479
  12   2.0000      -7.134249      -194.1328
  13   2.0000      -7.133830      -194.1214
  14   2.0000      -7.123472      -193.8395
  15   2.0000      -7.123343      -193.8360
  16   2.0000      -1.241327       -33.7782
  17   2.0000      -1.170596       -31.8535
  18   2.0000      -1.060633       -28.8613
  19   2.0000      -0.891967       -24.2716
  20   2.0000      -0.802455       -21.8359
  21   2.0000      -0.739210       -20.1149
  22   2.0000      -0.680034       -18.5047
  23   2.0000      -0.604604       -16.4521
  24   2.0000      -0.548130       -14.9154
  25   2.0000      -0.539814       -14.6891
  26   2.0000      -0.523847       -14.2546
  27   2.0000      -0.465281       -12.6609
  28   2.0000      -0.450783       -12.2664
  29   2.0000      -0.436164       -11.8686
  30   2.0000      -0.431663       -11.7461
  31   2.0000      -0.406663       -11.0659
  32   2.0000      -0.389070       -10.5871
  33   2.0000      -0.376296       -10.2395
  34   2.0000      -0.365846        -9.9552
  35   2.0000      -0.351576        -9.5669
  36   2.0000      -0.322740        -8.7822
  37   2.0000      -0.308507        -8.3949
  38   2.0000      -0.300251        -8.1702
  39   2.0000      -0.288272        -7.8443
  40   2.0000      -0.281048        -7.6477
  41   0.0000      -0.043871        -1.1938
  42   0.0000      -0.024437        -0.6650
  43   0.0000       0.053775         1.4633
  44   0.0000       0.063632         1.7315
  45   0.0000       0.099843         2.7169

MULLIKEN ATOMIC CHARGES
-----------------------
   0 C :   -0.283110
   1 O :   -0.202479
   2 C :    0.422779
   3 C :    0.001933
   4 Cl:   -0.101934
   5 Cl:   -0.095555
   6 F :   -0.234573
   7 F :   -0.211646
   8 H :    0.159594
   9 H :    0.158599
  10 H :    0.177827
  11 H :    0.208565
Sum of atomic charges:    0.0000000

LOEWDIN ATOMIC CHARGES
----------------------
   0 C :   -0.046223
   1 O :   -0.614694
   2 C :    0.429960
   3 C :   -0.288928
   4 Cl:    0.126432
   5 Cl:    0.121656
   6 F :   -0.234749
   7 F :   -0.205185
   8 H :    0.182966
   9 H :    0.167050
  10 H :    0.177883
  11 H :    0.183832

  Mayer bond orders larger than 0.100000
B(  0-C ,  1-O ) :   0.8256 B(  0-C ,  8-H ) :   0.9654 B(  0-C ,  9-H ) :   0.9557
B(  0-C , 10-H ) :   0.9594 B(  1-O ,  2-C ) :   1.1628 B(  2-C ,  3-C ) :   0.9085
B(  2-C ,  6-F ) :   0.9476 B(  2-C ,  7-F ) :   1.0463 B(  3-C ,  4-Cl) :   0.9883
B(  3-C ,  5-Cl) :   1.0515 B(  3-C , 11-H ) :   0.9235

Dispersion correction           -0.003777155
FINAL SINGLE POINT ENERGY     -1311.937540310712

DIPOLE MOMENT
-------------

Method             : SCF
Type of density    : Electron Density
Multiplicity       :   1
Irrep              :   0
Energy             : -1311.9502562734778621 Eh
Relativity type    :
Basis              : AO
                                X                 Y                 Z
Electronic contribution:      6.671242827      -4.135772392      -6.021017406
Nuclear contribution   :     -6.907502042       4.831962535       6.988026669
                        -----------------------------------------
Total Dipole Moment    :     -0.236259215       0.696190143       0.967009263
                        -----------------------------------------
Magnitude (a.u.)       :      1.214745260
Magnitude (Debye)      :      3.087637072

Rotational constants in cm-1:             0.059862             0.043659             0.029857
Rotational constants in MHz :          1794.624968          1308.852217           895.102064

                             ****ORCA TERMINATED NORMALLY****
TOTAL RUN TIME: 0 days 0 hours 0 minutes 19 seconds 675 msec
