                         Program Version 6.0.0  -   RELEASE  -
|  1> ! r2scan-3c def2/J RI DEFGRID2 scfconv6 printgap
|  2> %output
|  3>     printlevel normal
|  4> end
|  5> %cpcm
|  6>     smd true
|  7>     smdsolvent "water"
|  8> end
|  9> * xyz 0 1
| 10> C -1.949180844 0.6956767751 1.7025206911
| 11> O -1.8115044654 0.7643763195 0.2667777648
| 12> C -0.85148839 0.0528608747 -0.330427105
| 13> C 0.609354844 0.4885566927 -0.0662423149
| 14> Cl 1.1472959108 -0.0697166185 1.5216005713
| 15> Cl 1.6719153806 -0.1942544942 -1.3228936072
| 16> F -0.9760521834 -1.2915524519 -0.074755824
| 17> F -1.0905849072 0.1648099484 -1.6651417978
| 18> H -2.926452011 1.129937352 1.8902950138
| 19> H -1.169504194 1.2792956453 2.189107027
| 20> H -1.9217770352 -0.3395360392 2.039986374
| 21> H 0.6759257602 1.5782159211 -0.1091039248
| 22> *
| 23>
| 24>                          ****END OF INPUT****

CARTESIAN COORDINATES (ANGSTROEM)
---------------------------------
  C     -1.949181    0.695677    1.702521
  O     -1.811504    0.764376    0.266778
  C     -0.851488    0.052861   -0.330427
  C      0.609355    0.488557   -0.066242
  Cl     1.147296   -0.069717    1.521601
  Cl     1.671915   -0.194254   -1.322894
  F     -0.976052   -1.291552   -0.074756
  F     -1.090585    0.164810   -1.665142
  H     -2.926452    1.129937    1.890295
  H     -1.169504    1.279296    2.189107
  H     -1.921777   -0.339536    2.039986
  H      0.675926    1.578216   -0.109104

 Total Charge           Charge          ....    0
 Multiplicity           Mult            ....    1
 Number of Electrons    NEL             ....   82
 Basis Dimension        Dim             ....  203

ORBITAL ENERGIES
----------------

  NO   OCC          E(Eh)            E(eV)
   0   2.0000    -101.237259     -2754.8059
   1   2.0000    -101.232563     -2754.6781
   2   2.0000     -24.514680      -667.0784
   3   2.0000     -24.509936      -666.9493
   4   2.0000     -19.006504      -517.1933
   5   2.0000     -10.271745      -279.5084
   6   2.0000     -10.177025      -276.9309
   7   2.0000     -10.085368      -274.4368
   8   2.0000      -9.393427      -255.6081
   9   2.0000      -9.388546      -255.4753
  10   2.0000      -7.140224      -194.2954
  11   2.0000      -7.135339      -194.1624
  12   2.0000      -7.129336      -193.9991
  13   2.0000      -7.128950      -193.9886
  14   2.0000      -7.124359      -193.8637
  15   2.0000      -7.124226      -193.8601
  16   2.0000      -1.246079       -33.9075
  17   2.0000      -1.176023       -32.0012
  18   2.0000      -1.055039       -28.7091
  19   2.0000      -0.888129       -24.1672
  20   2.0000      -0.800487       -21.7823
  21   2.0000      -0.730159       -19.8686
  22   2.0000      -0.671887       -18.2830
  23   2.0000      -0.602051       -16.3826
  24   2.0000      -0.548486       -14.9251
  25   2.0000      -0.533419       -14.5151
  26   2.0000      -0.520884       -14.1740
  27   2.0000      -0.458136       -12.4665
  28   2.0000      -0.443319       -12.0633
  29   2.0000      -0.428037       -11.6475
  30   2.0000      -0.424994       -11.5647
  31   2.0000      -0.404308       -11.0018
  32   2.0000      -0.389318       -10.5939
  33   2.0000      -0.377920       -10.2837
  34   2.0000      -0.370196       -10.0735
  35   2.0000      -0.344992        -9.3877
  36   2.0000      -0.317943        -8.6517
  37   2.0000      -0.306963        -8.3529
  38   2.0000      -0.295295        -8.0354
  39   2.0000      -0.287966        -7.8360
  40   2.0000      -0.275364        -7.4930
  41   0.0000      -0.039884        -1.0853
  42   0.0000      -0.020190        -0.5494
  43   0.0000       0.069813         1.8997
  44   0.0000       0.075563         2.0562
  45   0.0000       0.112113         3.0507

MULLIKEN ATOMIC CHARGES
-----------------------
   0 C :   -0.303019
   1 O :   -0.218316
   2 C :    0.405095
   3 C :    0.004185
   4 Cl:   -0.114457
   5 Cl:   -0.126493
   6 F :   -0.243589
   7 F :   -0.224468
   8 H :    0.183714
   9 H :    0.180959
  10 H :    0.190152
  11 H :    0.266238
Sum of atomic charges:    0.0000000

LOEWDIN ATOMIC CHARGES
----------------------
   0 C :   -0.040568
   1 O :   -0.626010
   2 C :    0.427193
   3 C :   -0.280893
   4 Cl:    0.123246
   5 Cl:    0.101767
   6 F :   -0.245365
   7 F :   -0.218090
   8 H :    0.193296
   9 H :    0.176535
  10 H :    0.182657
  11 H :    0.206232

  Mayer bond orders larger than 0.100000
B(  0-C ,  1-O ) :   0.8095 B(  0-C ,  8-H ) :   0.9558 B(  0-C ,  9-H ) :   0.9499
B(  0-C , 10-H ) :   0.9502 B(  1-O ,  2-C ) :   1.1776 B(  2-C ,  3-C ) :   0.9152
B(  2-C ,  6-F ) :   0.9413 B(  2-C ,  7-F ) :   1.0367 B(  3-C ,  4-Cl) :   0.9818
B(  3-C ,  5-Cl) :   1.0140 B(  3-C , 11-H ) :   0.9031

Dispersion correction           -0.003777155
FINAL SINGLE POINT ENERGY     -1311.941620407981

DIPOLE MOMENT
-------------

Method             : SCF
Type of density    : Electron Density
Multiplicity       :   1
Irrep              :   0
Energy             : -1311.9543363707473418 Eh
Relativity type    :
Basis              : AO
                                X                 Y                 Z
Electronic contribution:      6.616581140      -3.829438404      -5.707796120
Nuclear contribution   :     -6.907502042       4.831962535       6.988026669
                        -----------------------------------------
Total Dipole Moment    :     -0.290920902       1.002524131       1.280230549
                        -----------------------------------------
Magnitude (a.u.)       :      1.651871624
Magnitude (Debye)      :      4.198723990

Rotational constants in cm-1:             0.059862             0.043659             0.029857
Rotational constants in MHz :          1794.624968          1308.852217           895.102064

                             ****ORCA TERMINATED NORMALLY****
TOTAL RUN TIME: 0 days 0 hours 0 minutes 24 seconds 937 msec
