                         Program Version 6.0.0  -   RELEASE  -
|  1> ! r2scan-3c def2/J RI DEFGRID2 scfconv6 printgap
|  2> %output
|  3>     printlevel normal
|  4> end
|  5> * xyz 0 1
|  6> C 1.7631864803 1.5307651916 0.2633814551
|  7> C 1.30168311 0.0923536829 0.5251587433
|  8> C 2.3612915335 -0.9036819735 0.0524646995
|  9> C 0.010412967 -0.1329392209 -0.2428915244
| 10> O 0.0070995304 -0.2429255119 -1.4519835514
| 11> C -1.281057904 -0.1703740495 0.5562699962
| 12> C -2.133545814 -1.3557042194 0.1020105539
| 13> C -2.0242922654 1.1486652918 0.3144917653
| 14> H 1.0379849395 2.2456176507 0.6439276651
| 15> H 1.8818071066 1.6912823426 -0.8058736545
| 16> H 2.7167129016 1.7070025398 0.7536006485
| 17> H 1.1260406923 -0.0392636659 1.5952247848
| 18> H 2.0589456991 -1.9217022519 0.2875097638
| 19> H 2.4871545006 -0.82289753 -1.0248173379
| 20> H 3.3120314323 -0.6992897377 0.5366999044
| 21> H -1.0570975474 -0.2662834105 1.6211044799
| 22> H -1.6309422185 -2.2940635522 0.3253608357
| 23> H -3.0947961789 -1.3433775891 0.6079883862
| 24> H -2.2970709841 -1.3008655074 -0.9718422237
| 25> H -2.198729479 1.2839366356 -0.7506004561
| 26> H -2.9814232619 1.1320964169 0.8284998015
| 27> H -1.4456458549 1.9923736534 0.681977816
| 28> *
| 29>
| 30>                          ****END OF INPUT****

CARTESIAN COORDINATES (ANGSTROEM)
---------------------------------
  C      1.763186    1.530765    0.263381
  C      1.301683    0.092354    0.525159
  C      2.361292   -0.903682    0.052465
  C      0.010413   -0.132939   -0.242892
  O      0.007100   -0.242926   -1.451984
  C     -1.281058   -0.170374    0.556270
  C     -2.133546   -1.355704    0.102011
  C     -2.024292    1.148665    0.314492
  H      1.037985    2.245618    0.643928
  H      1.881807    1.691282   -0.805874
  H      2.716713    1.707003    0.753601
  H      1.126041   -0.039264    1.595225
  H      2.058946   -1.921702    0.287510
  H      2.487155   -0.822898   -1.024817
  H      3.312031   -0.699290    0.536700
  H     -1.057098   -0.266283    1.621104
  H     -1.630942   -2.294064    0.325361
  H     -3.094796   -1.343378    0.607988
  H     -2.297071   -1.300866   -0.971842
  H     -2.198729    1.283937   -0.750600
  H     -2.981423    1.132096    0.828500
  H     -1.445646    1.992374    0.681978

 Total Charge           Charge          ....    0
 Multiplicity           Mult            ....    1
 Number of Electrons    NEL             ....   64
 Basis Dimension        Dim             ....  227

ORBITAL ENERGIES
----------------

  NO   OCC          E(Eh)            E(eV)
   0   2.0000     -18.935679      -515.2660
   1   2.0000     -10.111567      -275.1497
   2   2.0000     -10.044527      -273.3255
   3   2.0000     -10.044517      -273.3252
   4   2.0000     -10.028658      -272.8936
   5   2.0000     -10.028563      -272.8911
   6   2.0000     -10.021586      -272.7012
   7   2.0000     -10.021492      -272.6987
   8   2.0000      -1.004310       -27.3287
   9   2.0000      -0.781399       -21.2630
  10   2.0000      -0.761547       -20.7227
  11   2.0000      -0.660433       -17.9713
  12   2.0000      -0.655601       -17.8398
  13   2.0000      -0.623781       -16.9739
  14   2.0000      -0.552286       -15.0285
  15   2.0000      -0.486022       -13.2253
  16   2.0000      -0.463716       -12.6183
  17   2.0000      -0.431287       -11.7359
  18   2.0000      -0.413261       -11.2454
  19   2.0000      -0.406319       -11.0565
  20   2.0000      -0.398013       -10.8305
  21   2.0000      -0.373745       -10.1701
  22   2.0000      -0.364029        -9.9057
  23   2.0000      -0.358279        -9.7493
  24   2.0000      -0.356021        -9.6878
  25   2.0000      -0.335696        -9.1348
  26   2.0000      -0.330230        -8.9860
  27   2.0000      -0.315955        -8.5976
  28   2.0000      -0.313552        -8.5322
  29   2.0000      -0.302469        -8.2306
  30   2.0000      -0.299143        -8.1401
  31   2.0000      -0.209603        -5.7036
  32   0.0000      -0.050088        -1.3630
  33   0.0000       0.062515         1.7011
  34   0.0000       0.106326         2.8933
  35   0.0000       0.106933         2.9098
  36   0.0000       0.114787         3.1235

MULLIKEN ATOMIC CHARGES
-----------------------
   0 C :   -0.514828
   1 C :   -0.016656
   2 C :   -0.503568
   3 C :    0.253928
   4 O :   -0.374687
   5 C :   -0.016389
   6 C :   -0.503652
   7 C :   -0.514779
   8 H :    0.143446
   9 H :    0.178429
  10 H :    0.152818
  11 H :    0.148740
  12 H :    0.146790
  13 H :    0.178664
  14 H :    0.146357
  15 H :    0.148867
  16 H :    0.146840
  17 H :    0.146286
  18 H :    0.178747
  19 H :    0.178292
  20 H :    0.152848
  21 H :    0.143509
Sum of atomic charges:    0.0000000

LOEWDIN ATOMIC CHARGES
----------------------
   0 C :   -0.386758
   1 C :   -0.221520
   2 C :   -0.391408
   3 C :    0.239379
   4 O :   -0.472360
   5 C :   -0.221504
   6 C :   -0.391527
   7 C :   -0.386678
   8 H :    0.154190
   9 H :    0.167099
  10 H :    0.155256
  11 H :    0.159549
  12 H :    0.156366
  13 H :    0.170729
  14 H :    0.152958
  15 H :    0.159584
  16 H :    0.156371
  17 H :    0.152943
  18 H :    0.170783
  19 H :    0.167056
  20 H :    0.155281
  21 H :    0.154211

  Mayer bond orders larger than 0.100000
B(  0-C ,  1-C ) :   0.8836 B(  0-C ,  8-H ) :   0.9684 B(  0-C ,  9-H ) :   0.9793
B(  0-C , 10-H ) :   0.9740 B(  1-C ,  2-C ) :   0.9125 B(  1-C ,  3-C ) :   0.8632
B(  1-C , 11-H ) :   0.9600 B(  2-C , 12-H ) :   0.9738 B(  2-C , 13-H ) :   0.9763
B(  2-C , 14-H ) :   0.9769 B(  3-C ,  4-O ) :   1.9078 B(  3-C ,  5-C ) :   0.8628
B(  5-C ,  6-C ) :   0.9127 B(  5-C ,  7-C ) :   0.8831 B(  5-C , 15-H ) :   0.9600
B(  6-C , 16-H ) :   0.9738 B(  6-C , 17-H ) :   0.9769 B(  6-C , 18-H ) :   0.9763
B(  7-C , 19-H ) :   0.9792 B(  7-C , 20-H ) :   0.9738 B(  7-C , 21-H ) :   0.9686

Dispersion correction           -0.006371527
FINAL SINGLE POINT ENERGY      -350.302441333383

DIPOLE MOMENT
-------------

Method             : SCF
Type of density    : Electron Density
Multiplicity       :   1
Irrep              :   0
Energy             :  -350.3064099087885666 Eh
Relativity type    :
Basis              : AO
                                X                 Y                 Z
Electronic contribution:      0.076030698      -1.122136562      -3.046880545
Nuclear contribution   :     -0.079665198       1.276584034       4.039550387
                        -----------------------------------------
Total Dipole Moment    :     -0.003634500       0.154447472       0.992669842
                        -----------------------------------------
Magnitude (a.u.)       :      1.004619653
Magnitude (Debye)      :      2.553540224

Rotational constants in cm-1:             0.104055             0.045394             0.039116
Rotational constants in MHz :          3119.498170          1360.864813          1172.673893

                             ****ORCA TERMINATED NORMALLY****
TOTAL RUN TIME: 0 days 0 hours 0 minutes 38 seconds 404 msec
