                         Program Version 6.0.0  -   RELEASE  -
|  1> ! r2scan-3c def2/J RI DEFGRID2 scfconv6 printgap
|  2> %output
|  3>     printlevel normal
|  4> end
|  5> %cpcm
|  6>     smd true
|  7>     smdsolvent "water"
|  8> end
|  9> * xyz 0 1
| 10> C 1.7631864803 1.5307651916 0.2633814551
| 11> C 1.30168311 0.0923536829 0.5251587433
| 12> C 2.3612915335 -0.9036819735 0.0524646995
| 13> C 0.010412967 -0.1329392209 -0.2428915244
| 14> O 0.0070995304 -0.2429255119 -1.4519835514
| 15> C -1.281057904 -0.1703740495 0.5562699962
| 16> C -2.133545814 -1.3557042194 0.1020105539
| 17> C -2.0242922654 1.1486652918 0.3144917653
| 18> H 1.0379849395 2.2456176507 0.6439276651
| 19> H 1.8818071066 1.6912823426 -0.8058736545
| 20> H 2.7167129016 1.7070025398 0.7536006485
| 21> H 1.1260406923 -0.0392636659 1.5952247848
| 22> H 2.0589456991 -1.9217022519 0.2875097638
| 23> H 2.4871545006 -0.82289753 -1.0248173379
| 24> H 3.3120314323 -0.6992897377 0.5366999044
| 25> H -1.0570975474 -0.2662834105 1.6211044799
| 26> H -1.6309422185 -2.2940635522 0.3253608357
| 27> H -3.0947961789 -1.3433775891 0.6079883862
| 28> H -2.2970709841 -1.3008655074 -0.9718422237
| 29> H -2.198729479 1.2839366356 -0.7506004561
| 30> H -2.9814232619 1.1320964169 0.8284998015
| 31> H -1.4456458549 1.9923736534 0.681977816
| 32> *
| 33>
| 34>                          ****END OF INPUT****

CARTESIAN COORDINATES (ANGSTROEM)
---------------------------------
  C      1.763186    1.530765    0.263381
  C      1.301683    0.092354    0.525159
  C      2.361292   -0.903682    0.052465
  C      0.010413   -0.132939   -0.242892
  O      0.007100   -0.242926   -1.451984
  C     -1.281058   -0.170374    0.556270
  C     -2.133546   -1.355704    0.102011
  C     -2.024292    1.148665    0.314492
  H      1.037985    2.245618    0.643928
  H      1.881807    1.691282   -0.805874
  H      2.716713    1.707003    0.753601
  H      1.126041   -0.039264    1.595225
  H      2.058946   -1.921702    0.287510
  H      2.487155   -0.822898   -1.024817
  H      3.312031   -0.699290    0.536700
  H     -1.057098   -0.266283    1.621104
  H     -1.630942   -2.294064    0.325361
  H     -3.094796   -1.343378    0.607988
  H     -2.297071   -1.300866   -0.971842
  H     -2.198729    1.283937   -0.750600
  H     -2.981423    1.132096    0.828500
  H     -1.445646    1.992374    0.681978

 Total Charge           Charge          ....    0
 Multiplicity           Mult            ....    1
 Number of Electrons    NEL             ....   64
 Basis Dimension        Dim             ....  227

ORBITAL ENERGIES
----------------

  NO   OCC          E(Eh)            E(eV)
   0   2.0000     -18.946219      -515.5528
   1   2.0000     -10.117824      -275.3200
   2   2.0000     -10.036602      -273.1098
   3   2.0000     -10.036584      -273.1093
   4   2.0000     -10.018147      -272.6076
   5   2.0000     -10.018108      -272.6066
   6   2.0000     -10.014424      -272.5063
   7   2.0000     -10.014302      -272.5030
   8   2.0000      -1.016252       -27.6536
   9   2.0000      -0.774773       -21.0826
  10   2.0000      -0.753797       -20.5119
  11   2.0000      -0.652074       -17.7438
  12   2.0000      -0.647020       -17.6063
  13   2.0000      -0.618072       -16.8186
  14   2.0000      -0.544993       -14.8300
  15   2.0000      -0.484583       -13.1862
  16   2.0000      -0.459166       -12.4945
  17   2.0000      -0.423614       -11.5271
  18   2.0000      -0.414386       -11.2760
  19   2.0000      -0.401649       -10.9294
  20   2.0000      -0.396599       -10.7920
  21   2.0000      -0.364369        -9.9150
  22   2.0000      -0.358818        -9.7639
  23   2.0000      -0.350470        -9.5368
  24   2.0000      -0.348243        -9.4762
  25   2.0000      -0.331176        -9.0117
  26   2.0000      -0.327652        -8.9159
  27   2.0000      -0.308744        -8.4014
  28   2.0000      -0.304259        -8.2793
  29   2.0000      -0.301666        -8.2087
  30   2.0000      -0.290786        -7.9127
  31   2.0000      -0.217877        -5.9287
  32   0.0000      -0.053111        -1.4452
  33   0.0000       0.073245         1.9931
  34   0.0000       0.115749         3.1497
  35   0.0000       0.117916         3.2086
  36   0.0000       0.126715         3.4481

MULLIKEN ATOMIC CHARGES
-----------------------
   0 C :   -0.557404
   1 C :    0.009788
   2 C :   -0.548377
   3 C :    0.283962
   4 O :   -0.472760
   5 C :    0.010079
   6 C :   -0.548935
   7 C :   -0.557173
   8 H :    0.168622
   9 H :    0.174370
  10 H :    0.171279
  11 H :    0.174096
  12 H :    0.166754
  13 H :    0.168311
  14 H :    0.166844
  15 H :    0.174181
  16 H :    0.166733
  17 H :    0.166806
  18 H :    0.168503
  19 H :    0.174295
  20 H :    0.171404
  21 H :    0.168621
Sum of atomic charges:    0.0000000

LOEWDIN ATOMIC CHARGES
----------------------
   0 C :   -0.390735
   1 C :   -0.213800
   2 C :   -0.398045
   3 C :    0.256568
   4 O :   -0.542848
   5 C :   -0.213747
   6 C :   -0.398185
   7 C :   -0.390616
   8 H :    0.162187
   9 H :    0.163585
  10 H :    0.161998
  11 H :    0.171467
  12 H :    0.161344
  13 H :    0.164614
  14 H :    0.160468
  15 H :    0.171482
  16 H :    0.161319
  17 H :    0.160440
  18 H :    0.164687
  19 H :    0.163565
  20 H :    0.162040
  21 H :    0.162213

  Mayer bond orders larger than 0.100000
B(  0-C ,  1-C ) :   0.8657 B(  0-C ,  8-H ) :   0.9655 B(  0-C ,  9-H ) :   0.9780
B(  0-C , 10-H ) :   0.9677 B(  1-C ,  2-C ) :   0.8911 B(  1-C ,  3-C ) :   0.8793
B(  1-C , 11-H ) :   0.9493 B(  2-C , 12-H ) :   0.9726 B(  2-C , 13-H ) :   0.9783
B(  2-C , 14-H ) :   0.9713 B(  3-C ,  4-O ) :   1.8341 B(  3-C ,  5-C ) :   0.8789
B(  5-C ,  6-C ) :   0.8909 B(  5-C ,  7-C ) :   0.8654 B(  5-C , 15-H ) :   0.9493
B(  6-C , 16-H ) :   0.9726 B(  6-C , 17-H ) :   0.9714 B(  6-C , 18-H ) :   0.9784
B(  7-C , 19-H ) :   0.9780 B(  7-C , 20-H ) :   0.9676 B(  7-C , 21-H ) :   0.9655

Dispersion correction           -0.006371527
FINAL SINGLE POINT ENERGY      -350.306574278089

DIPOLE MOMENT
-------------

Method             : SCF
Type of density    : Electron Density
Multiplicity       :   1
Irrep              :   0
Energy             :  -350.3105428534948942 Eh
Relativity type    :
Basis              : AO
                                X                 Y                 Z
Electronic contribution:      0.074773361      -1.038052894      -2.422762012
Nuclear contribution   :     -0.079665198       1.276584034       4.039550387
                        -----------------------------------------
Total Dipole Moment    :     -0.004891837       0.238531140       1.616788375
                        -----------------------------------------
Magnitude (a.u.)       :      1.634296694
Magnitude (Debye)      :      4.154052067

Rotational constants in cm-1:             0.104055             0.045394             0.039116
Rotational constants in MHz :          3119.498170          1360.864813          1172.673893

                             ****ORCA TERMINATED NORMALLY****
TOTAL RUN TIME: 0 days 0 hours 0 minutes 39 seconds 755 msec
