                         Program Version 6.0.0  -   RELEASE  -
|  1> ! pbe def2-sv(p) def2/J RI DEFGRID1 loosescf d4 GCP(DFT/SV(P)) printgap
|  2> %output
|  3>     printlevel normal
|  4> end
|  5> * xyz 0 1
|  6> C -1.4415995554 0.3922310121 -0.2377012126
|  7> C -0.0097055483 0.37364935 0.3023118465
|  8> C 0.7946464108 -0.7506962352 -0.372450743
|  9> O 2.1005670366 -0.8747904608 0.1438251187
| 10> O 0.5507901058 1.6477682632 0.0498706905
| 11> O -2.0741254721 -0.8166233172 0.1093857812
| 12> H -1.4041257894 0.5240833125 -1.32663
| 13> H -1.9587024211 1.2539657544 0.2020553366
| 14> H -0.0487038143 0.1738671801 1.3810507506
| 15> H 0.8179760824 -0.5759447514 -1.4541400555
| 16> H 0.2883441128 -1.6966200742 -0.1732112997
| 17> H 2.6430918079 -0.1491321454 -0.1955513721
| 18> H 1.3126846461 1.7799227693 0.6302466527
| 19> H -2.9883506885 -0.798276911 -0.206485233
| 20> *
| 21>
| 22>                          ****END OF INPUT****

CARTESIAN COORDINATES (ANGSTROEM)
---------------------------------
  C     -1.441600    0.392231   -0.237701
  C     -0.009706    0.373649    0.302312
  C      0.794646   -0.750696   -0.372451
  O      2.100567   -0.874790    0.143825
  O      0.550790    1.647768    0.049871
  O     -2.074125   -0.816623    0.109386
  H     -1.404126    0.524083   -1.326630
  H     -1.958702    1.253966    0.202055
  H     -0.048704    0.173867    1.381051
  H      0.817976   -0.575945   -1.454140
  H      0.288344   -1.696620   -0.173211
  H      2.643092   -0.149132   -0.195551
  H      1.312685    1.779923    0.630247
  H     -2.988351   -0.798277   -0.206485

 Total Charge           Charge          ....    0
 Multiplicity           Mult            ....    1
 Number of Electrons    NEL             ....   50
 Basis Dimension        Dim             ....  100

ORBITAL ENERGIES
----------------

  NO   OCC          E(Eh)            E(eV)
   0   2.0000     -18.753504      -510.3088
   1   2.0000     -18.751136      -510.2443
   2   2.0000     -18.744051      -510.0515
   3   2.0000      -9.933676      -270.3091
   4   2.0000      -9.930285      -270.2168
   5   2.0000      -9.919952      -269.9356
   6   2.0000      -0.937015       -25.4975
   7   2.0000      -0.923738       -25.1362
   8   2.0000      -0.911685       -24.8082
   9   2.0000      -0.681699       -18.5500
  10   2.0000      -0.598767       -16.2933
  11   2.0000      -0.528179       -14.3725
  12   2.0000      -0.490121       -13.3369
  13   2.0000      -0.465869       -12.6769
  14   2.0000      -0.435669       -11.8551
  15   2.0000      -0.403732       -10.9861
  16   2.0000      -0.394801       -10.7431
  17   2.0000      -0.351570        -9.5667
  18   2.0000      -0.347818        -9.4646
  19   2.0000      -0.301541        -8.2054
  20   2.0000      -0.291299        -7.9266
  21   2.0000      -0.264087        -7.1862
  22   2.0000      -0.242888        -6.6093
  23   2.0000      -0.218887        -5.9562
  24   2.0000      -0.202304        -5.5050
  25   0.0000       0.006265         0.1705
  26   0.0000       0.027627         0.7518
  27   0.0000       0.056984         1.5506
  28   0.0000       0.081147         2.2081
  29   0.0000       0.101082         2.7506

MULLIKEN ATOMIC CHARGES
-----------------------
   0 C :    0.020996
   1 C :   -0.017658
   2 C :    0.028812
   3 O :   -0.434456
   4 O :   -0.431808
   5 O :   -0.434328
   6 H :    0.069159
   7 H :    0.079950
   8 H :    0.070830
   9 H :    0.063738
  10 H :    0.098379
  11 H :    0.285456
  12 H :    0.296253
  13 H :    0.304677
Sum of atomic charges:   -0.0000000

LOEWDIN ATOMIC CHARGES
----------------------
   0 C :   -0.125394
   1 C :   -0.089309
   2 C :   -0.140540
   3 O :   -0.340258
   4 O :   -0.331272
   5 O :   -0.341957
   6 H :    0.096401
   7 H :    0.099750
   8 H :    0.105958
   9 H :    0.097812
  10 H :    0.120296
  11 H :    0.275586
  12 H :    0.283352
  13 H :    0.289574

  Mayer bond orders larger than 0.100000
B(  0-C ,  1-C ) :   1.0481 B(  0-C ,  5-O ) :   1.0821 B(  0-C ,  6-H ) :   0.9092
B(  0-C ,  7-H ) :   0.9186 B(  1-C ,  2-C ) :   1.0340 B(  1-C ,  4-O ) :   1.0569
B(  1-C ,  8-H ) :   0.8975 B(  2-C ,  3-O ) :   1.0711 B(  2-C ,  9-H ) :   0.9159
B(  2-C , 10-H ) :   0.9116 B(  3-O , 11-H ) :   0.8513 B(  4-O , 12-H ) :   0.8470
B(  5-O , 13-H ) :   0.8502

Dispersion correction           -0.008995572
FINAL SINGLE POINT ENERGY      -344.005611813531

DIPOLE MOMENT
-------------

Method             : SCF
Type of density    : Electron Density
Multiplicity       :   1
Irrep              :   0
Energy             :  -344.0786444345822588 Eh
Relativity type    :
Basis              : AO
                                X                 Y                 Z
Electronic contribution:      0.997009705       0.048348900       0.855288280
Nuclear contribution   :     -1.246502608       0.479570047      -1.067516922
                        -----------------------------------------
Total Dipole Moment    :     -0.249492903       0.527918947      -0.212228642
                        -----------------------------------------
Magnitude (a.u.)       :      0.621277812
Magnitude (Debye)      :      1.579162700

Rotational constants in cm-1:             0.175707             0.079729             0.058718
Rotational constants in MHz :          5267.573279          2390.210923          1760.335356

                             ****ORCA TERMINATED NORMALLY****
TOTAL RUN TIME: 0 days 0 hours 0 minutes 6 seconds 747 msec
