                         Program Version 6.0.0  -   RELEASE  -
|  1> ! pbe def2-sv(p) def2/J RI DEFGRID1 loosescf d4 GCP(DFT/SV(P)) printgap
|  2> %output
|  3>     printlevel normal
|  4> end
|  5> * xyz 0 1
|  6> C -3.7431612666 -0.9811526639 -0.7636282133
|  7> C -3.0322785183 -0.2201804725 0.3431906345
|  8> O -1.6172022507 -0.4467644657 0.2471766885
|  9> C -0.7954280688 0.5964502826 0.1951342021
| 10> O -1.1747572563 1.7542089327 0.2491273784
| 11> C 0.6238066621 0.2027017112 0.0703402533
| 12> C 1.5921803147 1.2054706891 0.0496191043
| 13> C 2.9287469402 0.8748105441 -0.0650334
| 14> C 3.3059494584 -0.4560371385 -0.1607574525
| 15> C 2.345929567 -1.4566316397 -0.1421304234
| 16> C 1.0068564403 -1.1341047038 -0.0265266945
| 17> H -3.4258442865 -0.6159548794 -1.7368844339
| 18> H -3.5132750967 -2.0403581823 -0.6937290115
| 19> H -4.8142346723 -0.8395684508 -0.6629432139
| 20> H -3.3395614608 -0.5826269901 1.327881713
| 21> H -3.2181492478 0.8563283329 0.2764096243
| 22> H 1.2705297944 2.2333723907 0.1255175347
| 23> H 3.6755183961 1.6531453747 -0.0798262471
| 24> H 4.3499133998 -0.7136283789 -0.2505091793
| 25> H 2.6430986578 -2.4909043869 -0.2178389475
| 26> H 0.2522505434 -1.9038874781 -0.0104567455
| 27> *
| 28>
| 29>                          ****END OF INPUT****

CARTESIAN COORDINATES (ANGSTROEM)
---------------------------------
  C     -3.743161   -0.981153   -0.763628
  C     -3.032279   -0.220180    0.343191
  O     -1.617202   -0.446764    0.247177
  C     -0.795428    0.596450    0.195134
  O     -1.174757    1.754209    0.249127
  C      0.623807    0.202702    0.070340
  C      1.592180    1.205471    0.049619
  C      2.928747    0.874811   -0.065033
  C      3.305949   -0.456037   -0.160757
  C      2.345930   -1.456632   -0.142130
  C      1.006856   -1.134105   -0.026527
  H     -3.425844   -0.615955   -1.736884
  H     -3.513275   -2.040358   -0.693729
  H     -4.814235   -0.839568   -0.662943
  H     -3.339561   -0.582627    1.327882
  H     -3.218149    0.856328    0.276410
  H      1.270530    2.233372    0.125518
  H      3.675518    1.653145   -0.079826
  H      4.349913   -0.713628   -0.250509
  H      2.643099   -2.490904   -0.217839
  H      0.252251   -1.903887   -0.010457

 Total Charge           Charge          ....    0
 Multiplicity           Mult            ....    1
 Number of Electrons    NEL             ....   80
 Basis Dimension        Dim             ....  174

ORBITAL ENERGIES
----------------

  NO   OCC          E(Eh)            E(eV)
   0   2.0000     -18.799451      -511.5591
   1   2.0000     -18.732885      -509.7477
   2   2.0000     -10.006881      -272.3011
   3   2.0000      -9.945390      -270.6278
   4   2.0000      -9.908260      -269.6175
   5   2.0000      -9.903695      -269.4933
   6   2.0000      -9.901579      -269.4357
   7   2.0000      -9.900542      -269.4075
   8   2.0000      -9.900233      -269.3990
   9   2.0000      -9.899773      -269.3865
  10   2.0000      -9.889377      -269.1036
  11   2.0000      -1.004542       -27.3350
  12   2.0000      -0.908498       -24.7215
  13   2.0000      -0.785626       -21.3780
  14   2.0000      -0.713826       -19.4242
  15   2.0000      -0.682019       -18.5587
  16   2.0000      -0.677683       -18.4407
  17   2.0000      -0.604117       -16.4389
  18   2.0000      -0.556658       -15.1474
  19   2.0000      -0.544660       -14.8210
  20   2.0000      -0.505166       -13.7463
  21   2.0000      -0.490019       -13.3341
  22   2.0000      -0.442593       -12.0436
  23   2.0000      -0.433539       -11.7972
  24   2.0000      -0.416277       -11.3275
  25   2.0000      -0.402363       -10.9489
  26   2.0000      -0.388796       -10.5797
  27   2.0000      -0.386952       -10.5295
  28   2.0000      -0.382415       -10.4060
  29   2.0000      -0.361652        -9.8411
  30   2.0000      -0.354987        -9.6597
  31   2.0000      -0.337946        -9.1960
  32   2.0000      -0.327229        -8.9044
  33   2.0000      -0.315985        -8.5984
  34   2.0000      -0.308564        -8.3965
  35   2.0000      -0.290589        -7.9073
  36   2.0000      -0.255804        -6.9608
  37   2.0000      -0.238369        -6.4863
  38   2.0000      -0.236504        -6.4356
  39   2.0000      -0.222556        -6.0561
  40   0.0000      -0.074603        -2.0301
  41   0.0000      -0.041283        -1.1234
  42   0.0000       0.021894         0.5958
  43   0.0000       0.039803         1.0831
  44   0.0000       0.048624         1.3231

MULLIKEN ATOMIC CHARGES
-----------------------
   0 C :   -0.287640
   1 C :   -0.024258
   2 O :   -0.247021
   3 C :    0.159472
   4 O :   -0.195174
   5 C :    0.026923
   6 C :   -0.089130
   7 C :   -0.042786
   8 C :   -0.040096
   9 C :   -0.043155
  10 C :   -0.081736
  11 H :    0.115814
  12 H :    0.113959
  13 H :    0.112495
  14 H :    0.104464
  15 H :    0.119029
  16 H :    0.065898
  17 H :    0.059073
  18 H :    0.059987
  19 H :    0.056703
  20 H :    0.057179
Sum of atomic charges:    0.0000000

LOEWDIN ATOMIC CHARGES
----------------------
   0 C :   -0.351467
   1 C :   -0.112875
   2 O :   -0.064409
   3 C :    0.047634
   4 O :   -0.169012
   5 C :   -0.076648
   6 C :   -0.088170
   7 C :   -0.120583
   8 C :   -0.108458
   9 C :   -0.121808
  10 C :   -0.099838
  11 H :    0.127320
  12 H :    0.124558
  13 H :    0.130236
  14 H :    0.116978
  15 H :    0.122379
  16 H :    0.135602
  17 H :    0.126954
  18 H :    0.126029
  19 H :    0.125715
  20 H :    0.129861

  Mayer bond orders larger than 0.100000
B(  0-C ,  1-C ) :   1.1676 B(  0-C , 11-H ) :   0.9508 B(  0-C , 12-H ) :   0.9502
B(  0-C , 13-H ) :   0.9447 B(  1-C ,  2-O ) :   0.9110 B(  1-C , 14-H ) :   0.9351
B(  1-C , 15-H ) :   0.9039 B(  2-O ,  3-C ) :   1.2330 B(  3-C ,  4-O ) :   2.0648
B(  3-C ,  5-C ) :   0.9355 B(  5-C ,  6-C ) :   1.3905 B(  5-C , 10-C ) :   1.3656
B(  6-C ,  7-C ) :   1.3580 B(  6-C , 16-H ) :   0.9571 B(  7-C ,  8-C ) :   1.3664
B(  7-C , 17-H ) :   0.9670 B(  8-C ,  9-C ) :   1.3747 B(  8-C , 18-H ) :   0.9644
B(  9-C , 10-C ) :   1.3600 B(  9-C , 19-H ) :   0.9649 B( 10-C , 20-H ) :   0.9583

Dispersion correction           -0.020972486
FINAL SINGLE POINT ENERGY      -498.380222251802

DIPOLE MOMENT
-------------

Method             : SCF
Type of density    : Electron Density
Multiplicity       :   1
Irrep              :   0
Energy             :  -498.4469308971281407 Eh
Relativity type    :
Basis              : AO
                                X                 Y                 Z
Electronic contribution:      5.796332298       3.373180098       1.716008683
Nuclear contribution   :     -5.782731607      -4.149936723      -1.796166077
                        -----------------------------------------
Total Dipole Moment    :      0.013600691      -0.776756625      -0.080157393
                        -----------------------------------------
Magnitude (a.u.)       :      0.781000026
Magnitude (Debye)      :      1.985144305

Rotational constants in cm-1:             0.093169             0.020471             0.017273
Rotational constants in MHz :          2793.150288           613.701959           517.845009

                             ****ORCA TERMINATED NORMALLY****
TOTAL RUN TIME: 0 days 0 hours 0 minutes 17 seconds 641 msec
