                         Program Version 6.0.0  -   RELEASE  -
|  1> ! pbe def2-sv(p) def2/J RI DEFGRID1 loosescf d4 GCP(DFT/SV(P)) printgap
|  2> %output
|  3>     printlevel normal
|  4> end
|  5> * xyz 0 1
|  6> C -2.7705172121 -0.9317028996 0.7871624997
|  7> C -2.4076754478 -0.2542512438 -0.542381987
|  8> O -1.397401309 0.7354877018 -0.4091165065
|  9> C -0.104270645 0.3548782509 -0.1893388701
| 10> C 0.81448308 1.3995044959 -0.0722028434
| 11> C 2.1509014617 1.1332596048 0.1413928918
| 12> C 2.5955482798 -0.1763162832 0.2417346578
| 13> C 1.6872050332 -1.2117436619 0.1261111186
| 14> C 0.3418222106 -0.9576158187 -0.0866634589
| 15> H -2.14530412 -0.5300649668 1.5813157355
| 16> H -3.8072018871 -0.7412267644 1.0454214913
| 17> H -2.6188939468 -2.0061519532 0.7418469199
| 18> H -3.2572815562 0.3082771322 -0.9343251611
| 19> H -2.1048492973 -0.9885940812 -1.2973484587
| 20> H 0.4492662768 2.4112105619 -0.1550384695
| 21> H 2.8492769657 1.9514844075 0.2297987532
| 22> H 3.6405863678 -0.3846932523 0.4096915839
| 23> H 2.0215445789 -2.2353934509 0.2041787849
| 24> H -0.3429099136 -1.785668552 -0.1672550615
| 25> *
| 26>
| 27>                          ****END OF INPUT****

CARTESIAN COORDINATES (ANGSTROEM)
---------------------------------
  C     -2.770517   -0.931703    0.787162
  C     -2.407675   -0.254251   -0.542382
  O     -1.397401    0.735488   -0.409117
  C     -0.104271    0.354878   -0.189339
  C      0.814483    1.399504   -0.072203
  C      2.150901    1.133260    0.141393
  C      2.595548   -0.176316    0.241735
  C      1.687205   -1.211744    0.126111
  C      0.341822   -0.957616   -0.086663
  H     -2.145304   -0.530065    1.581316
  H     -3.807202   -0.741227    1.045421
  H     -2.618894   -2.006152    0.741847
  H     -3.257282    0.308277   -0.934325
  H     -2.104849   -0.988594   -1.297348
  H      0.449266    2.411211   -0.155038
  H      2.849277    1.951484    0.229799
  H      3.640586   -0.384693    0.409692
  H      2.021545   -2.235393    0.204179
  H     -0.342910   -1.785669   -0.167255

 Total Charge           Charge          ....    0
 Multiplicity           Mult            ....    1
 Number of Electrons    NEL             ....   66
 Basis Dimension        Dim             ....  146

ORBITAL ENERGIES
----------------

  NO   OCC          E(Eh)            E(eV)
   0   2.0000     -18.777683      -510.9667
   1   2.0000      -9.947167      -270.6762
   2   2.0000      -9.945386      -270.6277
   3   2.0000      -9.890750      -269.1410
   4   2.0000      -9.889153      -269.0975
   5   2.0000      -9.888186      -269.0712
   6   2.0000      -9.886106      -269.0146
   7   2.0000      -9.882984      -268.9297
   8   2.0000      -9.882419      -268.9143
   9   2.0000      -0.961496       -26.1636
  10   2.0000      -0.769673       -20.9439
  11   2.0000      -0.698054       -18.9950
  12   2.0000      -0.668185       -18.1822
  13   2.0000      -0.652194       -17.7471
  14   2.0000      -0.582871       -15.8607
  15   2.0000      -0.543694       -14.7947
  16   2.0000      -0.518082       -14.0977
  17   2.0000      -0.480922       -13.0865
  18   2.0000      -0.436768       -11.8851
  19   2.0000      -0.431507       -11.7419
  20   2.0000      -0.405104       -11.0234
  21   2.0000      -0.397358       -10.8127
  22   2.0000      -0.381757       -10.3881
  23   2.0000      -0.370891       -10.0924
  24   2.0000      -0.351630        -9.5683
  25   2.0000      -0.338231        -9.2037
  26   2.0000      -0.330596        -8.9960
  27   2.0000      -0.316455        -8.6112
  28   2.0000      -0.301708        -8.2099
  29   2.0000      -0.277405        -7.5486
  30   2.0000      -0.271543        -7.3891
  31   2.0000      -0.226439        -6.1617
  32   2.0000      -0.190196        -5.1755
  33   0.0000      -0.031214        -0.8494
  34   0.0000      -0.017047        -0.4639
  35   0.0000       0.034730         0.9450
  36   0.0000       0.053188         1.4473
  37   0.0000       0.062990         1.7140

MULLIKEN ATOMIC CHARGES
-----------------------
   0 C :   -0.321620
   1 C :   -0.014955
   2 O :   -0.270969
   3 C :    0.262536
   4 C :   -0.113661
   5 C :   -0.054452
   6 C :   -0.048809
   7 C :   -0.055085
   8 C :   -0.184165
   9 H :    0.136138
  10 H :    0.113419
  11 H :    0.114788
  12 H :    0.103923
  13 H :    0.098898
  14 H :    0.043852
  15 H :    0.052874
  16 H :    0.047119
  17 H :    0.050153
  18 H :    0.040014
Sum of atomic charges:   -0.0000000

LOEWDIN ATOMIC CHARGES
----------------------
   0 C :   -0.367805
   1 C :   -0.111803
   2 O :   -0.088230
   3 C :    0.032568
   4 C :   -0.143290
   5 C :   -0.117192
   6 C :   -0.148455
   7 C :   -0.116185
   8 C :   -0.175173
   9 H :    0.136817
  10 H :    0.127226
  11 H :    0.123746
  12 H :    0.118884
  13 H :    0.106291
  14 H :    0.128786
  15 H :    0.123833
  16 H :    0.121561
  17 H :    0.122886
  18 H :    0.125535

  Mayer bond orders larger than 0.100000
B(  0-C ,  1-C ) :   1.1152 B(  0-C ,  9-H ) :   0.9540 B(  0-C , 10-H ) :   0.9534
B(  0-C , 11-H ) :   0.9506 B(  1-C ,  2-O ) :   0.9889 B(  1-C , 12-H ) :   0.9455
B(  1-C , 13-H ) :   0.9295 B(  2-O ,  3-C ) :   1.1277 B(  3-C ,  4-C ) :   1.3554
B(  3-C ,  8-C ) :   1.3072 B(  4-C ,  5-C ) :   1.3917 B(  4-C , 14-H ) :   0.9627
B(  5-C ,  6-C ) :   1.3515 B(  5-C , 15-H ) :   0.9648 B(  6-C ,  7-C ) :   1.3938
B(  6-C , 16-H ) :   0.9675 B(  7-C ,  8-C ) :   1.3597 B(  7-C , 17-H ) :   0.9612
B(  8-C , 18-H ) :   0.9588

Dispersion correction           -0.018478973
FINAL SINGLE POINT ENERGY      -385.224114281301

DIPOLE MOMENT
-------------

Method             : SCF
Type of density    : Electron Density
Multiplicity       :   1
Irrep              :   0
Energy             :  -385.2839303081352682 Eh
Relativity type    :
Basis              : AO
                                X                 Y                 Z
Electronic contribution:      4.593756388       3.338992574      -1.516729864
Nuclear contribution   :     -5.007795485      -3.742545085       1.549689040
                        -----------------------------------------
Total Dipole Moment    :     -0.414039097      -0.403552511       0.032959176
                        -----------------------------------------
Magnitude (a.u.)       :      0.579110793
Magnitude (Debye)      :      1.471982654

Rotational constants in cm-1:             0.129337             0.036245             0.030245
Rotational constants in MHz :          3877.412563          1086.605161           906.715541

                             ****ORCA TERMINATED NORMALLY****
TOTAL RUN TIME: 0 days 0 hours 0 minutes 10 seconds 359 msec
