                         Program Version 6.0.0  -   RELEASE  -
|  1> ! pbe def2-sv(p) def2/J RI DEFGRID1 loosescf d4 GCP(DFT/SV(P)) printgap
|  2> %output
|  3>     printlevel normal
|  4> end
|  5> * xyz 0 1
|  6> C 1.6977001022 1.2750255708 -0.1235331288
|  7> C 1.4434144679 -0.2106327681 0.1236315154
|  8> C 1.4510306081 -0.9975302153 -1.1854180877
|  9> C 0.1619587014 -0.450023328 0.9323882673
| 10> C -1.1620707804 -0.0381475748 0.3432052841
| 11> O -2.2107073261 -0.2134897558 0.935877168
| 12> O -1.1288905157 0.5248396037 -0.8492030462
| 13> H 2.6676883773 1.411802645 -0.5944636924
| 14> H 1.6914579589 1.8252213777 0.8145330825
| 15> H 0.93787127 1.6922312607 -0.777061466
| 16> H 2.2615464511 -0.5905605963 0.7469477611
| 17> H 1.2690241393 -2.053366 -0.9979007966
| 18> H 0.6868693162 -0.6271110226 -1.8620267935
| 19> H 2.4176911132 -0.8977621174 -1.6723246994
| 20> H 0.2309908179 0.0659289266 1.8941058645
| 21> H 0.0646168578 -1.5142712972 1.1639818342
| 22> H -2.0207395795 0.7661916334 -1.1674362573
| 23> *
| 24>
| 25>                          ****END OF INPUT****

CARTESIAN COORDINATES (ANGSTROEM)
---------------------------------
  C      1.697700    1.275026   -0.123533
  C      1.443414   -0.210633    0.123632
  C      1.451031   -0.997530   -1.185418
  C      0.161959   -0.450023    0.932388
  C     -1.162071   -0.038148    0.343205
  O     -2.210707   -0.213490    0.935877
  O     -1.128891    0.524840   -0.849203
  H      2.667688    1.411803   -0.594464
  H      1.691458    1.825221    0.814533
  H      0.937871    1.692231   -0.777061
  H      2.261546   -0.590561    0.746948
  H      1.269024   -2.053366   -0.997901
  H      0.686869   -0.627111   -1.862027
  H      2.417691   -0.897762   -1.672325
  H      0.230991    0.065929    1.894106
  H      0.064617   -1.514271    1.163982
  H     -2.020740    0.766192   -1.167436

 Total Charge           Charge          ....    0
 Multiplicity           Mult            ....    1
 Number of Electrons    NEL             ....   56
 Basis Dimension        Dim             ....  118

ORBITAL ENERGIES
----------------

  NO   OCC          E(Eh)            E(eV)
   0   2.0000     -18.806252      -511.7441
   1   2.0000     -18.731952      -509.7223
   2   2.0000     -10.015706      -272.5412
   3   2.0000      -9.903462      -269.4869
   4   2.0000      -9.901671      -269.4382
   5   2.0000      -9.873548      -268.6729
   6   2.0000      -9.873438      -268.6699
   7   2.0000      -1.014569       -27.6078
   8   2.0000      -0.908150       -24.7120
   9   2.0000      -0.738477       -20.0950
  10   2.0000      -0.653809       -17.7910
  11   2.0000      -0.612337       -16.6625
  12   2.0000      -0.579210       -15.7611
  13   2.0000      -0.512274       -13.9397
  14   2.0000      -0.432383       -11.7658
  15   2.0000      -0.428412       -11.6577
  16   2.0000      -0.418058       -11.3759
  17   2.0000      -0.395570       -10.7640
  18   2.0000      -0.378071       -10.2878
  19   2.0000      -0.376146       -10.2354
  20   2.0000      -0.342338        -9.3155
  21   2.0000      -0.336792        -9.1646
  22   2.0000      -0.325862        -8.8672
  23   2.0000      -0.296454        -8.0669
  24   2.0000      -0.294714        -8.0196
  25   2.0000      -0.283212        -7.7066
  26   2.0000      -0.268482        -7.3058
  27   2.0000      -0.218495        -5.9455
  28   0.0000      -0.023953        -0.6518
  29   0.0000       0.016272         0.4428
  30   0.0000       0.038888         1.0582
  31   0.0000       0.083561         2.2738
  32   0.0000       0.085956         2.3390

MULLIKEN ATOMIC CHARGES
-----------------------
   0 C :   -0.257712
   1 C :   -0.150886
   2 C :   -0.257895
   3 C :   -0.177212
   4 C :    0.085661
   5 O :   -0.205600
   6 O :   -0.274799
   7 H :    0.097866
   8 H :    0.094116
   9 H :    0.111826
  10 H :    0.070509
  11 H :    0.094255
  12 H :    0.111781
  13 H :    0.097917
  14 H :    0.123047
  15 H :    0.122752
  16 H :    0.314375
Sum of atomic charges:   -0.0000000

LOEWDIN ATOMIC CHARGES
----------------------
   0 C :   -0.337386
   1 C :   -0.157172
   2 C :   -0.337383
   3 C :   -0.240075
   4 C :    0.026861
   5 O :   -0.179904
   6 O :   -0.188963
   7 H :    0.118336
   8 H :    0.115286
   9 H :    0.119161
  10 H :    0.119230
  11 H :    0.115342
  12 H :    0.119125
  13 H :    0.118379
  14 H :    0.145732
  15 H :    0.145586
  16 H :    0.297845

  Mayer bond orders larger than 0.100000
B(  0-C ,  1-C ) :   1.1039 B(  0-C ,  7-H ) :   0.9505 B(  0-C ,  8-H ) :   0.9515
B(  0-C ,  9-H ) :   0.9432 B(  1-C ,  2-C ) :   1.1042 B(  1-C ,  3-C ) :   1.0620
B(  1-C , 10-H ) :   0.8929 B(  2-C , 11-H ) :   0.9514 B(  2-C , 12-H ) :   0.9431
B(  2-C , 13-H ) :   0.9506 B(  3-C ,  4-C ) :   1.0137 B(  3-C , 14-H ) :   0.9025
B(  3-C , 15-H ) :   0.9029 B(  4-C ,  5-O ) :   2.0778 B(  4-C ,  6-O ) :   1.2600
B(  6-O , 16-H ) :   0.8155

Dispersion correction           -0.013445579
FINAL SINGLE POINT ENERGY      -346.242073623483

DIPOLE MOMENT
-------------

Method             : SCF
Type of density    : Electron Density
Multiplicity       :   1
Irrep              :   0
Energy             :  -346.3076757572797533 Eh
Relativity type    :
Basis              : AO
                                X                 Y                 Z
Electronic contribution:     -9.090660705       0.098122687       1.837846421
Nuclear contribution   :      9.526374912       0.078079126      -2.298768038
                        -----------------------------------------
Total Dipole Moment    :      0.435714207       0.176201814      -0.460921617
                        -----------------------------------------
Magnitude (a.u.)       :      0.658287693
Magnitude (Debye)      :      1.673234341

Rotational constants in cm-1:             0.146322             0.056980             0.056241
Rotational constants in MHz :          4386.608538          1708.229764          1686.050018

                             ****ORCA TERMINATED NORMALLY****
TOTAL RUN TIME: 0 days 0 hours 0 minutes 9 seconds 463 msec
