                         Program Version 6.0.0  -   RELEASE  -
|  1> ! pbe def2-sv(p) def2/J RI DEFGRID1 loosescf d4 GCP(DFT/SV(P)) printgap
|  2> %output
|  3>     printlevel normal
|  4> end
|  5> * xyz 0 1
|  6> C -2.4331236255 -0.292541071 -0.8806674032
|  7> C -1.7272487415 0.7454576008 -0.0147277487
|  8> C -0.5788384843 0.1969479044 0.8367085457
|  9> C 0.7807641824 -0.0761179777 0.1576287912
| 10> C 1.2847875107 1.1404844842 -0.6200608677
| 11> C 0.763589282 -1.3124310705 -0.7474293676
| 12> O 1.7434643785 -0.2804432214 1.1993412524
| 13> H -3.3281674198 0.1419869699 -1.3203159825
| 14> H -2.7298808491 -1.1506625317 -0.2819650811
| 15> H -1.7981873312 -0.6405643019 -1.6888569332
| 16> H -1.3719348946 1.5654387643 -0.6384363656
| 17> H -2.4642399325 1.1625691076 0.6762182243
| 18> H -0.3715917261 0.9234307459 1.6279687463
| 19> H -0.9132645851 -0.7252648896 1.3208342608
| 20> H 0.686659202 1.3075520755 -1.5092124306
| 21> H 2.3164961005 0.9669734284 -0.9146083109
| 22> H 1.2537113439 2.0239074485 0.0119656222
| 23> H 1.7890854802 -1.6043741747 -0.9651314463
| 24> H 0.264370318 -1.0995477657 -1.686127002
| 25> H 0.2588324005 -2.1437442186 -0.2605246913
| 26> H 1.4943955586 -1.0641377699 1.7069593224
| 27> *
| 28>
| 29>                          ****END OF INPUT****

CARTESIAN COORDINATES (ANGSTROEM)
---------------------------------
  C     -2.433124   -0.292541   -0.880667
  C     -1.727249    0.745458   -0.014728
  C     -0.578838    0.196948    0.836709
  C      0.780764   -0.076118    0.157629
  C      1.284788    1.140484   -0.620061
  C      0.763589   -1.312431   -0.747429
  O      1.743464   -0.280443    1.199341
  H     -3.328167    0.141987   -1.320316
  H     -2.729881   -1.150663   -0.281965
  H     -1.798187   -0.640564   -1.688857
  H     -1.371935    1.565439   -0.638436
  H     -2.464240    1.162569    0.676218
  H     -0.371592    0.923431    1.627969
  H     -0.913265   -0.725265    1.320834
  H      0.686659    1.307552   -1.509212
  H      2.316496    0.966973   -0.914608
  H      1.253711    2.023907    0.011966
  H      1.789085   -1.604374   -0.965131
  H      0.264370   -1.099548   -1.686127
  H      0.258832   -2.143744   -0.260525
  H      1.494396   -1.064138    1.706959

 Total Charge           Charge          ....    0
 Multiplicity           Mult            ....    1
 Number of Electrons    NEL             ....   58
 Basis Dimension        Dim             ....  126

ORBITAL ENERGIES
----------------

  NO   OCC          E(Eh)            E(eV)
   0   2.0000     -18.732747      -509.7440
   1   2.0000      -9.944399      -270.6008
   2   2.0000      -9.885292      -268.9925
   3   2.0000      -9.879966      -268.8475
   4   2.0000      -9.873992      -268.6850
   5   2.0000      -9.872365      -268.6407
   6   2.0000      -9.869024      -268.5498
   7   2.0000      -0.911620       -24.8064
   8   2.0000      -0.722171       -19.6513
   9   2.0000      -0.677799       -18.4438
  10   2.0000      -0.618144       -16.8206
  11   2.0000      -0.610626       -16.6160
  12   2.0000      -0.535223       -14.5641
  13   2.0000      -0.497170       -13.5287
  14   2.0000      -0.442322       -12.0362
  15   2.0000      -0.415114       -11.2958
  16   2.0000      -0.395736       -10.7685
  17   2.0000      -0.387878       -10.5547
  18   2.0000      -0.371725       -10.1152
  19   2.0000      -0.354854        -9.6561
  20   2.0000      -0.338925        -9.2226
  21   2.0000      -0.335689        -9.1346
  22   2.0000      -0.318515        -8.6672
  23   2.0000      -0.313744        -8.5374
  24   2.0000      -0.301065        -8.1924
  25   2.0000      -0.288680        -7.8554
  26   2.0000      -0.277763        -7.5583
  27   2.0000      -0.260724        -7.0947
  28   2.0000      -0.207938        -5.6583
  29   0.0000       0.024625         0.6701
  30   0.0000       0.047454         1.2913
  31   0.0000       0.059920         1.6305
  32   0.0000       0.072682         1.9778
  33   0.0000       0.081071         2.2060

MULLIKEN ATOMIC CHARGES
-----------------------
   0 C :   -0.281914
   1 C :   -0.176244
   2 C :   -0.128485
   3 C :   -0.051547
   4 C :   -0.221035
   5 C :   -0.224728
   6 O :   -0.423415
   7 H :    0.101587
   8 H :    0.094684
   9 H :    0.105073
  10 H :    0.090493
  11 H :    0.083488
  12 H :    0.085114
  13 H :    0.060102
  14 H :    0.103112
  15 H :    0.103298
  16 H :    0.100651
  17 H :    0.102466
  18 H :    0.104651
  19 H :    0.083663
  20 H :    0.288985
Sum of atomic charges:    0.0000000

LOEWDIN ATOMIC CHARGES
----------------------
   0 C :   -0.343563
   1 C :   -0.235118
   2 C :   -0.230699
   3 C :   -0.011893
   4 C :   -0.327067
   5 C :   -0.340853
   6 O :   -0.324809
   7 H :    0.119499
   8 H :    0.116227
   9 H :    0.115009
  10 H :    0.117088
  11 H :    0.119190
  12 H :    0.119742
  13 H :    0.106618
  14 H :    0.119468
  15 H :    0.125457
  16 H :    0.122557
  17 H :    0.122422
  18 H :    0.120127
  19 H :    0.112658
  20 H :    0.277941

  Mayer bond orders larger than 0.100000
B(  0-C ,  1-C ) :   1.1610 B(  0-C ,  7-H ) :   0.9491 B(  0-C ,  8-H ) :   0.9528
B(  0-C ,  9-H ) :   0.9457 B(  1-C ,  2-C ) :   1.1085 B(  1-C , 10-H ) :   0.9189
B(  1-C , 11-H ) :   0.9191 B(  2-C ,  3-C ) :   1.0566 B(  2-C , 12-H ) :   0.9058
B(  2-C , 13-H ) :   0.9082 B(  3-C ,  4-C ) :   1.0813 B(  3-C ,  5-C ) :   1.0912
B(  3-C ,  6-O ) :   1.0111 B(  4-C , 14-H ) :   0.9370 B(  4-C , 15-H ) :   0.9402
B(  4-C , 16-H ) :   0.9430 B(  5-C , 17-H ) :   0.9382 B(  5-C , 18-H ) :   0.9269
B(  5-C , 19-H ) :   0.9389 B(  6-O , 20-H ) :   0.8559

Dispersion correction           -0.017146153
FINAL SINGLE POINT ENERGY      -311.517880970617

DIPOLE MOMENT
-------------

Method             : SCF
Type of density    : Electron Density
Multiplicity       :   1
Irrep              :   0
Energy             :  -311.5968203843274864 Eh
Relativity type    :
Basis              : AO
                                X                 Y                 Z
Electronic contribution:      4.133626612       0.013094060       3.588629966
Nuclear contribution   :     -4.583995185      -0.319795029      -3.660957833
                        -----------------------------------------
Total Dipole Moment    :     -0.450368573      -0.306700969      -0.072327868
                        -----------------------------------------
Magnitude (a.u.)       :      0.549662311
Magnitude (Debye)      :      1.397130564

Rotational constants in cm-1:             0.128644             0.054933             0.052575
Rotational constants in MHz :          3856.659013          1646.861540          1576.168340

                             ****ORCA TERMINATED NORMALLY****
TOTAL RUN TIME: 0 days 0 hours 0 minutes 9 seconds 487 msec
