                         Program Version 6.0.0  -   RELEASE  -
|  1> ! r2scan-3c def2/J RI DEFGRID2 scfconv6 printgap
|  2> %output
|  3>     printlevel normal
|  4> end
|  5> * xyz 0 1
|  6> C -2.9864079849 0.0630560352 0.8693824802
|  7> C -2.341552867 0.3133358715 -0.4892808552
|  8> C -1.1221760055 -0.5731726732 -0.7512412765
|  9> C 0.0803592516 -0.2607333595 0.1369321379
| 10> C 1.2513222761 -1.2207552571 -0.0997789267
| 11> C 2.4487805996 -0.4542417478 0.4490202218
| 12> C 2.2126744989 0.9692013784 -0.0592437452
| 13> C 0.6828518907 1.1380074712 -0.1020985899
| 14> H -2.3143884633 0.3378092388 1.6780096629
| 15> H -3.8939405746 0.6537265624 0.9694414981
| 16> H -3.2462674941 -0.9875533356 0.979125565
| 17> H -3.0815044671 0.1180522179 -1.2691567531
| 18> H -2.0522677369 1.3630005712 -0.5651387974
| 19> H -1.4065668536 -1.6180923538 -0.6024243822
| 20> H -0.82249254 -0.4591337695 -1.7964043254
| 21> H -0.2199189212 -0.3469660192 1.1847682249
| 22> H 1.1036987676 -2.182868939 0.3888958932
| 23> H 1.3788828638 -1.3921767002 -1.1703808172
| 24> H 2.4292469052 -0.4730473651 1.5399665957
| 25> H 3.4018265486 -0.861850001 0.1150059908
| 26> H 2.6893521199 1.7132535161 0.5774705986
| 27> H 2.6288612618 1.0720600399 -1.0620233726
| 28> H 0.342871009 1.8411571466 0.6575283963
| 29> H 0.371165685 1.5241528539 -1.0728315735
| 30> *
| 31>
| 32>                          ****END OF INPUT****

CARTESIAN COORDINATES (ANGSTROEM)
---------------------------------
  C     -2.986408    0.063056    0.869382
  C     -2.341553    0.313336   -0.489281
  C     -1.122176   -0.573173   -0.751241
  C      0.080359   -0.260733    0.136932
  C      1.251322   -1.220755   -0.099779
  C      2.448781   -0.454242    0.449020
  C      2.212674    0.969201   -0.059244
  C      0.682852    1.138007   -0.102099
  H     -2.314388    0.337809    1.678010
  H     -3.893941    0.653727    0.969441
  H     -3.246267   -0.987553    0.979126
  H     -3.081504    0.118052   -1.269157
  H     -2.052268    1.363001   -0.565139
  H     -1.406567   -1.618092   -0.602424
  H     -0.822493   -0.459134   -1.796404
  H     -0.219919   -0.346966    1.184768
  H      1.103699   -2.182869    0.388896
  H      1.378883   -1.392177   -1.170381
  H      2.429247   -0.473047    1.539967
  H      3.401827   -0.861850    0.115006
  H      2.689352    1.713254    0.577471
  H      2.628861    1.072060   -1.062023
  H      0.342871    1.841157    0.657528
  H      0.371166    1.524153   -1.072832

 Total Charge           Charge          ....    0
 Multiplicity           Mult            ....    1
 Number of Electrons    NEL             ....   64
 Basis Dimension        Dim             ....  232

ORBITAL ENERGIES
----------------

  NO   OCC          E(Eh)            E(eV)
   0   2.0000     -10.023464      -272.7523
   1   2.0000     -10.020407      -272.6691
   2   2.0000     -10.018001      -272.6037
   3   2.0000     -10.017980      -272.6031
   4   2.0000     -10.017766      -272.5973
   5   2.0000     -10.016463      -272.5618
   6   2.0000     -10.016318      -272.5579
   7   2.0000     -10.012921      -272.4654
   8   2.0000      -0.805047       -21.9065
   9   2.0000      -0.749234       -20.3877
  10   2.0000      -0.685271       -18.6472
  11   2.0000      -0.670799       -18.2534
  12   2.0000      -0.622017       -16.9259
  13   2.0000      -0.553042       -15.0490
  14   2.0000      -0.532890       -14.5007
  15   2.0000      -0.505380       -13.7521
  16   2.0000      -0.452324       -12.3084
  17   2.0000      -0.440075       -11.9751
  18   2.0000      -0.411615       -11.2006
  19   2.0000      -0.399506       -10.8711
  20   2.0000      -0.380952       -10.3662
  21   2.0000      -0.367139        -9.9904
  22   2.0000      -0.365649        -9.9498
  23   2.0000      -0.328816        -8.9475
  24   2.0000      -0.311618        -8.4796
  25   2.0000      -0.304330        -8.2812
  26   2.0000      -0.301063        -8.1923
  27   2.0000      -0.300108        -8.1663
  28   2.0000      -0.287652        -7.8274
  29   2.0000      -0.277882        -7.5616
  30   2.0000      -0.272245        -7.4082
  31   2.0000      -0.270943        -7.3727
  32   0.0000       0.081293         2.2121
  33   0.0000       0.088650         2.4123
  34   0.0000       0.104347         2.8394
  35   0.0000       0.118295         3.2190
  36   0.0000       0.126056         3.4302

MULLIKEN ATOMIC CHARGES
-----------------------
   0 C :   -0.494027
   1 C :   -0.217167
   2 C :   -0.320664
   3 C :   -0.011128
   4 C :   -0.360842
   5 C :   -0.256605
   6 C :   -0.302762
   7 C :   -0.438427
   8 H :    0.147793
   9 H :    0.145876
  10 H :    0.144862
  11 H :    0.142124
  12 H :    0.139608
  13 H :    0.144417
  14 H :    0.146264
  15 H :    0.161420
  16 H :    0.153641
  17 H :    0.155664
  18 H :    0.145421
  19 H :    0.149716
  20 H :    0.148935
  21 H :    0.149885
  22 H :    0.160469
  23 H :    0.165526
Sum of atomic charges:    0.0000000

LOEWDIN ATOMIC CHARGES
----------------------
   0 C :   -0.426812
   1 C :   -0.314655
   2 C :   -0.301967
   3 C :   -0.227764
   4 C :   -0.296370
   5 C :   -0.303125
   6 C :   -0.304173
   7 C :   -0.304102
   8 H :    0.147632
   9 H :    0.150245
  10 H :    0.150006
  11 H :    0.150956
  12 H :    0.153668
  13 H :    0.157112
  14 H :    0.156894
  15 H :    0.159891
  16 H :    0.157880
  17 H :    0.158437
  18 H :    0.154586
  19 H :    0.154670
  20 H :    0.155090
  21 H :    0.154827
  22 H :    0.157860
  23 H :    0.159214

  Mayer bond orders larger than 0.100000
B(  0-C ,  1-C ) :   0.8993 B(  0-C ,  8-H ) :   0.9832 B(  0-C ,  9-H ) :   0.9711
B(  0-C , 10-H ) :   0.9822 B(  1-C ,  2-C ) :   0.9019 B(  1-C , 11-H ) :   0.9695
B(  1-C , 12-H ) :   0.9715 B(  2-C ,  3-C ) :   0.8889 B(  2-C , 13-H ) :   0.9921
B(  2-C , 14-H ) :   0.9789 B(  3-C ,  4-C ) :   0.8939 B(  3-C ,  7-C ) :   0.8934
B(  3-C , 15-H ) :   0.9596 B(  4-C ,  5-C ) :   0.8810 B(  4-C , 16-H ) :   0.9560
B(  4-C , 17-H ) :   1.0173 B(  5-C ,  6-C ) :   0.9162 B(  5-C , 18-H ) :   0.9820
B(  5-C , 19-H ) :   0.9595 B(  6-C ,  7-C ) :   0.9146 B(  6-C , 20-H ) :   0.9664
B(  6-C , 21-H ) :   0.9870 B(  7-C , 22-H ) :   0.9752 B(  7-C , 23-H ) :   1.0015

Dispersion correction           -0.007019197
FINAL SINGLE POINT ENERGY      -314.382261242722

DIPOLE MOMENT
-------------

Method             : SCF
Type of density    : Electron Density
Multiplicity       :   1
Irrep              :   0
Energy             :  -314.3854416319613279 Eh
Relativity type    :
Basis              : AO
                                X                 Y                 Z
Electronic contribution:      2.515489236      -0.285775135      -0.516338346
Nuclear contribution   :     -2.525011305       0.282878357       0.517727529
                        -----------------------------------------
Total Dipole Moment    :     -0.009522068      -0.002896778       0.001389182
                        -----------------------------------------
Magnitude (a.u.)       :      0.010049424
Magnitude (Debye)      :      0.025543607

Rotational constants in cm-1:             0.143345             0.036103             0.033465
Rotational constants in MHz :          4297.364061          1082.342905          1003.245431

                             ****ORCA TERMINATED NORMALLY****
TOTAL RUN TIME: 0 days 0 hours 0 minutes 25 seconds 59 msec
