                         Program Version 6.0.0  -   RELEASE  -
|  1> ! r2scan-3c def2/J RI DEFGRID2 scfconv6 printgap
|  2> %output
|  3>     printlevel normal
|  4> end
|  5> %cpcm
|  6>     smd true
|  7>     smdsolvent "water"
|  8> end
|  9> * xyz 0 1
| 10> C -2.9864079849 0.0630560352 0.8693824802
| 11> C -2.341552867 0.3133358715 -0.4892808552
| 12> C -1.1221760055 -0.5731726732 -0.7512412765
| 13> C 0.0803592516 -0.2607333595 0.1369321379
| 14> C 1.2513222761 -1.2207552571 -0.0997789267
| 15> C 2.4487805996 -0.4542417478 0.4490202218
| 16> C 2.2126744989 0.9692013784 -0.0592437452
| 17> C 0.6828518907 1.1380074712 -0.1020985899
| 18> H -2.3143884633 0.3378092388 1.6780096629
| 19> H -3.8939405746 0.6537265624 0.9694414981
| 20> H -3.2462674941 -0.9875533356 0.979125565
| 21> H -3.0815044671 0.1180522179 -1.2691567531
| 22> H -2.0522677369 1.3630005712 -0.5651387974
| 23> H -1.4065668536 -1.6180923538 -0.6024243822
| 24> H -0.82249254 -0.4591337695 -1.7964043254
| 25> H -0.2199189212 -0.3469660192 1.1847682249
| 26> H 1.1036987676 -2.182868939 0.3888958932
| 27> H 1.3788828638 -1.3921767002 -1.1703808172
| 28> H 2.4292469052 -0.4730473651 1.5399665957
| 29> H 3.4018265486 -0.861850001 0.1150059908
| 30> H 2.6893521199 1.7132535161 0.5774705986
| 31> H 2.6288612618 1.0720600399 -1.0620233726
| 32> H 0.342871009 1.8411571466 0.6575283963
| 33> H 0.371165685 1.5241528539 -1.0728315735
| 34> *
| 35>
| 36>                          ****END OF INPUT****

CARTESIAN COORDINATES (ANGSTROEM)
---------------------------------
  C     -2.986408    0.063056    0.869382
  C     -2.341553    0.313336   -0.489281
  C     -1.122176   -0.573173   -0.751241
  C      0.080359   -0.260733    0.136932
  C      1.251322   -1.220755   -0.099779
  C      2.448781   -0.454242    0.449020
  C      2.212674    0.969201   -0.059244
  C      0.682852    1.138007   -0.102099
  H     -2.314388    0.337809    1.678010
  H     -3.893941    0.653727    0.969441
  H     -3.246267   -0.987553    0.979126
  H     -3.081504    0.118052   -1.269157
  H     -2.052268    1.363001   -0.565139
  H     -1.406567   -1.618092   -0.602424
  H     -0.822493   -0.459134   -1.796404
  H     -0.219919   -0.346966    1.184768
  H      1.103699   -2.182869    0.388896
  H      1.378883   -1.392177   -1.170381
  H      2.429247   -0.473047    1.539967
  H      3.401827   -0.861850    0.115006
  H      2.689352    1.713254    0.577471
  H      2.628861    1.072060   -1.062023
  H      0.342871    1.841157    0.657528
  H      0.371166    1.524153   -1.072832

 Total Charge           Charge          ....    0
 Multiplicity           Mult            ....    1
 Number of Electrons    NEL             ....   64
 Basis Dimension        Dim             ....  232

ORBITAL ENERGIES
----------------

  NO   OCC          E(Eh)            E(eV)
   0   2.0000     -10.016024      -272.5499
   1   2.0000     -10.013868      -272.4912
   2   2.0000     -10.011379      -272.4235
   3   2.0000     -10.011251      -272.4200
   4   2.0000     -10.010783      -272.4072
   5   2.0000     -10.009450      -272.3710
   6   2.0000     -10.009103      -272.3615
   7   2.0000     -10.006029      -272.2779
   8   2.0000      -0.798185       -21.7197
   9   2.0000      -0.742705       -20.2100
  10   2.0000      -0.678747       -18.4696
  11   2.0000      -0.664255       -18.0753
  12   2.0000      -0.615532       -16.7495
  13   2.0000      -0.546671       -14.8757
  14   2.0000      -0.526415       -14.3245
  15   2.0000      -0.498531       -13.5657
  16   2.0000      -0.445433       -12.1208
  17   2.0000      -0.433473       -11.7954
  18   2.0000      -0.404841       -11.0163
  19   2.0000      -0.392916       -10.6918
  20   2.0000      -0.373857       -10.1732
  21   2.0000      -0.360538        -9.8107
  22   2.0000      -0.358713        -9.7611
  23   2.0000      -0.322113        -8.7651
  24   2.0000      -0.305029        -8.3003
  25   2.0000      -0.297543        -8.0966
  26   2.0000      -0.294662        -8.0182
  27   2.0000      -0.293610        -7.9895
  28   2.0000      -0.280520        -7.6334
  29   2.0000      -0.270878        -7.3710
  30   2.0000      -0.265191        -7.2162
  31   2.0000      -0.263837        -7.1794
  32   0.0000       0.089387         2.4323
  33   0.0000       0.095778         2.6062
  34   0.0000       0.111595         3.0367
  35   0.0000       0.123952         3.3729
  36   0.0000       0.131177         3.5695

MULLIKEN ATOMIC CHARGES
-----------------------
   0 C :   -0.530928
   1 C :   -0.233266
   2 C :   -0.333580
   3 C :   -0.006736
   4 C :   -0.379085
   5 C :   -0.278717
   6 C :   -0.319031
   7 C :   -0.454628
   8 H :    0.159938
   9 H :    0.155212
  10 H :    0.155268
  11 H :    0.149542
  12 H :    0.146132
  13 H :    0.151134
  14 H :    0.154713
  15 H :    0.170639
  16 H :    0.161760
  17 H :    0.163351
  18 H :    0.154814
  19 H :    0.157001
  20 H :    0.156506
  21 H :    0.158491
  22 H :    0.168376
  23 H :    0.173093
Sum of atomic charges:   -0.0000000

LOEWDIN ATOMIC CHARGES
----------------------
   0 C :   -0.435293
   1 C :   -0.317421
   2 C :   -0.305091
   3 C :   -0.226943
   4 C :   -0.300685
   5 C :   -0.307735
   6 C :   -0.308896
   7 C :   -0.307149
   8 H :    0.150862
   9 H :    0.152072
  10 H :    0.152445
  11 H :    0.152543
  12 H :    0.154765
  13 H :    0.158421
  14 H :    0.158867
  15 H :    0.162655
  16 H :    0.159414
  17 H :    0.160209
  18 H :    0.156734
  19 H :    0.156076
  20 H :    0.156573
  21 H :    0.156805
  22 H :    0.159595
  23 H :    0.161175

  Mayer bond orders larger than 0.100000
B(  0-C ,  1-C ) :   0.8923 B(  0-C ,  8-H ) :   0.9798 B(  0-C ,  9-H ) :   0.9690
B(  0-C , 10-H ) :   0.9795 B(  1-C ,  2-C ) :   0.8967 B(  1-C , 11-H ) :   0.9698
B(  1-C , 12-H ) :   0.9734 B(  2-C ,  3-C ) :   0.8865 B(  2-C , 13-H ) :   0.9906
B(  2-C , 14-H ) :   0.9780 B(  3-C ,  4-C ) :   0.8892 B(  3-C ,  7-C ) :   0.8930
B(  3-C , 15-H ) :   0.9590 B(  4-C ,  5-C ) :   0.8811 B(  4-C , 16-H ) :   0.9547
B(  4-C , 17-H ) :   1.0149 B(  5-C ,  6-C ) :   0.9113 B(  5-C , 18-H ) :   0.9808
B(  5-C , 19-H ) :   0.9583 B(  6-C ,  7-C ) :   0.9090 B(  6-C , 20-H ) :   0.9651
B(  6-C , 21-H ) :   0.9853 B(  7-C , 22-H ) :   0.9747 B(  7-C , 23-H ) :   0.9994

Dispersion correction           -0.007019197
FINAL SINGLE POINT ENERGY      -314.379535678584

DIPOLE MOMENT
-------------

Method             : SCF
Type of density    : Electron Density
Multiplicity       :   1
Irrep              :   0
Energy             :  -314.3827160678231394 Eh
Relativity type    :
Basis              : AO
                                X                 Y                 Z
Electronic contribution:      2.503951190      -0.284702899      -0.511959418
Nuclear contribution   :     -2.525011305       0.282878357       0.517727529
                        -----------------------------------------
Total Dipole Moment    :     -0.021060115      -0.001824542       0.005768111
                        -----------------------------------------
Magnitude (a.u.)       :      0.021911834
Magnitude (Debye)      :      0.055695457

Rotational constants in cm-1:             0.143345             0.036103             0.033465
Rotational constants in MHz :          4297.364061          1082.342905          1003.245431

                             ****ORCA TERMINATED NORMALLY****
TOTAL RUN TIME: 0 days 0 hours 0 minutes 30 seconds 189 msec
