                         Program Version 6.0.0  -   RELEASE  -
|  1> ! pbe def2-sv(p) def2/J RI DEFGRID1 loosescf d4 GCP(DFT/SV(P)) printgap
|  2> %output
|  3>     printlevel normal
|  4> end
|  5> * xyz 0 1
|  6> C -2.2063275341 1.0485258913 0.3783060392
|  7> C -1.8223988144 -0.3829154915 0.0248602746
|  8> C -0.5451076677 -0.5176883905 -0.8087411056
|  9> C 0.7743444181 -0.1356540214 -0.0971819943
| 10> C 1.1255619665 1.3425199145 -0.31776931
| 11> C 1.9133014532 -0.998239966 -0.6637263441
| 12> O 0.6149014115 -0.4064220035 1.2909545062
| 13> H -1.5134001838 1.460785426 1.1062085782
| 14> H -3.2020835964 1.0675879429 0.8159101925
| 15> H -2.208764922 1.6779160577 -0.5091776856
| 16> H -1.7029188891 -0.9583889392 0.9435505199
| 17> H -2.6344269163 -0.8334191662 -0.5513332502
| 18> H -0.4717798444 -1.5644499611 -1.1108292533
| 19> H -0.6357134658 0.0849134072 -1.7135190348
| 20> H 2.063290271 1.5834558107 0.180042587
| 21> H 0.3492098491 1.9884826412 0.0784461147
| 22> H 1.2398173475 1.5414378842 -1.3794311397
| 23> H 1.9551125487 -0.898937828 -1.7444850688
| 24> H 1.746020257 -2.0431622305 -0.4119573039
| 25> H 2.870916661 -0.6893243316 -0.2492171894
| 26> H 1.4480519529 -0.2142863956 1.7408098254
| 27> *
| 28>
| 29>                          ****END OF INPUT****

CARTESIAN COORDINATES (ANGSTROEM)
---------------------------------
  C     -2.206328    1.048526    0.378306
  C     -1.822399   -0.382915    0.024860
  C     -0.545108   -0.517688   -0.808741
  C      0.774344   -0.135654   -0.097182
  C      1.125562    1.342520   -0.317769
  C      1.913301   -0.998240   -0.663726
  O      0.614901   -0.406422    1.290955
  H     -1.513400    1.460785    1.106209
  H     -3.202084    1.067588    0.815910
  H     -2.208765    1.677916   -0.509178
  H     -1.702919   -0.958389    0.943551
  H     -2.634427   -0.833419   -0.551333
  H     -0.471780   -1.564450   -1.110829
  H     -0.635713    0.084913   -1.713519
  H      2.063290    1.583456    0.180043
  H      0.349210    1.988483    0.078446
  H      1.239817    1.541438   -1.379431
  H      1.955113   -0.898938   -1.744485
  H      1.746020   -2.043162   -0.411957
  H      2.870917   -0.689324   -0.249217
  H      1.448052   -0.214286    1.740810

 Total Charge           Charge          ....    0
 Multiplicity           Mult            ....    1
 Number of Electrons    NEL             ....   58
 Basis Dimension        Dim             ....  126

ORBITAL ENERGIES
----------------

  NO   OCC          E(Eh)            E(eV)
   0   2.0000     -18.739775      -509.9352
   1   2.0000      -9.946261      -270.6515
   2   2.0000      -9.877104      -268.7697
   3   2.0000      -9.872542      -268.6455
   4   2.0000      -9.872527      -268.6451
   5   2.0000      -9.872083      -268.6330
   6   2.0000      -9.862851      -268.3818
   7   2.0000      -0.918794       -25.0017
   8   2.0000      -0.717693       -19.5294
   9   2.0000      -0.676549       -18.4098
  10   2.0000      -0.616990       -16.7892
  11   2.0000      -0.604086       -16.4380
  12   2.0000      -0.530546       -14.4369
  13   2.0000      -0.500129       -13.6092
  14   2.0000      -0.432014       -11.7557
  15   2.0000      -0.406932       -11.0732
  16   2.0000      -0.405478       -11.0336
  17   2.0000      -0.379700       -10.3322
  18   2.0000      -0.362993        -9.8775
  19   2.0000      -0.360204        -9.8016
  20   2.0000      -0.346526        -9.4295
  21   2.0000      -0.334865        -9.1121
  22   2.0000      -0.319377        -8.6907
  23   2.0000      -0.308122        -8.3844
  24   2.0000      -0.291502        -7.9322
  25   2.0000      -0.279517        -7.6061
  26   2.0000      -0.276932        -7.5357
  27   2.0000      -0.257345        -7.0027
  28   2.0000      -0.211674        -5.7599
  29   0.0000       0.018815         0.5120
  30   0.0000       0.060171         1.6373
  31   0.0000       0.073683         2.0050
  32   0.0000       0.076032         2.0689
  33   0.0000       0.080301         2.1851

MULLIKEN ATOMIC CHARGES
-----------------------
   0 C :   -0.292903
   1 C :   -0.154585
   2 C :   -0.134924
   3 C :   -0.029277
   4 C :   -0.226441
   5 C :   -0.232256
   6 O :   -0.420104
   7 H :    0.118022
   8 H :    0.095898
   9 H :    0.090273
  10 H :    0.098826
  11 H :    0.076733
  12 H :    0.073414
  13 H :    0.075979
  14 H :    0.079872
  15 H :    0.110360
  16 H :    0.093232
  17 H :    0.097276
  18 H :    0.105574
  19 H :    0.082304
  20 H :    0.292728
Sum of atomic charges:    0.0000000

LOEWDIN ATOMIC CHARGES
----------------------
   0 C :   -0.345955
   1 C :   -0.232857
   2 C :   -0.216678
   3 C :   -0.013633
   4 C :   -0.340161
   5 C :   -0.339810
   6 O :   -0.315157
   7 H :    0.117500
   8 H :    0.117698
   9 H :    0.111687
  10 H :    0.122479
  11 H :    0.113197
  12 H :    0.117821
  13 H :    0.116678
  14 H :    0.110612
  15 H :    0.122486
  16 H :    0.121006
  17 H :    0.122285
  18 H :    0.119956
  19 H :    0.109882
  20 H :    0.280965

  Mayer bond orders larger than 0.100000
B(  0-C ,  1-C ) :   1.1611 B(  0-C ,  7-H ) :   0.9398 B(  0-C ,  8-H ) :   0.9477
B(  0-C ,  9-H ) :   0.9525 B(  1-C ,  2-C ) :   1.1490 B(  1-C , 10-H ) :   0.9122
B(  1-C , 11-H ) :   0.9241 B(  2-C ,  3-C ) :   1.0265 B(  2-C , 12-H ) :   0.9110
B(  2-C , 13-H ) :   0.9163 B(  3-C ,  4-C ) :   1.0886 B(  3-C ,  5-C ) :   1.0924
B(  3-C ,  6-O ) :   1.0173 B(  4-C , 14-H ) :   0.9383 B(  4-C , 15-H ) :   0.9359
B(  4-C , 16-H ) :   0.9373 B(  5-C , 17-H ) :   0.9404 B(  5-C , 18-H ) :   0.9385
B(  5-C , 19-H ) :   0.9418 B(  6-O , 20-H ) :   0.8520

Dispersion correction           -0.017145361
FINAL SINGLE POINT ENERGY      -311.518160671093

DIPOLE MOMENT
-------------

Method             : SCF
Type of density    : Electron Density
Multiplicity       :   1
Irrep              :   0
Energy             :  -311.5974604738154881 Eh
Relativity type    :
Basis              : AO
                                X                 Y                 Z
Electronic contribution:      1.140889957      -1.923738099       2.479231048
Nuclear contribution   :     -0.644463782       2.060377092      -2.612373200
                        -----------------------------------------
Total Dipole Moment    :      0.496426175       0.136638992      -0.133142152
                        -----------------------------------------
Magnitude (a.u.)       :      0.531823273
Magnitude (Debye)      :      1.351787332

Rotational constants in cm-1:             0.130714             0.057984             0.054715
Rotational constants in MHz :          3918.711903          1738.319184          1640.318733

                             ****ORCA TERMINATED NORMALLY****
TOTAL RUN TIME: 0 days 0 hours 0 minutes 8 seconds 731 msec
