                         Program Version 6.0.0  -   RELEASE  -
|  1> ! r2scan-3c def2/J RI DEFGRID2 scfconv6 printgap
|  2> %output
|  3>     printlevel normal
|  4> end
|  5> * xyz 0 1
|  6> C -3.1673408813 0.5655708271 0.1309494842
|  7> C -1.8011035801 -0.0392612115 0.4262949214
|  8> C -0.7566376976 0.4178314406 -0.6020554911
|  9> C 0.560874002 -0.2479093463 -0.3108327104
| 10> O 0.7952431817 -1.4254800748 -0.4895101018
| 11> O 1.4342175902 0.6084545827 0.2034055706
| 12> C 2.7334995674 0.1402685614 0.5801875744
| 13> H -3.8913353345 0.2325358593 0.8693980723
| 14> H -3.1172190031 1.6508520382 0.1605356894
| 15> H -3.5137213193 0.2619471947 -0.8534563821
| 16> H -1.8614750031 -1.1292243655 0.4038364026
| 17> H -1.4747292085 0.2593244889 1.4244871399
| 18> H -0.6272205587 1.4981657668 -0.557924959
| 19> H -1.0814957492 0.1201433345 -1.5994616787
| 20> H 2.9219384345 0.4964257704 1.5903347925
| 21> H 3.4613386154 0.5600247655 -0.1125040853
| 22> H 2.7598752674 -0.9491898931 0.5405209707
| 23> *
| 24>
| 25>                          ****END OF INPUT****

CARTESIAN COORDINATES (ANGSTROEM)
---------------------------------
  C     -3.167341    0.565571    0.130949
  C     -1.801104   -0.039261    0.426295
  C     -0.756638    0.417831   -0.602055
  C      0.560874   -0.247909   -0.310833
  O      0.795243   -1.425480   -0.489510
  O      1.434218    0.608455    0.203406
  C      2.733500    0.140269    0.580188
  H     -3.891335    0.232536    0.869398
  H     -3.117219    1.650852    0.160536
  H     -3.513721    0.261947   -0.853456
  H     -1.861475   -1.129224    0.403836
  H     -1.474729    0.259324    1.424487
  H     -0.627221    1.498166   -0.557925
  H     -1.081496    0.120143   -1.599462
  H      2.921938    0.496426    1.590335
  H      3.461339    0.560025   -0.112504
  H      2.759875   -0.949190    0.540521

 Total Charge           Charge          ....    0
 Multiplicity           Mult            ....    1
 Number of Electrons    NEL             ....   56
 Basis Dimension        Dim             ....  193

ORBITAL ENERGIES
----------------

  NO   OCC          E(Eh)            E(eV)
   0   2.0000     -18.999559      -517.0043
   1   2.0000     -18.927359      -515.0396
   2   2.0000     -10.152360      -276.2598
   3   2.0000     -10.084906      -274.4242
   4   2.0000     -10.041352      -273.2391
   5   2.0000     -10.037961      -273.1468
   6   2.0000     -10.023210      -272.7454
   7   2.0000      -1.072399       -29.1815
   8   2.0000      -0.975593       -26.5472
   9   2.0000      -0.773035       -21.0354
  10   2.0000      -0.713714       -19.4211
  11   2.0000      -0.661375       -17.9969
  12   2.0000      -0.571546       -15.5526
  13   2.0000      -0.532659       -14.4944
  14   2.0000      -0.469948       -12.7879
  15   2.0000      -0.454976       -12.3805
  16   2.0000      -0.449170       -12.2225
  17   2.0000      -0.426348       -11.6015
  18   2.0000      -0.398853       -10.8533
  19   2.0000      -0.392434       -10.6787
  20   2.0000      -0.367663       -10.0046
  21   2.0000      -0.352880        -9.6023
  22   2.0000      -0.334136        -9.0923
  23   2.0000      -0.316874        -8.6226
  24   2.0000      -0.310261        -8.4426
  25   2.0000      -0.307565        -8.3693
  26   2.0000      -0.271245        -7.3810
  27   2.0000      -0.236634        -6.4391
  28   0.0000      -0.014598        -0.3972
  29   0.0000       0.067698         1.8421
  30   0.0000       0.098348         2.6762
  31   0.0000       0.102972         2.8020
  32   0.0000       0.131298         3.5728

MULLIKEN ATOMIC CHARGES
-----------------------
   0 C :   -0.471949
   1 C :   -0.228532
   2 C :   -0.333812
   3 C :    0.426694
   4 O :   -0.440995
   5 O :   -0.195438
   6 C :   -0.304597
   7 H :    0.150885
   8 H :    0.143721
   9 H :    0.145941
  10 H :    0.163497
  11 H :    0.139878
  12 H :    0.158215
  13 H :    0.161384
  14 H :    0.147697
  15 H :    0.148818
  16 H :    0.188595
Sum of atomic charges:   -0.0000000

LOEWDIN ATOMIC CHARGES
----------------------
   0 C :   -0.419732
   1 C :   -0.287554
   2 C :   -0.229233
   3 C :    0.356280
   4 O :   -0.440597
   5 O :   -0.602380
   6 C :   -0.046408
   7 H :    0.153263
   8 H :    0.150460
   9 H :    0.151237
  10 H :    0.164144
  11 H :    0.155948
  12 H :    0.176507
  13 H :    0.178410
  14 H :    0.173854
  15 H :    0.172952
  16 H :    0.192850

  Mayer bond orders larger than 0.100000
B(  0-C ,  1-C ) :   0.8935 B(  0-C ,  7-H ) :   0.9725 B(  0-C ,  8-H ) :   0.9823
B(  0-C ,  9-H ) :   0.9859 B(  1-C ,  2-C ) :   0.9266 B(  1-C , 10-H ) :   0.9631
B(  1-C , 11-H ) :   0.9582 B(  2-C ,  3-C ) :   0.9758 B(  2-C , 12-H ) :   0.9775
B(  2-C , 13-H ) :   0.9679 B(  3-C ,  4-O ) :   1.8320 B(  3-C ,  5-O ) :   1.0501
B(  5-O ,  6-C ) :   0.8418 B(  6-C , 14-H ) :   0.9665 B(  6-C , 15-H ) :   0.9625
B(  6-C , 16-H ) :   0.9670

Dispersion correction           -0.003926157
FINAL SINGLE POINT ENERGY      -346.929842904862

DIPOLE MOMENT
-------------

Method             : SCF
Type of density    : Electron Density
Multiplicity       :   1
Irrep              :   0
Energy             :  -346.9366746486784336 Eh
Relativity type    :
Basis              : AO
                                X                 Y                 Z
Electronic contribution:      6.026093187      -2.084153185      -1.451536144
Nuclear contribution   :     -5.993772914       2.803331077       1.746158601
                        -----------------------------------------
Total Dipole Moment    :      0.032320273       0.719177892       0.294622457
                        -----------------------------------------
Magnitude (a.u.)       :      0.777858491
Magnitude (Debye)      :      1.977159158

Rotational constants in cm-1:             0.221833             0.042214             0.038734
Rotational constants in MHz :          6650.374099          1265.537214          1161.223555

                             ****ORCA TERMINATED NORMALLY****
TOTAL RUN TIME: 0 days 0 hours 0 minutes 22 seconds 230 msec
