                         Program Version 6.0.0  -   RELEASE  -
|  1> ! r2scan-3c def2/J RI DEFGRID2 scfconv6 printgap
|  2> %output
|  3>     printlevel normal
|  4> end
|  5> %cpcm
|  6>     smd true
|  7>     smdsolvent "water"
|  8> end
|  9> * xyz 0 1
| 10> C -3.1673408813 0.5655708271 0.1309494842
| 11> C -1.8011035801 -0.0392612115 0.4262949214
| 12> C -0.7566376976 0.4178314406 -0.6020554911
| 13> C 0.560874002 -0.2479093463 -0.3108327104
| 14> O 0.7952431817 -1.4254800748 -0.4895101018
| 15> O 1.4342175902 0.6084545827 0.2034055706
| 16> C 2.7334995674 0.1402685614 0.5801875744
| 17> H -3.8913353345 0.2325358593 0.8693980723
| 18> H -3.1172190031 1.6508520382 0.1605356894
| 19> H -3.5137213193 0.2619471947 -0.8534563821
| 20> H -1.8614750031 -1.1292243655 0.4038364026
| 21> H -1.4747292085 0.2593244889 1.4244871399
| 22> H -0.6272205587 1.4981657668 -0.557924959
| 23> H -1.0814957492 0.1201433345 -1.5994616787
| 24> H 2.9219384345 0.4964257704 1.5903347925
| 25> H 3.4613386154 0.5600247655 -0.1125040853
| 26> H 2.7598752674 -0.9491898931 0.5405209707
| 27> *
| 28>
| 29>                          ****END OF INPUT****

CARTESIAN COORDINATES (ANGSTROEM)
---------------------------------
  C     -3.167341    0.565571    0.130949
  C     -1.801104   -0.039261    0.426295
  C     -0.756638    0.417831   -0.602055
  C      0.560874   -0.247909   -0.310833
  O      0.795243   -1.425480   -0.489510
  O      1.434218    0.608455    0.203406
  C      2.733500    0.140269    0.580188
  H     -3.891335    0.232536    0.869398
  H     -3.117219    1.650852    0.160536
  H     -3.513721    0.261947   -0.853456
  H     -1.861475   -1.129224    0.403836
  H     -1.474729    0.259324    1.424487
  H     -0.627221    1.498166   -0.557925
  H     -1.081496    0.120143   -1.599462
  H      2.921938    0.496426    1.590335
  H      3.461339    0.560025   -0.112504
  H      2.759875   -0.949190    0.540521

 Total Charge           Charge          ....    0
 Multiplicity           Mult            ....    1
 Number of Electrons    NEL             ....   56
 Basis Dimension        Dim             ....  193

ORBITAL ENERGIES
----------------

  NO   OCC          E(Eh)            E(eV)
   0   2.0000     -19.004889      -517.1493
   1   2.0000     -18.942680      -515.4565
   2   2.0000     -10.162395      -276.5328
   3   2.0000     -10.074865      -274.1510
   4   2.0000     -10.035104      -273.0691
   5   2.0000     -10.029924      -272.9281
   6   2.0000     -10.011896      -272.4375
   7   2.0000      -1.079094       -29.3636
   8   2.0000      -0.988960       -26.9110
   9   2.0000      -0.767001       -20.8712
  10   2.0000      -0.708287       -19.2735
  11   2.0000      -0.653799       -17.7908
  12   2.0000      -0.563620       -15.3369
  13   2.0000      -0.530571       -14.4376
  14   2.0000      -0.470834       -12.8120
  15   2.0000      -0.458353       -12.4724
  16   2.0000      -0.450240       -12.2516
  17   2.0000      -0.425217       -11.5707
  18   2.0000      -0.392482       -10.6800
  19   2.0000      -0.389624       -10.6022
  20   2.0000      -0.363103        -9.8805
  21   2.0000      -0.347602        -9.4587
  22   2.0000      -0.329517        -8.9666
  23   2.0000      -0.314763        -8.5651
  24   2.0000      -0.305060        -8.3011
  25   2.0000      -0.299143        -8.1401
  26   2.0000      -0.278343        -7.5741
  27   2.0000      -0.252258        -6.8643
  28   0.0000      -0.022209        -0.6043
  29   0.0000       0.072567         1.9747
  30   0.0000       0.106064         2.8861
  31   0.0000       0.113705         3.0941
  32   0.0000       0.138800         3.7769

MULLIKEN ATOMIC CHARGES
-----------------------
   0 C :   -0.516520
   1 C :   -0.222500
   2 C :   -0.354948
   3 C :    0.461834
   4 O :   -0.524218
   5 O :   -0.212482
   6 C :   -0.319200
   7 H :    0.162155
   8 H :    0.158573
   9 H :    0.159069
  10 H :    0.159416
  11 H :    0.155609
  12 H :    0.174747
  13 H :    0.183213
  14 H :    0.174964
  15 H :    0.176500
  16 H :    0.183786
Sum of atomic charges:   -0.0000000

LOEWDIN ATOMIC CHARGES
----------------------
   0 C :   -0.425134
   1 C :   -0.286392
   2 C :   -0.227109
   3 C :    0.365205
   4 O :   -0.501764
   5 O :   -0.604059
   6 C :   -0.040826
   7 H :    0.156313
   8 H :    0.154935
   9 H :    0.154723
  10 H :    0.161764
  11 H :    0.160848
  12 H :    0.184322
  13 H :    0.186047
  14 H :    0.185623
  15 H :    0.183974
  16 H :    0.191530

  Mayer bond orders larger than 0.100000
B(  0-C ,  1-C ) :   0.8876 B(  0-C ,  7-H ) :   0.9693 B(  0-C ,  8-H ) :   0.9799
B(  0-C ,  9-H ) :   0.9831 B(  1-C ,  2-C ) :   0.9150 B(  1-C , 10-H ) :   0.9638
B(  1-C , 11-H ) :   0.9561 B(  2-C ,  3-C ) :   0.9759 B(  2-C , 12-H ) :   0.9691
B(  2-C , 13-H ) :   0.9611 B(  3-C ,  4-O ) :   1.7666 B(  3-C ,  5-O ) :   1.0749
B(  5-O ,  6-C ) :   0.8292 B(  6-C , 14-H ) :   0.9568 B(  6-C , 15-H ) :   0.9534
B(  6-C , 16-H ) :   0.9635

Dispersion correction           -0.003926157
FINAL SINGLE POINT ENERGY      -346.934213272863

DIPOLE MOMENT
-------------

Method             : SCF
Type of density    : Electron Density
Multiplicity       :   1
Irrep              :   0
Energy             :  -346.9410450166795954 Eh
Relativity type    :
Basis              : AO
                                X                 Y                 Z
Electronic contribution:      6.044697448      -1.746726556      -1.358879303
Nuclear contribution   :     -5.993772914       2.803331077       1.746158601
                        -----------------------------------------
Total Dipole Moment    :      0.050924533       1.056604521       0.387279298
                        -----------------------------------------
Magnitude (a.u.)       :      1.126495307
Magnitude (Debye)      :      2.863323519

Rotational constants in cm-1:             0.221833             0.042214             0.038734
Rotational constants in MHz :          6650.374099          1265.537214          1161.223555

                             ****ORCA TERMINATED NORMALLY****
TOTAL RUN TIME: 0 days 0 hours 0 minutes 31 seconds 229 msec
