                         Program Version 6.0.0  -   RELEASE  -
|  1> ! r2scan-3c def2/J RI DEFGRID2 scfconv6 printgap
|  2> %output
|  3>     printlevel normal
|  4> end
|  5> * xyz 0 1
|  6> C -2.3015351433 0.7547560531 -0.8639003993
|  7> C -1.8428189431 -0.4234292952 -0.01224793
|  8> C -0.6028363174 -0.1626796894 0.8476775316
|  9> C 0.7748990267 -0.0721249446 0.1557213828
| 10> C 0.9970983271 1.2566490786 -0.5686014182
| 11> C 1.0066523221 -1.2449787798 -0.8027536487
| 12> O 1.77593976 -0.0912790596 1.1799554088
| 13> H -3.2948857535 0.5577339818 -1.2610586898
| 14> H -1.6351647036 0.9255589536 -1.7036564819
| 15> H -2.3448348481 1.6629523386 -0.2677623109
| 16> H -2.6529583205 -0.676286507 0.6766610433
| 17> H -1.6788770324 -1.293408706 -0.6486889703
| 18> H -0.749088445 0.7559096606 1.421134623
| 19> H -0.5355937191 -0.9827803878 1.5697559224
| 20> H 0.7435169289 2.0856557259 0.0861577853
| 21> H 0.4054521828 1.3171817866 -1.4736480086
| 22> H 2.0499310051 1.3383944544 -0.8281641617
| 23> H 0.7805498022 -2.1906556992 -0.3143704898
| 24> H 2.0489724194 -1.2520929038 -1.1135693835
| 25> H 0.3842012763 -1.1470983867 -1.6862164683
| 26> H 1.7463375817 -0.9414145461 1.6386338092
| 27> *
| 28>
| 29>                          ****END OF INPUT****

CARTESIAN COORDINATES (ANGSTROEM)
---------------------------------
  C     -2.301535    0.754756   -0.863900
  C     -1.842819   -0.423429   -0.012248
  C     -0.602836   -0.162680    0.847678
  C      0.774899   -0.072125    0.155721
  C      0.997098    1.256649   -0.568601
  C      1.006652   -1.244979   -0.802754
  O      1.775940   -0.091279    1.179955
  H     -3.294886    0.557734   -1.261059
  H     -1.635165    0.925559   -1.703656
  H     -2.344835    1.662952   -0.267762
  H     -2.652958   -0.676287    0.676661
  H     -1.678877   -1.293409   -0.648689
  H     -0.749088    0.755910    1.421135
  H     -0.535594   -0.982780    1.569756
  H      0.743517    2.085656    0.086158
  H      0.405452    1.317182   -1.473648
  H      2.049931    1.338394   -0.828164
  H      0.780550   -2.190656   -0.314370
  H      2.048972   -1.252093   -1.113569
  H      0.384201   -1.147098   -1.686216
  H      1.746338   -0.941415    1.638634

 Total Charge           Charge          ....    0
 Multiplicity           Mult            ....    1
 Number of Electrons    NEL             ....   58
 Basis Dimension        Dim             ....  208

ORBITAL ENERGIES
----------------

  NO   OCC          E(Eh)            E(eV)
   0   2.0000     -18.939368      -515.3664
   1   2.0000     -10.087130      -274.4848
   2   2.0000     -10.028272      -272.8832
   3   2.0000     -10.023670      -272.7579
   4   2.0000     -10.018135      -272.6073
   5   2.0000     -10.017686      -272.5951
   6   2.0000     -10.012226      -272.4465
   7   2.0000      -0.978640       -26.6302
   8   2.0000      -0.769654       -20.9434
   9   2.0000      -0.722918       -19.6716
  10   2.0000      -0.658176       -17.9099
  11   2.0000      -0.652996       -17.7689
  12   2.0000      -0.568180       -15.4610
  13   2.0000      -0.524810       -14.2808
  14   2.0000      -0.463993       -12.6259
  15   2.0000      -0.428137       -11.6502
  16   2.0000      -0.421248       -11.4627
  17   2.0000      -0.401764       -10.9326
  18   2.0000      -0.391442       -10.6517
  19   2.0000      -0.372223       -10.1287
  20   2.0000      -0.355999        -9.6872
  21   2.0000      -0.346517        -9.4292
  22   2.0000      -0.337004        -9.1703
  23   2.0000      -0.321068        -8.7367
  24   2.0000      -0.313746        -8.5375
  25   2.0000      -0.302772        -8.2388
  26   2.0000      -0.294449        -8.0124
  27   2.0000      -0.277771        -7.5585
  28   2.0000      -0.229989        -6.2583
  29   0.0000       0.063650         1.7320
  30   0.0000       0.086321         2.3489
  31   0.0000       0.104783         2.8513
  32   0.0000       0.121937         3.3181
  33   0.0000       0.125391         3.4121

MULLIKEN ATOMIC CHARGES
-----------------------
   0 C :   -0.460885
   1 C :   -0.271601
   2 C :   -0.236255
   3 C :    0.189993
   4 C :   -0.504280
   5 C :   -0.513513
   6 O :   -0.412877
   7 H :    0.144716
   8 H :    0.137165
   9 H :    0.149243
  10 H :    0.138046
  11 H :    0.149460
  12 H :    0.155673
  13 H :    0.127891
  14 H :    0.156182
  15 H :    0.142009
  16 H :    0.158660
  17 H :    0.146338
  18 H :    0.166835
  19 H :    0.158137
  20 H :    0.279063
Sum of atomic charges:    0.0000000

LOEWDIN ATOMIC CHARGES
----------------------
   0 C :   -0.423537
   1 C :   -0.311520
   2 C :   -0.277473
   3 C :    0.062171
   4 C :   -0.369035
   5 C :   -0.392337
   6 O :   -0.611956
   7 H :    0.150609
   8 H :    0.145954
   9 H :    0.151839
  10 H :    0.153889
  11 H :    0.154192
  12 H :    0.166069
  13 H :    0.161896
  14 H :    0.163825
  15 H :    0.155535
  16 H :    0.168868
  17 H :    0.156773
  18 H :    0.167340
  19 H :    0.158855
  20 H :    0.268041

  Mayer bond orders larger than 0.100000
B(  0-C ,  1-C ) :   0.8937 B(  0-C ,  7-H ) :   0.9685 B(  0-C ,  8-H ) :   0.9786
B(  0-C ,  9-H ) :   0.9843 B(  1-C ,  2-C ) :   0.8924 B(  1-C , 10-H ) :   0.9564
B(  1-C , 11-H ) :   0.9769 B(  2-C ,  3-C ) :   0.9074 B(  2-C , 12-H ) :   0.9873
B(  2-C , 13-H ) :   0.9619 B(  3-C ,  4-C ) :   0.9449 B(  3-C ,  5-C ) :   0.9301
B(  3-C ,  6-O ) :   0.8405 B(  4-C , 14-H ) :   0.9729 B(  4-C , 15-H ) :   0.9711
B(  4-C , 16-H ) :   0.9676 B(  5-C , 17-H ) :   0.9655 B(  5-C , 18-H ) :   0.9734
B(  5-C , 19-H ) :   0.9723 B(  6-O , 20-H ) :   0.9021

Dispersion correction           -0.005849765
FINAL SINGLE POINT ENERGY      -312.203373843378

DIPOLE MOMENT
-------------

Method             : SCF
Type of density    : Electron Density
Multiplicity       :   1
Irrep              :   0
Energy             :  -312.2087451726794143 Eh
Relativity type    :
Basis              : AO
                                X                 Y                 Z
Electronic contribution:      3.980891669      -0.583312729       3.498687817
Nuclear contribution   :     -4.413447902       0.148422938      -3.645821857
                        -----------------------------------------
Total Dipole Moment    :     -0.432556233      -0.434889791      -0.147134040
                        -----------------------------------------
Magnitude (a.u.)       :      0.630779241
Magnitude (Debye)      :      1.603313412

Rotational constants in cm-1:             0.128047             0.055577             0.053008
Rotational constants in MHz :          3838.762401          1666.157570          1589.153039

                             ****ORCA TERMINATED NORMALLY****
TOTAL RUN TIME: 0 days 0 hours 0 minutes 25 seconds 89 msec
