                         Program Version 6.0.0  -   RELEASE  -
|  1> ! r2scan-3c def2/J RI DEFGRID2 scfconv6 printgap
|  2> %output
|  3>     printlevel normal
|  4> end
|  5> %cpcm
|  6>     smd true
|  7>     smdsolvent "water"
|  8> end
|  9> * xyz 0 1
| 10> C -2.3015351433 0.7547560531 -0.8639003993
| 11> C -1.8428189431 -0.4234292952 -0.01224793
| 12> C -0.6028363174 -0.1626796894 0.8476775316
| 13> C 0.7748990267 -0.0721249446 0.1557213828
| 14> C 0.9970983271 1.2566490786 -0.5686014182
| 15> C 1.0066523221 -1.2449787798 -0.8027536487
| 16> O 1.77593976 -0.0912790596 1.1799554088
| 17> H -3.2948857535 0.5577339818 -1.2610586898
| 18> H -1.6351647036 0.9255589536 -1.7036564819
| 19> H -2.3448348481 1.6629523386 -0.2677623109
| 20> H -2.6529583205 -0.676286507 0.6766610433
| 21> H -1.6788770324 -1.293408706 -0.6486889703
| 22> H -0.749088445 0.7559096606 1.421134623
| 23> H -0.5355937191 -0.9827803878 1.5697559224
| 24> H 0.7435169289 2.0856557259 0.0861577853
| 25> H 0.4054521828 1.3171817866 -1.4736480086
| 26> H 2.0499310051 1.3383944544 -0.8281641617
| 27> H 0.7805498022 -2.1906556992 -0.3143704898
| 28> H 2.0489724194 -1.2520929038 -1.1135693835
| 29> H 0.3842012763 -1.1470983867 -1.6862164683
| 30> H 1.7463375817 -0.9414145461 1.6386338092
| 31> *
| 32>
| 33>                          ****END OF INPUT****

CARTESIAN COORDINATES (ANGSTROEM)
---------------------------------
  C     -2.301535    0.754756   -0.863900
  C     -1.842819   -0.423429   -0.012248
  C     -0.602836   -0.162680    0.847678
  C      0.774899   -0.072125    0.155721
  C      0.997098    1.256649   -0.568601
  C      1.006652   -1.244979   -0.802754
  O      1.775940   -0.091279    1.179955
  H     -3.294886    0.557734   -1.261059
  H     -1.635165    0.925559   -1.703656
  H     -2.344835    1.662952   -0.267762
  H     -2.652958   -0.676287    0.676661
  H     -1.678877   -1.293409   -0.648689
  H     -0.749088    0.755910    1.421135
  H     -0.535594   -0.982780    1.569756
  H      0.743517    2.085656    0.086158
  H      0.405452    1.317182   -1.473648
  H      2.049931    1.338394   -0.828164
  H      0.780550   -2.190656   -0.314370
  H      2.048972   -1.252093   -1.113569
  H      0.384201   -1.147098   -1.686216
  H      1.746338   -0.941415    1.638634

 Total Charge           Charge          ....    0
 Multiplicity           Mult            ....    1
 Number of Electrons    NEL             ....   58
 Basis Dimension        Dim             ....  208

ORBITAL ENERGIES
----------------

  NO   OCC          E(Eh)            E(eV)
   0   2.0000     -18.944843      -515.5154
   1   2.0000     -10.083364      -274.3823
   2   2.0000     -10.017710      -272.5958
   3   2.0000     -10.014728      -272.5146
   4   2.0000     -10.007948      -272.3301
   5   2.0000     -10.007547      -272.3192
   6   2.0000     -10.006647      -272.2947
   7   2.0000      -0.982715       -26.7410
   8   2.0000      -0.762014       -20.7355
   9   2.0000      -0.715383       -19.4666
  10   2.0000      -0.651783       -17.7359
  11   2.0000      -0.643940       -17.5225
  12   2.0000      -0.560777       -15.2595
  13   2.0000      -0.520776       -14.1710
  14   2.0000      -0.458126       -12.4663
  15   2.0000      -0.420691       -11.4476
  16   2.0000      -0.415152       -11.2969
  17   2.0000      -0.394087       -10.7237
  18   2.0000      -0.382747       -10.4151
  19   2.0000      -0.364439        -9.9169
  20   2.0000      -0.351391        -9.5618
  21   2.0000      -0.340334        -9.2610
  22   2.0000      -0.331294        -9.0150
  23   2.0000      -0.314457        -8.5568
  24   2.0000      -0.306905        -8.3513
  25   2.0000      -0.295085        -8.0297
  26   2.0000      -0.287357        -7.8194
  27   2.0000      -0.274587        -7.4719
  28   2.0000      -0.234754        -6.3880
  29   0.0000       0.079131         2.1533
  30   0.0000       0.095725         2.6048
  31   0.0000       0.118201         3.2164
  32   0.0000       0.130512         3.5514
  33   0.0000       0.134681         3.6649

MULLIKEN ATOMIC CHARGES
-----------------------
   0 C :   -0.508312
   1 C :   -0.276621
   2 C :   -0.267673
   3 C :    0.238270
   4 C :   -0.558183
   5 C :   -0.551426
   6 O :   -0.508871
   7 H :    0.153698
   8 H :    0.155415
   9 H :    0.158178
  10 H :    0.147493
  11 H :    0.158703
  12 H :    0.157586
  13 H :    0.153115
  14 H :    0.167653
  15 H :    0.169947
  16 H :    0.162426
  17 H :    0.168098
  18 H :    0.166382
  19 H :    0.177201
  20 H :    0.336923
Sum of atomic charges:   -0.0000000

LOEWDIN ATOMIC CHARGES
----------------------
   0 C :   -0.432377
   1 C :   -0.310712
   2 C :   -0.279683
   3 C :    0.063919
   4 C :   -0.380086
   5 C :   -0.395018
   6 O :   -0.651127
   7 H :    0.152482
   8 H :    0.150617
   9 H :    0.153262
  10 H :    0.156387
  11 H :    0.157625
  12 H :    0.165644
  13 H :    0.169632
  14 H :    0.164497
  15 H :    0.165241
  16 H :    0.167207
  17 H :    0.164396
  18 H :    0.166157
  19 H :    0.165672
  20 H :    0.286265

  Mayer bond orders larger than 0.100000
B(  0-C ,  1-C ) :   0.8781 B(  0-C ,  7-H ) :   0.9663 B(  0-C ,  8-H ) :   0.9771
B(  0-C ,  9-H ) :   0.9821 B(  1-C ,  2-C ) :   0.8957 B(  1-C , 10-H ) :   0.9576
B(  1-C , 11-H ) :   0.9770 B(  2-C ,  3-C ) :   0.9030 B(  2-C , 12-H ) :   0.9811
B(  2-C , 13-H ) :   0.9646 B(  3-C ,  4-C ) :   0.9364 B(  3-C ,  5-C ) :   0.9241
B(  3-C ,  6-O ) :   0.8184 B(  4-C , 14-H ) :   0.9704 B(  4-C , 15-H ) :   0.9661
B(  4-C , 16-H ) :   0.9677 B(  5-C , 17-H ) :   0.9637 B(  5-C , 18-H ) :   0.9696
B(  5-C , 19-H ) :   0.9669 B(  6-O , 20-H ) :   0.8765

Dispersion correction           -0.005849765
FINAL SINGLE POINT ENERGY      -312.209822889906

DIPOLE MOMENT
-------------

Method             : SCF
Type of density    : Electron Density
Multiplicity       :   1
Irrep              :   0
Energy             :  -312.2151942192079446 Eh
Relativity type    :
Basis              : AO
                                X                 Y                 Z
Electronic contribution:      3.772564578      -0.830173190       3.413524381
Nuclear contribution   :     -4.413447902       0.148422938      -3.645821857
                        -----------------------------------------
Total Dipole Moment    :     -0.640883324      -0.681750252      -0.232297476
                        -----------------------------------------
Magnitude (a.u.)       :      0.964093853
Magnitude (Debye)      :      2.450531829

Rotational constants in cm-1:             0.128047             0.055577             0.053008
Rotational constants in MHz :          3838.762401          1666.157570          1589.153039

                             ****ORCA TERMINATED NORMALLY****
TOTAL RUN TIME: 0 days 0 hours 0 minutes 30 seconds 323 msec
