                         Program Version 6.0.0  -   RELEASE  -
|  1> ! r2scan-3c def2/J RI DEFGRID2 scfconv6 printgap
|  2> %output
|  3>     printlevel normal
|  4> end
|  5> * xyz 0 1
|  6> C -2.9637570171 0.151588247 -0.1070887158
|  7> C -1.6381903634 0.6208233148 0.4805810753
|  8> C -0.4730542146 -0.1812659966 -0.0416792536
|  9> O -0.5321555563 -1.3304915023 -0.426433342
| 10> O 0.6479790316 0.5283963116 -0.0104939703
| 11> C 1.8828444681 -0.0895801594 -0.4144821577
| 12> C 2.9847440296 0.3428409523 0.5365769667
| 13> H -3.0777895455 -0.9188247302 0.0443491021
| 14> H -3.7897027764 0.6688338202 0.3709759327
| 15> H -2.9971125308 0.3471801473 -1.1757613046
| 16> H -1.6455117471 0.4881340016 1.5653006286
| 17> H -1.4521825583 1.6740940746 0.2730094731
| 18> H 1.7443738369 -1.1752876307 -0.4129239361
| 19> H 2.091236733 0.2423718966 -1.4356789666
| 20> H 2.7687458924 0.0017475317 1.5451909725
| 21> H 3.9271193379 -0.0844591974 0.2100397496
| 22> H 3.0639542275 1.425995805 0.5421248744
| 23> *
| 24>
| 25>                          ****END OF INPUT****

CARTESIAN COORDINATES (ANGSTROEM)
---------------------------------
  C     -2.963757    0.151588   -0.107089
  C     -1.638190    0.620823    0.480581
  C     -0.473054   -0.181266   -0.041679
  O     -0.532156   -1.330492   -0.426433
  O      0.647979    0.528396   -0.010494
  C      1.882844   -0.089580   -0.414482
  C      2.984744    0.342841    0.536577
  H     -3.077790   -0.918825    0.044349
  H     -3.789703    0.668834    0.370976
  H     -2.997113    0.347180   -1.175761
  H     -1.645512    0.488134    1.565301
  H     -1.452183    1.674094    0.273009
  H      1.744374   -1.175288   -0.412924
  H      2.091237    0.242372   -1.435679
  H      2.768746    0.001748    1.545191
  H      3.927119   -0.084459    0.210040
  H      3.063954    1.425996    0.542125

 Total Charge           Charge          ....    0
 Multiplicity           Mult            ....    1
 Number of Electrons    NEL             ....   56
 Basis Dimension        Dim             ....  193

ORBITAL ENERGIES
----------------

  NO   OCC          E(Eh)            E(eV)
   0   2.0000     -18.995939      -516.9058
   1   2.0000     -18.927645      -515.0474
   2   2.0000     -10.151869      -276.2464
   3   2.0000     -10.089985      -274.5624
   4   2.0000     -10.043927      -273.3091
   5   2.0000     -10.031836      -272.9801
   6   2.0000     -10.022279      -272.7201
   7   2.0000      -1.070296       -29.1242
   8   2.0000      -0.975305       -26.5394
   9   2.0000      -0.763610       -20.7789
  10   2.0000      -0.732559       -19.9339
  11   2.0000      -0.642285       -17.4775
  12   2.0000      -0.588957       -16.0263
  13   2.0000      -0.528362       -14.3775
  14   2.0000      -0.472379       -12.8541
  15   2.0000      -0.459690       -12.5088
  16   2.0000      -0.430790       -11.7224
  17   2.0000      -0.426696       -11.6110
  18   2.0000      -0.396819       -10.7980
  19   2.0000      -0.374035       -10.1780
  20   2.0000      -0.368101       -10.0165
  21   2.0000      -0.354353        -9.6424
  22   2.0000      -0.336396        -9.1538
  23   2.0000      -0.329657        -8.9704
  24   2.0000      -0.317936        -8.6515
  25   2.0000      -0.306263        -8.3338
  26   2.0000      -0.270423        -7.3586
  27   2.0000      -0.236503        -6.4356
  28   0.0000      -0.012482        -0.3396
  29   0.0000       0.078561         2.1377
  30   0.0000       0.094397         2.5687
  31   0.0000       0.109868         2.9897
  32   0.0000       0.127073         3.4578

MULLIKEN ATOMIC CHARGES
-----------------------
   0 C :   -0.460743
   1 C :   -0.275118
   2 C :    0.383252
   3 O :   -0.437666
   4 O :   -0.169651
   5 C :   -0.159032
   6 C :   -0.443223
   7 H :    0.168112
   8 H :    0.146363
   9 H :    0.146358
  10 H :    0.163654
  11 H :    0.161354
  12 H :    0.183342
  13 H :    0.142338
  14 H :    0.151187
  15 H :    0.146498
  16 H :    0.152975
Sum of atomic charges:    0.0000000

LOEWDIN ATOMIC CHARGES
----------------------
   0 C :   -0.401242
   1 C :   -0.239155
   2 C :    0.363539
   3 O :   -0.442074
   4 O :   -0.598867
   5 C :    0.031068
   6 C :   -0.387267
   7 H :    0.167121
   8 H :    0.150493
   9 H :    0.156281
  10 H :    0.180276
  11 H :    0.176464
  12 H :    0.193349
  13 H :    0.174488
  14 H :    0.158068
  15 H :    0.159094
  16 H :    0.158363

  Mayer bond orders larger than 0.100000
B(  0-C ,  1-C ) :   0.9225 B(  0-C ,  7-H ) :   0.9687 B(  0-C ,  8-H ) :   0.9741
B(  0-C ,  9-H ) :   0.9775 B(  1-C ,  2-C ) :   0.9848 B(  1-C , 10-H ) :   0.9265
B(  1-C , 11-H ) :   0.9704 B(  2-C ,  3-O ) :   1.8290 B(  2-C ,  4-O ) :   1.0872
B(  4-O ,  5-C ) :   0.7766 B(  5-C ,  6-C ) :   0.9501 B(  5-C , 12-H ) :   0.9667
B(  5-C , 13-H ) :   0.9484 B(  6-C , 14-H ) :   0.9736 B(  6-C , 15-H ) :   0.9674
B(  6-C , 16-H ) :   0.9700

Dispersion correction           -0.003839712
FINAL SINGLE POINT ENERGY      -346.936065294516

DIPOLE MOMENT
-------------

Method             : SCF
Type of density    : Electron Density
Multiplicity       :   1
Irrep              :   0
Energy             :  -346.9427214691126551 Eh
Relativity type    :
Basis              : AO
                                X                 Y                 Z
Electronic contribution:     -0.207654407      -1.819993687      -1.181541475
Nuclear contribution   :      0.595699833       2.492813407       1.425752982
                        -----------------------------------------
Total Dipole Moment    :      0.388045426       0.672819721       0.244211507
                        -----------------------------------------
Magnitude (a.u.)       :      0.814189713
Magnitude (Debye)      :      2.069505785

Rotational constants in cm-1:             0.249802             0.042993             0.038727
Rotational constants in MHz :          7488.888843          1288.907227          1161.018097

                             ****ORCA TERMINATED NORMALLY****
TOTAL RUN TIME: 0 days 0 hours 0 minutes 22 seconds 936 msec
