                         Program Version 6.0.0  -   RELEASE  -
|  1> ! r2scan-3c def2/J RI DEFGRID2 scfconv6 printgap
|  2> %output
|  3>     printlevel normal
|  4> end
|  5> %cpcm
|  6>     smd true
|  7>     smdsolvent "water"
|  8> end
|  9> * xyz 0 1
| 10> C -2.9637570171 0.151588247 -0.1070887158
| 11> C -1.6381903634 0.6208233148 0.4805810753
| 12> C -0.4730542146 -0.1812659966 -0.0416792536
| 13> O -0.5321555563 -1.3304915023 -0.426433342
| 14> O 0.6479790316 0.5283963116 -0.0104939703
| 15> C 1.8828444681 -0.0895801594 -0.4144821577
| 16> C 2.9847440296 0.3428409523 0.5365769667
| 17> H -3.0777895455 -0.9188247302 0.0443491021
| 18> H -3.7897027764 0.6688338202 0.3709759327
| 19> H -2.9971125308 0.3471801473 -1.1757613046
| 20> H -1.6455117471 0.4881340016 1.5653006286
| 21> H -1.4521825583 1.6740940746 0.2730094731
| 22> H 1.7443738369 -1.1752876307 -0.4129239361
| 23> H 2.091236733 0.2423718966 -1.4356789666
| 24> H 2.7687458924 0.0017475317 1.5451909725
| 25> H 3.9271193379 -0.0844591974 0.2100397496
| 26> H 3.0639542275 1.425995805 0.5421248744
| 27> *
| 28>
| 29>                          ****END OF INPUT****

CARTESIAN COORDINATES (ANGSTROEM)
---------------------------------
  C     -2.963757    0.151588   -0.107089
  C     -1.638190    0.620823    0.480581
  C     -0.473054   -0.181266   -0.041679
  O     -0.532156   -1.330492   -0.426433
  O      0.647979    0.528396   -0.010494
  C      1.882844   -0.089580   -0.414482
  C      2.984744    0.342841    0.536577
  H     -3.077790   -0.918825    0.044349
  H     -3.789703    0.668834    0.370976
  H     -2.997113    0.347180   -1.175761
  H     -1.645512    0.488134    1.565301
  H     -1.452183    1.674094    0.273009
  H      1.744374   -1.175288   -0.412924
  H      2.091237    0.242372   -1.435679
  H      2.768746    0.001748    1.545191
  H      3.927119   -0.084459    0.210040
  H      3.063954    1.425996    0.542125

 Total Charge           Charge          ....    0
 Multiplicity           Mult            ....    1
 Number of Electrons    NEL             ....   56
 Basis Dimension        Dim             ....  193

ORBITAL ENERGIES
----------------

  NO   OCC          E(Eh)            E(eV)
   0   2.0000     -19.001516      -517.0575
   1   2.0000     -18.943218      -515.4712
   2   2.0000     -10.162378      -276.5324
   3   2.0000     -10.082278      -274.3527
   4   2.0000     -10.037858      -273.1440
   5   2.0000     -10.018438      -272.6155
   6   2.0000     -10.017117      -272.5796
   7   2.0000      -1.077603       -29.3231
   8   2.0000      -0.988707       -26.9041
   9   2.0000      -0.759623       -20.6704
  10   2.0000      -0.725137       -19.7320
  11   2.0000      -0.637143       -17.3375
  12   2.0000      -0.582591       -15.8531
  13   2.0000      -0.527272       -14.3478
  14   2.0000      -0.472799       -12.8655
  15   2.0000      -0.463326       -12.6077
  16   2.0000      -0.439792       -11.9673
  17   2.0000      -0.420418       -11.4402
  18   2.0000      -0.395299       -10.7566
  19   2.0000      -0.368327       -10.0227
  20   2.0000      -0.361337        -9.8325
  21   2.0000      -0.348785        -9.4909
  22   2.0000      -0.333196        -9.0667
  23   2.0000      -0.324420        -8.8279
  24   2.0000      -0.315070        -8.5735
  25   2.0000      -0.305976        -8.3260
  26   2.0000      -0.276318        -7.5190
  27   2.0000      -0.252360        -6.8671
  28   0.0000      -0.020233        -0.5506
  29   0.0000       0.081088         2.2065
  30   0.0000       0.102207         2.7812
  31   0.0000       0.120037         3.2664
  32   0.0000       0.136534         3.7153

MULLIKEN ATOMIC CHARGES
-----------------------
   0 C :   -0.507805
   1 C :   -0.278963
   2 C :    0.421768
   3 O :   -0.522699
   4 O :   -0.189377
   5 C :   -0.149213
   6 C :   -0.486884
   7 H :    0.161752
   8 H :    0.167208
   9 H :    0.164600
  10 H :    0.196255
  11 H :    0.179038
  12 H :    0.178637
  13 H :    0.168643
  14 H :    0.164192
  15 H :    0.167973
  16 H :    0.164874
Sum of atomic charges:   -0.0000000

LOEWDIN ATOMIC CHARGES
----------------------
   0 C :   -0.407220
   1 C :   -0.234901
   2 C :    0.374703
   3 O :   -0.502666
   4 O :   -0.601265
   5 C :    0.035724
   6 C :   -0.390684
   7 H :    0.162307
   8 H :    0.158913
   9 H :    0.159633
  10 H :    0.192646
  11 H :    0.185104
  12 H :    0.192537
  13 H :    0.184618
  14 H :    0.161181
  15 H :    0.167628
  16 H :    0.161741

  Mayer bond orders larger than 0.100000
B(  0-C ,  1-C ) :   0.8956 B(  0-C ,  7-H ) :   0.9714 B(  0-C ,  8-H ) :   0.9677
B(  0-C ,  9-H ) :   0.9780 B(  1-C ,  2-C ) :   0.9912 B(  1-C , 10-H ) :   0.9168
B(  1-C , 11-H ) :   0.9599 B(  2-C ,  3-O ) :   1.7651 B(  2-C ,  4-O ) :   1.1125
B(  4-O ,  5-C ) :   0.7660 B(  5-C ,  6-C ) :   0.9453 B(  5-C , 12-H ) :   0.9622
B(  5-C , 13-H ) :   0.9400 B(  6-C , 14-H ) :   0.9713 B(  6-C , 15-H ) :   0.9612
B(  6-C , 16-H ) :   0.9674

Dispersion correction           -0.003839712
FINAL SINGLE POINT ENERGY      -346.941037303849

DIPOLE MOMENT
-------------

Method             : SCF
Type of density    : Electron Density
Multiplicity       :   1
Irrep              :   0
Energy             :  -346.9476934784453874 Eh
Relativity type    :
Basis              : AO
                                X                 Y                 Z
Electronic contribution:     -0.083064483      -1.501128557      -1.071986032
Nuclear contribution   :      0.595699833       2.492813407       1.425752982
                        -----------------------------------------
Total Dipole Moment    :      0.512635350       0.991684850       0.353766951
                        -----------------------------------------
Magnitude (a.u.)       :      1.171061442
Magnitude (Debye)      :      2.976601631

Rotational constants in cm-1:             0.249802             0.042993             0.038727
Rotational constants in MHz :          7488.888843          1288.907227          1161.018097

                             ****ORCA TERMINATED NORMALLY****
TOTAL RUN TIME: 0 days 0 hours 0 minutes 24 seconds 889 msec
