                         Program Version 6.0.0  -   RELEASE  -
|  1> ! pbe def2-sv(p) def2/J RI DEFGRID1 loosescf d4 GCP(DFT/SV(P)) printgap
|  2> %output
|  3>     printlevel normal
|  4> end
|  5> * xyz 0 1
|  6> C -2.1635730145 0.9704569973 0.8743548363
|  7> C -1.9151561548 -0.0628206931 -0.2196865599
|  8> C -0.4594002554 -0.4138769858 -0.3971043111
|  9> O -0.0643693404 -1.5174927992 -0.7188427911
| 10> O 0.3425839003 0.6220704247 -0.2008914725
| 11> C 1.758559478 0.4308946355 -0.3471035326
| 12> C 2.3846947029 -0.0385112582 0.9571999814
| 13> H -3.2260490453 1.1860187823 0.9379558336
| 14> H -1.8274046281 0.5938982904 1.8368402985
| 15> H -1.629179289 1.8902295945 0.6564954305
| 16> H -2.2601554968 0.3268341179 -1.1807357957
| 17> H -2.4548541975 -0.9897680071 -0.0227724889
| 18> H 1.9330378095 -0.2996956563 -1.1429491713
| 19> H 2.1394826154 1.409780401 -0.6401239162
| 20> H 2.1623207192 0.6658607769 1.7541266825
| 21> H 1.9919780489 -1.0162613655 1.2275824345
| 22> H 3.4601185563 -0.113001884 0.8336532619
| 23> *
| 24>
| 25>                          ****END OF INPUT****

CARTESIAN COORDINATES (ANGSTROEM)
---------------------------------
  C     -2.163573    0.970457    0.874355
  C     -1.915156   -0.062821   -0.219687
  C     -0.459400   -0.413877   -0.397104
  O     -0.064369   -1.517493   -0.718843
  O      0.342584    0.622070   -0.200891
  C      1.758559    0.430895   -0.347104
  C      2.384695   -0.038511    0.957200
  H     -3.226049    1.186019    0.937956
  H     -1.827405    0.593898    1.836840
  H     -1.629179    1.890230    0.656495
  H     -2.260155    0.326834   -1.180736
  H     -2.454854   -0.989768   -0.022772
  H      1.933038   -0.299696   -1.142949
  H      2.139483    1.409780   -0.640124
  H      2.162321    0.665861    1.754127
  H      1.991978   -1.016261    1.227582
  H      3.460119   -0.113002    0.833653

 Total Charge           Charge          ....    0
 Multiplicity           Mult            ....    1
 Number of Electrons    NEL             ....   56
 Basis Dimension        Dim             ....  118

ORBITAL ENERGIES
----------------

  NO   OCC          E(Eh)            E(eV)
   0   2.0000     -18.798245      -511.5262
   1   2.0000     -18.728498      -509.6283
   2   2.0000     -10.004619      -272.2395
   3   2.0000      -9.946909      -270.6691
   4   2.0000      -9.899489      -269.3788
   5   2.0000      -9.887098      -269.0416
   6   2.0000      -9.882935      -268.9283
   7   2.0000      -1.004948       -27.3460
   8   2.0000      -0.906135       -24.6572
   9   2.0000      -0.721659       -19.6373
  10   2.0000      -0.684967       -18.6389
  11   2.0000      -0.603306       -16.4168
  12   2.0000      -0.569088       -15.4857
  13   2.0000      -0.496353       -13.5064
  14   2.0000      -0.452049       -12.3009
  15   2.0000      -0.435944       -11.8627
  16   2.0000      -0.401963       -10.9380
  17   2.0000      -0.398997       -10.8572
  18   2.0000      -0.390979       -10.6391
  19   2.0000      -0.358843        -9.7646
  20   2.0000      -0.353477        -9.6186
  21   2.0000      -0.340655        -9.2697
  22   2.0000      -0.325353        -8.8533
  23   2.0000      -0.319808        -8.7024
  24   2.0000      -0.307679        -8.3724
  25   2.0000      -0.289129        -7.8676
  26   2.0000      -0.254907        -6.9364
  27   2.0000      -0.213508        -5.8099
  28   0.0000      -0.018520        -0.5040
  29   0.0000       0.039906         1.0859
  30   0.0000       0.056947         1.5496
  31   0.0000       0.079555         2.1648
  32   0.0000       0.085578         2.3287

MULLIKEN ATOMIC CHARGES
-----------------------
   0 C :   -0.283312
   1 C :   -0.171765
   2 C :    0.107013
   3 O :   -0.211140
   4 O :   -0.238969
   5 C :   -0.014478
   6 C :   -0.303009
   7 H :    0.105173
   8 H :    0.107224
   9 H :    0.116589
  10 H :    0.118614
  11 H :    0.108538
  12 H :    0.108478
  13 H :    0.100350
  14 H :    0.112727
  15 H :    0.125820
  16 H :    0.112148
Sum of atomic charges:   -0.0000000

LOEWDIN ATOMIC CHARGES
----------------------
   0 C :   -0.340846
   1 C :   -0.252711
   2 C :    0.034634
   3 O :   -0.174423
   4 O :   -0.064154
   5 C :   -0.112847
   6 C :   -0.355740
   7 H :    0.121533
   8 H :    0.121311
   9 H :    0.123448
  10 H :    0.143660
  11 H :    0.135886
  12 H :    0.119444
  13 H :    0.116371
  14 H :    0.123927
  15 H :    0.130324
  16 H :    0.130183

  Mayer bond orders larger than 0.100000
B(  0-C ,  1-C ) :   1.1395 B(  0-C ,  7-H ) :   0.9486 B(  0-C ,  8-H ) :   0.9605
B(  0-C ,  9-H ) :   0.9473 B(  1-C ,  2-C ) :   1.0358 B(  1-C , 10-H ) :   0.8955
B(  1-C , 11-H ) :   0.9172 B(  2-C ,  3-O ) :   2.0496 B(  2-C ,  4-O ) :   1.2053
B(  4-O ,  5-C ) :   0.9238 B(  5-C ,  6-C ) :   1.1728 B(  5-C , 12-H ) :   0.9135
B(  5-C , 13-H ) :   0.9368 B(  6-C , 14-H ) :   0.9492 B(  6-C , 15-H ) :   0.9465
B(  6-C , 16-H ) :   0.9445

Dispersion correction           -0.012103915
FINAL SINGLE POINT ENERGY      -346.244230019333

DIPOLE MOMENT
-------------

Method             : SCF
Type of density    : Electron Density
Multiplicity       :   1
Irrep              :   0
Energy             :  -346.3090057937168922 Eh
Relativity type    :
Basis              : AO
                                X                 Y                 Z
Electronic contribution:     -0.150460825      -2.703466291      -3.762191651
Nuclear contribution   :      0.275532020       3.414688821       3.983024236
                        -----------------------------------------
Total Dipole Moment    :      0.125071195       0.711222531       0.220832585
                        -----------------------------------------
Magnitude (a.u.)       :      0.755147219
Magnitude (Debye)      :      1.919431691

Rotational constants in cm-1:             0.147854             0.057169             0.047449
Rotational constants in MHz :          4432.553359          1713.878291          1422.478935

                             ****ORCA TERMINATED NORMALLY****
TOTAL RUN TIME: 0 days 0 hours 0 minutes 9 seconds 135 msec
