                         Program Version 6.0.0  -   RELEASE  -
|  1> ! r2scan-3c def2/J RI DEFGRID2 scfconv6 printgap
|  2> %output
|  3>     printlevel normal
|  4> end
|  5> * xyz 0 1
|  6> C 1.4763216538 0.912547425 -0.9472134427
|  7> C 1.3839191124 0.1205344081 0.3550750862
|  8> C 1.6598687391 -1.3593517762 0.108375911
|  9> C 0.0129102363 0.330824356 1.0354375056
| 10> C -1.1428945658 -0.0004937753 0.121310341
| 11> O -1.3939144047 -1.1377704813 -0.2304210599
| 12> C -1.9713070772 1.1708964627 -0.3162998027
| 13> H 1.2652645602 1.965435693 -0.775788865
| 14> H 2.4767376916 0.8295721824 -1.364890388
| 15> H 0.7697086701 0.5246816776 -1.6784920991
| 16> H 2.1428772467 0.5024880062 1.0468437663
| 17> H 1.6897120064 -1.9065810054 1.0477865018
| 18> H 2.6146465793 -1.4866942461 -0.3958958234
| 19> H 0.8800906571 -1.7944934899 -0.5128872615
| 20> H -0.0671603231 1.364332451 1.3689574644
| 21> H -0.0392655353 -0.3320600461 1.9012375809
| 22> H -1.3321207827 1.9301993814 -0.7587895806
| 23> H -2.7295059703 0.856901802 -1.0286852272
| 24> H -2.4518460512 1.6053854756 0.5577355751
| 25> *
| 26>
| 27>                          ****END OF INPUT****

CARTESIAN COORDINATES (ANGSTROEM)
---------------------------------
  C      1.476322    0.912547   -0.947213
  C      1.383919    0.120534    0.355075
  C      1.659869   -1.359352    0.108376
  C      0.012910    0.330824    1.035438
  C     -1.142895   -0.000494    0.121310
  O     -1.393914   -1.137770   -0.230421
  C     -1.971307    1.170896   -0.316300
  H      1.265265    1.965436   -0.775789
  H      2.476738    0.829572   -1.364890
  H      0.769709    0.524682   -1.678492
  H      2.142877    0.502488    1.046844
  H      1.689712   -1.906581    1.047787
  H      2.614647   -1.486694   -0.395896
  H      0.880091   -1.794493   -0.512887
  H     -0.067160    1.364332    1.368957
  H     -0.039266   -0.332060    1.901238
  H     -1.332121    1.930199   -0.758790
  H     -2.729506    0.856902   -1.028685
  H     -2.451846    1.605385    0.557736

 Total Charge           Charge          ....    0
 Multiplicity           Mult            ....    1
 Number of Electrons    NEL             ....   56
 Basis Dimension        Dim             ....  198

ORBITAL ENERGIES
----------------

  NO   OCC          E(Eh)            E(eV)
   0   2.0000     -18.936562      -515.2900
   1   2.0000     -10.118318      -275.3334
   2   2.0000     -10.047395      -273.4035
   3   2.0000     -10.036024      -273.0941
   4   2.0000     -10.033291      -273.0197
   5   2.0000     -10.023217      -272.7456
   6   2.0000     -10.010517      -272.4000
   7   2.0000      -1.002668       -27.2840
   8   2.0000      -0.785933       -21.3863
   9   2.0000      -0.725261       -19.7354
  10   2.0000      -0.667956       -18.1760
  11   2.0000      -0.651751       -17.7350
  12   2.0000      -0.549890       -14.9633
  13   2.0000      -0.488420       -13.2906
  14   2.0000      -0.453207       -12.3324
  15   2.0000      -0.434264       -11.8169
  16   2.0000      -0.422866       -11.5068
  17   2.0000      -0.403865       -10.9897
  18   2.0000      -0.394658       -10.7392
  19   2.0000      -0.382706       -10.4140
  20   2.0000      -0.361736        -9.8433
  21   2.0000      -0.348871        -9.4933
  22   2.0000      -0.341835        -9.3018
  23   2.0000      -0.324976        -8.8430
  24   2.0000      -0.307033        -8.3548
  25   2.0000      -0.302261        -8.2249
  26   2.0000      -0.299455        -8.1486
  27   2.0000      -0.210294        -5.7224
  28   0.0000      -0.047747        -1.2993
  29   0.0000       0.069541         1.8923
  30   0.0000       0.103150         2.8068
  31   0.0000       0.119874         3.2619
  32   0.0000       0.123096         3.3496

MULLIKEN ATOMIC CHARGES
-----------------------
   0 C :   -0.542746
   1 C :    0.026527
   2 C :   -0.507667
   3 C :   -0.334526
   4 C :    0.288022
   5 O :   -0.348133
   6 C :   -0.518738
   7 H :    0.152682
   8 H :    0.150439
   9 H :    0.167469
  10 H :    0.153735
  11 H :    0.143718
  12 H :    0.139269
  13 H :    0.190812
  14 H :    0.159288
  15 H :    0.171276
  16 H :    0.164867
  17 H :    0.177153
  18 H :    0.166553
Sum of atomic charges:    0.0000000

LOEWDIN ATOMIC CHARGES
----------------------
   0 C :   -0.412754
   1 C :   -0.222186
   2 C :   -0.410566
   3 C :   -0.280331
   4 C :    0.211702
   5 O :   -0.473563
   6 C :   -0.387716
   7 H :    0.152111
   8 H :    0.156685
   9 H :    0.159608
  10 H :    0.156329
  11 H :    0.154926
  12 H :    0.150732
  13 H :    0.175991
  14 H :    0.164607
  15 H :    0.184281
  16 H :    0.171656
  17 H :    0.173483
  18 H :    0.175007

  Mayer bond orders larger than 0.100000
B(  0-C ,  1-C ) :   0.8838 B(  0-C ,  7-H ) :   0.9788 B(  0-C ,  8-H ) :   0.9648
B(  0-C ,  9-H ) :   0.9698 B(  1-C ,  2-C ) :   0.9462 B(  1-C ,  3-C ) :   0.8686
B(  1-C , 10-H ) :   0.9659 B(  2-C , 11-H ) :   0.9711 B(  2-C , 12-H ) :   0.9736
B(  2-C , 13-H ) :   0.9658 B(  3-C ,  4-C ) :   0.8548 B(  3-C , 14-H ) :   0.9657
B(  3-C , 15-H ) :   0.9658 B(  4-C ,  5-O ) :   1.9248 B(  4-C ,  6-C ) :   0.9179
B(  6-C , 16-H ) :   0.9463 B(  6-C , 17-H ) :   0.9876 B(  6-C , 18-H ) :   0.9452

Dispersion correction           -0.005252509
FINAL SINGLE POINT ENERGY      -311.003030417997

DIPOLE MOMENT
-------------

Method             : SCF
Type of density    : Electron Density
Multiplicity       :   1
Irrep              :   0
Energy             :  -311.0067657554673701 Eh
Relativity type    :
Basis              : AO
                                X                 Y                 Z
Electronic contribution:     -4.538551727      -2.773254565       0.871560119
Nuclear contribution   :      4.875736379       3.791291843      -0.559626576
                        -----------------------------------------
Total Dipole Moment    :      0.337184652       1.018037278       0.311933543
                        -----------------------------------------
Magnitude (a.u.)       :      1.116868804
Magnitude (Debye)      :      2.838854892

Rotational constants in cm-1:             0.126831             0.064989             0.054134
Rotational constants in MHz :          3802.309443          1948.328618          1622.903382

                             ****ORCA TERMINATED NORMALLY****
TOTAL RUN TIME: 0 days 0 hours 0 minutes 29 seconds 288 msec
