                         Program Version 6.0.0  -   RELEASE  -
|  1> ! r2scan-3c def2/J RI DEFGRID2 scfconv6 printgap
|  2> %output
|  3>     printlevel normal
|  4> end
|  5> %cpcm
|  6>     smd true
|  7>     smdsolvent "water"
|  8> end
|  9> * xyz 0 1
| 10> C 1.4763216538 0.912547425 -0.9472134427
| 11> C 1.3839191124 0.1205344081 0.3550750862
| 12> C 1.6598687391 -1.3593517762 0.108375911
| 13> C 0.0129102363 0.330824356 1.0354375056
| 14> C -1.1428945658 -0.0004937753 0.121310341
| 15> O -1.3939144047 -1.1377704813 -0.2304210599
| 16> C -1.9713070772 1.1708964627 -0.3162998027
| 17> H 1.2652645602 1.965435693 -0.775788865
| 18> H 2.4767376916 0.8295721824 -1.364890388
| 19> H 0.7697086701 0.5246816776 -1.6784920991
| 20> H 2.1428772467 0.5024880062 1.0468437663
| 21> H 1.6897120064 -1.9065810054 1.0477865018
| 22> H 2.6146465793 -1.4866942461 -0.3958958234
| 23> H 0.8800906571 -1.7944934899 -0.5128872615
| 24> H -0.0671603231 1.364332451 1.3689574644
| 25> H -0.0392655353 -0.3320600461 1.9012375809
| 26> H -1.3321207827 1.9301993814 -0.7587895806
| 27> H -2.7295059703 0.856901802 -1.0286852272
| 28> H -2.4518460512 1.6053854756 0.5577355751
| 29> *
| 30>
| 31>                          ****END OF INPUT****

CARTESIAN COORDINATES (ANGSTROEM)
---------------------------------
  C      1.476322    0.912547   -0.947213
  C      1.383919    0.120534    0.355075
  C      1.659869   -1.359352    0.108376
  C      0.012910    0.330824    1.035438
  C     -1.142895   -0.000494    0.121310
  O     -1.393914   -1.137770   -0.230421
  C     -1.971307    1.170896   -0.316300
  H      1.265265    1.965436   -0.775789
  H      2.476738    0.829572   -1.364890
  H      0.769709    0.524682   -1.678492
  H      2.142877    0.502488    1.046844
  H      1.689712   -1.906581    1.047787
  H      2.614647   -1.486694   -0.395896
  H      0.880091   -1.794493   -0.512887
  H     -0.067160    1.364332    1.368957
  H     -0.039266   -0.332060    1.901238
  H     -1.332121    1.930199   -0.758790
  H     -2.729506    0.856902   -1.028685
  H     -2.451846    1.605385    0.557736

 Total Charge           Charge          ....    0
 Multiplicity           Mult            ....    1
 Number of Electrons    NEL             ....   56
 Basis Dimension        Dim             ....  198

ORBITAL ENERGIES
----------------

  NO   OCC          E(Eh)            E(eV)
   0   2.0000     -18.944675      -515.5108
   1   2.0000     -10.123437      -275.4727
   2   2.0000     -10.037366      -273.1306
   3   2.0000     -10.025779      -272.8153
   4   2.0000     -10.021491      -272.6986
   5   2.0000     -10.009776      -272.3799
   6   2.0000     -10.006232      -272.2834
   7   2.0000      -1.013333       -27.5742
   8   2.0000      -0.776885       -21.1401
   9   2.0000      -0.716882       -19.5073
  10   2.0000      -0.657660       -17.8958
  11   2.0000      -0.643927       -17.5221
  12   2.0000      -0.542211       -14.7543
  13   2.0000      -0.485691       -13.2163
  14   2.0000      -0.446426       -12.1479
  15   2.0000      -0.429600       -11.6900
  16   2.0000      -0.418659       -11.3923
  17   2.0000      -0.396360       -10.7855
  18   2.0000      -0.383767       -10.4428
  19   2.0000      -0.380297       -10.3484
  20   2.0000      -0.354654        -9.6506
  21   2.0000      -0.344166        -9.3652
  22   2.0000      -0.336038        -9.1441
  23   2.0000      -0.321176        -8.7396
  24   2.0000      -0.299625        -8.1532
  25   2.0000      -0.292645        -7.9633
  26   2.0000      -0.292453        -7.9580
  27   2.0000      -0.218566        -5.9475
  28   0.0000      -0.049177        -1.3382
  29   0.0000       0.081290         2.2120
  30   0.0000       0.116053         3.1580
  31   0.0000       0.134646         3.6639
  32   0.0000       0.135765         3.6944

MULLIKEN ATOMIC CHARGES
-----------------------
   0 C :   -0.566638
   1 C :    0.043698
   2 C :   -0.561880
   3 C :   -0.341127
   4 C :    0.314584
   5 O :   -0.446825
   6 C :   -0.543917
   7 H :    0.169689
   8 H :    0.161162
   9 H :    0.169579
  10 H :    0.168860
  11 H :    0.161493
  12 H :    0.156310
  13 H :    0.175703
  14 H :    0.183911
  15 H :    0.188075
  16 H :    0.193009
  17 H :    0.176703
  18 H :    0.197609
Sum of atomic charges:   -0.0000000

LOEWDIN ATOMIC CHARGES
----------------------
   0 C :   -0.417392
   1 C :   -0.217219
   2 C :   -0.421140
   3 C :   -0.274891
   4 C :    0.227996
   5 O :   -0.547124
   6 C :   -0.384716
   7 H :    0.159351
   8 H :    0.158525
   9 H :    0.159988
  10 H :    0.162975
  11 H :    0.157867
  12 H :    0.155697
  13 H :    0.167370
  14 H :    0.176620
  15 H :    0.189422
  16 H :    0.184965
  17 H :    0.172571
  18 H :    0.189134

  Mayer bond orders larger than 0.100000
B(  0-C ,  1-C ) :   0.8903 B(  0-C ,  7-H ) :   0.9715 B(  0-C ,  8-H ) :   0.9641
B(  0-C ,  9-H ) :   0.9679 B(  1-C ,  2-C ) :   0.9202 B(  1-C ,  3-C ) :   0.8595
B(  1-C , 10-H ) :   0.9614 B(  2-C , 11-H ) :   0.9715 B(  2-C , 12-H ) :   0.9707
B(  2-C , 13-H ) :   0.9722 B(  3-C ,  4-C ) :   0.8729 B(  3-C , 14-H ) :   0.9561
B(  3-C , 15-H ) :   0.9628 B(  4-C ,  5-O ) :   1.8519 B(  4-C ,  6-C ) :   0.9393
B(  6-C , 16-H ) :   0.9323 B(  6-C , 17-H ) :   0.9848 B(  6-C , 18-H ) :   0.9303

Dispersion correction           -0.005252509
FINAL SINGLE POINT ENERGY      -311.008643916074

DIPOLE MOMENT
-------------

Method             : SCF
Type of density    : Electron Density
Multiplicity       :   1
Irrep              :   0
Energy             :  -311.0123792535442249 Eh
Relativity type    :
Basis              : AO
                                X                 Y                 Z
Electronic contribution:     -4.382100093      -2.214410821       1.061220231
Nuclear contribution   :      4.875736379       3.791291843      -0.559626576
                        -----------------------------------------
Total Dipole Moment    :      0.493636286       1.576881022       0.501593655
                        -----------------------------------------
Magnitude (a.u.)       :      1.726796669
Magnitude (Debye)      :      4.389168319

Rotational constants in cm-1:             0.126831             0.064989             0.054134
Rotational constants in MHz :          3802.309443          1948.328618          1622.903382

                             ****ORCA TERMINATED NORMALLY****
TOTAL RUN TIME: 0 days 0 hours 0 minutes 32 seconds 225 msec
