                         Program Version 6.0.0  -   RELEASE  -
|  1> ! r2scan-3c def2/J RI DEFGRID2 scfconv6 printgap
|  2> %output
|  3>     printlevel normal
|  4> end
|  5> * xyz 0 1
|  6> C -1.0858497228 -0.1505368268 0.7209414989
|  7> C 0.2336847068 0.5467188707 0.3510619775
|  8> C 1.1084616227 -0.3747020257 -0.5030886448
|  9> O 1.6665300613 -1.3524506276 0.3450205118
| 10> O -0.0214725732 1.7182839394 -0.397270648
| 11> O -1.8745271824 -0.4044154174 -0.4172512991
| 12> H -1.6450316039 0.469844894 1.4359539739
| 13> H -0.8672182055 -1.1147507079 1.1819477878
| 14> H 0.7883853066 0.7721864614 1.2709579736
| 15> H 1.8895427151 0.2339118881 -0.9763771535
| 16> H 0.4884283722 -0.8311106059 -1.2837464812
| 17> H 2.1707417461 -1.9827640149 -0.1874176279
| 18> H -0.3590660708 2.4079558678 0.1911546514
| 19> H -1.8773868597 0.4011954877 -0.9591619377
| 20> *
| 21>
| 22>                          ****END OF INPUT****

CARTESIAN COORDINATES (ANGSTROEM)
---------------------------------
  C     -1.085850   -0.150537    0.720941
  C      0.233685    0.546719    0.351062
  C      1.108462   -0.374702   -0.503089
  O      1.666530   -1.352451    0.345021
  O     -0.021473    1.718284   -0.397271
  O     -1.874527   -0.404415   -0.417251
  H     -1.645032    0.469845    1.435954
  H     -0.867218   -1.114751    1.181948
  H      0.788385    0.772186    1.270958
  H      1.889543    0.233912   -0.976377
  H      0.488428   -0.831111   -1.283746
  H      2.170742   -1.982764   -0.187418
  H     -0.359066    2.407956    0.191155
  H     -1.877387    0.401195   -0.959162

 Total Charge           Charge          ....    0
 Multiplicity           Mult            ....    1
 Number of Electrons    NEL             ....   50
 Basis Dimension        Dim             ....  169

ORBITAL ENERGIES
----------------

  NO   OCC          E(Eh)            E(eV)
   0   2.0000     -18.967707      -516.1375
   1   2.0000     -18.955585      -515.8077
   2   2.0000     -18.944527      -515.5068
   3   2.0000     -10.088070      -274.5103
   4   2.0000     -10.076094      -274.1844
   5   2.0000     -10.072616      -274.0898
   6   2.0000      -1.011423       -27.5222
   7   2.0000      -0.990594       -26.9554
   8   2.0000      -0.977478       -26.5985
   9   2.0000      -0.726735       -19.7755
  10   2.0000      -0.643209       -17.5026
  11   2.0000      -0.563709       -15.3393
  12   2.0000      -0.514288       -13.9945
  13   2.0000      -0.473295       -12.8790
  14   2.0000      -0.457246       -12.4423
  15   2.0000      -0.444979       -12.1085
  16   2.0000      -0.409097       -11.1321
  17   2.0000      -0.387671       -10.5491
  18   2.0000      -0.365621        -9.9490
  19   2.0000      -0.332290        -9.0421
  20   2.0000      -0.306917        -8.3516
  21   2.0000      -0.296248        -8.0613
  22   2.0000      -0.262376        -7.1396
  23   2.0000      -0.241461        -6.5705
  24   2.0000      -0.229943        -6.2571
  25   0.0000       0.034439         0.9371
  26   0.0000       0.061584         1.6758
  27   0.0000       0.087296         2.3755
  28   0.0000       0.126884         3.4527
  29   0.0000       0.131393         3.5754

MULLIKEN ATOMIC CHARGES
-----------------------
   0 C :   -0.182094
   1 C :    0.079606
   2 C :   -0.184850
   3 O :   -0.439691
   4 O :   -0.453974
   5 O :   -0.431744
   6 H :    0.130844
   7 H :    0.153378
   8 H :    0.131953
   9 H :    0.133896
  10 H :    0.148469
  11 H :    0.299024
  12 H :    0.303334
  13 H :    0.311850
Sum of atomic charges:    0.0000000

LOEWDIN ATOMIC CHARGES
----------------------
   0 C :    0.017529
   1 C :    0.084376
   2 C :    0.042797
   3 O :   -0.619944
   4 O :   -0.599447
   5 O :   -0.607963
   6 H :    0.156491
   7 H :    0.190158
   8 H :    0.177802
   9 H :    0.166775
  10 H :    0.173232
  11 H :    0.270462
  12 H :    0.273442
  13 H :    0.274290

  Mayer bond orders larger than 0.100000
B(  0-C ,  1-C ) :   0.9535 B(  0-C ,  5-O ) :   0.9755 B(  0-C ,  6-H ) :   0.9761
B(  0-C ,  7-H ) :   0.9561 B(  1-C ,  2-C ) :   0.9723 B(  1-C ,  4-O ) :   0.9145
B(  1-C ,  8-H ) :   0.9331 B(  2-C ,  3-O ) :   0.9431 B(  2-C ,  9-H ) :   0.9568
B(  2-C , 10-H ) :   0.9643 B(  3-O , 11-H ) :   0.8964 B(  4-O , 12-H ) :   0.8941
B(  5-O , 13-H ) :   0.8704

Dispersion correction           -0.003042835
FINAL SINGLE POINT ENERGY      -344.723041366275

DIPOLE MOMENT
-------------

Method             : SCF
Type of density    : Electron Density
Multiplicity       :   1
Irrep              :   0
Energy             :  -344.7305033010411535 Eh
Relativity type    :
Basis              : AO
                                X                 Y                 Z
Electronic contribution:     -0.196600414       0.146533237      -0.532345460
Nuclear contribution   :      0.548608968       0.333856983       0.624709906
                        -----------------------------------------
Total Dipole Moment    :      0.352008554       0.480390220       0.092364447
                        -----------------------------------------
Magnitude (a.u.)       :      0.602674022
Magnitude (Debye)      :      1.531875623

Rotational constants in cm-1:             0.155136             0.090041             0.068608
Rotational constants in MHz :          4650.865861          2699.352694          2056.811560

                             ****ORCA TERMINATED NORMALLY****
TOTAL RUN TIME: 0 days 0 hours 0 minutes 20 seconds 604 msec
