                         Program Version 6.0.0  -   RELEASE  -
|  1> ! r2scan-3c def2/J RI DEFGRID2 scfconv6 printgap
|  2> %output
|  3>     printlevel normal
|  4> end
|  5> %cpcm
|  6>     smd true
|  7>     smdsolvent "water"
|  8> end
|  9> * xyz 0 1
| 10> C -1.0858497228 -0.1505368268 0.7209414989
| 11> C 0.2336847068 0.5467188707 0.3510619775
| 12> C 1.1084616227 -0.3747020257 -0.5030886448
| 13> O 1.6665300613 -1.3524506276 0.3450205118
| 14> O -0.0214725732 1.7182839394 -0.397270648
| 15> O -1.8745271824 -0.4044154174 -0.4172512991
| 16> H -1.6450316039 0.469844894 1.4359539739
| 17> H -0.8672182055 -1.1147507079 1.1819477878
| 18> H 0.7883853066 0.7721864614 1.2709579736
| 19> H 1.8895427151 0.2339118881 -0.9763771535
| 20> H 0.4884283722 -0.8311106059 -1.2837464812
| 21> H 2.1707417461 -1.9827640149 -0.1874176279
| 22> H -0.3590660708 2.4079558678 0.1911546514
| 23> H -1.8773868597 0.4011954877 -0.9591619377
| 24> *
| 25>
| 26>                          ****END OF INPUT****

CARTESIAN COORDINATES (ANGSTROEM)
---------------------------------
  C     -1.085850   -0.150537    0.720941
  C      0.233685    0.546719    0.351062
  C      1.108462   -0.374702   -0.503089
  O      1.666530   -1.352451    0.345021
  O     -0.021473    1.718284   -0.397271
  O     -1.874527   -0.404415   -0.417251
  H     -1.645032    0.469845    1.435954
  H     -0.867218   -1.114751    1.181948
  H      0.788385    0.772186    1.270958
  H      1.889543    0.233912   -0.976377
  H      0.488428   -0.831111   -1.283746
  H      2.170742   -1.982764   -0.187418
  H     -0.359066    2.407956    0.191155
  H     -1.877387    0.401195   -0.959162

 Total Charge           Charge          ....    0
 Multiplicity           Mult            ....    1
 Number of Electrons    NEL             ....   50
 Basis Dimension        Dim             ....  169

ORBITAL ENERGIES
----------------

  NO   OCC          E(Eh)            E(eV)
   0   2.0000     -18.959825      -515.9231
   1   2.0000     -18.955586      -515.8077
   2   2.0000     -18.952399      -515.7210
   3   2.0000     -10.081274      -274.3254
   4   2.0000     -10.071483      -274.0590
   5   2.0000     -10.069121      -273.9947
   6   2.0000      -1.006849       -27.3978
   7   2.0000      -0.989517       -26.9261
   8   2.0000      -0.980402       -26.6781
   9   2.0000      -0.721882       -19.6434
  10   2.0000      -0.640169       -17.4199
  11   2.0000      -0.558733       -15.2039
  12   2.0000      -0.508616       -13.8401
  13   2.0000      -0.471985       -12.8434
  14   2.0000      -0.452655       -12.3174
  15   2.0000      -0.440876       -11.9968
  16   2.0000      -0.408357       -11.1120
  17   2.0000      -0.387848       -10.5539
  18   2.0000      -0.364836        -9.9277
  19   2.0000      -0.333483        -9.0745
  20   2.0000      -0.313155        -8.5214
  21   2.0000      -0.293765        -7.9938
  22   2.0000      -0.261614        -7.1189
  23   2.0000      -0.243332        -6.6214
  24   2.0000      -0.233740        -6.3604
  25   0.0000       0.052676         1.4334
  26   0.0000       0.073429         1.9981
  27   0.0000       0.105793         2.8788
  28   0.0000       0.137044         3.7292
  29   0.0000       0.139489         3.7957

MULLIKEN ATOMIC CHARGES
-----------------------
   0 C :   -0.181313
   1 C :    0.090202
   2 C :   -0.192611
   3 O :   -0.511263
   4 O :   -0.512648
   5 O :   -0.508737
   6 H :    0.152384
   7 H :    0.154947
   8 H :    0.151802
   9 H :    0.146363
  10 H :    0.153897
  11 H :    0.351552
  12 H :    0.354661
  13 H :    0.350764
Sum of atomic charges:    0.0000000

LOEWDIN ATOMIC CHARGES
----------------------
   0 C :    0.018404
   1 C :    0.086695
   2 C :    0.041548
   3 O :   -0.646982
   4 O :   -0.615501
   5 O :   -0.644779
   6 H :    0.168976
   7 H :    0.189381
   8 H :    0.186086
   9 H :    0.172123
  10 H :    0.174806
  11 H :    0.289069
  12 H :    0.293015
  13 H :    0.287160

  Mayer bond orders larger than 0.100000
B(  0-C ,  1-C ) :   0.9579 B(  0-C ,  5-O ) :   0.9594 B(  0-C ,  6-H ) :   0.9666
B(  0-C ,  7-H ) :   0.9556 B(  1-C ,  2-C ) :   0.9492 B(  1-C ,  4-O ) :   0.9073
B(  1-C ,  8-H ) :   0.9294 B(  2-C ,  3-O ) :   0.9326 B(  2-C ,  9-H ) :   0.9600
B(  2-C , 10-H ) :   0.9645 B(  3-O , 11-H ) :   0.8692 B(  4-O , 12-H ) :   0.8671
B(  5-O , 13-H ) :   0.8514

Dispersion correction           -0.003042835
FINAL SINGLE POINT ENERGY      -344.743115807882

DIPOLE MOMENT
-------------

Method             : SCF
Type of density    : Electron Density
Multiplicity       :   1
Irrep              :   0
Energy             :  -344.7505777426472378 Eh
Relativity type    :
Basis              : AO
                                X                 Y                 Z
Electronic contribution:     -0.122673970       0.379128928      -0.462429574
Nuclear contribution   :      0.548608968       0.333856983       0.624709906
                        -----------------------------------------
Total Dipole Moment    :      0.425934998       0.712985911       0.162280332
                        -----------------------------------------
Magnitude (a.u.)       :      0.846229542
Magnitude (Debye)      :      2.150944558

Rotational constants in cm-1:             0.155136             0.090041             0.068608
Rotational constants in MHz :          4650.865861          2699.352694          2056.811560

                             ****ORCA TERMINATED NORMALLY****
TOTAL RUN TIME: 0 days 0 hours 0 minutes 24 seconds 134 msec
