                         Program Version 6.0.0  -   RELEASE  -
|  1> ! pbe def2-sv(p) def2/J RI DEFGRID1 loosescf d4 GCP(DFT/SV(P)) printgap
|  2> %output
|  3>     printlevel normal
|  4> end
|  5> * xyz 0 1
|  6> C 2.1285029963 1.3329563985 -0.0353239733
|  7> C 1.2527286809 0.2560567234 0.5975279113
|  8> C 0.347966237 -0.4563882894 -0.4270623532
|  9> H 0.6574418847 -0.1335518387 -1.4283164232
| 10> C 0.5516539798 -1.9714462648 -0.3626205314
| 11> C -1.1475108874 -0.0931625247 -0.3047842125
| 12> C -1.7799291718 -0.5240134295 1.0177602509
| 13> C -1.3755430755 1.4009730433 -0.5331165103
| 14> H 1.519648884 2.1013947352 -0.5048768884
| 15> H 2.7538481115 1.805139539 0.7195279531
| 16> H 2.7775329459 0.8992109091 -0.7931737755
| 17> H 0.6513665314 0.7097533491 1.3851785785
| 18> H 1.9015165655 -0.4794729278 1.0768409366
| 19> H 1.5767151253 -2.221128278 -0.6274498716
| 20> H 0.3587885481 -2.3489213815 0.6382497005
| 21> H -0.1133641013 -2.4786697583 -1.0586249144
| 22> H -1.6652035219 -0.6324804907 -1.1080725271
| 23> H -1.7265160785 -1.6014826283 1.1437314664
| 24> H -2.8282744497 -0.2340706604 1.0338285715
| 25> H -1.2876426882 -0.0523118662 1.8643474538
| 26> H -2.4411157226 1.6186922608 -0.5564016045
| 27> H -0.9429110689 1.714045204 -1.4807945351
| 28> H -0.9280961375 1.9895710528 0.2634796729
| 29> *
| 30>
| 31>                          ****END OF INPUT****

CARTESIAN COORDINATES (ANGSTROEM)
---------------------------------
  C      2.128503    1.332956   -0.035324
  C      1.252729    0.256057    0.597528
  C      0.347966   -0.456388   -0.427062
  H      0.657442   -0.133552   -1.428316
  C      0.551654   -1.971446   -0.362621
  C     -1.147511   -0.093163   -0.304784
  C     -1.779929   -0.524013    1.017760
  C     -1.375543    1.400973   -0.533117
  H      1.519649    2.101395   -0.504877
  H      2.753848    1.805140    0.719528
  H      2.777533    0.899211   -0.793174
  H      0.651367    0.709753    1.385179
  H      1.901517   -0.479473    1.076841
  H      1.576715   -2.221128   -0.627450
  H      0.358789   -2.348921    0.638250
  H     -0.113364   -2.478670   -1.058625
  H     -1.665204   -0.632480   -1.108073
  H     -1.726516   -1.601483    1.143731
  H     -2.828274   -0.234071    1.033829
  H     -1.287643   -0.052312    1.864347
  H     -2.441116    1.618692   -0.556402
  H     -0.942911    1.714045   -1.480795
  H     -0.928096    1.989571    0.263480

 Total Charge           Charge          ....    0
 Multiplicity           Mult            ....    1
 Number of Electrons    NEL             ....   58
 Basis Dimension        Dim             ....  130

ORBITAL ENERGIES
----------------

  NO   OCC          E(Eh)            E(eV)
   0   2.0000      -9.889048      -269.0947
   1   2.0000      -9.886396      -269.0225
   2   2.0000      -9.876817      -268.7618
   3   2.0000      -9.869342      -268.5584
   4   2.0000      -9.868164      -268.5264
   5   2.0000      -9.867981      -268.5214
   6   2.0000      -9.867863      -268.5182
   7   2.0000      -0.740747       -20.1567
   8   2.0000      -0.681213       -18.5367
   9   2.0000      -0.644166       -17.5287
  10   2.0000      -0.606595       -16.5063
  11   2.0000      -0.559531       -15.2256
  12   2.0000      -0.533816       -14.5259
  13   2.0000      -0.473160       -12.8753
  14   2.0000      -0.425333       -11.5739
  15   2.0000      -0.396943       -10.8014
  16   2.0000      -0.393731       -10.7140
  17   2.0000      -0.371493       -10.1088
  18   2.0000      -0.364857        -9.9283
  19   2.0000      -0.352261        -9.5855
  20   2.0000      -0.338379        -9.2078
  21   2.0000      -0.331645        -9.0245
  22   2.0000      -0.320720        -8.7272
  23   2.0000      -0.305244        -8.3061
  24   2.0000      -0.299610        -8.1528
  25   2.0000      -0.289469        -7.8768
  26   2.0000      -0.268160        -7.2970
  27   2.0000      -0.263841        -7.1795
  28   2.0000      -0.259664        -7.0658
  29   0.0000       0.032896         0.8951
  30   0.0000       0.056936         1.5493
  31   0.0000       0.064115         1.7446
  32   0.0000       0.066624         1.8129
  33   0.0000       0.090915         2.4739

MULLIKEN ATOMIC CHARGES
-----------------------
   0 C :   -0.292220
   1 C :   -0.160591
   2 C :   -0.122440
   3 H :    0.065658
   4 C :   -0.250145
   5 C :   -0.170667
   6 C :   -0.254404
   7 C :   -0.238199
   8 H :    0.103681
   9 H :    0.097903
  10 H :    0.100886
  11 H :    0.093681
  12 H :    0.078611
  13 H :    0.098923
  14 H :    0.104277
  15 H :    0.091954
  16 H :    0.064242
  17 H :    0.102945
  18 H :    0.095899
  19 H :    0.097924
  20 H :    0.096224
  21 H :    0.097329
  22 H :    0.098530
Sum of atomic charges:   -0.0000000

LOEWDIN ATOMIC CHARGES
----------------------
   0 C :   -0.339388
   1 C :   -0.226703
   2 C :   -0.142580
   3 H :    0.112084
   4 C :   -0.330477
   5 C :   -0.148713
   6 C :   -0.332333
   7 C :   -0.330390
   8 H :    0.115789
   9 H :    0.116623
  10 H :    0.115813
  11 H :    0.113825
  12 H :    0.115441
  13 H :    0.117181
  14 H :    0.116131
  15 H :    0.114510
  16 H :    0.112494
  17 H :    0.117385
  18 H :    0.118487
  19 H :    0.115895
  20 H :    0.117097
  21 H :    0.115618
  22 H :    0.116210

  Mayer bond orders larger than 0.100000
B(  0-C ,  1-C ) :   1.1573 B(  0-C ,  8-H ) :   0.9505 B(  0-C ,  9-H ) :   0.9505
B(  0-C , 10-H ) :   0.9532 B(  1-C ,  2-C ) :   1.0289 B(  1-C , 11-H ) :   0.9174
B(  1-C , 12-H ) :   0.9277 B(  2-C ,  3-H ) :   0.9058 B(  2-C ,  4-C ) :   1.1263
B(  2-C ,  5-C ) :   1.0587 B(  4-C , 13-H ) :   0.9466 B(  4-C , 14-H ) :   0.9399
B(  4-C , 15-H ) :   0.9475 B(  5-C ,  6-C ) :   1.1073 B(  5-C ,  7-C ) :   1.1197
B(  5-C , 16-H ) :   0.8971 B(  6-C , 17-H ) :   0.9454 B(  6-C , 18-H ) :   0.9486
B(  6-C , 19-H ) :   0.9424 B(  7-C , 20-H ) :   0.9478 B(  7-C , 21-H ) :   0.9450
B(  7-C , 22-H ) :   0.9410

Dispersion correction           -0.019304858
FINAL SINGLE POINT ENERGY      -275.657517419137

DIPOLE MOMENT
-------------

Method             : SCF
Type of density    : Electron Density
Multiplicity       :   1
Irrep              :   0
Energy             :  -275.7347885102361147 Eh
Relativity type    :
Basis              : AO
                                X                 Y                 Z
Electronic contribution:     -0.264111561      -0.625682876      -0.548662745
Nuclear contribution   :      0.247425845       0.615168609       0.532382029
                        -----------------------------------------
Total Dipole Moment    :     -0.016685716      -0.010514267      -0.016280716
                        -----------------------------------------
Magnitude (a.u.)       :      0.025573906
Magnitude (Debye)      :      0.065003702

Rotational constants in cm-1:             0.095579             0.067475             0.049487
Rotational constants in MHz :          2865.379364          2022.858935          1483.595189

                             ****ORCA TERMINATED NORMALLY****
TOTAL RUN TIME: 0 days 0 hours 0 minutes 9 seconds 662 msec
