                         Program Version 6.0.0  -   RELEASE  -
|  1> ! r2scan-3c def2/J RI DEFGRID2 scfconv6 printgap
|  2> %output
|  3>     printlevel normal
|  4> end
|  5> * xyz 0 1
|  6> C 1.4782211514 -1.3622231482 -0.9493675565
|  7> O 1.4481943941 -0.2743954568 -0.0128073047
|  8> S 0.0732283062 0.4559552107 0.1036927056
|  9> O -0.4364776976 0.7829857814 -1.1972584917
| 10> O 0.2765871439 1.5257843869 1.0282307958
| 11> O -0.8242926264 -0.6445445596 0.7742754789
| 12> C -2.072168568 -1.0200163528 0.1699458521
| 13> H 2.5282897557 -1.5528197146 -1.1560802123
| 14> H 0.9487327183 -1.0587923081 -1.8517929567
| 15> H 1.0046066272 -2.233578791 -0.4986046295
| 16> H -2.0929242093 -2.1074193481 0.1232647645
| 17> H -2.1236628445 -0.5817444515 -0.8249368606
| 18> H -2.8824655536 -0.6448094613 0.7931164041
| 19> *
| 20>
| 21>                          ****END OF INPUT****

CARTESIAN COORDINATES (ANGSTROEM)
---------------------------------
  C      1.478221   -1.362223   -0.949368
  O      1.448194   -0.274395   -0.012807
  S      0.073228    0.455955    0.103693
  O     -0.436478    0.782986   -1.197258
  O      0.276587    1.525784    1.028231
  O     -0.824293   -0.644545    0.774275
  C     -2.072169   -1.020016    0.169946
  H      2.528290   -1.552820   -1.156080
  H      0.948733   -1.058792   -1.851793
  H      1.004607   -2.233579   -0.498605
  H     -2.092924   -2.107419    0.123265
  H     -2.123663   -0.581744   -0.824937
  H     -2.882466   -0.644809    0.793116

 Total Charge           Charge          ....    0
 Multiplicity           Mult            ....    1
 Number of Electrons    NEL             ....   66
 Basis Dimension        Dim             ....  191

ORBITAL ENERGIES
----------------

  NO   OCC          E(Eh)            E(eV)
   0   2.0000     -88.822191     -2416.9747
   1   2.0000     -19.026651      -517.7415
   2   2.0000     -19.024482      -517.6825
   3   2.0000     -18.960992      -515.9548
   4   2.0000     -18.952184      -515.7151
   5   2.0000     -10.111129      -275.1378
   6   2.0000     -10.110487      -275.1204
   7   2.0000      -8.086089      -220.0337
   8   2.0000      -6.032923      -164.1642
   9   2.0000      -6.032021      -164.1396
  10   2.0000      -6.028962      -164.0564
  11   2.0000      -1.164150       -31.6781
  12   2.0000      -1.052713       -28.6458
  13   2.0000      -1.024426       -27.8760
  14   2.0000      -0.993780       -27.0421
  15   2.0000      -0.741263       -20.1708
  16   2.0000      -0.705411       -19.1952
  17   2.0000      -0.591003       -16.0820
  18   2.0000      -0.549085       -14.9414
  19   2.0000      -0.498858       -13.5746
  20   2.0000      -0.487744       -13.2722
  21   2.0000      -0.460653       -12.5350
  22   2.0000      -0.457465       -12.4483
  23   2.0000      -0.445036       -12.1100
  24   2.0000      -0.415622       -11.3097
  25   2.0000      -0.374303       -10.1853
  26   2.0000      -0.366035        -9.9603
  27   2.0000      -0.337867        -9.1938
  28   2.0000      -0.332557        -9.0493
  29   2.0000      -0.331092        -9.0095
  30   2.0000      -0.298553        -8.1240
  31   2.0000      -0.289416        -7.8754
  32   2.0000      -0.272810        -7.4235
  33   0.0000       0.009179         0.2498
  34   0.0000       0.051123         1.3911
  35   0.0000       0.060084         1.6350
  36   0.0000       0.079122         2.1530
  37   0.0000       0.085771         2.3340

MULLIKEN ATOMIC CHARGES
-----------------------
   0 C :   -0.287204
   1 O :   -0.224712
   2 S :    1.136290
   3 O :   -0.622480
   4 O :   -0.508486
   5 O :   -0.242310
   6 C :   -0.267739
   7 H :    0.164944
   8 H :    0.184640
   9 H :    0.160111
  10 H :    0.153136
  11 H :    0.192569
  12 H :    0.161242
Sum of atomic charges:    0.0000000

LOEWDIN ATOMIC CHARGES
----------------------
   0 C :   -0.043207
   1 O :   -0.546613
   2 S :    0.894629
   3 O :   -0.434111
   4 O :   -0.361603
   5 O :   -0.562586
   6 C :   -0.035271
   7 H :    0.184968
   8 H :    0.186982
   9 H :    0.171804
  10 H :    0.173597
  11 H :    0.195996
  12 H :    0.175416

  Mayer bond orders larger than 0.100000
B(  0-C ,  1-O ) :   0.7950 B(  0-C ,  7-H ) :   0.9619 B(  0-C ,  8-H ) :   0.9603
B(  0-C ,  9-H ) :   0.9609 B(  1-O ,  2-S ) :   1.0363 B(  2-S ,  3-O ) :   1.5908
B(  2-S ,  4-O ) :   1.8621 B(  2-S ,  5-O ) :   0.9092 B(  5-O ,  6-C ) :   0.7879
B(  6-C , 10-H ) :   0.9651 B(  6-C , 11-H ) :   0.9606 B(  6-C , 12-H ) :   0.9646

Dispersion correction           -0.003609206
FINAL SINGLE POINT ENERGY      -778.748499010736

DIPOLE MOMENT
-------------

Method             : SCF
Type of density    : Electron Density
Multiplicity       :   1
Irrep              :   0
Energy             :  -778.7690272001241283 Eh
Relativity type    :
Basis              : AO
                                X                 Y                 Z
Electronic contribution:      2.070510304       5.865247826       2.627197279
Nuclear contribution   :     -2.450824353      -7.665970626      -3.198092577
                        -----------------------------------------
Total Dipole Moment    :     -0.380314049      -1.800722800      -0.570895298
                        -----------------------------------------
Magnitude (a.u.)       :      1.926956881
Magnitude (Debye)      :      4.897935146

Rotational constants in cm-1:             0.098584             0.079903             0.060666
Rotational constants in MHz :          2955.486218          2395.433552          1818.731434

                             ****ORCA TERMINATED NORMALLY****
TOTAL RUN TIME: 0 days 0 hours 0 minutes 21 seconds 829 msec
