                         Program Version 6.0.0  -   RELEASE  -
|  1> ! r2scan-3c def2/J RI DEFGRID2 scfconv6 printgap
|  2> %output
|  3>     printlevel normal
|  4> end
|  5> %cpcm
|  6>     smd true
|  7>     smdsolvent "water"
|  8> end
|  9> * xyz 0 1
| 10> C 1.4782211514 -1.3622231482 -0.9493675565
| 11> O 1.4481943941 -0.2743954568 -0.0128073047
| 12> S 0.0732283062 0.4559552107 0.1036927056
| 13> O -0.4364776976 0.7829857814 -1.1972584917
| 14> O 0.2765871439 1.5257843869 1.0282307958
| 15> O -0.8242926264 -0.6445445596 0.7742754789
| 16> C -2.072168568 -1.0200163528 0.1699458521
| 17> H 2.5282897557 -1.5528197146 -1.1560802123
| 18> H 0.9487327183 -1.0587923081 -1.8517929567
| 19> H 1.0046066272 -2.233578791 -0.4986046295
| 20> H -2.0929242093 -2.1074193481 0.1232647645
| 21> H -2.1236628445 -0.5817444515 -0.8249368606
| 22> H -2.8824655536 -0.6448094613 0.7931164041
| 23> *
| 24>
| 25>                          ****END OF INPUT****

CARTESIAN COORDINATES (ANGSTROEM)
---------------------------------
  C      1.478221   -1.362223   -0.949368
  O      1.448194   -0.274395   -0.012807
  S      0.073228    0.455955    0.103693
  O     -0.436478    0.782986   -1.197258
  O      0.276587    1.525784    1.028231
  O     -0.824293   -0.644545    0.774275
  C     -2.072169   -1.020016    0.169946
  H      2.528290   -1.552820   -1.156080
  H      0.948733   -1.058792   -1.851793
  H      1.004607   -2.233579   -0.498605
  H     -2.092924   -2.107419    0.123265
  H     -2.123663   -0.581744   -0.824937
  H     -2.882466   -0.644809    0.793116

 Total Charge           Charge          ....    0
 Multiplicity           Mult            ....    1
 Number of Electrons    NEL             ....   66
 Basis Dimension        Dim             ....  191

ORBITAL ENERGIES
----------------

  NO   OCC          E(Eh)            E(eV)
   0   2.0000     -88.834656     -2417.3139
   1   2.0000     -19.027836      -517.7738
   2   2.0000     -19.023703      -517.6613
   3   2.0000     -18.973458      -516.2940
   4   2.0000     -18.971988      -516.2540
   5   2.0000     -10.089869      -274.5593
   6   2.0000     -10.088831      -274.5310
   7   2.0000      -8.098269      -220.3651
   8   2.0000      -6.044792      -164.4871
   9   2.0000      -6.044103      -164.4684
  10   2.0000      -6.041693      -164.4028
  11   2.0000      -1.172003       -31.8918
  12   2.0000      -1.051343       -28.6085
  13   2.0000      -1.032367       -28.0921
  14   2.0000      -1.010701       -27.5026
  15   2.0000      -0.732987       -19.9456
  16   2.0000      -0.691747       -18.8234
  17   2.0000      -0.582938       -15.8625
  18   2.0000      -0.543106       -14.7787
  19   2.0000      -0.509265       -13.8578
  20   2.0000      -0.490899       -13.3580
  21   2.0000      -0.451381       -12.2827
  22   2.0000      -0.446880       -12.1602
  23   2.0000      -0.428334       -11.6556
  24   2.0000      -0.421072       -11.4579
  25   2.0000      -0.371713       -10.1148
  26   2.0000      -0.366323        -9.9682
  27   2.0000      -0.345096        -9.3905
  28   2.0000      -0.331901        -9.0315
  29   2.0000      -0.328097        -8.9280
  30   2.0000      -0.304310        -8.2807
  31   2.0000      -0.302482        -8.2310
  32   2.0000      -0.281091        -7.6489
  33   0.0000       0.012299         0.3347
  34   0.0000       0.053806         1.4641
  35   0.0000       0.062145         1.6910
  36   0.0000       0.078203         2.1280
  37   0.0000       0.100983         2.7479

MULLIKEN ATOMIC CHARGES
-----------------------
   0 C :   -0.289546
   1 O :   -0.251118
   2 S :    1.151757
   3 O :   -0.648085
   4 O :   -0.569756
   5 O :   -0.251632
   6 C :   -0.277953
   7 H :    0.192618
   8 H :    0.190771
   9 H :    0.188631
  10 H :    0.186182
  11 H :    0.194796
  12 H :    0.183335
Sum of atomic charges:   -0.0000000

LOEWDIN ATOMIC CHARGES
----------------------
   0 C :   -0.030179
   1 O :   -0.557703
   2 S :    0.895422
   3 O :   -0.454959
   4 O :   -0.413740
   5 O :   -0.561751
   6 C :   -0.023553
   7 H :    0.197320
   8 H :    0.191864
   9 H :    0.185388
  10 H :    0.188934
  11 H :    0.198434
  12 H :    0.184522

  Mayer bond orders larger than 0.100000
B(  0-C ,  1-O ) :   0.7856 B(  0-C ,  7-H ) :   0.9498 B(  0-C ,  8-H ) :   0.9510
B(  0-C ,  9-H ) :   0.9488 B(  1-O ,  2-S ) :   1.0640 B(  2-S ,  3-O ) :   1.5805
B(  2-S ,  4-O ) :   1.7976 B(  2-S ,  5-O ) :   0.9498 B(  5-O ,  6-C ) :   0.7753
B(  6-C , 10-H ) :   0.9539 B(  6-C , 11-H ) :   0.9544 B(  6-C , 12-H ) :   0.9549

Dispersion correction           -0.003609206
FINAL SINGLE POINT ENERGY      -778.761005223310

DIPOLE MOMENT
-------------

Method             : SCF
Type of density    : Electron Density
Multiplicity       :   1
Irrep              :   0
Energy             :  -778.7815334126987636 Eh
Relativity type    :
Basis              : AO
                                X                 Y                 Z
Electronic contribution:      1.935631233       5.243695863       2.428586737
Nuclear contribution   :     -2.450824353      -7.665970626      -3.198092577
                        -----------------------------------------
Total Dipole Moment    :     -0.515193120      -2.422274763      -0.769505840
                        -----------------------------------------
Magnitude (a.u.)       :      2.593256296
Magnitude (Debye)      :      6.591533666

Rotational constants in cm-1:             0.098584             0.079903             0.060666
Rotational constants in MHz :          2955.486218          2395.433552          1818.731434

                             ****ORCA TERMINATED NORMALLY****
TOTAL RUN TIME: 0 days 0 hours 0 minutes 25 seconds 35 msec
