                         Program Version 6.0.0  -   RELEASE  -
|  1> ! pbe def2-sv(p) def2/J RI DEFGRID1 loosescf d4 GCP(DFT/SV(P)) printgap
|  2> %output
|  3>     printlevel normal
|  4> end
|  5> * xyz 0 1
|  6> C -0.2469702627 -2.8220695799 -0.1728702589
|  7> C 0.5230128616 -1.5471775549 -0.0465825934
|  8> C 1.8918223198 -1.4540032722 -0.3465053811
|  9> N 2.5625192724 -0.3232338319 -0.2281282649
| 10> C 1.9065806131 0.7710929856 0.1905026678
| 11> N 0.5910733738 0.7891390109 0.4815601024
| 12> C -0.0549772443 -0.3500844813 0.3526480342
| 13> O -1.4052223201 -0.2966614402 0.694420638
| 14> C -2.2656371041 -0.023031127 -0.3284834927
| 15> O -1.8930494475 0.0520628416 -1.4905563764
| 16> N -3.5252940883 0.1271752294 0.0825281824
| 17> C -4.5761649519 0.3712143986 -0.8828153965
| 18> C -3.9450284924 0.0379290136 1.4644413726
| 19> N 2.5971975184 1.9069346581 0.3274459339
| 20> C 1.9769234378 3.136063778 0.756470594
| 21> C 4.0069496125 1.9811941263 0.0284511771
| 22> C 2.659030283 -2.6440127063 -0.8192288495
| 23> H -0.3652700333 -3.0863895915 -1.2237553986
| 24> H 0.274331998 -3.6339469897 0.3296834875
| 25> H -1.235034909 -2.7100778268 0.2672429341
| 26> H -5.0534311714 1.3287784577 -0.6745113168
| 27> H -5.3191414265 -0.4244942647 -0.8262522905
| 28> H -4.1357920467 0.3919937677 -1.8766517578
| 29> H -4.5602089794 -0.8518402815 1.6075546139
| 30> H -4.5316816241 0.9215733452 1.7147627111
| 31> H -3.0750042491 -0.0150101185 2.111120339
| 32> H 2.0837886433 3.8956280237 -0.0200186254
| 33> H 2.4568324172 3.4918763409 1.6696495011
| 34> H 0.9238026294 2.9527478951 0.9433429497
| 35> H 4.5535465625 2.3049456743 0.9154640741
| 36> H 4.1771861384 2.6996940473 -0.7750630941
| 37> H 4.3522795249 0.999537222 -0.2788867302
| 38> H 3.6788925531 -2.3504490932 -1.0436006119
| 39> H 2.6634397511 -3.4124613558 -0.0490772153
| 40> H 2.1901323489 -3.0586539669 -1.7084803358
| 41> *
| 42>
| 43>                          ****END OF INPUT****

CARTESIAN COORDINATES (ANGSTROEM)
---------------------------------
  C     -0.246970   -2.822070   -0.172870
  C      0.523013   -1.547178   -0.046583
  C      1.891822   -1.454003   -0.346505
  N      2.562519   -0.323234   -0.228128
  C      1.906581    0.771093    0.190503
  N      0.591073    0.789139    0.481560
  C     -0.054977   -0.350084    0.352648
  O     -1.405222   -0.296661    0.694421
  C     -2.265637   -0.023031   -0.328483
  O     -1.893049    0.052063   -1.490556
  N     -3.525294    0.127175    0.082528
  C     -4.576165    0.371214   -0.882815
  C     -3.945028    0.037929    1.464441
  N      2.597198    1.906935    0.327446
  C      1.976923    3.136064    0.756471
  C      4.006950    1.981194    0.028451
  C      2.659030   -2.644013   -0.819229
  H     -0.365270   -3.086390   -1.223755
  H      0.274332   -3.633947    0.329683
  H     -1.235035   -2.710078    0.267243
  H     -5.053431    1.328778   -0.674511
  H     -5.319141   -0.424494   -0.826252
  H     -4.135792    0.391994   -1.876652
  H     -4.560209   -0.851840    1.607555
  H     -4.531682    0.921573    1.714763
  H     -3.075004   -0.015010    2.111120
  H      2.083789    3.895628   -0.020019
  H      2.456832    3.491876    1.669650
  H      0.923803    2.952748    0.943343
  H      4.553547    2.304946    0.915464
  H      4.177186    2.699694   -0.775063
  H      4.352280    0.999537   -0.278887
  H      3.678893   -2.350449   -1.043601
  H      2.663440   -3.412461   -0.049077
  H      2.190132   -3.058654   -1.708480

 Total Charge           Charge          ....    0
 Multiplicity           Mult            ....    1
 Number of Electrons    NEL             ....  128
 Basis Dimension        Dim             ....  274

ORBITAL ENERGIES
----------------

  NO   OCC          E(Eh)            E(eV)
   0   2.0000     -18.792576      -511.3720
   1   2.0000     -18.709459      -509.1103
   2   2.0000     -14.027513      -381.7080
   3   2.0000     -14.018429      -381.4608
   4   2.0000     -13.970069      -380.1449
   5   2.0000     -13.965994      -380.0340
   6   2.0000     -10.016425      -272.5608
   7   2.0000      -9.975514      -271.4475
   8   2.0000      -9.973325      -271.3880
   9   2.0000      -9.931411      -270.2474
  10   2.0000      -9.920116      -269.9401
  11   2.0000      -9.916406      -269.8391
  12   2.0000      -9.906956      -269.5820
  13   2.0000      -9.906369      -269.5660
  14   2.0000      -9.889623      -269.1103
  15   2.0000      -9.881326      -268.8846
  16   2.0000      -9.878517      -268.8081
  17   2.0000      -1.005963       -27.3736
  18   2.0000      -0.914464       -24.8838
  19   2.0000      -0.900239       -24.4967
  20   2.0000      -0.855967       -23.2921
  21   2.0000      -0.840465       -22.8702
  22   2.0000      -0.790121       -21.5003
  23   2.0000      -0.722262       -19.6537
  24   2.0000      -0.666656       -18.1406
  25   2.0000      -0.658246       -17.9118
  26   2.0000      -0.651699       -17.7336
  27   2.0000      -0.643076       -17.4990
  28   2.0000      -0.635167       -17.2838
  29   2.0000      -0.587343       -15.9824
  30   2.0000      -0.567823       -15.4512
  31   2.0000      -0.522561       -14.2196
  32   2.0000      -0.503532       -13.7018
  33   2.0000      -0.482975       -13.1424
  34   2.0000      -0.478977       -13.0336
  35   2.0000      -0.453680       -12.3453
  36   2.0000      -0.436462       -11.8767
  37   2.0000      -0.430818       -11.7231
  38   2.0000      -0.425624       -11.5818
  39   2.0000      -0.404723       -11.0131
  40   2.0000      -0.399279       -10.8649
  41   2.0000      -0.391104       -10.6425
  42   2.0000      -0.375264       -10.2115
  43   2.0000      -0.369400       -10.0519
  44   2.0000      -0.366418        -9.9707
  45   2.0000      -0.363445        -9.8898
  46   2.0000      -0.358086        -9.7440
  47   2.0000      -0.357663        -9.7325
  48   2.0000      -0.353092        -9.6081
  49   2.0000      -0.352831        -9.6010
  50   2.0000      -0.347278        -9.4499
  51   2.0000      -0.343764        -9.3543
  52   2.0000      -0.337585        -9.1862
  53   2.0000      -0.337034        -9.1711
  54   2.0000      -0.330218        -8.9857
  55   2.0000      -0.322255        -8.7690
  56   2.0000      -0.257571        -7.0089
  57   2.0000      -0.253988        -6.9114
  58   2.0000      -0.251589        -6.8461
  59   2.0000      -0.248503        -6.7621
  60   2.0000      -0.212191        -5.7740
  61   2.0000      -0.203994        -5.5510
  62   2.0000      -0.190260        -5.1772
  63   2.0000      -0.170911        -4.6507
  64   0.0000      -0.042542        -1.1576
  65   0.0000      -0.013969        -0.3801
  66   0.0000       0.026502         0.7212
  67   0.0000       0.033372         0.9081
  68   0.0000       0.045099         1.2272

MULLIKEN ATOMIC CHARGES
-----------------------
   0 C :   -0.189064
   1 C :   -0.104355
   2 C :   -0.126243
   3 N :   -0.102707
   4 C :    0.054628
   5 N :   -0.085946
   6 C :    0.084995
   7 O :   -0.258556
   8 C :    0.228001
   9 O :   -0.251667
  10 N :   -0.245103
  11 C :   -0.169468
  12 C :   -0.172892
  13 N :   -0.206505
  14 C :   -0.167018
  15 C :   -0.167569
  16 C :   -0.188399
  17 H :    0.115031
  18 H :    0.100755
  19 H :    0.106760
  20 H :    0.109339
  21 H :    0.106091
  22 H :    0.145217
  23 H :    0.107358
  24 H :    0.107057
  25 H :    0.147231
  26 H :    0.103373
  27 H :    0.100962
  28 H :    0.142405
  29 H :    0.100564
  30 H :    0.102400
  31 H :    0.140143
  32 H :    0.106174
  33 H :    0.113676
  34 H :    0.113331
Sum of atomic charges:    0.0000000

LOEWDIN ATOMIC CHARGES
----------------------
   0 C :   -0.322403
   1 C :   -0.124213
   2 C :    0.009584
   3 N :   -0.119250
   4 C :    0.031909
   5 N :   -0.118089
   6 C :    0.068611
   7 O :   -0.061575
   8 C :    0.042349
   9 O :   -0.217781
  10 N :   -0.060183
  11 C :   -0.246543
  12 C :   -0.250960
  13 N :   -0.037414
  14 C :   -0.253075
  15 C :   -0.254279
  16 C :   -0.330736
  17 H :    0.133675
  18 H :    0.125296
  19 H :    0.127129
  20 H :    0.116092
  21 H :    0.114815
  22 H :    0.138753
  23 H :    0.114164
  24 H :    0.116321
  25 H :    0.134714
  26 H :    0.114053
  27 H :    0.112729
  28 H :    0.135148
  29 H :    0.112576
  30 H :    0.113407
  31 H :    0.133627
  32 H :    0.131149
  33 H :    0.134988
  34 H :    0.135410

  Mayer bond orders larger than 0.100000
B(  0-C ,  1-C ) :   1.1674 B(  0-C , 17-H ) :   0.9199 B(  0-C , 18-H ) :   0.9231
B(  0-C , 19-H ) :   0.9251 B(  1-C ,  2-C ) :   1.2990 B(  1-C ,  6-C ) :   1.3749
B(  2-C ,  3-N ) :   1.6109 B(  2-C , 16-C ) :   1.1595 B(  3-N ,  4-C ) :   1.4162
B(  4-C ,  5-N ) :   1.3996 B(  4-C , 13-N ) :   1.2118 B(  5-N ,  6-C ) :   1.5832
B(  6-C ,  7-O ) :   1.0102 B(  7-O ,  8-C ) :   1.0471 B(  8-C ,  9-O ) :   1.9843
B(  8-C , 10-N ) :   1.2006 B( 10-N , 11-C ) :   1.0124 B( 10-N , 12-C ) :   1.0072
B( 11-C , 20-H ) :   0.9527 B( 11-C , 21-H ) :   0.9522 B( 11-C , 22-H ) :   0.9327
B( 12-C , 23-H ) :   0.9504 B( 12-C , 24-H ) :   0.9492 B( 12-C , 25-H ) :   0.9395
B( 13-N , 14-C ) :   1.0182 B( 13-N , 15-C ) :   1.0178 B( 14-C , 26-H ) :   0.9494
B( 14-C , 27-H ) :   0.9499 B( 14-C , 28-H ) :   0.9247 B( 15-C , 29-H ) :   0.9499
B( 15-C , 30-H ) :   0.9495 B( 15-C , 31-H ) :   0.9228 B( 16-C , 32-H ) :   0.9274
B( 16-C , 33-H ) :   0.9231 B( 16-C , 34-H ) :   0.9219

Dispersion correction           -0.039527341
FINAL SINGLE POINT ENERGY      -797.788873178465

DIPOLE MOMENT
-------------

Method             : SCF
Type of density    : Electron Density
Multiplicity       :   1
Irrep              :   0
Energy             :  -797.9081747393727255 Eh
Relativity type    :
Basis              : AO
                                X                 Y                 Z
Electronic contribution:      0.454414186       0.531564509      -0.311231258
Nuclear contribution   :     -0.901030615      -0.512047916       1.007432147
                        -----------------------------------------
Total Dipole Moment    :     -0.446616429       0.019516593       0.696200889
                        -----------------------------------------
Magnitude (a.u.)       :      0.827371023
Magnitude (Debye)      :      2.103010011

Rotational constants in cm-1:             0.024211             0.009822             0.007696
Rotational constants in MHz :           725.816687           294.463584           230.719316

                             ****ORCA TERMINATED NORMALLY****
TOTAL RUN TIME: 0 days 0 hours 0 minutes 28 seconds 162 msec
