                         Program Version 6.0.0  -   RELEASE  -
|  1> ! r2scan-3c def2/J RI DEFGRID2 scfconv6 printgap
|  2> %output
|  3>     printlevel normal
|  4> end
|  5> * xyz 0 1
|  6> C 2.5163032365 0.7542292598 0.3209019813
|  7> C 1.2540765996 -0.1026980325 0.262819761
|  8> C 1.4363067393 -1.2624886776 -0.7137647987
|  9> C 0.0516869916 0.7555673448 -0.146631261
| 10> C -1.2703408563 0.0688724093 0.0891081333
| 11> O -1.414484919 -0.9456515012 0.7312076856
| 12> O -2.33813488 0.6656580798 -0.4455562726
| 13> H 2.4073653702 1.5565099445 1.0464118078
| 14> H 2.7229908944 1.1907065636 -0.6535027288
| 15> H 3.3687487673 0.1460345869 0.6107775963
| 16> H 1.0508552549 -0.5168467326 1.2560100049
| 17> H 1.6356683613 -0.8911022622 -1.7167948132
| 18> H 2.2702110261 -1.8879885496 -0.4066163534
| 19> H 0.5403277399 -1.8786688272 -0.7378357159
| 20> H 0.1354676312 1.0288657012 -1.2005001798
| 21> H 0.0425027419 1.6751779745 0.4452228207
| 22> H -2.1298830748 1.4778878445 -0.9424023026
| 23> *
| 24>
| 25>                          ****END OF INPUT****

CARTESIAN COORDINATES (ANGSTROEM)
---------------------------------
  C      2.516303    0.754229    0.320902
  C      1.254077   -0.102698    0.262820
  C      1.436307   -1.262489   -0.713765
  C      0.051687    0.755567   -0.146631
  C     -1.270341    0.068872    0.089108
  O     -1.414485   -0.945652    0.731208
  O     -2.338135    0.665658   -0.445556
  H      2.407365    1.556510    1.046412
  H      2.722991    1.190707   -0.653503
  H      3.368749    0.146035    0.610778
  H      1.050855   -0.516847    1.256010
  H      1.635668   -0.891102   -1.716795
  H      2.270211   -1.887989   -0.406616
  H      0.540328   -1.878669   -0.737836
  H      0.135468    1.028866   -1.200500
  H      0.042503    1.675178    0.445223
  H     -2.129883    1.477888   -0.942402

 Total Charge           Charge          ....    0
 Multiplicity           Mult            ....    1
 Number of Electrons    NEL             ....   56
 Basis Dimension        Dim             ....  193

ORBITAL ENERGIES
----------------

  NO   OCC          E(Eh)            E(eV)
   0   2.0000     -19.005817      -517.1746
   1   2.0000     -18.934736      -515.2404
   2   2.0000     -10.163910      -276.5741
   3   2.0000     -10.055514      -273.6245
   4   2.0000     -10.044753      -273.3316
   5   2.0000     -10.024419      -272.7783
   6   2.0000     -10.017358      -272.5862
   7   2.0000      -1.074618       -29.2418
   8   2.0000      -0.984391       -26.7866
   9   2.0000      -0.789865       -21.4933
  10   2.0000      -0.697030       -18.9671
  11   2.0000      -0.656410       -17.8618
  12   2.0000      -0.599517       -16.3137
  13   2.0000      -0.544875       -14.8268
  14   2.0000      -0.492311       -13.3965
  15   2.0000      -0.457895       -12.4599
  16   2.0000      -0.427612       -11.6359
  17   2.0000      -0.417606       -11.3636
  18   2.0000      -0.398452       -10.8424
  19   2.0000      -0.383119       -10.4252
  20   2.0000      -0.367215        -9.9924
  21   2.0000      -0.359463        -9.7815
  22   2.0000      -0.342516        -9.3203
  23   2.0000      -0.308404        -8.3921
  24   2.0000      -0.307799        -8.3756
  25   2.0000      -0.304191        -8.2775
  26   2.0000      -0.291530        -7.9329
  27   2.0000      -0.242362        -6.5950
  28   0.0000      -0.022122        -0.6020
  29   0.0000       0.039196         1.0666
  30   0.0000       0.072727         1.9790
  31   0.0000       0.122574         3.3354
  32   0.0000       0.123319         3.3557

MULLIKEN ATOMIC CHARGES
-----------------------
   0 C :   -0.456525
   1 C :   -0.000650
   2 C :   -0.539576
   3 C :   -0.344126
   4 C :    0.344266
   5 O :   -0.386724
   6 O :   -0.336214
   7 H :    0.144532
   8 H :    0.142256
   9 H :    0.152413
  10 H :    0.164802
  11 H :    0.141719
  12 H :    0.148602
  13 H :    0.175567
  14 H :    0.152241
  15 H :    0.170956
  16 H :    0.326463
Sum of atomic charges:   -0.0000000

LOEWDIN ATOMIC CHARGES
----------------------
   0 C :   -0.412919
   1 C :   -0.231471
   2 C :   -0.408027
   3 C :   -0.254443
   4 C :    0.345797
   5 O :   -0.401443
   6 O :   -0.401895
   7 H :    0.152282
   8 H :    0.153013
   9 H :    0.156788
  10 H :    0.174407
  11 H :    0.150013
  12 H :    0.156116
  13 H :    0.168742
  14 H :    0.175099
  15 H :    0.184249
  16 H :    0.293692

  Mayer bond orders larger than 0.100000
B(  0-C ,  1-C ) :   0.8748 B(  0-C ,  7-H ) :   0.9816 B(  0-C ,  8-H ) :   0.9795
B(  0-C ,  9-H ) :   0.9758 B(  1-C ,  2-C ) :   0.9223 B(  1-C ,  3-C ) :   0.9232
B(  1-C , 10-H ) :   0.9526 B(  2-C , 11-H ) :   0.9869 B(  2-C , 12-H ) :   0.9710
B(  2-C , 13-H ) :   0.9643 B(  3-C ,  4-C ) :   0.9616 B(  3-C , 14-H ) :   0.9643
B(  3-C , 15-H ) :   0.9246 B(  4-C ,  5-O ) :   1.9840 B(  4-C ,  6-O ) :   1.0672
B(  6-O , 16-H ) :   0.8698

Dispersion correction           -0.004352804
FINAL SINGLE POINT ENERGY      -346.943790088377

DIPOLE MOMENT
-------------

Method             : SCF
Type of density    : Electron Density
Multiplicity       :   1
Irrep              :   0
Energy             :  -346.9485851237967609 Eh
Relativity type    :
Basis              : AO
                                X                 Y                 Z
Electronic contribution:    -10.532271870      -0.524634112       1.458455287
Nuclear contribution   :     11.243887808       1.778907069      -2.152826935
                        -----------------------------------------
Total Dipole Moment    :      0.711615937       1.254272957      -0.694371648
                        -----------------------------------------
Magnitude (a.u.)       :      1.600546744
Magnitude (Debye)      :      4.068266512

Rotational constants in cm-1:             0.164672             0.051481             0.045568
Rotational constants in MHz :          4936.742710          1543.372038          1366.088374

                             ****ORCA TERMINATED NORMALLY****
TOTAL RUN TIME: 0 days 0 hours 0 minutes 26 seconds 418 msec
