                         Program Version 6.0.0  -   RELEASE  -
|  1> ! r2scan-3c def2/J RI DEFGRID2 scfconv6 printgap
|  2> %output
|  3>     printlevel normal
|  4> end
|  5> %cpcm
|  6>     smd true
|  7>     smdsolvent "water"
|  8> end
|  9> * xyz 0 1
| 10> C 2.5163032365 0.7542292598 0.3209019813
| 11> C 1.2540765996 -0.1026980325 0.262819761
| 12> C 1.4363067393 -1.2624886776 -0.7137647987
| 13> C 0.0516869916 0.7555673448 -0.146631261
| 14> C -1.2703408563 0.0688724093 0.0891081333
| 15> O -1.414484919 -0.9456515012 0.7312076856
| 16> O -2.33813488 0.6656580798 -0.4455562726
| 17> H 2.4073653702 1.5565099445 1.0464118078
| 18> H 2.7229908944 1.1907065636 -0.6535027288
| 19> H 3.3687487673 0.1460345869 0.6107775963
| 20> H 1.0508552549 -0.5168467326 1.2560100049
| 21> H 1.6356683613 -0.8911022622 -1.7167948132
| 22> H 2.2702110261 -1.8879885496 -0.4066163534
| 23> H 0.5403277399 -1.8786688272 -0.7378357159
| 24> H 0.1354676312 1.0288657012 -1.2005001798
| 25> H 0.0425027419 1.6751779745 0.4452228207
| 26> H -2.1298830748 1.4778878445 -0.9424023026
| 27> *
| 28>
| 29>                          ****END OF INPUT****

CARTESIAN COORDINATES (ANGSTROEM)
---------------------------------
  C      2.516303    0.754229    0.320902
  C      1.254077   -0.102698    0.262820
  C      1.436307   -1.262489   -0.713765
  C      0.051687    0.755567   -0.146631
  C     -1.270341    0.068872    0.089108
  O     -1.414485   -0.945652    0.731208
  O     -2.338135    0.665658   -0.445556
  H      2.407365    1.556510    1.046412
  H      2.722991    1.190707   -0.653503
  H      3.368749    0.146035    0.610778
  H      1.050855   -0.516847    1.256010
  H      1.635668   -0.891102   -1.716795
  H      2.270211   -1.887989   -0.406616
  H      0.540328   -1.878669   -0.737836
  H      0.135468    1.028866   -1.200500
  H      0.042503    1.675178    0.445223
  H     -2.129883    1.477888   -0.942402

 Total Charge           Charge          ....    0
 Multiplicity           Mult            ....    1
 Number of Electrons    NEL             ....   56
 Basis Dimension        Dim             ....  193

ORBITAL ENERGIES
----------------

  NO   OCC          E(Eh)            E(eV)
   0   2.0000     -19.000731      -517.0362
   1   2.0000     -18.945649      -515.5373
   2   2.0000     -10.168984      -276.7121
   3   2.0000     -10.036937      -273.1190
   4   2.0000     -10.032840      -273.0075
   5   2.0000     -10.009074      -272.3608
   6   2.0000     -10.007809      -272.3263
   7   2.0000      -1.074445       -29.2371
   8   2.0000      -0.991366       -26.9764
   9   2.0000      -0.776480       -21.1291
  10   2.0000      -0.683694       -18.6043
  11   2.0000      -0.644658       -17.5420
  12   2.0000      -0.592134       -16.1128
  13   2.0000      -0.533072       -14.5056
  14   2.0000      -0.483730       -13.1630
  15   2.0000      -0.448222       -12.1967
  16   2.0000      -0.434992       -11.8367
  17   2.0000      -0.410445       -11.1688
  18   2.0000      -0.393390       -10.7047
  19   2.0000      -0.374441       -10.1891
  20   2.0000      -0.358090        -9.7441
  21   2.0000      -0.348271        -9.4769
  22   2.0000      -0.331814        -9.0291
  23   2.0000      -0.303487        -8.2583
  24   2.0000      -0.295689        -8.0461
  25   2.0000      -0.294755        -8.0207
  26   2.0000      -0.290085        -7.8936
  27   2.0000      -0.254979        -6.9383
  28   0.0000      -0.023871        -0.6496
  29   0.0000       0.073133         1.9900
  30   0.0000       0.092531         2.5179
  31   0.0000       0.134693         3.6652
  32   0.0000       0.138875         3.7790

MULLIKEN ATOMIC CHARGES
-----------------------
   0 C :   -0.509571
   1 C :    0.007905
   2 C :   -0.569790
   3 C :   -0.325754
   4 C :    0.347328
   5 O :   -0.484944
   6 O :   -0.373418
   7 H :    0.159711
   8 H :    0.159474
   9 H :    0.161497
  10 H :    0.155222
  11 H :    0.162800
  12 H :    0.161701
  13 H :    0.162734
  14 H :    0.191711
  15 H :    0.202963
  16 H :    0.390434
Sum of atomic charges:   -0.0000000

LOEWDIN ATOMIC CHARGES
----------------------
   0 C :   -0.418721
   1 C :   -0.231050
   2 C :   -0.416988
   3 C :   -0.241745
   4 C :    0.357922
   5 O :   -0.482637
   6 O :   -0.399724
   7 H :    0.157075
   8 H :    0.158236
   9 H :    0.157827
  10 H :    0.168013
  11 H :    0.157633
  12 H :    0.157653
  13 H :    0.161824
  14 H :    0.193532
  15 H :    0.199692
  16 H :    0.321458

  Mayer bond orders larger than 0.100000
B(  0-C ,  1-C ) :   0.8760 B(  0-C ,  7-H ) :   0.9768 B(  0-C ,  8-H ) :   0.9791
B(  0-C ,  9-H ) :   0.9747 B(  1-C ,  2-C ) :   0.9153 B(  1-C ,  3-C ) :   0.8971
B(  1-C , 10-H ) :   0.9610 B(  2-C , 11-H ) :   0.9813 B(  2-C , 12-H ) :   0.9716
B(  2-C , 13-H ) :   0.9669 B(  3-C ,  4-C ) :   0.9859 B(  3-C , 14-H ) :   0.9477
B(  3-C , 15-H ) :   0.9113 B(  4-C ,  5-O ) :   1.9127 B(  4-C ,  6-O ) :   1.1111
B(  6-O , 16-H ) :   0.8376

Dispersion correction           -0.004352804
FINAL SINGLE POINT ENERGY      -346.958328165108

DIPOLE MOMENT
-------------

Method             : SCF
Type of density    : Electron Density
Multiplicity       :   1
Irrep              :   0
Energy             :  -346.9631232005268657 Eh
Relativity type    :
Basis              : AO
                                X                 Y                 Z
Electronic contribution:    -10.317891647       0.141560704       1.084369643
Nuclear contribution   :     11.243887808       1.778907069      -2.152826935
                        -----------------------------------------
Total Dipole Moment    :      0.925996160       1.920467773      -1.068457291
                        -----------------------------------------
Magnitude (a.u.)       :      2.384799015
Magnitude (Debye)      :      6.061677366

Rotational constants in cm-1:             0.164672             0.051481             0.045568
Rotational constants in MHz :          4936.742710          1543.372038          1366.088374

                             ****ORCA TERMINATED NORMALLY****
TOTAL RUN TIME: 0 days 0 hours 0 minutes 27 seconds 305 msec
