                         Program Version 6.0.0  -   RELEASE  -
|  1> ! pbe def2-sv(p) def2/J RI DEFGRID1 loosescf d4 GCP(DFT/SV(P)) printgap
|  2> %output
|  3>     printlevel normal
|  4> end
|  5> * xyz 0 1
|  6> C -1.8916250592 1.2248104744 0.2425293658
|  7> C -1.1960645384 0.0854773647 -0.4895394981
|  8> C -0.1295385873 -0.6195637613 0.3537208728
|  9> C 1.0428507001 0.2829692159 0.7674427947
| 10> C 1.7709257225 0.9091584774 -0.4173554891
| 11> O 0.3171769362 -1.7292118667 -0.4118401155
| 12> H -1.2022501875 2.0400455749 0.4438518176
| 13> H -2.7060969121 1.6100532039 -0.3650115235
| 14> H -2.3018468542 0.8763025763 1.1876800269
| 15> H -1.9289720279 -0.6730605224 -0.7726959123
| 16> H -0.7343544433 0.4463971336 -1.4084662092
| 17> H -0.6118737641 -0.9923748364 1.274672615
| 18> H 0.6683011617 1.0598260173 1.4338983493
| 19> H 1.7484290482 -0.3259094452 1.3392502629
| 20> H 1.1674314085 1.6846054742 -0.880778546
| 21> H 2.7064582879 1.3552622086 -0.0895616555
| 22> H 1.989323542 0.149369618 -1.1645139909
| 23> H 0.9784623937 -2.2186907145 0.0956259631
| 24> *
| 25>
| 26>                          ****END OF INPUT****

CARTESIAN COORDINATES (ANGSTROEM)
---------------------------------
  C     -1.891625    1.224810    0.242529
  C     -1.196065    0.085477   -0.489539
  C     -0.129539   -0.619564    0.353721
  C      1.042851    0.282969    0.767443
  C      1.770926    0.909158   -0.417355
  O      0.317177   -1.729212   -0.411840
  H     -1.202250    2.040046    0.443852
  H     -2.706097    1.610053   -0.365012
  H     -2.301847    0.876303    1.187680
  H     -1.928972   -0.673061   -0.772696
  H     -0.734354    0.446397   -1.408466
  H     -0.611874   -0.992375    1.274673
  H      0.668301    1.059826    1.433898
  H      1.748429   -0.325909    1.339250
  H      1.167431    1.684605   -0.880779
  H      2.706458    1.355262   -0.089562
  H      1.989324    0.149370   -1.164514
  H      0.978462   -2.218691    0.095626

 Total Charge           Charge          ....    0
 Multiplicity           Mult            ....    1
 Number of Electrons    NEL             ....   50
 Basis Dimension        Dim             ....  108

ORBITAL ENERGIES
----------------

  NO   OCC          E(Eh)            E(eV)
   0   2.0000     -18.737704      -509.8788
   1   2.0000      -9.932401      -270.2744
   2   2.0000      -9.883916      -268.9550
   3   2.0000      -9.877741      -268.7870
   4   2.0000      -9.874771      -268.7062
   5   2.0000      -9.870741      -268.5965
   6   2.0000      -0.914681       -24.8897
   7   2.0000      -0.714083       -19.4312
   8   2.0000      -0.671303       -18.2671
   9   2.0000      -0.599790       -16.3211
  10   2.0000      -0.556975       -15.1561
  11   2.0000      -0.493411       -13.4264
  12   2.0000      -0.446373       -12.1464
  13   2.0000      -0.425201       -11.5703
  14   2.0000      -0.407465       -11.0877
  15   2.0000      -0.376406       -10.2425
  16   2.0000      -0.363844        -9.9007
  17   2.0000      -0.326192        -8.8761
  18   2.0000      -0.322898        -8.7865
  19   2.0000      -0.316807        -8.6207
  20   2.0000      -0.313855        -8.5404
  21   2.0000      -0.291066        -7.9203
  22   2.0000      -0.286438        -7.7944
  23   2.0000      -0.259319        -7.0564
  24   2.0000      -0.210920        -5.7394
  25   0.0000       0.024514         0.6671
  26   0.0000       0.044589         1.2133
  27   0.0000       0.067579         1.8389
  28   0.0000       0.083249         2.2653
  29   0.0000       0.088459         2.4071

MULLIKEN ATOMIC CHARGES
-----------------------
   0 C :   -0.290121
   1 C :   -0.162208
   2 C :    0.031502
   3 C :   -0.190198
   4 C :   -0.285171
   5 O :   -0.421512
   6 H :    0.107499
   7 H :    0.106506
   8 H :    0.099270
   9 H :    0.091745
  10 H :    0.093550
  11 H :    0.052974
  12 H :    0.088010
  13 H :    0.071558
  14 H :    0.107745
  15 H :    0.100911
  16 H :    0.105586
  17 H :    0.292354
Sum of atomic charges:    0.0000000

LOEWDIN ATOMIC CHARGES
----------------------
   0 C :   -0.340631
   1 C :   -0.236873
   2 C :   -0.051455
   3 C :   -0.249422
   4 C :   -0.346304
   5 O :   -0.332311
   6 H :    0.116510
   7 H :    0.122922
   8 H :    0.117556
   9 H :    0.121960
  10 H :    0.119484
  11 H :    0.092408
  12 H :    0.118499
  13 H :    0.109816
  14 H :    0.118042
  15 H :    0.119414
  16 H :    0.119603
  17 H :    0.280781

  Mayer bond orders larger than 0.100000
B(  0-C ,  1-C ) :   1.1418 B(  0-C ,  6-H ) :   0.9464 B(  0-C ,  7-H ) :   0.9504
B(  0-C ,  8-H ) :   0.9525 B(  1-C ,  2-C ) :   1.0847 B(  1-C ,  9-H ) :   0.9176
B(  1-C , 10-H ) :   0.9128 B(  2-C ,  3-C ) :   1.0657 B(  2-C ,  5-O ) :   1.0539
B(  2-C , 11-H ) :   0.9072 B(  3-C ,  4-C ) :   1.1442 B(  3-C , 12-H ) :   0.9096
B(  3-C , 13-H ) :   0.9205 B(  4-C , 14-H ) :   0.9487 B(  4-C , 15-H ) :   0.9510
B(  4-C , 16-H ) :   0.9452 B(  5-O , 17-H ) :   0.8511

Dispersion correction           -0.013152135
FINAL SINGLE POINT ENERGY      -272.305094036017

DIPOLE MOMENT
-------------

Method             : SCF
Type of density    : Electron Density
Multiplicity       :   1
Irrep              :   0
Energy             :  -272.3747407458629368 Eh
Relativity type    :
Basis              : AO
                                X                 Y                 Z
Electronic contribution:      0.422260129      -4.597295007      -0.527421017
Nuclear contribution   :     -0.208245163       4.676250850       1.020193331
                        -----------------------------------------
Total Dipole Moment    :      0.214014966       0.078955842       0.492772315
                        -----------------------------------------
Magnitude (a.u.)       :      0.543011035
Magnitude (Debye)      :      1.380224364

Rotational constants in cm-1:             0.135073             0.092356             0.067027
Rotational constants in MHz :          4049.386288          2768.756313          2009.412964

                             ****ORCA TERMINATED NORMALLY****
TOTAL RUN TIME: 0 days 0 hours 0 minutes 7 seconds 830 msec
