                         Program Version 6.0.0  -   RELEASE  -
|  1> ! pbe def2-sv(p) def2/J RI DEFGRID1 loosescf d4 GCP(DFT/SV(P)) printgap
|  2> %output
|  3>     printlevel normal
|  4> end
|  5> * xyz 0 1
|  6> C -1.9171526171 0.2553773885 -0.6075540011
|  7> C -1.1055577205 0.2426812061 0.6823436828
|  8> C 0.0675156858 -0.7385339735 0.5991037271
|  9> O 0.9941354953 -0.4551726079 -0.4343201084
| 10> C 1.8283329445 0.6573509327 -0.1900130071
| 11> H -2.7036588965 1.003706288 -0.5577105656
| 12> H -1.270439312 0.4812321652 -1.4523622236
| 13> H -2.3711898159 -0.7176790854 -0.7784663496
| 14> H -1.735411602 -0.0598682672 1.5197560711
| 15> H -0.7294684965 1.2455073128 0.8924434126
| 16> H 0.5941662054 -0.773603682 1.564220417
| 17> H -0.3047785134 -1.7384823176 0.3627069909
| 18> H 2.5611712196 0.6638914337 -0.9935354845
| 19> H 2.3388585273 0.5559033349 0.774164571
| 20> H 1.2682929907 1.5969746063 -0.2030715912
| 21> *
| 22>
| 23>                          ****END OF INPUT****

CARTESIAN COORDINATES (ANGSTROEM)
---------------------------------
  C     -1.917153    0.255377   -0.607554
  C     -1.105558    0.242681    0.682344
  C      0.067516   -0.738534    0.599104
  O      0.994135   -0.455173   -0.434320
  C      1.828333    0.657351   -0.190013
  H     -2.703659    1.003706   -0.557711
  H     -1.270439    0.481232   -1.452362
  H     -2.371190   -0.717679   -0.778466
  H     -1.735412   -0.059868    1.519756
  H     -0.729468    1.245507    0.892443
  H      0.594166   -0.773604    1.564220
  H     -0.304779   -1.738482    0.362707
  H      2.561171    0.663891   -0.993535
  H      2.338859    0.555903    0.774165
  H      1.268293    1.596975   -0.203072

 Total Charge           Charge          ....    0
 Multiplicity           Mult            ....    1
 Number of Electrons    NEL             ....   42
 Basis Dimension        Dim             ....   90

ORBITAL ENERGIES
----------------

  NO   OCC          E(Eh)            E(eV)
   0   2.0000     -18.748663      -510.1771
   1   2.0000      -9.926042      -270.1013
   2   2.0000      -9.922159      -269.9957
   3   2.0000      -9.884325      -268.9662
   4   2.0000      -9.870467      -268.5891
   5   2.0000      -0.927674       -25.2433
   6   2.0000      -0.701486       -19.0884
   7   2.0000      -0.633724       -17.2445
   8   2.0000      -0.578300       -15.7363
   9   2.0000      -0.512087       -13.9346
  10   2.0000      -0.437747       -11.9117
  11   2.0000      -0.427646       -11.6368
  12   2.0000      -0.405697       -11.0396
  13   2.0000      -0.380311       -10.3488
  14   2.0000      -0.371198       -10.1008
  15   2.0000      -0.335445        -9.1279
  16   2.0000      -0.315341        -8.5809
  17   2.0000      -0.306620        -8.3436
  18   2.0000      -0.295290        -8.0352
  19   2.0000      -0.254914        -6.9366
  20   2.0000      -0.202288        -5.5045
  21   0.0000       0.034302         0.9334
  22   0.0000       0.067984         1.8499
  23   0.0000       0.076686         2.0867
  24   0.0000       0.086726         2.3599
  25   0.0000       0.091440         2.4882

MULLIKEN ATOMIC CHARGES
-----------------------
   0 C :   -0.279801
   1 C :   -0.217335
   2 C :    0.016695
   3 O :   -0.341364
   4 C :   -0.108748
   5 H :    0.103005
   6 H :    0.109806
   7 H :    0.096621
   8 H :    0.087162
   9 H :    0.091498
  10 H :    0.069152
  11 H :    0.083734
  12 H :    0.114049
  13 H :    0.082688
  14 H :    0.092836
Sum of atomic charges:   -0.0000000

LOEWDIN ATOMIC CHARGES
----------------------
   0 C :   -0.343152
   1 C :   -0.258221
   2 C :   -0.112077
   3 O :   -0.181733
   4 C :   -0.208437
   5 H :    0.118080
   6 H :    0.120839
   7 H :    0.117417
   8 H :    0.120637
   9 H :    0.115073
  10 H :    0.093647
  11 H :    0.110447
  12 H :    0.115866
  13 H :    0.096285
  14 H :    0.095329

  Mayer bond orders larger than 0.100000
B(  0-C ,  1-C ) :   1.1421 B(  0-C ,  5-H ) :   0.9547 B(  0-C ,  6-H ) :   0.9514
B(  0-C ,  7-H ) :   0.9572 B(  1-C ,  2-C ) :   1.0980 B(  1-C ,  8-H ) :   0.9190
B(  1-C ,  9-H ) :   0.9215 B(  2-C ,  3-O ) :   1.0368 B(  2-C , 10-H ) :   0.9192
B(  2-C , 11-H ) :   0.9336 B(  3-O ,  4-C ) :   1.0222 B(  4-C , 12-H ) :   0.9637
B(  4-C , 13-H ) :   0.9404 B(  4-C , 14-H ) :   0.9383

Dispersion correction           -0.009378510
FINAL SINGLE POINT ENERGY      -233.084195526776

DIPOLE MOMENT
-------------

Method             : SCF
Type of density    : Electron Density
Multiplicity       :   1
Irrep              :   0
Energy             :  -233.1432009845540563 Eh
Relativity type    :
Basis              : AO
                                X                 Y                 Z
Electronic contribution:      2.170848260      -1.821890950      -0.687818656
Nuclear contribution   :     -2.192211335       2.111224030       1.051929008
                        -----------------------------------------
Total Dipole Moment    :     -0.021363075       0.289333081       0.364110352
                        -----------------------------------------
Magnitude (a.u.)       :      0.465560266
Magnitude (Debye)      :      1.183360153

Rotational constants in cm-1:             0.306846             0.099612             0.093386
Rotational constants in MHz :          9199.020825          2986.284675          2799.650173

                             ****ORCA TERMINATED NORMALLY****
TOTAL RUN TIME: 0 days 0 hours 0 minutes 6 seconds 698 msec
