                         Program Version 6.0.0  -   RELEASE  -
|  1> ! r2scan-3c def2/J RI DEFGRID2 scfconv6 printgap
|  2> %output
|  3>     printlevel normal
|  4> end
|  5> * xyz 0 1
|  6> C -1.0760354098 -0.5696449719 -0.1632402454
|  7> C 0.0086163606 0.219026369 0.5876226232
|  8> C 1.3171967827 -0.5746015427 0.6533325443
|  9> O 1.7734730335 -0.7627998383 -0.6709039655
| 10> O 0.2079994667 1.4723242675 -0.0301913858
| 11> O -2.2990869477 0.1280329257 -0.1851807979
| 12> H -1.2690505401 -1.5188263137 0.3390407229
| 13> H -0.7296490637 -0.7689418013 -1.1866435158
| 14> H -0.3418198015 0.4384108687 1.6012532086
| 15> H 1.1324626432 -1.5340158294 1.1488135135
| 16> H 2.0494433543 -0.0004197231 1.234336863
| 17> H 2.6029257643 -1.2577449238 -0.6595680406
| 18> H 0.7295057622 1.3211788176 -0.8343746389
| 19> H -2.1085898157 1.050538534 -0.4168518448
| 20> *
| 21>
| 22>                          ****END OF INPUT****

CARTESIAN COORDINATES (ANGSTROEM)
---------------------------------
  C     -1.076035   -0.569645   -0.163240
  C      0.008616    0.219026    0.587623
  C      1.317197   -0.574602    0.653333
  O      1.773473   -0.762800   -0.670904
  O      0.207999    1.472324   -0.030191
  O     -2.299087    0.128033   -0.185181
  H     -1.269051   -1.518826    0.339041
  H     -0.729649   -0.768942   -1.186644
  H     -0.341820    0.438411    1.601253
  H      1.132463   -1.534016    1.148814
  H      2.049443   -0.000420    1.234337
  H      2.602926   -1.257745   -0.659568
  H      0.729506    1.321179   -0.834375
  H     -2.108590    1.050539   -0.416852

 Total Charge           Charge          ....    0
 Multiplicity           Mult            ....    1
 Number of Electrons    NEL             ....   50
 Basis Dimension        Dim             ....  169

ORBITAL ENERGIES
----------------

  NO   OCC          E(Eh)            E(eV)
   0   2.0000     -18.970615      -516.2167
   1   2.0000     -18.956915      -515.8439
   2   2.0000     -18.939265      -515.3636
   3   2.0000     -10.090398      -274.5737
   4   2.0000     -10.087611      -274.4978
   5   2.0000     -10.070196      -274.0240
   6   2.0000      -1.015383       -27.6300
   7   2.0000      -0.993461       -27.0334
   8   2.0000      -0.971600       -26.4386
   9   2.0000      -0.729725       -19.8568
  10   2.0000      -0.642130       -17.4732
  11   2.0000      -0.579887       -15.7795
  12   2.0000      -0.511980       -13.9317
  13   2.0000      -0.478723       -13.0267
  14   2.0000      -0.452819       -12.3218
  15   2.0000      -0.438190       -11.9238
  16   2.0000      -0.407917       -11.1000
  17   2.0000      -0.398136       -10.8338
  18   2.0000      -0.371987       -10.1223
  19   2.0000      -0.338272        -9.2048
  20   2.0000      -0.306874        -8.3505
  21   2.0000      -0.298602        -8.1254
  22   2.0000      -0.263134        -7.1602
  23   2.0000      -0.253914        -6.9094
  24   2.0000      -0.221845        -6.0367
  25   0.0000       0.035720         0.9720
  26   0.0000       0.071694         1.9509
  27   0.0000       0.098451         2.6790
  28   0.0000       0.110148         2.9973
  29   0.0000       0.128818         3.5053

MULLIKEN ATOMIC CHARGES
-----------------------
   0 C :   -0.188297
   1 C :    0.037741
   2 C :   -0.145536
   3 O :   -0.457313
   4 O :   -0.444738
   5 O :   -0.421222
   6 H :    0.130141
   7 H :    0.149032
   8 H :    0.148082
   9 H :    0.124267
  10 H :    0.135766
  11 H :    0.300635
  12 H :    0.317498
  13 H :    0.313944
Sum of atomic charges:    0.0000000

LOEWDIN ATOMIC CHARGES
----------------------
   0 C :    0.018519
   1 C :    0.072922
   2 C :    0.024081
   3 O :   -0.631047
   4 O :   -0.581418
   5 O :   -0.601339
   6 H :    0.177992
   7 H :    0.170913
   8 H :    0.190430
   9 H :    0.164870
  10 H :    0.166828
  11 H :    0.272094
  12 H :    0.280241
  13 H :    0.274914

  Mayer bond orders larger than 0.100000
B(  0-C ,  1-C ) :   0.9485 B(  0-C ,  5-O ) :   0.9601 B(  0-C ,  6-H ) :   0.9648
B(  0-C ,  7-H ) :   0.9715 B(  1-C ,  2-C ) :   0.9696 B(  1-C ,  4-O ) :   0.9562
B(  1-C ,  8-H ) :   0.9378 B(  2-C ,  3-O ) :   0.9414 B(  2-C ,  9-H ) :   0.9607
B(  2-C , 10-H ) :   0.9584 B(  3-O , 11-H ) :   0.8981 B(  4-O , 12-H ) :   0.8708
B(  5-O , 13-H ) :   0.8703

Dispersion correction           -0.003036735
FINAL SINGLE POINT ENERGY      -344.726542595803

DIPOLE MOMENT
-------------

Method             : SCF
Type of density    : Electron Density
Multiplicity       :   1
Irrep              :   0
Energy             :  -344.7342226592120937 Eh
Relativity type    :
Basis              : AO
                                X                 Y                 Z
Electronic contribution:     -0.716376958       1.602773635      -1.005455760
Nuclear contribution   :      1.932825211      -2.117046197       1.137044057
                        -----------------------------------------
Total Dipole Moment    :      1.216448253      -0.514272562       0.131588297
                        -----------------------------------------
Magnitude (a.u.)       :      1.327229483
Magnitude (Debye)      :      3.373549246

Rotational constants in cm-1:             0.203702             0.076417             0.066575
Rotational constants in MHz :          6106.819212          2290.928264          1995.865490

                             ****ORCA TERMINATED NORMALLY****
TOTAL RUN TIME: 0 days 0 hours 0 minutes 21 seconds 146 msec
