                         Program Version 6.0.0  -   RELEASE  -
|  1> ! r2scan-3c def2/J RI DEFGRID2 scfconv6 printgap
|  2> %output
|  3>     printlevel normal
|  4> end
|  5> %cpcm
|  6>     smd true
|  7>     smdsolvent "water"
|  8> end
|  9> * xyz 0 1
| 10> C -1.0760354098 -0.5696449719 -0.1632402454
| 11> C 0.0086163606 0.219026369 0.5876226232
| 12> C 1.3171967827 -0.5746015427 0.6533325443
| 13> O 1.7734730335 -0.7627998383 -0.6709039655
| 14> O 0.2079994667 1.4723242675 -0.0301913858
| 15> O -2.2990869477 0.1280329257 -0.1851807979
| 16> H -1.2690505401 -1.5188263137 0.3390407229
| 17> H -0.7296490637 -0.7689418013 -1.1866435158
| 18> H -0.3418198015 0.4384108687 1.6012532086
| 19> H 1.1324626432 -1.5340158294 1.1488135135
| 20> H 2.0494433543 -0.0004197231 1.234336863
| 21> H 2.6029257643 -1.2577449238 -0.6595680406
| 22> H 0.7295057622 1.3211788176 -0.8343746389
| 23> H -2.1085898157 1.050538534 -0.4168518448
| 24> *
| 25>
| 26>                          ****END OF INPUT****

CARTESIAN COORDINATES (ANGSTROEM)
---------------------------------
  C     -1.076035   -0.569645   -0.163240
  C      0.008616    0.219026    0.587623
  C      1.317197   -0.574602    0.653333
  O      1.773473   -0.762800   -0.670904
  O      0.207999    1.472324   -0.030191
  O     -2.299087    0.128033   -0.185181
  H     -1.269051   -1.518826    0.339041
  H     -0.729649   -0.768942   -1.186644
  H     -0.341820    0.438411    1.601253
  H      1.132463   -1.534016    1.148814
  H      2.049443   -0.000420    1.234337
  H      2.602926   -1.257745   -0.659568
  H      0.729506    1.321179   -0.834375
  H     -2.108590    1.050539   -0.416852

 Total Charge           Charge          ....    0
 Multiplicity           Mult            ....    1
 Number of Electrons    NEL             ....   50
 Basis Dimension        Dim             ....  169

ORBITAL ENERGIES
----------------

  NO   OCC          E(Eh)            E(eV)
   0   2.0000     -18.957421      -515.8576
   1   2.0000     -18.956460      -515.8315
   2   2.0000     -18.952004      -515.7103
   3   2.0000     -10.081077      -274.3200
   4   2.0000     -10.074416      -274.1388
   5   2.0000     -10.068966      -273.9905
   6   2.0000      -1.009731       -27.4762
   7   2.0000      -0.989467       -26.9248
   8   2.0000      -0.977590       -26.6016
   9   2.0000      -0.721811       -19.6415
  10   2.0000      -0.636054       -17.3079
  11   2.0000      -0.574946       -15.6451
  12   2.0000      -0.501674       -13.6512
  13   2.0000      -0.474811       -12.9203
  14   2.0000      -0.448361       -12.2005
  15   2.0000      -0.430242       -11.7075
  16   2.0000      -0.407958       -11.1011
  17   2.0000      -0.392669       -10.6851
  18   2.0000      -0.372972       -10.1491
  19   2.0000      -0.331127        -9.0104
  20   2.0000      -0.312881        -8.5139
  21   2.0000      -0.299335        -8.1453
  22   2.0000      -0.264303        -7.1920
  23   2.0000      -0.247719        -6.7408
  24   2.0000      -0.228286        -6.2120
  25   0.0000       0.057234         1.5574
  26   0.0000       0.078099         2.1252
  27   0.0000       0.112943         3.0733
  28   0.0000       0.124829         3.3968
  29   0.0000       0.138396         3.7659

MULLIKEN ATOMIC CHARGES
-----------------------
   0 C :   -0.202463
   1 C :    0.054651
   2 C :   -0.160973
   3 O :   -0.518564
   4 O :   -0.502189
   5 O :   -0.501549
   6 H :    0.157166
   7 H :    0.151350
   8 H :    0.165580
   9 H :    0.150433
  10 H :    0.151679
  11 H :    0.349861
  12 H :    0.353021
  13 H :    0.351997
Sum of atomic charges:    0.0000000

LOEWDIN ATOMIC CHARGES
----------------------
   0 C :    0.017180
   1 C :    0.073717
   2 C :    0.032379
   3 O :   -0.650247
   4 O :   -0.608692
   5 O :   -0.639727
   6 H :    0.187599
   7 H :    0.173717
   8 H :    0.196433
   9 H :    0.176478
  10 H :    0.173431
  11 H :    0.289649
  12 H :    0.291546
  13 H :    0.286538

  Mayer bond orders larger than 0.100000
B(  0-C ,  1-C ) :   0.9471 B(  0-C ,  5-O ) :   0.9401 B(  0-C ,  6-H ) :   0.9587
B(  0-C ,  7-H ) :   0.9682 B(  1-C ,  2-C ) :   0.9670 B(  1-C ,  4-O ) :   0.9366
B(  1-C ,  8-H ) :   0.9309 B(  2-C ,  3-O ) :   0.9310 B(  2-C ,  9-H ) :   0.9596
B(  2-C , 10-H ) :   0.9578 B(  3-O , 11-H ) :   0.8725 B(  4-O , 12-H ) :   0.8528
B(  5-O , 13-H ) :   0.8521

Dispersion correction           -0.003036735
FINAL SINGLE POINT ENERGY      -344.745260267885

DIPOLE MOMENT
-------------

Method             : SCF
Type of density    : Electron Density
Multiplicity       :   1
Irrep              :   0
Energy             :  -344.7529403312942691 Eh
Relativity type    :
Basis              : AO
                                X                 Y                 Z
Electronic contribution:     -0.354683613       1.404608042      -0.917858674
Nuclear contribution   :      1.932825211      -2.117046197       1.137044057
                        -----------------------------------------
Total Dipole Moment    :      1.578141598      -0.712438155       0.219185383
                        -----------------------------------------
Magnitude (a.u.)       :      1.745319816
Magnitude (Debye)      :      4.436250418

Rotational constants in cm-1:             0.203702             0.076417             0.066575
Rotational constants in MHz :          6106.819212          2290.928264          1995.865490

                             ****ORCA TERMINATED NORMALLY****
TOTAL RUN TIME: 0 days 0 hours 0 minutes 23 seconds 814 msec
