                         Program Version 6.0.0  -   RELEASE  -
|  1> ! pbe def2-sv(p) def2/J RI DEFGRID1 loosescf d4 GCP(DFT/SV(P)) printgap
|  2> %output
|  3>     printlevel normal
|  4> end
|  5> * xyz 0 1
|  6> C 4.1510015074 0.0671906002 -0.4617405163
|  7> N 2.7260077502 -0.18312151 -0.4874758733
|  8> C 2.2903249903 -1.0961733294 -1.5188858142
|  9> C 1.9290971091 0.3692036773 0.4384268631
| 10> O 2.3743166193 1.0561891987 1.3659261049
| 11> C 0.4581832794 0.1454963535 0.315719228
| 12> C -0.2510865133 0.5671772229 -0.8017442377
| 13> C -1.6271597453 0.4332970993 -0.8630244483
| 14> C -2.3174133585 -0.1344810046 0.2036047872
| 15> C -1.6076127938 -0.5476190207 1.3338013319
| 16> C -0.2400414882 -0.3960211933 1.3921782991
| 17> O -3.6632218018 -0.3243624646 0.2480810945
| 18> C -4.4461444458 0.0791871734 -0.8613496566
| 19> H 4.3589276201 0.7890277097 0.325402916
| 20> H 4.4710521514 0.4686460858 -1.4234262126
| 21> H 4.6942285763 -0.856494728 -0.2572797908
| 22> H 1.2700957473 -1.4197659177 -1.3359500087
| 23> H 2.9462933232 -1.9675553959 -1.5175398493
| 24> H 2.3494434523 -0.6178390298 -2.498539283
| 25> H 0.2714655395 1.0208831905 -1.629886476
| 26> H -2.1474144436 0.7770468699 -1.7417895155
| 27> H -2.1573906975 -0.9765744444 2.1560559693
| 28> H 0.3045654059 -0.6991959917 2.2735775211
| 29> H -4.3635038325 1.1554763978 -1.0313312759
| 30> H -5.4699045824 -0.1711526058 -0.5932836068
| 31> H -4.1587505191 -0.4644144052 -1.7646008729
| 32> *
| 33>
| 34>                          ****END OF INPUT****

CARTESIAN COORDINATES (ANGSTROEM)
---------------------------------
  C      4.151002    0.067191   -0.461741
  N      2.726008   -0.183122   -0.487476
  C      2.290325   -1.096173   -1.518886
  C      1.929097    0.369204    0.438427
  O      2.374317    1.056189    1.365926
  C      0.458183    0.145496    0.315719
  C     -0.251087    0.567177   -0.801744
  C     -1.627160    0.433297   -0.863024
  C     -2.317413   -0.134481    0.203605
  C     -1.607613   -0.547619    1.333801
  C     -0.240041   -0.396021    1.392178
  O     -3.663222   -0.324362    0.248081
  C     -4.446144    0.079187   -0.861350
  H      4.358928    0.789028    0.325403
  H      4.471052    0.468646   -1.423426
  H      4.694229   -0.856495   -0.257280
  H      1.270096   -1.419766   -1.335950
  H      2.946293   -1.967555   -1.517540
  H      2.349443   -0.617839   -2.498539
  H      0.271466    1.020883   -1.629886
  H     -2.147414    0.777047   -1.741790
  H     -2.157391   -0.976574    2.156056
  H      0.304565   -0.699196    2.273578
  H     -4.363504    1.155476   -1.031331
  H     -5.469905   -0.171153   -0.593284
  H     -4.158751   -0.464414   -1.764601

 Total Charge           Charge          ....    0
 Multiplicity           Mult            ....    1
 Number of Electrons    NEL             ....   96
 Basis Dimension        Dim             ....  208

ORBITAL ENERGIES
----------------

  NO   OCC          E(Eh)            E(eV)
   0   2.0000     -18.794026      -511.4115
   1   2.0000     -18.700523      -508.8671
   2   2.0000     -14.024025      -381.6131
   3   2.0000      -9.971191      -271.3299
   4   2.0000      -9.956363      -270.9264
   5   2.0000      -9.945371      -270.6273
   6   2.0000      -9.921898      -269.9886
   7   2.0000      -9.911655      -269.7098
   8   2.0000      -9.899360      -269.3753
   9   2.0000      -9.895833      -269.2793
  10   2.0000      -9.895770      -269.2776
  11   2.0000      -9.893491      -269.2156
  12   2.0000      -9.889582      -269.1092
  13   2.0000      -0.974308       -26.5123
  14   2.0000      -0.922293       -25.0969
  15   2.0000      -0.843708       -22.9584
  16   2.0000      -0.777995       -21.1703
  17   2.0000      -0.696211       -18.9449
  18   2.0000      -0.676415       -18.4062
  19   2.0000      -0.656253       -17.8575
  20   2.0000      -0.643447       -17.5091
  21   2.0000      -0.618391       -16.8273
  22   2.0000      -0.554851       -15.0983
  23   2.0000      -0.539755       -14.6875
  24   2.0000      -0.498109       -13.5542
  25   2.0000      -0.486114       -13.2278
  26   2.0000      -0.463330       -12.6078
  27   2.0000      -0.443673       -12.0730
  28   2.0000      -0.427602       -11.6357
  29   2.0000      -0.426036       -11.5930
  30   2.0000      -0.419002       -11.4016
  31   2.0000      -0.399218       -10.8633
  32   2.0000      -0.384477       -10.4622
  33   2.0000      -0.378713       -10.3053
  34   2.0000      -0.374472       -10.1899
  35   2.0000      -0.362501        -9.8642
  36   2.0000      -0.350320        -9.5327
  37   2.0000      -0.348053        -9.4710
  38   2.0000      -0.336731        -9.1629
  39   2.0000      -0.327727        -8.9179
  40   2.0000      -0.319236        -8.6869
  41   2.0000      -0.309947        -8.4341
  42   2.0000      -0.284863        -7.7515
  43   2.0000      -0.283303        -7.7091
  44   2.0000      -0.233756        -6.3608
  45   2.0000      -0.204980        -5.5778
  46   2.0000      -0.200067        -5.4441
  47   2.0000      -0.181308        -4.9337
  48   0.0000      -0.039523        -1.0755
  49   0.0000      -0.034567        -0.9406
  50   0.0000       0.016355         0.4451
  51   0.0000       0.030505         0.8301
  52   0.0000       0.042734         1.1628

MULLIKEN ATOMIC CHARGES
-----------------------
   0 C :   -0.179710
   1 N :   -0.227804
   2 C :   -0.181711
   3 C :    0.128269
   4 O :   -0.240815
   5 C :    0.010235
   6 C :   -0.095391
   7 C :   -0.191235
   8 C :    0.278850
   9 C :   -0.110785
  10 C :   -0.076830
  11 O :   -0.265405
  12 C :   -0.115706
  13 H :    0.143370
  14 H :    0.104748
  15 H :    0.108771
  16 H :    0.159742
  17 H :    0.107654
  18 H :    0.105231
  19 H :    0.045285
  20 H :    0.039092
  21 H :    0.047060
  22 H :    0.054377
  23 H :    0.113896
  24 H :    0.128012
  25 H :    0.110802
Sum of atomic charges:   -0.0000000

LOEWDIN ATOMIC CHARGES
----------------------
   0 C :   -0.254348
   1 N :   -0.046861
   2 C :   -0.251132
   3 C :    0.029046
   4 O :   -0.211598
   5 C :   -0.082156
   6 C :   -0.109377
   7 C :   -0.175931
   8 C :    0.031892
   9 C :   -0.139190
  10 C :   -0.091752
  11 O :   -0.088515
  12 C :   -0.201494
  13 H :    0.136907
  14 H :    0.115051
  15 H :    0.115746
  16 H :    0.135933
  17 H :    0.116293
  18 H :    0.112431
  19 H :    0.124173
  20 H :    0.126541
  21 H :    0.131624
  22 H :    0.131883
  23 H :    0.111227
  24 H :    0.123825
  25 H :    0.109782

  Mayer bond orders larger than 0.100000
B(  0-C ,  1-N ) :   1.0034 B(  0-C , 13-H ) :   0.9276 B(  0-C , 14-H ) :   0.9512
B(  0-C , 15-H ) :   0.9523 B(  1-N ,  2-C ) :   1.0158 B(  1-N ,  3-C ) :   1.1931
B(  2-C , 16-H ) :   0.9308 B(  2-C , 17-H ) :   0.9441 B(  2-C , 18-H ) :   0.9483
B(  3-C ,  4-O ) :   2.0293 B(  3-C ,  5-C ) :   0.9084 B(  5-C ,  6-C ) :   1.3786
B(  5-C , 10-C ) :   1.3592 B(  6-C ,  7-C ) :   1.3379 B(  6-C , 19-H ) :   0.9601
B(  7-C ,  8-C ) :   1.2912 B(  7-C , 20-H ) :   0.9630 B(  8-C ,  9-C ) :   1.3289
B(  8-C , 11-O ) :   1.1470 B(  9-C , 10-C ) :   1.3653 B(  9-C , 21-H ) :   0.9664
B( 10-C , 22-H ) :   0.9693 B( 11-O , 12-C ) :   0.9860 B( 12-C , 23-H ) :   0.9417
B( 12-C , 24-H ) :   0.9589 B( 12-C , 25-H ) :   0.9420

Dispersion correction           -0.028505067
FINAL SINGLE POINT ENERGY      -592.810773610763

DIPOLE MOMENT
-------------

Method             : SCF
Type of density    : Electron Density
Multiplicity       :   1
Irrep              :   0
Energy             :  -592.8951461300254095 Eh
Relativity type    :
Basis              : AO
                                X                 Y                 Z
Electronic contribution:     -2.726404415       2.071226649       6.904185976
Nuclear contribution   :      2.218483019      -2.768937475      -8.458491029
                        -----------------------------------------
Total Dipole Moment    :     -0.507921396      -0.697710826      -1.554305053
                        -----------------------------------------
Magnitude (a.u.)       :      1.777821346
Magnitude (Debye)      :      4.518862742

Rotational constants in cm-1:             0.072746             0.012926             0.011862
Rotational constants in MHz :          2180.877166           387.498707           355.628791

                             ****ORCA TERMINATED NORMALLY****
TOTAL RUN TIME: 0 days 0 hours 0 minutes 17 seconds 689 msec
