                         Program Version 6.0.0  -   RELEASE  -
|  1> ! r2scan-3c def2/J RI DEFGRID2 scfconv6 printgap
|  2> %output
|  3>     printlevel normal
|  4> end
|  5> * xyz 0 1
|  6> C -3.2863395526 0.7455025796 0.4349247698
|  7> C -2.2568754752 1.5195805772 -0.0751682649
|  8> C -1.0901922647 0.9198107066 -0.5133473332
|  9> C -0.9390916631 -0.4597796793 -0.4413964999
| 10> C -1.9719360697 -1.2291136092 0.0749248236
| 11> C -3.142536168 -0.6292781492 0.507586611
| 12> C 0.3444910202 -1.1021107453 -0.913555971
| 13> N 1.4925460429 -0.4821215501 -0.2998309931
| 14> C 1.8322024835 -0.5540753615 1.0201868352
| 15> C 2.9408038588 0.2276927568 1.1684419967
| 16> N 3.2841491036 0.780682446 -0.0271941559
| 17> C 2.3935310242 0.3384201891 -0.8780837154
| 18> H -4.1968993176 1.2138759056 0.7759686603
| 19> H -2.3628997743 2.5922599903 -0.1329406927
| 20> H -0.2865557768 1.5256182466 -0.907591175
| 21> H -1.8630676996 -2.3019112799 0.1369099933
| 22> H -3.9409661506 -1.236548096 0.9060478888
| 23> H 0.340017613 -2.1681507026 -0.6700679074
| 24> H 0.4432885416 -0.9889569887 -1.9968724089
| 25> H 1.2724950172 -1.1366601419 1.7214190262
| 26> H 3.5145846437 0.4286172949 2.0507677479
| 27> H 2.3796488421 0.5844193004 -1.9211900116
| 28> *
| 29>
| 30>                          ****END OF INPUT****

CARTESIAN COORDINATES (ANGSTROEM)
---------------------------------
  C     -3.286340    0.745503    0.434925
  C     -2.256875    1.519581   -0.075168
  C     -1.090192    0.919811   -0.513347
  C     -0.939092   -0.459780   -0.441396
  C     -1.971936   -1.229114    0.074925
  C     -3.142536   -0.629278    0.507587
  C      0.344491   -1.102111   -0.913556
  N      1.492546   -0.482122   -0.299831
  C      1.832202   -0.554075    1.020187
  C      2.940804    0.227693    1.168442
  N      3.284149    0.780682   -0.027194
  C      2.393531    0.338420   -0.878084
  H     -4.196899    1.213876    0.775969
  H     -2.362900    2.592260   -0.132941
  H     -0.286556    1.525618   -0.907591
  H     -1.863068   -2.301911    0.136910
  H     -3.940966   -1.236548    0.906048
  H      0.340018   -2.168151   -0.670068
  H      0.443289   -0.988957   -1.996872
  H      1.272495   -1.136660    1.721419
  H      3.514585    0.428617    2.050768
  H      2.379649    0.584419   -1.921190

 Total Charge           Charge          ....    0
 Multiplicity           Mult            ....    1
 Number of Electrons    NEL             ....   84
 Basis Dimension        Dim             ....  288

ORBITAL ENERGIES
----------------

  NO   OCC          E(Eh)            E(eV)
   0   2.0000     -14.222978      -387.0269
   1   2.0000     -14.131902      -384.5486
   2   2.0000     -10.096914      -274.7510
   3   2.0000     -10.074834      -274.1502
   4   2.0000     -10.058229      -273.6983
   5   2.0000     -10.051347      -273.5111
   6   2.0000     -10.047929      -273.4181
   7   2.0000     -10.046430      -273.3773
   8   2.0000     -10.045842      -273.3613
   9   2.0000     -10.045097      -273.3410
  10   2.0000     -10.044625      -273.3281
  11   2.0000     -10.037127      -273.1241
  12   2.0000      -0.993479       -27.0339
  13   2.0000      -0.865625       -23.5549
  14   2.0000      -0.836032       -22.7496
  15   2.0000      -0.752884       -20.4870
  16   2.0000      -0.728936       -19.8354
  17   2.0000      -0.713141       -19.4056
  18   2.0000      -0.676402       -18.4058
  19   2.0000      -0.591060       -16.0836
  20   2.0000      -0.578514       -15.7422
  21   2.0000      -0.566604       -15.4181
  22   2.0000      -0.544296       -14.8110
  23   2.0000      -0.513191       -13.9646
  24   2.0000      -0.494954       -13.4684
  25   2.0000      -0.454966       -12.3803
  26   2.0000      -0.440350       -11.9825
  27   2.0000      -0.419863       -11.4251
  28   2.0000      -0.413163       -11.2427
  29   2.0000      -0.401776       -10.9329
  30   2.0000      -0.401085       -10.9141
  31   2.0000      -0.385538       -10.4910
  32   2.0000      -0.376226       -10.2376
  33   2.0000      -0.371326       -10.1043
  34   2.0000      -0.350759        -9.5446
  35   2.0000      -0.328482        -8.9384
  36   2.0000      -0.322382        -8.7725
  37   2.0000      -0.256073        -6.9681
  38   2.0000      -0.249926        -6.8008
  39   2.0000      -0.239245        -6.5102
  40   2.0000      -0.233085        -6.3426
  41   2.0000      -0.208238        -5.6665
  42   0.0000      -0.048050        -1.3075
  43   0.0000      -0.043360        -1.1799
  44   0.0000      -0.002036        -0.0554
  45   0.0000       0.034480         0.9383
  46   0.0000       0.067289         1.8310

MULLIKEN ATOMIC CHARGES
-----------------------
   0 C :   -0.135227
   1 C :   -0.177740
   2 C :   -0.159632
   3 C :    0.208487
   4 C :   -0.222608
   5 C :   -0.153895
   6 C :   -0.383340
   7 N :    0.214366
   8 C :   -0.186224
   9 C :   -0.125010
  10 N :   -0.185460
  11 C :   -0.176289
  12 H :    0.148180
  13 H :    0.147810
  14 H :    0.154618
  15 H :    0.145073
  16 H :    0.147200
  17 H :    0.165010
  18 H :    0.172075
  19 H :    0.137210
  20 H :    0.133130
  21 H :    0.132265
Sum of atomic charges:   -0.0000000

LOEWDIN ATOMIC CHARGES
----------------------
   0 C :   -0.161425
   1 C :   -0.152903
   2 C :   -0.137727
   3 C :   -0.067173
   4 C :   -0.160679
   5 C :   -0.157562
   6 C :    0.020429
   7 N :   -0.777960
   8 C :    0.069743
   9 C :    0.056832
  10 N :   -0.567207
  11 C :    0.215061
  12 H :    0.168449
  13 H :    0.169541
  14 H :    0.178943
  15 H :    0.169315
  16 H :    0.168563
  17 H :    0.193131
  18 H :    0.201269
  19 H :    0.190097
  20 H :    0.181673
  21 H :    0.199589

  Mayer bond orders larger than 0.100000
B(  0-C ,  1-C ) :   1.4043 B(  0-C ,  5-C ) :   1.4352 B(  0-C , 12-H ) :   0.9484
B(  1-C ,  2-C ) :   1.4502 B(  1-C , 13-H ) :   0.9522 B(  2-C ,  3-C ) :   1.4048
B(  2-C , 14-H ) :   0.9427 B(  3-C ,  4-C ) :   1.4014 B(  3-C ,  6-C ) :   0.8235
B(  4-C ,  5-C ) :   1.4248 B(  4-C , 15-H ) :   0.9422 B(  5-C , 16-H ) :   0.9469
B(  6-C ,  7-N ) :   0.9320 B(  6-C , 17-H ) :   0.9924 B(  6-C , 18-H ) :   0.9586
B(  7-N ,  8-C ) :   1.2420 B(  7-N , 11-C ) :   1.2258 B(  8-C ,  9-C ) :   1.4755
B(  8-C , 11-C ) :   0.1058 B(  8-C , 19-H ) :   0.9488 B(  9-C , 10-N ) :   1.3070
B(  9-C , 20-H ) :   0.9770 B( 10-N , 11-C ) :   1.6130 B( 11-C , 21-H ) :   0.9603

Dispersion correction           -0.008597665
FINAL SINGLE POINT ENERGY      -496.441781442280

DIPOLE MOMENT
-------------

Method             : SCF
Type of density    : Electron Density
Multiplicity       :   1
Irrep              :   0
Energy             :  -496.4461172990589830 Eh
Relativity type    :
Basis              : AO
                                X                 Y                 Z
Electronic contribution:      2.991855892       0.657637176      -0.149287302
Nuclear contribution   :     -4.383514897      -1.393830233      -0.037022239
                        -----------------------------------------
Total Dipole Moment    :     -1.391659005      -0.736193058      -0.186309541
                        -----------------------------------------
Magnitude (a.u.)       :      1.585372590
Magnitude (Debye)      :      4.029696878

Rotational constants in cm-1:             0.082110             0.018349             0.017421
Rotational constants in MHz :          2461.606492           550.102093           522.278244

                             ****ORCA TERMINATED NORMALLY****
TOTAL RUN TIME: 0 days 0 hours 0 minutes 43 seconds 406 msec
