                         Program Version 6.0.0  -   RELEASE  -
|  1> ! r2scan-3c def2/J RI DEFGRID2 scfconv6 printgap
|  2> %output
|  3>     printlevel normal
|  4> end
|  5> %cpcm
|  6>     smd true
|  7>     smdsolvent "water"
|  8> end
|  9> * xyz 0 1
| 10> C -3.2863395526 0.7455025796 0.4349247698
| 11> C -2.2568754752 1.5195805772 -0.0751682649
| 12> C -1.0901922647 0.9198107066 -0.5133473332
| 13> C -0.9390916631 -0.4597796793 -0.4413964999
| 14> C -1.9719360697 -1.2291136092 0.0749248236
| 15> C -3.142536168 -0.6292781492 0.507586611
| 16> C 0.3444910202 -1.1021107453 -0.913555971
| 17> N 1.4925460429 -0.4821215501 -0.2998309931
| 18> C 1.8322024835 -0.5540753615 1.0201868352
| 19> C 2.9408038588 0.2276927568 1.1684419967
| 20> N 3.2841491036 0.780682446 -0.0271941559
| 21> C 2.3935310242 0.3384201891 -0.8780837154
| 22> H -4.1968993176 1.2138759056 0.7759686603
| 23> H -2.3628997743 2.5922599903 -0.1329406927
| 24> H -0.2865557768 1.5256182466 -0.907591175
| 25> H -1.8630676996 -2.3019112799 0.1369099933
| 26> H -3.9409661506 -1.236548096 0.9060478888
| 27> H 0.340017613 -2.1681507026 -0.6700679074
| 28> H 0.4432885416 -0.9889569887 -1.9968724089
| 29> H 1.2724950172 -1.1366601419 1.7214190262
| 30> H 3.5145846437 0.4286172949 2.0507677479
| 31> H 2.3796488421 0.5844193004 -1.9211900116
| 32> *
| 33>
| 34>                          ****END OF INPUT****

CARTESIAN COORDINATES (ANGSTROEM)
---------------------------------
  C     -3.286340    0.745503    0.434925
  C     -2.256875    1.519581   -0.075168
  C     -1.090192    0.919811   -0.513347
  C     -0.939092   -0.459780   -0.441396
  C     -1.971936   -1.229114    0.074925
  C     -3.142536   -0.629278    0.507587
  C      0.344491   -1.102111   -0.913556
  N      1.492546   -0.482122   -0.299831
  C      1.832202   -0.554075    1.020187
  C      2.940804    0.227693    1.168442
  N      3.284149    0.780682   -0.027194
  C      2.393531    0.338420   -0.878084
  H     -4.196899    1.213876    0.775969
  H     -2.362900    2.592260   -0.132941
  H     -0.286556    1.525618   -0.907591
  H     -1.863068   -2.301911    0.136910
  H     -3.940966   -1.236548    0.906048
  H      0.340018   -2.168151   -0.670068
  H      0.443289   -0.988957   -1.996872
  H      1.272495   -1.136660    1.721419
  H      3.514585    0.428617    2.050768
  H      2.379649    0.584419   -1.921190

 Total Charge           Charge          ....    0
 Multiplicity           Mult            ....    1
 Number of Electrons    NEL             ....   84
 Basis Dimension        Dim             ....  288

ORBITAL ENERGIES
----------------

  NO   OCC          E(Eh)            E(eV)
   0   2.0000     -14.220560      -386.9611
   1   2.0000     -14.141981      -384.8229
   2   2.0000     -10.077554      -274.2242
   3   2.0000     -10.076189      -274.1870
   4   2.0000     -10.051179      -273.5065
   5   2.0000     -10.047725      -273.4125
   6   2.0000     -10.040637      -273.2196
   7   2.0000     -10.035145      -273.0702
   8   2.0000     -10.035126      -273.0697
   9   2.0000     -10.034615      -273.0558
  10   2.0000     -10.034335      -273.0481
  11   2.0000     -10.033434      -273.0236
  12   2.0000      -0.994259       -27.0552
  13   2.0000      -0.865255       -23.5448
  14   2.0000      -0.828551       -22.5460
  15   2.0000      -0.743618       -20.2349
  16   2.0000      -0.718437       -19.5497
  17   2.0000      -0.712357       -19.3842
  18   2.0000      -0.667288       -18.1578
  19   2.0000      -0.579713       -15.7748
  20   2.0000      -0.569976       -15.5098
  21   2.0000      -0.564327       -15.3561
  22   2.0000      -0.540597       -14.7104
  23   2.0000      -0.504857       -13.7379
  24   2.0000      -0.482260       -13.1230
  25   2.0000      -0.443519       -12.0688
  26   2.0000      -0.427451       -11.6315
  27   2.0000      -0.412393       -11.2218
  28   2.0000      -0.405727       -11.0404
  29   2.0000      -0.397806       -10.8248
  30   2.0000      -0.388738       -10.5781
  31   2.0000      -0.375890       -10.2285
  32   2.0000      -0.371633       -10.1126
  33   2.0000      -0.367505       -10.0003
  34   2.0000      -0.342457        -9.3187
  35   2.0000      -0.316607        -8.6153
  36   2.0000      -0.308626        -8.3981
  37   2.0000      -0.257461        -7.0059
  38   2.0000      -0.250578        -6.8186
  39   2.0000      -0.242056        -6.5867
  40   2.0000      -0.233514        -6.3542
  41   2.0000      -0.212688        -5.7875
  42   0.0000      -0.039423        -1.0727
  43   0.0000      -0.034762        -0.9459
  44   0.0000      -0.002599        -0.0707
  45   0.0000       0.028899         0.7864
  46   0.0000       0.083141         2.2624

MULLIKEN ATOMIC CHARGES
-----------------------
   0 C :   -0.169900
   1 C :   -0.220219
   2 C :   -0.199359
   3 C :    0.161326
   4 C :   -0.238373
   5 C :   -0.190633
   6 C :   -0.332785
   7 N :    0.211745
   8 C :   -0.215656
   9 C :   -0.179450
  10 N :   -0.274262
  11 C :   -0.161405
  12 H :    0.179941
  13 H :    0.178407
  14 H :    0.181992
  15 H :    0.180748
  16 H :    0.179095
  17 H :    0.193999
  18 H :    0.201737
  19 H :    0.178122
  20 H :    0.162201
  21 H :    0.172729
Sum of atomic charges:   -0.0000000

LOEWDIN ATOMIC CHARGES
----------------------
   0 C :   -0.175105
   1 C :   -0.167323
   2 C :   -0.151181
   3 C :   -0.068963
   4 C :   -0.162023
   5 C :   -0.168759
   6 C :    0.029102
   7 N :   -0.758962
   8 C :    0.072088
   9 C :    0.029813
  10 N :   -0.636657
  11 C :    0.221009
  12 H :    0.177889
  13 H :    0.178681
  14 H :    0.186218
  15 H :    0.182560
  16 H :    0.178661
  17 H :    0.207210
  18 H :    0.215462
  19 H :    0.205409
  20 H :    0.189732
  21 H :    0.215140

  Mayer bond orders larger than 0.100000
B(  0-C ,  1-C ) :   1.3729 B(  0-C ,  5-C ) :   1.3957 B(  0-C , 12-H ) :   0.9543
B(  1-C ,  2-C ) :   1.4094 B(  1-C , 13-H ) :   0.9616 B(  2-C ,  3-C ) :   1.3769
B(  2-C , 14-H ) :   0.9487 B(  3-C ,  4-C ) :   1.3927 B(  3-C ,  6-C ) :   0.8247
B(  4-C ,  5-C ) :   1.3868 B(  4-C , 15-H ) :   0.9502 B(  5-C , 16-H ) :   0.9561
B(  6-C ,  7-N ) :   0.9433 B(  6-C , 17-H ) :   0.9780 B(  6-C , 18-H ) :   0.9411
B(  7-N ,  8-C ) :   1.2186 B(  7-N , 11-C ) :   1.2537 B(  8-C ,  9-C ) :   1.4775
B(  8-C , 19-H ) :   0.9576 B(  9-C , 10-N ) :   1.2929 B(  9-C , 20-H ) :   0.9738
B( 10-N , 11-C ) :   1.6035 B( 11-C , 21-H ) :   0.9491

Dispersion correction           -0.008597665
FINAL SINGLE POINT ENERGY      -496.456658921137

DIPOLE MOMENT
-------------

Method             : SCF
Type of density    : Electron Density
Multiplicity       :   1
Irrep              :   0
Energy             :  -496.4609947779156869 Eh
Relativity type    :
Basis              : AO
                                X                 Y                 Z
Electronic contribution:      2.572472326       0.214855689      -0.344501621
Nuclear contribution   :     -4.383514897      -1.393830233      -0.037022239
                        -----------------------------------------
Total Dipole Moment    :     -1.811042570      -1.178974544      -0.381523860
                        -----------------------------------------
Magnitude (a.u.)       :      2.194405757
Magnitude (Debye)      :      5.577736163

Rotational constants in cm-1:             0.082110             0.018349             0.017421
Rotational constants in MHz :          2461.606492           550.102093           522.278244

                             ****ORCA TERMINATED NORMALLY****
TOTAL RUN TIME: 0 days 0 hours 1 minutes 1 seconds 997 msec
