                         Program Version 6.0.0  -   RELEASE  -
|  1> ! r2scan-3c def2/J RI DEFGRID2 scfconv6 printgap
|  2> %output
|  3>     printlevel normal
|  4> end
|  5> * xyz 0 1
|  6> C -4.1532628722 1.3780164499 -0.3882619557
|  7> C -3.4804537282 0.1836903248 0.2649637348
|  8> O -2.0592773819 0.3842744365 0.2471265619
|  9> C -1.2677135676 -0.6675617942 0.0401998691
| 10> O -1.6964071211 -1.7997285725 -0.1200076845
| 11> C 0.160332871 -0.317906085 0.0237254069
| 12> C 0.6008326429 0.9918596422 0.2141595569
| 13> C 1.9479582651 1.2818415372 0.1937441372
| 14> C 2.882652241 0.2676966146 -0.0180222857
| 15> C 2.443630799 -1.0448828008 -0.2097281406
| 16> C 1.0987046232 -1.3308589217 -0.188108519
| 17> O 4.2084071787 0.5000604738 -0.0466797839
| 18> H -3.8402437124 1.4654975178 -1.4249901397
| 19> H -5.2296352033 1.2464534902 -0.3503059115
| 20> H -3.8842721075 2.2890290835 0.1380260876
| 21> H -3.7070520265 -0.7499516876 -0.2601801458
| 22> H -3.7844627784 0.0828718895 1.31159377
| 23> H -0.1223144765 1.7741433528 0.378281338
| 24> H 2.2799151043 2.2983048124 0.342569926
| 25> H 3.1784301023 -1.8165919394 -0.3722447711
| 26> H 0.7430543899 -2.3393905947 -0.3337818137
| 27> H 4.4072335882 1.4395327861 0.0964823331
| 28> *
| 29>
| 30>                          ****END OF INPUT****

CARTESIAN COORDINATES (ANGSTROEM)
---------------------------------
  C     -4.153263    1.378016   -0.388262
  C     -3.480454    0.183690    0.264964
  O     -2.059277    0.384274    0.247127
  C     -1.267714   -0.667562    0.040200
  O     -1.696407   -1.799729   -0.120008
  C      0.160333   -0.317906    0.023725
  C      0.600833    0.991860    0.214160
  C      1.947958    1.281842    0.193744
  C      2.882652    0.267697   -0.018022
  C      2.443631   -1.044883   -0.209728
  C      1.098705   -1.330859   -0.188109
  O      4.208407    0.500060   -0.046680
  H     -3.840244    1.465498   -1.424990
  H     -5.229635    1.246453   -0.350306
  H     -3.884272    2.289029    0.138026
  H     -3.707052   -0.749952   -0.260180
  H     -3.784463    0.082872    1.311594
  H     -0.122314    1.774143    0.378281
  H      2.279915    2.298305    0.342570
  H      3.178430   -1.816592   -0.372245
  H      0.743054   -2.339391   -0.333782
  H      4.407234    1.439533    0.096482

 Total Charge           Charge          ....    0
 Multiplicity           Mult            ....    1
 Number of Electrons    NEL             ....   88
 Basis Dimension        Dim             ....  293

ORBITAL ENERGIES
----------------

  NO   OCC          E(Eh)            E(eV)
   0   2.0000     -19.002241      -517.0773
   1   2.0000     -18.993238      -516.8323
   2   2.0000     -18.922054      -514.8953
   3   2.0000     -10.150513      -276.2095
   4   2.0000     -10.113636      -275.2060
   5   2.0000     -10.088320      -274.5172
   6   2.0000     -10.050124      -273.4778
   7   2.0000     -10.046588      -273.3816
   8   2.0000     -10.046513      -273.3795
   9   2.0000     -10.046168      -273.3701
  10   2.0000     -10.040673      -273.2206
  11   2.0000     -10.030443      -272.9422
  12   2.0000      -1.066559       -29.0225
  13   2.0000      -1.049025       -28.5454
  14   2.0000      -0.968942       -26.3662
  15   2.0000      -0.835968       -22.7478
  16   2.0000      -0.754221       -20.5234
  17   2.0000      -0.731493       -19.9049
  18   2.0000      -0.723216       -19.6797
  19   2.0000      -0.639318       -17.3967
  20   2.0000      -0.600159       -16.3311
  21   2.0000      -0.592332       -16.1182
  22   2.0000      -0.537736       -14.6325
  23   2.0000      -0.529180       -14.3997
  24   2.0000      -0.497953       -13.5500
  25   2.0000      -0.461366       -12.5544
  26   2.0000      -0.455614       -12.3979
  27   2.0000      -0.424411       -11.5488
  28   2.0000      -0.418993       -11.4014
  29   2.0000      -0.405727       -11.0404
  30   2.0000      -0.403719       -10.9857
  31   2.0000      -0.396751       -10.7961
  32   2.0000      -0.384098       -10.4518
  33   2.0000      -0.373515       -10.1639
  34   2.0000      -0.362943        -9.8762
  35   2.0000      -0.352958        -9.6045
  36   2.0000      -0.339051        -9.2260
  37   2.0000      -0.319456        -8.6928
  38   2.0000      -0.316155        -8.6030
  39   2.0000      -0.304795        -8.2939
  40   2.0000      -0.267804        -7.2873
  41   2.0000      -0.249517        -6.7897
  42   2.0000      -0.234894        -6.3918
  43   2.0000      -0.218722        -5.9517
  44   0.0000      -0.064087        -1.7439
  45   0.0000      -0.042036        -1.1439
  46   0.0000       0.036307         0.9880
  47   0.0000       0.045545         1.2394
  48   0.0000       0.069496         1.8911

MULLIKEN ATOMIC CHARGES
-----------------------
   0 C :   -0.444555
   1 C :   -0.154928
   2 O :   -0.153721
   3 C :    0.358825
   4 O :   -0.446129
   5 C :    0.068258
   6 C :   -0.188047
   7 C :   -0.325073
   8 C :    0.450940
   9 C :   -0.305762
  10 C :   -0.209252
  11 O :   -0.399546
  12 H :    0.153457
  13 H :    0.146939
  14 H :    0.150218
  15 H :    0.183811
  16 H :    0.143063
  17 H :    0.172433
  18 H :    0.138972
  19 H :    0.157629
  20 H :    0.183452
  21 H :    0.319015
Sum of atomic charges:   -0.0000000

LOEWDIN ATOMIC CHARGES
----------------------
   0 C :   -0.387730
   1 C :    0.034571
   2 O :   -0.609295
   3 C :    0.387539
   4 O :   -0.453545
   5 C :   -0.053384
   6 C :   -0.100835
   7 C :   -0.170958
   8 C :    0.197866
   9 C :   -0.137598
  10 C :   -0.092127
  11 O :   -0.480298
  12 H :    0.158812
  13 H :    0.159224
  14 H :    0.157015
  15 H :    0.194193
  16 H :    0.174260
  17 H :    0.189037
  18 H :    0.169907
  19 H :    0.182375
  20 H :    0.191981
  21 H :    0.288990

  Mayer bond orders larger than 0.100000
B(  0-C ,  1-C ) :   0.9509 B(  0-C , 12-H ) :   0.9739 B(  0-C , 13-H ) :   0.9675
B(  0-C , 14-H ) :   0.9705 B(  1-C ,  2-O ) :   0.7662 B(  1-C , 15-H ) :   0.9703
B(  1-C , 16-H ) :   0.9454 B(  2-O ,  3-C ) :   1.1739 B(  2-O ,  5-C ) :  -0.1292
B(  3-C ,  4-O ) :   1.8647 B(  3-C ,  5-C ) :   1.0522 B(  5-C ,  6-C ) :   1.3854
B(  5-C , 10-C ) :   1.4546 B(  6-C ,  7-C ) :   1.3886 B(  6-C , 17-H ) :   0.9419
B(  7-C ,  8-C ) :   1.3079 B(  7-C , 18-H ) :   0.9259 B(  8-C ,  9-C ) :   1.3743
B(  8-C , 11-O ) :   0.9422 B(  9-C , 10-C ) :   1.3502 B(  9-C , 11-O ) :   0.1004
B(  9-C , 19-H ) :   0.9597 B( 10-C , 20-H ) :   0.9413 B( 11-O , 21-H ) :   0.8773

Dispersion correction           -0.007330467
FINAL SINGLE POINT ENERGY      -574.552562536161

DIPOLE MOMENT
-------------

Method             : SCF
Type of density    : Electron Density
Multiplicity       :   1
Irrep              :   0
Energy             :  -574.5560440362484087 Eh
Relativity type    :
Basis              : AO
                                X                 Y                 Z
Electronic contribution:      9.606698777      -3.939009559       0.596522036
Nuclear contribution   :     -9.336862374       5.324537707      -0.444016833
                        -----------------------------------------
Total Dipole Moment    :      0.269836403       1.385528148       0.152505204
                        -----------------------------------------
Magnitude (a.u.)       :      1.419773845
Magnitude (Debye)      :      3.608778319

Rotational constants in cm-1:             0.086905             0.014827             0.012855
Rotational constants in MHz :          2605.352811           444.513937           385.372483

                             ****ORCA TERMINATED NORMALLY****
TOTAL RUN TIME: 0 days 0 hours 0 minutes 41 seconds 568 msec
