                         Program Version 6.0.0  -   RELEASE  -
|  1> ! r2scan-3c def2/J RI DEFGRID2 scfconv6 printgap
|  2> %output
|  3>     printlevel normal
|  4> end
|  5> %cpcm
|  6>     smd true
|  7>     smdsolvent "water"
|  8> end
|  9> * xyz 0 1
| 10> C -4.1532628722 1.3780164499 -0.3882619557
| 11> C -3.4804537282 0.1836903248 0.2649637348
| 12> O -2.0592773819 0.3842744365 0.2471265619
| 13> C -1.2677135676 -0.6675617942 0.0401998691
| 14> O -1.6964071211 -1.7997285725 -0.1200076845
| 15> C 0.160332871 -0.317906085 0.0237254069
| 16> C 0.6008326429 0.9918596422 0.2141595569
| 17> C 1.9479582651 1.2818415372 0.1937441372
| 18> C 2.882652241 0.2676966146 -0.0180222857
| 19> C 2.443630799 -1.0448828008 -0.2097281406
| 20> C 1.0987046232 -1.3308589217 -0.188108519
| 21> O 4.2084071787 0.5000604738 -0.0466797839
| 22> H -3.8402437124 1.4654975178 -1.4249901397
| 23> H -5.2296352033 1.2464534902 -0.3503059115
| 24> H -3.8842721075 2.2890290835 0.1380260876
| 25> H -3.7070520265 -0.7499516876 -0.2601801458
| 26> H -3.7844627784 0.0828718895 1.31159377
| 27> H -0.1223144765 1.7741433528 0.378281338
| 28> H 2.2799151043 2.2983048124 0.342569926
| 29> H 3.1784301023 -1.8165919394 -0.3722447711
| 30> H 0.7430543899 -2.3393905947 -0.3337818137
| 31> H 4.4072335882 1.4395327861 0.0964823331
| 32> *
| 33>
| 34>                          ****END OF INPUT****

CARTESIAN COORDINATES (ANGSTROEM)
---------------------------------
  C     -4.153263    1.378016   -0.388262
  C     -3.480454    0.183690    0.264964
  O     -2.059277    0.384274    0.247127
  C     -1.267714   -0.667562    0.040200
  O     -1.696407   -1.799729   -0.120008
  C      0.160333   -0.317906    0.023725
  C      0.600833    0.991860    0.214160
  C      1.947958    1.281842    0.193744
  C      2.882652    0.267697   -0.018022
  C      2.443631   -1.044883   -0.209728
  C      1.098705   -1.330859   -0.188109
  O      4.208407    0.500060   -0.046680
  H     -3.840244    1.465498   -1.424990
  H     -5.229635    1.246453   -0.350306
  H     -3.884272    2.289029    0.138026
  H     -3.707052   -0.749952   -0.260180
  H     -3.784463    0.082872    1.311594
  H     -0.122314    1.774143    0.378281
  H      2.279915    2.298305    0.342570
  H      3.178430   -1.816592   -0.372245
  H      0.743054   -2.339391   -0.333782
  H      4.407234    1.439533    0.096482

 Total Charge           Charge          ....    0
 Multiplicity           Mult            ....    1
 Number of Electrons    NEL             ....   88
 Basis Dimension        Dim             ....  293

ORBITAL ENERGIES
----------------

  NO   OCC          E(Eh)            E(eV)
   0   2.0000     -19.000090      -517.0187
   1   2.0000     -18.993268      -516.8331
   2   2.0000     -18.939780      -515.3776
   3   2.0000     -10.164681      -276.5950
   4   2.0000     -10.111875      -275.1581
   5   2.0000     -10.083164      -274.3768
   6   2.0000     -10.048401      -273.4309
   7   2.0000     -10.047979      -273.4194
   8   2.0000     -10.047347      -273.4022
   9   2.0000     -10.040660      -273.2203
  10   2.0000     -10.038868      -273.1715
  11   2.0000     -10.018339      -272.6129
  12   2.0000      -1.076199       -29.2849
  13   2.0000      -1.039874       -28.2964
  14   2.0000      -0.985177       -26.8080
  15   2.0000      -0.836130       -22.7523
  16   2.0000      -0.752485       -20.4761
  17   2.0000      -0.729261       -19.8442
  18   2.0000      -0.719557       -19.5802
  19   2.0000      -0.635973       -17.3057
  20   2.0000      -0.595270       -16.1981
  21   2.0000      -0.589318       -16.0362
  22   2.0000      -0.535713       -14.5775
  23   2.0000      -0.523838       -14.2544
  24   2.0000      -0.499514       -13.5925
  25   2.0000      -0.464972       -12.6525
  26   2.0000      -0.455588       -12.3972
  27   2.0000      -0.434179       -11.8146
  28   2.0000      -0.418469       -11.3871
  29   2.0000      -0.406391       -11.0585
  30   2.0000      -0.399168       -10.8619
  31   2.0000      -0.394221       -10.7273
  32   2.0000      -0.383291       -10.4299
  33   2.0000      -0.365971        -9.9586
  34   2.0000      -0.358961        -9.7678
  35   2.0000      -0.351741        -9.5714
  36   2.0000      -0.335958        -9.1419
  37   2.0000      -0.319600        -8.6967
  38   2.0000      -0.314673        -8.5627
  39   2.0000      -0.305000        -8.2995
  40   2.0000      -0.276447        -7.5225
  41   2.0000      -0.254376        -6.9219
  42   2.0000      -0.250206        -6.8085
  43   2.0000      -0.219658        -5.9772
  44   0.0000      -0.070341        -1.9141
  45   0.0000      -0.041756        -1.1362
  46   0.0000       0.030631         0.8335
  47   0.0000       0.071570         1.9475
  48   0.0000       0.079869         2.1734

MULLIKEN ATOMIC CHARGES
-----------------------
   0 C :   -0.486690
   1 C :   -0.147699
   2 O :   -0.165968
   3 C :    0.397317
   4 O :   -0.525768
   5 C :    0.067923
   6 C :   -0.191991
   7 C :   -0.333415
   8 C :    0.412832
   9 C :   -0.349125
  10 C :   -0.241756
  11 O :   -0.431495
  12 H :    0.164706
  13 H :    0.168497
  14 H :    0.164677
  15 H :    0.179893
  16 H :    0.169413
  17 H :    0.196084
  18 H :    0.188966
  19 H :    0.188112
  20 H :    0.196512
  21 H :    0.378977
Sum of atomic charges:   -0.0000000

LOEWDIN ATOMIC CHARGES
----------------------
   0 C :   -0.390212
   1 C :    0.038695
   2 O :   -0.608623
   3 C :    0.391187
   4 O :   -0.516567
   5 C :   -0.068977
   6 C :   -0.104504
   7 C :   -0.156508
   8 C :    0.195910
   9 C :   -0.145042
  10 C :   -0.106376
  11 O :   -0.483916
  12 H :    0.161510
  13 H :    0.167833
  14 H :    0.161613
  15 H :    0.193150
  16 H :    0.184291
  17 H :    0.197235
  18 H :    0.190605
  19 H :    0.192059
  20 H :    0.194240
  21 H :    0.312397

  Mayer bond orders larger than 0.100000
B(  0-C ,  1-C ) :   0.9472 B(  0-C , 12-H ) :   0.9719 B(  0-C , 13-H ) :   0.9612
B(  0-C , 14-H ) :   0.9669 B(  1-C ,  2-O ) :   0.7546 B(  1-C , 15-H ) :   0.9664
B(  1-C , 16-H ) :   0.9362 B(  2-O ,  3-C ) :   1.1889 B(  2-O ,  5-C ) :  -0.1138
B(  3-C ,  4-O ) :   1.8026 B(  3-C ,  5-C ) :   1.0593 B(  5-C ,  6-C ) :   1.3168
B(  5-C , 10-C ) :   1.3803 B(  6-C ,  7-C ) :   1.3674 B(  6-C , 17-H ) :   0.9582
B(  7-C ,  8-C ) :   1.3032 B(  7-C , 18-H ) :   0.9495 B(  8-C ,  9-C ) :   1.3263
B(  8-C , 11-O ) :   0.9624 B(  9-C , 10-C ) :   1.3836 B(  9-C , 19-H ) :   0.9610
B( 10-C , 20-H ) :   0.9491 B( 11-O , 21-H ) :   0.8441

Dispersion correction           -0.007330467
FINAL SINGLE POINT ENERGY      -574.565942347655

DIPOLE MOMENT
-------------

Method             : SCF
Type of density    : Electron Density
Multiplicity       :   1
Irrep              :   0
Energy             :  -574.5694238477424278 Eh
Relativity type    :
Basis              : AO
                                X                 Y                 Z
Electronic contribution:      9.866851287      -3.237849297       0.693852413
Nuclear contribution   :     -9.336862374       5.324537707      -0.444016833
                        -----------------------------------------
Total Dipole Moment    :      0.529988913       2.086688410       0.249835580
                        -----------------------------------------
Magnitude (a.u.)       :      2.167388886
Magnitude (Debye)      :      5.509064737

Rotational constants in cm-1:             0.086905             0.014827             0.012855
Rotational constants in MHz :          2605.352811           444.513937           385.372483

                             ****ORCA TERMINATED NORMALLY****
TOTAL RUN TIME: 0 days 0 hours 0 minutes 53 seconds 482 msec
