                         Program Version 6.0.0  -   RELEASE  -
|  1> ! pbe def2-sv(p) def2/J RI DEFGRID1 loosescf d4 GCP(DFT/SV(P)) printgap
|  2> %output
|  3>     printlevel normal
|  4> end
|  5> * xyz 0 1
|  6> C -2.1856180902 -0.2408377288 -1.1990142576
|  7> C -2.2041913975 0.3217529672 0.2173571848
|  8> C -1.2190320531 -0.3332030254 1.190363305
|  9> C 0.2837408347 -0.1918891371 0.9037286791
| 10> C 0.8519309825 -1.1991806781 -0.122716075
| 11> C 1.8154897444 -0.4055797695 -1.0181888475
| 12> C 2.0950973758 0.8803870445 -0.2416829458
| 13> C 0.7462541041 1.1815239621 0.4026390322
| 14> H -2.9861636375 0.2060057218 -1.7852937844
| 15> H -1.2442531966 -0.0262150248 -1.6961760229
| 16> H -2.3368118407 -1.3182099137 -1.1844477641
| 17> H -2.0250577194 1.3977893413 0.1839855639
| 18> H -3.2060166503 0.1791322391 0.6316116107
| 19> H -1.4120009968 0.102025998 2.1748265721
| 20> H -1.4483378698 -1.3995768392 1.2600269056
| 21> H 0.7935371014 -0.3765052068 1.8565079578
| 22> H 1.3814734995 -1.9984465386 0.3967947048
| 23> H 0.0623826328 -1.6626064905 -0.7088238831
| 24> H 2.7251041703 -0.9619673757 -1.2399687943
| 25> H 1.3340184995 -0.1590217234 -1.9660828616
| 26> H 2.8454622803 0.6979459166 0.529560174
| 27> H 2.4473188902 1.6878941408 -0.8823372241
| 28> H 0.8127829996 1.9114595504 1.2085265611
| 29> H 0.0677748617 1.5656912536 -0.3575273076
| 30> *
| 31>
| 32>                          ****END OF INPUT****

CARTESIAN COORDINATES (ANGSTROEM)
---------------------------------
  C     -2.185618   -0.240838   -1.199014
  C     -2.204191    0.321753    0.217357
  C     -1.219032   -0.333203    1.190363
  C      0.283741   -0.191889    0.903729
  C      0.851931   -1.199181   -0.122716
  C      1.815490   -0.405580   -1.018189
  C      2.095097    0.880387   -0.241683
  C      0.746254    1.181524    0.402639
  H     -2.986164    0.206006   -1.785294
  H     -1.244253   -0.026215   -1.696176
  H     -2.336812   -1.318210   -1.184448
  H     -2.025058    1.397789    0.183986
  H     -3.206017    0.179132    0.631612
  H     -1.412001    0.102026    2.174827
  H     -1.448338   -1.399577    1.260027
  H      0.793537   -0.376505    1.856508
  H      1.381473   -1.998447    0.396795
  H      0.062383   -1.662606   -0.708824
  H      2.725104   -0.961967   -1.239969
  H      1.334018   -0.159022   -1.966083
  H      2.845462    0.697946    0.529560
  H      2.447319    1.687894   -0.882337
  H      0.812783    1.911460    1.208527
  H      0.067775    1.565691   -0.357527

 Total Charge           Charge          ....    0
 Multiplicity           Mult            ....    1
 Number of Electrons    NEL             ....   64
 Basis Dimension        Dim             ....  144

ORBITAL ENERGIES
----------------

  NO   OCC          E(Eh)            E(eV)
   0   2.0000      -9.883684      -268.9487
   1   2.0000      -9.879465      -268.8339
   2   2.0000      -9.876934      -268.7650
   3   2.0000      -9.875687      -268.7311
   4   2.0000      -9.875004      -268.7125
   5   2.0000      -9.873812      -268.6801
   6   2.0000      -9.871385      -268.6140
   7   2.0000      -9.870698      -268.5954
   8   2.0000      -0.757889       -20.6232
   9   2.0000      -0.702058       -19.1040
  10   2.0000      -0.643795       -17.5186
  11   2.0000      -0.629470       -17.1287
  12   2.0000      -0.586658       -15.9638
  13   2.0000      -0.523282       -14.2392
  14   2.0000      -0.500189       -13.6108
  15   2.0000      -0.475357       -12.9351
  16   2.0000      -0.434154       -11.8139
  17   2.0000      -0.418212       -11.3801
  18   2.0000      -0.395959       -10.7746
  19   2.0000      -0.388094       -10.5606
  20   2.0000      -0.368425       -10.0254
  21   2.0000      -0.352482        -9.5915
  22   2.0000      -0.350121        -9.5273
  23   2.0000      -0.314406        -8.5554
  24   2.0000      -0.303953        -8.2710
  25   2.0000      -0.298200        -8.1144
  26   2.0000      -0.289743        -7.8843
  27   2.0000      -0.288178        -7.8417
  28   2.0000      -0.277906        -7.5622
  29   2.0000      -0.266507        -7.2520
  30   2.0000      -0.263355        -7.1663
  31   2.0000      -0.253574        -6.9001
  32   0.0000       0.027336         0.7438
  33   0.0000       0.042724         1.1626
  34   0.0000       0.053988         1.4691
  35   0.0000       0.070009         1.9050
  36   0.0000       0.090674         2.4674

MULLIKEN ATOMIC CHARGES
-----------------------
   0 C :   -0.293892
   1 C :   -0.197963
   2 C :   -0.097705
   3 C :   -0.189500
   4 C :   -0.119654
   5 C :   -0.174323
   6 C :   -0.148925
   7 C :   -0.139932
   8 H :    0.100681
   9 H :    0.114420
  10 H :    0.102009
  11 H :    0.093014
  12 H :    0.082751
  13 H :    0.072410
  14 H :    0.077628
  15 H :    0.060789
  16 H :    0.074412
  17 H :    0.084023
  18 H :    0.082439
  19 H :    0.083761
  20 H :    0.077875
  21 H :    0.085264
  22 H :    0.083272
  23 H :    0.087143
Sum of atomic charges:   -0.0000000

LOEWDIN ATOMIC CHARGES
----------------------
   0 C :   -0.345871
   1 C :   -0.235446
   2 C :   -0.218778
   3 C :   -0.145324
   4 C :   -0.227295
   5 C :   -0.229482
   6 C :   -0.225988
   7 C :   -0.223399
   8 H :    0.118980
   9 H :    0.115219
  10 H :    0.116988
  11 H :    0.114474
  12 H :    0.116888
  13 H :    0.115528
  14 H :    0.114345
  15 H :    0.116747
  16 H :    0.116849
  17 H :    0.115853
  18 H :    0.115830
  19 H :    0.114358
  20 H :    0.114156
  21 H :    0.114227
  22 H :    0.115267
  23 H :    0.115874

  Mayer bond orders larger than 0.100000
B(  0-C ,  1-C ) :   1.1635 B(  0-C ,  8-H ) :   0.9482 B(  0-C ,  9-H ) :   0.9392
B(  0-C , 10-H ) :   0.9468 B(  1-C ,  2-C ) :   1.1430 B(  1-C , 11-H ) :   0.9167
B(  1-C , 12-H ) :   0.9212 B(  2-C ,  3-C ) :   1.0813 B(  2-C , 13-H ) :   0.9110
B(  2-C , 14-H ) :   0.9196 B(  3-C ,  4-C ) :   1.1154 B(  3-C ,  7-C ) :   1.1319
B(  3-C , 15-H ) :   0.8904 B(  4-C ,  5-C ) :   1.1657 B(  4-C , 16-H ) :   0.9113
B(  4-C , 17-H ) :   0.9123 B(  5-C ,  6-C ) :   1.1479 B(  5-C , 18-H ) :   0.9222
B(  5-C , 19-H ) :   0.9129 B(  6-C ,  7-C ) :   1.1139 B(  6-C , 20-H ) :   0.9208
B(  6-C , 21-H ) :   0.9286 B(  7-C , 22-H ) :   0.9241 B(  7-C , 23-H ) :   0.8966

Dispersion correction           -0.021897690
FINAL SINGLE POINT ENERGY      -313.689641483072

DIPOLE MOMENT
-------------

Method             : SCF
Type of density    : Electron Density
Multiplicity       :   1
Irrep              :   0
Energy             :  -313.7703139595637367 Eh
Relativity type    :
Basis              : AO
                                X                 Y                 Z
Electronic contribution:      2.032536566       0.160863719       1.513977185
Nuclear contribution   :     -2.053439043      -0.145044651      -1.481188311
                        -----------------------------------------
Total Dipole Moment    :     -0.020902477       0.015819069       0.032788874
                        -----------------------------------------
Magnitude (a.u.)       :      0.041979360
Magnitude (Debye)      :      0.106703054

Rotational constants in cm-1:             0.107622             0.045373             0.042496
Rotational constants in MHz :          3226.439315          1360.246884          1274.005405

                             ****ORCA TERMINATED NORMALLY****
TOTAL RUN TIME: 0 days 0 hours 0 minutes 11 seconds 66 msec
