                         Program Version 6.0.0  -   RELEASE  -
|  1> ! r2scan-3c def2/J RI DEFGRID2 scfconv6 printgap
|  2> %output
|  3>     printlevel normal
|  4> end
|  5> * xyz 0 1
|  6> C 2.1140911771 0.9581317063 -0.4397076104
|  7> C 1.7232951871 -0.4132823026 0.0982212116
|  8> C 0.3344896898 -0.4537850918 0.7394374065
|  9> C -0.824406725 -0.2060826324 -0.2442236205
| 10> C -1.3529667067 1.2242759558 -0.1427478299
| 11> C -1.9676656167 -1.1891968653 0.0090288581
| 12> H 1.4659013137 1.2532901223 -1.2605314765
| 13> H 2.0461056921 1.7081535939 0.3453255881
| 14> H 3.1377247354 0.9393356244 -0.8072842879
| 15> H 1.7635621064 -1.1437846638 -0.7133960227
| 16> H 2.4565219018 -0.717399674 0.8494549816
| 17> H 0.2098540617 -1.4394034628 1.1932662368
| 18> H 0.2913444233 0.2811508513 1.5457566211
| 19> H -0.458590748 -0.370494847 -1.2637540368
| 20> H -2.128077408 1.3965055019 -0.8867227405
| 21> H -0.5595026651 1.9487686695 -0.3011364074
| 22> H -1.782414222 1.3955626131 0.8424800464
| 23> H -1.630265425 -2.2148132171 -0.1224027407
| 24> H -2.3447884759 -1.0766447816 1.0234626322
| 25> H -2.7871880427 -1.0076019704 -0.6829558141
| 26> *
| 27>
| 28>                          ****END OF INPUT****

CARTESIAN COORDINATES (ANGSTROEM)
---------------------------------
  C      2.114091    0.958132   -0.439708
  C      1.723295   -0.413282    0.098221
  C      0.334490   -0.453785    0.739437
  C     -0.824407   -0.206083   -0.244224
  C     -1.352967    1.224276   -0.142748
  C     -1.967666   -1.189197    0.009029
  H      1.465901    1.253290   -1.260531
  H      2.046106    1.708154    0.345326
  H      3.137725    0.939336   -0.807284
  H      1.763562   -1.143785   -0.713396
  H      2.456522   -0.717400    0.849455
  H      0.209854   -1.439403    1.193266
  H      0.291344    0.281151    1.545757
  H     -0.458591   -0.370495   -1.263754
  H     -2.128077    1.396506   -0.886723
  H     -0.559503    1.948769   -0.301136
  H     -1.782414    1.395563    0.842480
  H     -1.630265   -2.214813   -0.122403
  H     -2.344788   -1.076645    1.023463
  H     -2.787188   -1.007602   -0.682956

 Total Charge           Charge          ....    0
 Multiplicity           Mult            ....    1
 Number of Electrons    NEL             ....   50
 Basis Dimension        Dim             ....  184

ORBITAL ENERGIES
----------------

  NO   OCC          E(Eh)            E(eV)
   0   2.0000     -10.029291      -272.9109
   1   2.0000     -10.022184      -272.7175
   2   2.0000     -10.017424      -272.5880
   3   2.0000     -10.013752      -272.4880
   4   2.0000     -10.012031      -272.4412
   5   2.0000     -10.011459      -272.4256
   6   2.0000      -0.778340       -21.1797
   7   2.0000      -0.725942       -19.7539
   8   2.0000      -0.647792       -17.6273
   9   2.0000      -0.641171       -17.4471
  10   2.0000      -0.557843       -15.1797
  11   2.0000      -0.520782       -14.1712
  12   2.0000      -0.426968       -11.6184
  13   2.0000      -0.420448       -11.4410
  14   2.0000      -0.411542       -11.1986
  15   2.0000      -0.387075       -10.5328
  16   2.0000      -0.367014        -9.9870
  17   2.0000      -0.354058        -9.6344
  18   2.0000      -0.344042        -9.3619
  19   2.0000      -0.332267        -9.0414
  20   2.0000      -0.311257        -8.4697
  21   2.0000      -0.304271        -8.2796
  22   2.0000      -0.285801        -7.7770
  23   2.0000      -0.280777        -7.6403
  24   2.0000      -0.272710        -7.4208
  25   0.0000       0.084982         2.3125
  26   0.0000       0.107479         2.9247
  27   0.0000       0.115195         3.1346
  28   0.0000       0.119028         3.2389
  29   0.0000       0.132693         3.6108

MULLIKEN ATOMIC CHARGES
-----------------------
   0 C :   -0.494411
   1 C :   -0.263030
   2 C :   -0.279936
   3 C :   -0.009201
   4 C :   -0.513334
   5 C :   -0.495997
   6 H :    0.151222
   7 H :    0.149248
   8 H :    0.145232
   9 H :    0.143972
  10 H :    0.138708
  11 H :    0.147894
  12 H :    0.147169
  13 H :    0.149061
  14 H :    0.142884
  15 H :    0.152355
  16 H :    0.151545
  17 H :    0.146367
  18 H :    0.148253
  19 H :    0.142000
Sum of atomic charges:   -0.0000000

LOEWDIN ATOMIC CHARGES
----------------------
   0 C :   -0.429204
   1 C :   -0.313034
   2 C :   -0.304383
   3 C :   -0.249538
   4 C :   -0.419171
   5 C :   -0.418718
   6 H :    0.149377
   7 H :    0.149691
   8 H :    0.149946
   9 H :    0.150210
  10 H :    0.150436
  11 H :    0.158170
  12 H :    0.157817
  13 H :    0.154089
  14 H :    0.151579
  15 H :    0.153881
  16 H :    0.152232
  17 H :    0.151539
  18 H :    0.153645
  19 H :    0.151434

  Mayer bond orders larger than 0.100000
B(  0-C ,  1-C ) :   0.8751 B(  0-C ,  6-H ) :   0.9786 B(  0-C ,  7-H ) :   0.9819
B(  0-C ,  8-H ) :   0.9687 B(  1-C ,  2-C ) :   0.8939 B(  1-C ,  9-H ) :   0.9976
B(  1-C , 10-H ) :   0.9745 B(  2-C ,  3-C ) :   0.8230 B(  2-C , 11-H ) :   0.9808
B(  2-C , 12-H ) :   0.9756 B(  3-C ,  4-C ) :   0.9044 B(  3-C ,  5-C ) :   0.8960
B(  3-C , 13-H ) :   0.9657 B(  4-C , 14-H ) :   0.9763 B(  4-C , 15-H ) :   0.9661
B(  4-C , 16-H ) :   0.9907 B(  5-C , 17-H ) :   0.9779 B(  5-C , 18-H ) :   0.9844
B(  5-C , 19-H ) :   0.9775

Dispersion correction           -0.005073863
FINAL SINGLE POINT ENERGY      -236.984573982582

DIPOLE MOMENT
-------------

Method             : SCF
Type of density    : Electron Density
Multiplicity       :   1
Irrep              :   0
Energy             :  -236.9889986896409937 Eh
Relativity type    :
Basis              : AO
                                X                 Y                 Z
Electronic contribution:      0.343933503      -0.924231807       0.209984858
Nuclear contribution   :     -0.300035908       0.893715189      -0.223692731
                        -----------------------------------------
Total Dipole Moment    :      0.043897595      -0.030516618      -0.013707873
                        -----------------------------------------
Magnitude (a.u.)       :      0.055192107
Magnitude (Debye)      :      0.140287187

Rotational constants in cm-1:             0.185264             0.069524             0.056835
Rotational constants in MHz :          5554.076638          2084.289983          1703.880166

                             ****ORCA TERMINATED NORMALLY****
TOTAL RUN TIME: 0 days 0 hours 0 minutes 16 seconds 787 msec
