                         Program Version 6.0.0  -   RELEASE  -
|  1> ! r2scan-3c def2/J RI DEFGRID2 scfconv6 printgap
|  2> %output
|  3>     printlevel normal
|  4> end
|  5> %cpcm
|  6>     smd true
|  7>     smdsolvent "water"
|  8> end
|  9> * xyz 0 1
| 10> C 2.1140911771 0.9581317063 -0.4397076104
| 11> C 1.7232951871 -0.4132823026 0.0982212116
| 12> C 0.3344896898 -0.4537850918 0.7394374065
| 13> C -0.824406725 -0.2060826324 -0.2442236205
| 14> C -1.3529667067 1.2242759558 -0.1427478299
| 15> C -1.9676656167 -1.1891968653 0.0090288581
| 16> H 1.4659013137 1.2532901223 -1.2605314765
| 17> H 2.0461056921 1.7081535939 0.3453255881
| 18> H 3.1377247354 0.9393356244 -0.8072842879
| 19> H 1.7635621064 -1.1437846638 -0.7133960227
| 20> H 2.4565219018 -0.717399674 0.8494549816
| 21> H 0.2098540617 -1.4394034628 1.1932662368
| 22> H 0.2913444233 0.2811508513 1.5457566211
| 23> H -0.458590748 -0.370494847 -1.2637540368
| 24> H -2.128077408 1.3965055019 -0.8867227405
| 25> H -0.5595026651 1.9487686695 -0.3011364074
| 26> H -1.782414222 1.3955626131 0.8424800464
| 27> H -1.630265425 -2.2148132171 -0.1224027407
| 28> H -2.3447884759 -1.0766447816 1.0234626322
| 29> H -2.7871880427 -1.0076019704 -0.6829558141
| 30> *
| 31>
| 32>                          ****END OF INPUT****

CARTESIAN COORDINATES (ANGSTROEM)
---------------------------------
  C      2.114091    0.958132   -0.439708
  C      1.723295   -0.413282    0.098221
  C      0.334490   -0.453785    0.739437
  C     -0.824407   -0.206083   -0.244224
  C     -1.352967    1.224276   -0.142748
  C     -1.967666   -1.189197    0.009029
  H      1.465901    1.253290   -1.260531
  H      2.046106    1.708154    0.345326
  H      3.137725    0.939336   -0.807284
  H      1.763562   -1.143785   -0.713396
  H      2.456522   -0.717400    0.849455
  H      0.209854   -1.439403    1.193266
  H      0.291344    0.281151    1.545757
  H     -0.458591   -0.370495   -1.263754
  H     -2.128077    1.396506   -0.886723
  H     -0.559503    1.948769   -0.301136
  H     -1.782414    1.395563    0.842480
  H     -1.630265   -2.214813   -0.122403
  H     -2.344788   -1.076645    1.023463
  H     -2.787188   -1.007602   -0.682956

 Total Charge           Charge          ....    0
 Multiplicity           Mult            ....    1
 Number of Electrons    NEL             ....   50
 Basis Dimension        Dim             ....  184

ORBITAL ENERGIES
----------------

  NO   OCC          E(Eh)            E(eV)
   0   2.0000     -10.021948      -272.7111
   1   2.0000     -10.014709      -272.5141
   2   2.0000     -10.009898      -272.3832
   3   2.0000     -10.005982      -272.2766
   4   2.0000     -10.004857      -272.2460
   5   2.0000     -10.004198      -272.2281
   6   2.0000      -0.771038       -20.9810
   7   2.0000      -0.718787       -19.5592
   8   2.0000      -0.641080       -17.4447
   9   2.0000      -0.634289       -17.2599
  10   2.0000      -0.550880       -14.9902
  11   2.0000      -0.513552       -13.9745
  12   2.0000      -0.419726       -11.4213
  13   2.0000      -0.413105       -11.2412
  14   2.0000      -0.404362       -11.0033
  15   2.0000      -0.379928       -10.3384
  16   2.0000      -0.359826        -9.7914
  17   2.0000      -0.347080        -9.4445
  18   2.0000      -0.337027        -9.1710
  19   2.0000      -0.324852        -8.8397
  20   2.0000      -0.304127        -8.2757
  21   2.0000      -0.296856        -8.0779
  22   2.0000      -0.278210        -7.5705
  23   2.0000      -0.273506        -7.4425
  24   2.0000      -0.265437        -7.2229
  25   0.0000       0.092766         2.5243
  26   0.0000       0.114500         3.1157
  27   0.0000       0.122491         3.3332
  28   0.0000       0.126262         3.4358
  29   0.0000       0.139115         3.7855

MULLIKEN ATOMIC CHARGES
-----------------------
   0 C :   -0.525578
   1 C :   -0.274461
   2 C :   -0.297135
   3 C :    0.009804
   4 C :   -0.553661
   5 C :   -0.536724
   6 H :    0.161150
   7 H :    0.158209
   8 H :    0.153963
   9 H :    0.151393
  10 H :    0.145473
  11 H :    0.153706
  12 H :    0.154810
  13 H :    0.156815
  14 H :    0.153321
  15 H :    0.160256
  16 H :    0.161712
  17 H :    0.156759
  18 H :    0.157665
  19 H :    0.152523
Sum of atomic charges:   -0.0000000

LOEWDIN ATOMIC CHARGES
----------------------
   0 C :   -0.436600
   1 C :   -0.315582
   2 C :   -0.307203
   3 C :   -0.247516
   4 C :   -0.427313
   5 C :   -0.427331
   6 H :    0.152196
   7 H :    0.152026
   8 H :    0.151460
   9 H :    0.152169
  10 H :    0.151733
  11 H :    0.159302
  12 H :    0.159459
  13 H :    0.156612
  14 H :    0.153613
  15 H :    0.155601
  16 H :    0.154437
  17 H :    0.153944
  18 H :    0.155523
  19 H :    0.153469

  Mayer bond orders larger than 0.100000
B(  0-C ,  1-C ) :   0.8709 B(  0-C ,  6-H ) :   0.9759 B(  0-C ,  7-H ) :   0.9789
B(  0-C ,  8-H ) :   0.9670 B(  1-C ,  2-C ) :   0.8902 B(  1-C ,  9-H ) :   0.9962
B(  1-C , 10-H ) :   0.9748 B(  2-C ,  3-C ) :   0.8198 B(  2-C , 11-H ) :   0.9806
B(  2-C , 12-H ) :   0.9755 B(  3-C ,  4-C ) :   0.8954 B(  3-C ,  5-C ) :   0.8874
B(  3-C , 13-H ) :   0.9663 B(  4-C , 14-H ) :   0.9749 B(  4-C , 15-H ) :   0.9651
B(  4-C , 16-H ) :   0.9881 B(  5-C , 17-H ) :   0.9749 B(  5-C , 18-H ) :   0.9824
B(  5-C , 19-H ) :   0.9762

Dispersion correction           -0.005073863
FINAL SINGLE POINT ENERGY      -236.981155926517

DIPOLE MOMENT
-------------

Method             : SCF
Type of density    : Electron Density
Multiplicity       :   1
Irrep              :   0
Energy             :  -236.9855806335754380 Eh
Relativity type    :
Basis              : AO
                                X                 Y                 Z
Electronic contribution:      0.351289440      -0.929477272       0.199190100
Nuclear contribution   :     -0.300035908       0.893715189      -0.223692731
                        -----------------------------------------
Total Dipole Moment    :      0.051253532      -0.035762084      -0.024502631
                        -----------------------------------------
Magnitude (a.u.)       :      0.067128460
Magnitude (Debye)      :      0.170626985

Rotational constants in cm-1:             0.185264             0.069524             0.056835
Rotational constants in MHz :          5554.076638          2084.289983          1703.880166

                             ****ORCA TERMINATED NORMALLY****
TOTAL RUN TIME: 0 days 0 hours 0 minutes 20 seconds 467 msec
