                         Program Version 6.0.0  -   RELEASE  -
|  1> ! r2scan-3c def2/J RI DEFGRID2 scfconv6 printgap
|  2> %output
|  3>     printlevel normal
|  4> end
|  5> * xyz 0 1
|  6> C 7.92363e-05 -2.5243954136 -6.30695e-05
|  7> C -2.72503e-05 -1.1911062182 -4.17509e-05
|  8> C -1.2552246537 -0.4196603638 -0.0452367395
|  9> C -2.3754890464 -0.8256823241 0.6757056453
| 10> C -3.5514397957 -0.1005384766 0.6157786071
| 11> C -3.6284479804 1.0387311458 -0.1681893755
| 12> C -2.520051083 1.4515223437 -0.8895128289
| 13> C -1.3415510252 0.7317042328 -0.8256875485
| 14> C 1.2552003872 -0.4196387392 0.0452019658
| 15> C 1.3414138396 0.7319058151 0.825409065
| 16> C 2.5199225062 1.4517161901 0.8893355777
| 17> C 3.6284424578 1.0388026898 0.168268898
| 18> C 3.5515505284 -0.1006002276 -0.6155333418
| 19> C 2.3755968851 -0.8257477327 -0.6754463458
| 20> H 0.9142358606 -3.0899401828 0.0524239425
| 21> H -0.9140445754 -3.0900370325 -0.0524492148
| 22> H -2.3148091469 -1.7043899067 1.3004770047
| 23> H -4.4105086232 -0.4234046339 1.185098039
| 24> H -4.5470442996 1.6040336501 -0.2146979462
| 25> H -2.573896125 2.3386911824 -1.5029347603
| 26> H -0.4795826554 1.0542776448 -1.392038037
| 27> H 0.4794676717 1.0546258796 1.3916982519
| 28> H 2.5736571796 2.3391177441 1.5024584187
| 29> H 4.5469895381 1.6042009115 0.2147448326
| 30> H 4.4107306154 -0.4236609972 -1.1845608673
| 31> H 2.3151024129 -1.704591945 -1.3000857005
| 32> *
| 33>
| 34>                          ****END OF INPUT****

CARTESIAN COORDINATES (ANGSTROEM)
---------------------------------
  C      0.000079   -2.524395   -0.000063
  C     -0.000027   -1.191106   -0.000042
  C     -1.255225   -0.419660   -0.045237
  C     -2.375489   -0.825682    0.675706
  C     -3.551440   -0.100538    0.615779
  C     -3.628448    1.038731   -0.168189
  C     -2.520051    1.451522   -0.889513
  C     -1.341551    0.731704   -0.825688
  C      1.255200   -0.419639    0.045202
  C      1.341414    0.731906    0.825409
  C      2.519923    1.451716    0.889336
  C      3.628442    1.038803    0.168269
  C      3.551551   -0.100600   -0.615533
  C      2.375597   -0.825748   -0.675446
  H      0.914236   -3.089940    0.052424
  H     -0.914045   -3.090037   -0.052449
  H     -2.314809   -1.704390    1.300477
  H     -4.410509   -0.423405    1.185098
  H     -4.547044    1.604034   -0.214698
  H     -2.573896    2.338691   -1.502935
  H     -0.479583    1.054278   -1.392038
  H      0.479468    1.054626    1.391698
  H      2.573657    2.339118    1.502458
  H      4.546990    1.604201    0.214745
  H      4.410731   -0.423661   -1.184561
  H      2.315102   -1.704592   -1.300086

 Total Charge           Charge          ....    0
 Multiplicity           Mult            ....    1
 Number of Electrons    NEL             ....   96
 Basis Dimension        Dim             ....  326

ORBITAL ENERGIES
----------------

  NO   OCC          E(Eh)            E(eV)
   0   2.0000     -10.049824      -273.4696
   1   2.0000     -10.046512      -273.3795
   2   2.0000     -10.046501      -273.3792
   3   2.0000     -10.037206      -273.1262
   4   2.0000     -10.037204      -273.1262
   5   2.0000     -10.036826      -273.1159
   6   2.0000     -10.036824      -273.1159
   7   2.0000     -10.036378      -273.1037
   8   2.0000     -10.036375      -273.1037
   9   2.0000     -10.036200      -273.0989
  10   2.0000     -10.036198      -273.0988
  11   2.0000     -10.035392      -273.0769
  12   2.0000     -10.035390      -273.0768
  13   2.0000     -10.025054      -272.7956
  14   2.0000      -0.843137       -22.9429
  15   2.0000      -0.826532       -22.4911
  16   2.0000      -0.776938       -21.1416
  17   2.0000      -0.720914       -19.6171
  18   2.0000      -0.720303       -19.6005
  19   2.0000      -0.714440       -19.4409
  20   2.0000      -0.689455       -18.7610
  21   2.0000      -0.604697       -16.4546
  22   2.0000      -0.580965       -15.8089
  23   2.0000      -0.573042       -15.5933
  24   2.0000      -0.569818       -15.5055
  25   2.0000      -0.524221       -14.2648
  26   2.0000      -0.497345       -13.5334
  27   2.0000      -0.473164       -12.8754
  28   2.0000      -0.439441       -11.9578
  29   2.0000      -0.433637       -11.7999
  30   2.0000      -0.422792       -11.5047
  31   2.0000      -0.414237       -11.2720
  32   2.0000      -0.410804       -11.1785
  33   2.0000      -0.392658       -10.6848
  34   2.0000      -0.392135       -10.6705
  35   2.0000      -0.387877       -10.5547
  36   2.0000      -0.354515        -9.6468
  37   2.0000      -0.347934        -9.4678
  38   2.0000      -0.347810        -9.4644
  39   2.0000      -0.327380        -8.9085
  40   2.0000      -0.317302        -8.6342
  41   2.0000      -0.309668        -8.4265
  42   2.0000      -0.302830        -8.2404
  43   2.0000      -0.278401        -7.5757
  44   2.0000      -0.244285        -6.6473
  45   2.0000      -0.239748        -6.5239
  46   2.0000      -0.237018        -6.4496
  47   2.0000      -0.207277        -5.6403
  48   0.0000      -0.063989        -1.7412
  49   0.0000      -0.041892        -1.1399
  50   0.0000      -0.037170        -1.0115
  51   0.0000      -0.025154        -0.6845
  52   0.0000       0.025962         0.7065

MULLIKEN ATOMIC CHARGES
-----------------------
   0 C :   -0.314490
   1 C :   -0.049912
   2 C :    0.169905
   3 C :   -0.226561
   4 C :   -0.158569
   5 C :   -0.142296
   6 C :   -0.168394
   7 C :   -0.194791
   8 C :    0.169939
   9 C :   -0.194812
  10 C :   -0.168389
  11 C :   -0.142302
  12 C :   -0.158573
  13 C :   -0.226579
  14 H :    0.145840
  15 H :    0.145843
  16 H :    0.154937
  17 H :    0.145985
  18 H :    0.147019
  19 H :    0.146452
  20 H :    0.162681
  21 H :    0.162683
  22 H :    0.146452
  23 H :    0.147018
  24 H :    0.145985
  25 H :    0.154928
Sum of atomic charges:    0.0000000

LOEWDIN ATOMIC CHARGES
----------------------
   0 C :   -0.274775
   1 C :   -0.074171
   2 C :   -0.074331
   3 C :   -0.145731
   4 C :   -0.161541
   5 C :   -0.165041
   6 C :   -0.161063
   7 C :   -0.138195
   8 C :   -0.074327
   9 C :   -0.138200
  10 C :   -0.161072
  11 C :   -0.165042
  12 C :   -0.161545
  13 C :   -0.145737
  14 H :    0.163666
  15 H :    0.163666
  16 H :    0.174218
  17 H :    0.167652
  18 H :    0.166992
  19 H :    0.167954
  20 H :    0.179906
  21 H :    0.179902
  22 H :    0.167955
  23 H :    0.166991
  24 H :    0.167652
  25 H :    0.174217

  Mayer bond orders larger than 0.100000
B(  0-C ,  1-C ) :   1.8140 B(  0-C , 14-H ) :   0.9566 B(  0-C , 15-H ) :   0.9566
B(  1-C ,  2-C ) :   0.9036 B(  1-C ,  8-C ) :   0.9036 B(  2-C ,  3-C ) :   1.3876
B(  2-C ,  7-C ) :   1.4146 B(  3-C ,  4-C ) :   1.4174 B(  3-C , 16-H ) :   0.9447
B(  4-C ,  5-C ) :   1.4176 B(  4-C , 17-H ) :   0.9489 B(  5-C ,  6-C ) :   1.4106
B(  5-C , 18-H ) :   0.9479 B(  6-C ,  7-C ) :   1.4320 B(  6-C , 19-H ) :   0.9495
B(  7-C , 20-H ) :   0.9389 B(  8-C ,  9-C ) :   1.4146 B(  8-C , 13-C ) :   1.3876
B(  9-C , 10-C ) :   1.4320 B(  9-C , 21-H ) :   0.9389 B( 10-C , 11-C ) :   1.4106
B( 10-C , 22-H ) :   0.9495 B( 11-C , 12-C ) :   1.4176 B( 11-C , 23-H ) :   0.9479
B( 12-C , 13-C ) :   1.4174 B( 12-C , 24-H ) :   0.9489 B( 13-C , 25-H ) :   0.9447

Dispersion correction           -0.011259298
FINAL SINGLE POINT ENERGY      -540.549426391756

DIPOLE MOMENT
-------------

Method             : SCF
Type of density    : Electron Density
Multiplicity       :   1
Irrep              :   0
Energy             :  -540.5435589308565341 Eh
Relativity type    :
Basis              : AO
                                X                 Y                 Z
Electronic contribution:     -0.000328693       0.557166714      -0.000099571
Nuclear contribution   :      0.000279437      -0.413805928       0.000125680
                        -----------------------------------------
Total Dipole Moment    :     -0.000049256       0.143360786       0.000026110
                        -----------------------------------------
Magnitude (a.u.)       :      0.143360797
Magnitude (Debye)      :      0.364394187

Rotational constants in cm-1:             0.052890             0.014450             0.012548
Rotational constants in MHz :          1585.601964           433.200752           376.190943

                             ****ORCA TERMINATED NORMALLY****
TOTAL RUN TIME: 0 days 0 hours 0 minutes 49 seconds 970 msec
