                         Program Version 6.0.0  -   RELEASE  -
|  1> ! r2scan-3c def2/J RI DEFGRID2 scfconv6 printgap
|  2> %output
|  3>     printlevel normal
|  4> end
|  5> %cpcm
|  6>     smd true
|  7>     smdsolvent "water"
|  8> end
|  9> * xyz 0 1
| 10> C 7.92363e-05 -2.5243954136 -6.30695e-05
| 11> C -2.72503e-05 -1.1911062182 -4.17509e-05
| 12> C -1.2552246537 -0.4196603638 -0.0452367395
| 13> C -2.3754890464 -0.8256823241 0.6757056453
| 14> C -3.5514397957 -0.1005384766 0.6157786071
| 15> C -3.6284479804 1.0387311458 -0.1681893755
| 16> C -2.520051083 1.4515223437 -0.8895128289
| 17> C -1.3415510252 0.7317042328 -0.8256875485
| 18> C 1.2552003872 -0.4196387392 0.0452019658
| 19> C 1.3414138396 0.7319058151 0.825409065
| 20> C 2.5199225062 1.4517161901 0.8893355777
| 21> C 3.6284424578 1.0388026898 0.168268898
| 22> C 3.5515505284 -0.1006002276 -0.6155333418
| 23> C 2.3755968851 -0.8257477327 -0.6754463458
| 24> H 0.9142358606 -3.0899401828 0.0524239425
| 25> H -0.9140445754 -3.0900370325 -0.0524492148
| 26> H -2.3148091469 -1.7043899067 1.3004770047
| 27> H -4.4105086232 -0.4234046339 1.185098039
| 28> H -4.5470442996 1.6040336501 -0.2146979462
| 29> H -2.573896125 2.3386911824 -1.5029347603
| 30> H -0.4795826554 1.0542776448 -1.392038037
| 31> H 0.4794676717 1.0546258796 1.3916982519
| 32> H 2.5736571796 2.3391177441 1.5024584187
| 33> H 4.5469895381 1.6042009115 0.2147448326
| 34> H 4.4107306154 -0.4236609972 -1.1845608673
| 35> H 2.3151024129 -1.704591945 -1.3000857005
| 36> *
| 37>
| 38>                          ****END OF INPUT****

CARTESIAN COORDINATES (ANGSTROEM)
---------------------------------
  C      0.000079   -2.524395   -0.000063
  C     -0.000027   -1.191106   -0.000042
  C     -1.255225   -0.419660   -0.045237
  C     -2.375489   -0.825682    0.675706
  C     -3.551440   -0.100538    0.615779
  C     -3.628448    1.038731   -0.168189
  C     -2.520051    1.451522   -0.889513
  C     -1.341551    0.731704   -0.825688
  C      1.255200   -0.419639    0.045202
  C      1.341414    0.731906    0.825409
  C      2.519923    1.451716    0.889336
  C      3.628442    1.038803    0.168269
  C      3.551551   -0.100600   -0.615533
  C      2.375597   -0.825748   -0.675446
  H      0.914236   -3.089940    0.052424
  H     -0.914045   -3.090037   -0.052449
  H     -2.314809   -1.704390    1.300477
  H     -4.410509   -0.423405    1.185098
  H     -4.547044    1.604034   -0.214698
  H     -2.573896    2.338691   -1.502935
  H     -0.479583    1.054278   -1.392038
  H      0.479468    1.054626    1.391698
  H      2.573657    2.339118    1.502458
  H      4.546990    1.604201    0.214745
  H      4.410731   -0.423661   -1.184561
  H      2.315102   -1.704592   -1.300086

 Total Charge           Charge          ....    0
 Multiplicity           Mult            ....    1
 Number of Electrons    NEL             ....   96
 Basis Dimension        Dim             ....  326

ORBITAL ENERGIES
----------------

  NO   OCC          E(Eh)            E(eV)
   0   2.0000     -10.050833      -273.4971
   1   2.0000     -10.047173      -273.3975
   2   2.0000     -10.047162      -273.3972
   3   2.0000     -10.034774      -273.0601
   4   2.0000     -10.034772      -273.0600
   5   2.0000     -10.034693      -273.0579
   6   2.0000     -10.034691      -273.0578
   7   2.0000     -10.034282      -273.0467
   8   2.0000     -10.034281      -273.0467
   9   2.0000     -10.034158      -273.0433
  10   2.0000     -10.034157      -273.0433
  11   2.0000     -10.033515      -273.0258
  12   2.0000     -10.033514      -273.0258
  13   2.0000     -10.022273      -272.7199
  14   2.0000      -0.843659       -22.9571
  15   2.0000      -0.826634       -22.4939
  16   2.0000      -0.776793       -21.1376
  17   2.0000      -0.719811       -19.5871
  18   2.0000      -0.719283       -19.5727
  19   2.0000      -0.713656       -19.4196
  20   2.0000      -0.688493       -18.7348
  21   2.0000      -0.602889       -16.4054
  22   2.0000      -0.579034       -15.7563
  23   2.0000      -0.570774       -15.5315
  24   2.0000      -0.567588       -15.4448
  25   2.0000      -0.521599       -14.1934
  26   2.0000      -0.494410       -13.4536
  27   2.0000      -0.469393       -12.7728
  28   2.0000      -0.436241       -11.8707
  29   2.0000      -0.431716       -11.7476
  30   2.0000      -0.420354       -11.4384
  31   2.0000      -0.410078       -11.1588
  32   2.0000      -0.407621       -11.0919
  33   2.0000      -0.389065       -10.5870
  34   2.0000      -0.388600       -10.5743
  35   2.0000      -0.385687       -10.4951
  36   2.0000      -0.352312        -9.5869
  37   2.0000      -0.349997        -9.5239
  38   2.0000      -0.347868        -9.4660
  39   2.0000      -0.323750        -8.8097
  40   2.0000      -0.313383        -8.5276
  41   2.0000      -0.305961        -8.3256
  42   2.0000      -0.300507        -8.1772
  43   2.0000      -0.279811        -7.6141
  44   2.0000      -0.246107        -6.6969
  45   2.0000      -0.241444        -6.5700
  46   2.0000      -0.238676        -6.4947
  47   2.0000      -0.208913        -5.6848
  48   0.0000      -0.064944        -1.7672
  49   0.0000      -0.042887        -1.1670
  50   0.0000      -0.038335        -1.0431
  51   0.0000      -0.026021        -0.7081
  52   0.0000       0.025085         0.6826

MULLIKEN ATOMIC CHARGES
-----------------------
   0 C :   -0.352731
   1 C :   -0.064588
   2 C :    0.163257
   3 C :   -0.237529
   4 C :   -0.201616
   5 C :   -0.170741
   6 C :   -0.209055
   7 C :   -0.215757
   8 C :    0.163299
   9 C :   -0.215770
  10 C :   -0.209063
  11 C :   -0.170747
  12 C :   -0.201619
  13 C :   -0.237552
  14 H :    0.172977
  15 H :    0.172976
  16 H :    0.182795
  17 H :    0.178651
  18 H :    0.180236
  19 H :    0.178699
  20 H :    0.186753
  21 H :    0.186754
  22 H :    0.178700
  23 H :    0.180234
  24 H :    0.178652
  25 H :    0.182787
Sum of atomic charges:    0.0000000

LOEWDIN ATOMIC CHARGES
----------------------
   0 C :   -0.280054
   1 C :   -0.084007
   2 C :   -0.083408
   3 C :   -0.152068
   4 C :   -0.169349
   5 C :   -0.173148
   6 C :   -0.169376
   7 C :   -0.148332
   8 C :   -0.083404
   9 C :   -0.148337
  10 C :   -0.169386
  11 C :   -0.173151
  12 C :   -0.169353
  13 C :   -0.152077
  14 H :    0.172101
  15 H :    0.172099
  16 H :    0.183775
  17 H :    0.178792
  18 H :    0.177957
  19 H :    0.178828
  20 H :    0.186273
  21 H :    0.186270
  22 H :    0.178830
  23 H :    0.177956
  24 H :    0.178792
  25 H :    0.183775

  Mayer bond orders larger than 0.100000
B(  0-C ,  1-C ) :   1.8099 B(  0-C , 14-H ) :   0.9556 B(  0-C , 15-H ) :   0.9556
B(  1-C ,  2-C ) :   0.8856 B(  1-C ,  8-C ) :   0.8856 B(  2-C ,  3-C ) :   1.3584
B(  2-C ,  7-C ) :   1.3715 B(  3-C ,  4-C ) :   1.3975 B(  3-C , 16-H ) :   0.9516
B(  4-C ,  5-C ) :   1.3824 B(  4-C , 17-H ) :   0.9579 B(  5-C ,  6-C ) :   1.3788
B(  5-C , 18-H ) :   0.9539 B(  6-C ,  7-C ) :   1.4134 B(  6-C , 19-H ) :   0.9579
B(  7-C , 20-H ) :   0.9437 B(  8-C ,  9-C ) :   1.3715 B(  8-C , 13-C ) :   1.3584
B(  9-C , 10-C ) :   1.4134 B(  9-C , 21-H ) :   0.9437 B( 10-C , 11-C ) :   1.3788
B( 10-C , 22-H ) :   0.9578 B( 11-C , 12-C ) :   1.3824 B( 11-C , 23-H ) :   0.9539
B( 12-C , 13-C ) :   1.3975 B( 12-C , 24-H ) :   0.9579 B( 13-C , 25-H ) :   0.9515

Dispersion correction           -0.011259298
FINAL SINGLE POINT ENERGY      -540.552286372414

DIPOLE MOMENT
-------------

Method             : SCF
Type of density    : Electron Density
Multiplicity       :   1
Irrep              :   0
Energy             :  -540.5464189115142517 Eh
Relativity type    :
Basis              : AO
                                X                 Y                 Z
Electronic contribution:     -0.000327232       0.568299170      -0.000082172
Nuclear contribution   :      0.000279437      -0.413805928       0.000125680
                        -----------------------------------------
Total Dipole Moment    :     -0.000047795       0.154493242       0.000043508
                        -----------------------------------------
Magnitude (a.u.)       :      0.154493256
Magnitude (Debye)      :      0.392690649

Rotational constants in cm-1:             0.052890             0.014450             0.012548
Rotational constants in MHz :          1585.601964           433.200752           376.190943

                             ****ORCA TERMINATED NORMALLY****
TOTAL RUN TIME: 0 days 0 hours 0 minutes 56 seconds 482 msec
