                         Program Version 6.0.0  -   RELEASE  -
|  1> ! pbe def2-sv(p) def2/J RI DEFGRID1 loosescf d4 GCP(DFT/SV(P)) printgap
|  2> %output
|  3>     printlevel normal
|  4> end
|  5> * xyz 0 1
|  6> C -2.8498008582 -2.2603207479 1.311501767
|  7> C -3.3709468132 -0.8966068124 0.8728934363
|  8> C -2.7790641187 -0.3299810827 -0.4276115717
|  9> H -3.4088910502 0.5226500555 -0.7085055352
| 10> C -2.7714698183 -1.3098405963 -1.5926500658
| 11> N -1.4537222443 0.2897416168 -0.1963164897
| 12> C -0.2790976764 -0.4621335502 -0.1846299967
| 13> O -0.2687294827 -1.6734355585 -0.2990442532
| 14> C 0.9320341372 0.3167238435 -0.0207653928
| 15> C 0.9365231653 1.6583843151 0.1726951364
| 16> N -0.2767880485 2.2752281581 0.2025664976
| 17> C -1.4839778124 1.6486016987 0.0317753072
| 18> O -2.515579284 2.2974967013 0.0791248571
| 19> C 2.1558569393 2.482745062 0.3604143884
| 20> Br 2.5486601491 -0.6800700333 -0.0597894606
| 21> H -3.2685065841 -2.5121724343 2.2827118115
| 22> H -3.1428195432 -3.0299098219 0.6035977596
| 23> H -1.7667281478 -2.2690316245 1.3912215519
| 24> H -4.4504009193 -0.965513403 0.7283088208
| 25> H -3.1958511618 -0.1621814862 1.6635108231
| 26> H -2.402761452 -0.8192209092 -2.4908732269
| 27> H -2.1481832502 -2.1736067933 -1.3882923101
| 28> H -3.79118412 -1.6388309933 -1.768965939
| 29> H -0.3292031436 3.2765311234 0.3627551873
| 30> H 2.8511777993 2.3097278423 -0.45914856
| 31> H 2.6659473894 2.1861263145 1.2758808589
| 32> H 1.9109593797 3.5379195796 0.4119732852
| 33> *
| 34>
| 35>                          ****END OF INPUT****

CARTESIAN COORDINATES (ANGSTROEM)
---------------------------------
  C     -2.849801   -2.260321    1.311502
  C     -3.370947   -0.896607    0.872893
  C     -2.779064   -0.329981   -0.427612
  H     -3.408891    0.522650   -0.708506
  C     -2.771470   -1.309841   -1.592650
  N     -1.453722    0.289742   -0.196316
  C     -0.279098   -0.462134   -0.184630
  O     -0.268729   -1.673436   -0.299044
  C      0.932034    0.316724   -0.020765
  C      0.936523    1.658384    0.172695
  N     -0.276788    2.275228    0.202566
  C     -1.483978    1.648602    0.031775
  O     -2.515579    2.297497    0.079125
  C      2.155857    2.482745    0.360414
  Br     2.548660   -0.680070   -0.059789
  H     -3.268507   -2.512172    2.282712
  H     -3.142820   -3.029910    0.603598
  H     -1.766728   -2.269032    1.391222
  H     -4.450401   -0.965513    0.728309
  H     -3.195851   -0.162181    1.663511
  H     -2.402761   -0.819221   -2.490873
  H     -2.148183   -2.173607   -1.388292
  H     -3.791184   -1.638831   -1.768966
  H     -0.329203    3.276531    0.362755
  H      2.851178    2.309728   -0.459149
  H      2.665947    2.186126    1.275881
  H      1.910959    3.537920    0.411973

 Total Charge           Charge          ....    0
 Multiplicity           Mult            ....    1
 Number of Electrons    NEL             ....  132
 Basis Dimension        Dim             ....  240

ORBITAL ENERGIES
----------------

  NO   OCC          E(Eh)            E(eV)
   0   2.0000    -480.941790    -13087.0914
   1   2.0000     -61.783558     -1681.2161
   2   2.0000     -55.714238     -1516.0615
   3   2.0000     -55.711153     -1515.9775
   4   2.0000     -55.710926     -1515.9714
   5   2.0000     -18.735061      -509.8069
   6   2.0000     -18.731340      -509.7057
   7   2.0000     -14.068223      -382.8158
   8   2.0000     -14.054929      -382.4541
   9   2.0000     -10.033607      -273.0283
  10   2.0000     -10.003652      -272.2132
  11   2.0000      -9.981966      -271.6231
  12   2.0000      -9.948779      -270.7200
  13   2.0000      -9.932379      -270.2738
  14   2.0000      -9.923864      -270.0421
  15   2.0000      -9.885696      -269.0035
  16   2.0000      -9.872362      -268.6406
  17   2.0000      -9.863701      -268.4049
  18   2.0000      -8.408772      -228.8143
  19   2.0000      -6.291054      -171.1883
  20   2.0000      -6.276507      -170.7924
  21   2.0000      -6.275719      -170.7710
  22   2.0000      -2.492117       -67.8140
  23   2.0000      -2.488663       -67.7200
  24   2.0000      -2.488086       -67.7043
  25   2.0000      -2.477125       -67.4060
  26   2.0000      -2.477101       -67.4053
  27   2.0000      -0.987757       -26.8782
  28   2.0000      -0.947945       -25.7949
  29   2.0000      -0.898386       -24.4463
  30   2.0000      -0.859778       -23.3958
  31   2.0000      -0.768325       -20.9072
  32   2.0000      -0.727527       -19.7970
  33   2.0000      -0.707986       -19.2653
  34   2.0000      -0.666406       -18.1338
  35   2.0000      -0.647155       -17.6100
  36   2.0000      -0.607494       -16.5307
  37   2.0000      -0.604453       -16.4480
  38   2.0000      -0.570105       -15.5133
  39   2.0000      -0.530431       -14.4338
  40   2.0000      -0.529447       -14.4070
  41   2.0000      -0.489779       -13.3276
  42   2.0000      -0.453493       -12.3402
  43   2.0000      -0.432789       -11.7768
  44   2.0000      -0.417186       -11.3522
  45   2.0000      -0.414176       -11.2703
  46   2.0000      -0.403831       -10.9888
  47   2.0000      -0.391665       -10.6577
  48   2.0000      -0.386655       -10.5214
  49   2.0000      -0.383531       -10.4364
  50   2.0000      -0.374632       -10.1943
  51   2.0000      -0.360828        -9.8186
  52   2.0000      -0.360585        -9.8120
  53   2.0000      -0.351425        -9.5628
  54   2.0000      -0.339301        -9.2329
  55   2.0000      -0.330781        -9.0010
  56   2.0000      -0.321623        -8.7518
  57   2.0000      -0.297691        -8.1006
  58   2.0000      -0.290437        -7.9032
  59   2.0000      -0.288754        -7.8574
  60   2.0000      -0.275437        -7.4950
  61   2.0000      -0.253071        -6.8864
  62   2.0000      -0.239262        -6.5106
  63   2.0000      -0.233126        -6.3437
  64   2.0000      -0.214033        -5.8241
  65   2.0000      -0.205699        -5.5974
  66   0.0000      -0.072931        -1.9846
  67   0.0000      -0.031356        -0.8532
  68   0.0000      -0.024752        -0.6735
  69   0.0000       0.012984         0.3533
  70   0.0000       0.041644         1.1332

MULLIKEN ATOMIC CHARGES
-----------------------
   0 C :   -0.287726
   1 C :   -0.153878
   2 C :   -0.065977
   3 H :    0.107132
   4 C :   -0.251188
   5 N :   -0.244453
   6 C :    0.196065
   7 O :   -0.176928
   8 C :   -0.192794
   9 C :   -0.004946
  10 N :   -0.194211
  11 C :    0.168866
  12 O :   -0.211173
  13 C :   -0.200023
  14 Br:    0.007323
  15 H :    0.095630
  16 H :    0.102279
  17 H :    0.132187
  18 H :    0.089843
  19 H :    0.088879
  20 H :    0.098976
  21 H :    0.149657
  22 H :    0.101654
  23 H :    0.249140
  24 H :    0.146463
  25 H :    0.146660
  26 H :    0.102540
Sum of atomic charges:    0.0000000

LOEWDIN ATOMIC CHARGES
----------------------
   0 C :   -0.349405
   1 C :   -0.226021
   2 C :   -0.076116
   3 H :    0.135746
   4 C :   -0.343886
   5 N :   -0.003950
   6 C :    0.021928
   7 O :   -0.163118
   8 C :   -0.218025
   9 C :   -0.008854
  10 N :   -0.084931
  11 C :    0.039238
  12 O :   -0.197902
  13 C :   -0.330348
  14 Br:    0.136525
  15 H :    0.117297
  16 H :    0.119047
  17 H :    0.125576
  18 H :    0.121991
  19 H :    0.118817
  20 H :    0.121696
  21 H :    0.133602
  22 H :    0.125138
  23 H :    0.254738
  24 H :    0.150408
  25 H :    0.151830
  26 H :    0.128980

  Mayer bond orders larger than 0.100000
B(  0-C ,  1-C ) :   1.1580 B(  0-C , 15-H ) :   0.9461 B(  0-C , 16-H ) :   0.9472
B(  0-C , 17-H ) :   0.9380 B(  1-C ,  2-C ) :   1.0962 B(  1-C , 18-H ) :   0.9211
B(  1-C , 19-H ) :   0.9207 B(  2-C ,  3-H ) :   0.8735 B(  2-C ,  4-C ) :   1.1196
B(  2-C ,  5-N ) :   0.9118 B(  4-C , 20-H ) :   0.9435 B(  4-C , 21-H ) :   0.9150
B(  4-C , 22-H ) :   0.9407 B(  5-N ,  6-C ) :   1.0371 B(  5-N , 11-C ) :   1.0803
B(  6-C ,  7-O ) :   2.0602 B(  6-C ,  8-C ) :   1.0386 B(  8-C ,  9-C ) :   1.6086
B(  8-C , 14-Br) :   1.0929 B(  9-C , 10-N ) :   1.2042 B(  9-C , 13-C ) :   1.1636
B( 10-N , 11-C ) :   1.0960 B( 10-N , 23-H ) :   0.8285 B( 11-C , 12-O ) :   2.0304
B( 13-C , 24-H ) :   0.9136 B( 13-C , 25-H ) :   0.9140 B( 13-C , 26-H ) :   0.9222

Dispersion correction           -0.034186774
FINAL SINGLE POINT ENERGY     -3182.938507104664

DIPOLE MOMENT
-------------

Method             : SCF
Type of density    : Electron Density
Multiplicity       :   1
Irrep              :   0
Energy             : -3183.0304881194142581 Eh
Relativity type    :
Basis              : AO
                                X                 Y                 Z
Electronic contribution:     43.573288506      -3.362878515      -2.158954574
Nuclear contribution   :    -42.925413908       4.707679111       2.338373130
                        -----------------------------------------
Total Dipole Moment    :      0.647874598       1.344800596       0.179418556
                        -----------------------------------------
Magnitude (a.u.)       :      1.503469706
Magnitude (Debye)      :      3.821516291

Rotational constants in cm-1:             0.026757             0.012217             0.009231
Rotational constants in MHz :           802.152301           366.262327           276.730467

                             ****ORCA TERMINATED NORMALLY****
TOTAL RUN TIME: 0 days 0 hours 0 minutes 19 seconds 822 msec
