                         Program Version 6.0.0  -   RELEASE  -
|  1> ! pbe def2-sv(p) def2/J RI DEFGRID1 loosescf d4 GCP(DFT/SV(P)) printgap
|  2> %output
|  3>     printlevel normal
|  4> end
|  5> * xyz 0 1
|  6> C 2.8321562816 -0.346461665 0.13096855
|  7> C 1.4320456676 -0.5052185427 -0.4513389773
|  8> C 0.4068607524 0.3073892597 0.3357260208
|  9> C -1.0003632911 0.275893594 -0.2761042758
| 10> H -0.9402662099 0.5615300675 -1.3329879914
| 11> C -1.6564280138 -1.0989212731 -0.1570934635
| 12> O -1.8192709228 1.2804363589 0.3039309077
| 13> H 3.1402764597 0.6962450408 0.1047952943
| 14> H 3.5498327717 -0.9315316398 -0.4385063434
| 15> H 2.8552452977 -0.684582591 1.164385701
| 16> H 1.4311975251 -0.1738565717 -1.4919533192
| 17> H 1.1568236927 -1.5606842162 -0.4362137657
| 18> H 0.3600243205 -0.0633350699 1.3629666444
| 19> H 0.7292499789 1.3512031385 0.3706831676
| 20> H -1.1249324209 -1.8250582988 -0.7633825184
| 21> H -1.6524789933 -1.4330626852 0.878422974
| 22> H -2.6852661528 -1.0425324457 -0.5044790186
| 23> H -1.9443917975 1.0741646753 1.2410363643
| 24> *
| 25>
| 26>                          ****END OF INPUT****

CARTESIAN COORDINATES (ANGSTROEM)
---------------------------------
  C      2.832156   -0.346462    0.130969
  C      1.432046   -0.505219   -0.451339
  C      0.406861    0.307389    0.335726
  C     -1.000363    0.275894   -0.276104
  H     -0.940266    0.561530   -1.332988
  C     -1.656428   -1.098921   -0.157093
  O     -1.819271    1.280436    0.303931
  H      3.140276    0.696245    0.104795
  H      3.549833   -0.931532   -0.438506
  H      2.855245   -0.684583    1.164386
  H      1.431198   -0.173857   -1.491953
  H      1.156824   -1.560684   -0.436214
  H      0.360024   -0.063335    1.362967
  H      0.729250    1.351203    0.370683
  H     -1.124932   -1.825058   -0.763383
  H     -1.652479   -1.433063    0.878423
  H     -2.685266   -1.042532   -0.504479
  H     -1.944392    1.074165    1.241036

 Total Charge           Charge          ....    0
 Multiplicity           Mult            ....    1
 Number of Electrons    NEL             ....   50
 Basis Dimension        Dim             ....  108

ORBITAL ENERGIES
----------------

  NO   OCC          E(Eh)            E(eV)
   0   2.0000     -18.733898      -509.7753
   1   2.0000      -9.933176      -270.2955
   2   2.0000      -9.886679      -269.0302
   3   2.0000      -9.880341      -268.8578
   4   2.0000      -9.874661      -268.7032
   5   2.0000      -9.874382      -268.6956
   6   2.0000      -0.912402       -24.8277
   7   2.0000      -0.719423       -19.5765
   8   2.0000      -0.666702       -18.1419
   9   2.0000      -0.609103       -16.5745
  10   2.0000      -0.546542       -14.8722
  11   2.0000      -0.519024       -14.1234
  12   2.0000      -0.433284       -11.7903
  13   2.0000      -0.424047       -11.5389
  14   2.0000      -0.401240       -10.9183
  15   2.0000      -0.384630       -10.4663
  16   2.0000      -0.360502        -9.8098
  17   2.0000      -0.345647        -9.4055
  18   2.0000      -0.329428        -8.9642
  19   2.0000      -0.322922        -8.7871
  20   2.0000      -0.305620        -8.3163
  21   2.0000      -0.293628        -7.9900
  22   2.0000      -0.287814        -7.8318
  23   2.0000      -0.262605        -7.1459
  24   2.0000      -0.207262        -5.6399
  25   0.0000       0.030591         0.8324
  26   0.0000       0.043878         1.1940
  27   0.0000       0.061319         1.6686
  28   0.0000       0.072576         1.9749
  29   0.0000       0.083389         2.2691

MULLIKEN ATOMIC CHARGES
-----------------------
   0 C :   -0.257304
   1 C :   -0.209529
   2 C :   -0.162824
   3 C :    0.040429
   4 H :    0.068115
   5 C :   -0.267045
   6 O :   -0.428285
   7 H :    0.099543
   8 H :    0.101862
   9 H :    0.096538
  10 H :    0.087215
  11 H :    0.091975
  12 H :    0.062852
  13 H :    0.087603
  14 H :    0.106224
  15 H :    0.083710
  16 H :    0.110985
  17 H :    0.287937
Sum of atomic charges:   -0.0000000

LOEWDIN ATOMIC CHARGES
----------------------
   0 C :   -0.338428
   1 C :   -0.235285
   2 C :   -0.240881
   3 C :   -0.058516
   4 H :    0.111367
   5 C :   -0.354437
   6 O :   -0.331409
   7 H :    0.117514
   8 H :    0.118593
   9 H :    0.116735
  10 H :    0.115956
  11 H :    0.114139
  12 H :    0.107884
  13 H :    0.118178
  14 H :    0.123222
  15 H :    0.113380
  16 H :    0.123921
  17 H :    0.278069

  Mayer bond orders larger than 0.100000
B(  0-C ,  1-C ) :   1.1523 B(  0-C ,  7-H ) :   0.9549 B(  0-C ,  8-H ) :   0.9526
B(  0-C ,  9-H ) :   0.9549 B(  1-C ,  2-C ) :   1.1155 B(  1-C , 10-H ) :   0.9260
B(  1-C , 11-H ) :   0.9207 B(  2-C ,  3-C ) :   1.0742 B(  2-C , 12-H ) :   0.9093
B(  2-C , 13-H ) :   0.9159 B(  3-C ,  4-H ) :   0.9019 B(  3-C ,  5-C ) :   1.1083
B(  3-C ,  6-O ) :   1.0387 B(  5-C , 14-H ) :   0.9348 B(  5-C , 15-H ) :   0.9425
B(  5-C , 16-H ) :   0.9449 B(  6-O , 17-H ) :   0.8569

Dispersion correction           -0.012323759
FINAL SINGLE POINT ENERGY      -272.305273934768

DIPOLE MOMENT
-------------

Method             : SCF
Type of density    : Electron Density
Multiplicity       :   1
Irrep              :   0
Energy             :  -272.3751038688313315 Eh
Relativity type    :
Basis              : AO
                                X                 Y                 Z
Electronic contribution:     -4.315061497       3.299720407       0.147670465
Nuclear contribution   :      4.546843911      -3.763204972       0.149707419
                        -----------------------------------------
Total Dipole Moment    :      0.231782415      -0.463484565       0.297377884
                        -----------------------------------------
Magnitude (a.u.)       :      0.597473544
Magnitude (Debye)      :      1.518657059

Rotational constants in cm-1:             0.232258             0.057674             0.050013
Rotational constants in MHz :          6962.920467          1729.034441          1499.339614

                             ****ORCA TERMINATED NORMALLY****
TOTAL RUN TIME: 0 days 0 hours 0 minutes 7 seconds 572 msec
