                         Program Version 6.0.0  -   RELEASE  -
|  1> ! pbe def2-sv(p) def2/J RI DEFGRID1 loosescf d4 GCP(DFT/SV(P)) printgap
|  2> %output
|  3>     printlevel normal
|  4> end
|  5> * xyz 0 1
|  6> C -2.3015351433 0.7547560531 -0.8639003993
|  7> C -1.8428189431 -0.4234292952 -0.01224793
|  8> C -0.6028363174 -0.1626796894 0.8476775316
|  9> C 0.7748990267 -0.0721249446 0.1557213828
| 10> C 0.9970983271 1.2566490786 -0.5686014182
| 11> C 1.0066523221 -1.2449787798 -0.8027536487
| 12> O 1.77593976 -0.0912790596 1.1799554088
| 13> H -3.2948857535 0.5577339818 -1.2610586898
| 14> H -1.6351647036 0.9255589536 -1.7036564819
| 15> H -2.3448348481 1.6629523386 -0.2677623109
| 16> H -2.6529583205 -0.676286507 0.6766610433
| 17> H -1.6788770324 -1.293408706 -0.6486889703
| 18> H -0.749088445 0.7559096606 1.421134623
| 19> H -0.5355937191 -0.9827803878 1.5697559224
| 20> H 0.7435169289 2.0856557259 0.0861577853
| 21> H 0.4054521828 1.3171817866 -1.4736480086
| 22> H 2.0499310051 1.3383944544 -0.8281641617
| 23> H 0.7805498022 -2.1906556992 -0.3143704898
| 24> H 2.0489724194 -1.2520929038 -1.1135693835
| 25> H 0.3842012763 -1.1470983867 -1.6862164683
| 26> H 1.7463375817 -0.9414145461 1.6386338092
| 27> *
| 28>
| 29>                          ****END OF INPUT****

CARTESIAN COORDINATES (ANGSTROEM)
---------------------------------
  C     -2.301535    0.754756   -0.863900
  C     -1.842819   -0.423429   -0.012248
  C     -0.602836   -0.162680    0.847678
  C      0.774899   -0.072125    0.155721
  C      0.997098    1.256649   -0.568601
  C      1.006652   -1.244979   -0.802754
  O      1.775940   -0.091279    1.179955
  H     -3.294886    0.557734   -1.261059
  H     -1.635165    0.925559   -1.703656
  H     -2.344835    1.662952   -0.267762
  H     -2.652958   -0.676287    0.676661
  H     -1.678877   -1.293409   -0.648689
  H     -0.749088    0.755910    1.421135
  H     -0.535594   -0.982780    1.569756
  H      0.743517    2.085656    0.086158
  H      0.405452    1.317182   -1.473648
  H      2.049931    1.338394   -0.828164
  H      0.780550   -2.190656   -0.314370
  H      2.048972   -1.252093   -1.113569
  H      0.384201   -1.147098   -1.686216
  H      1.746338   -0.941415    1.638634

 Total Charge           Charge          ....    0
 Multiplicity           Mult            ....    1
 Number of Electrons    NEL             ....   58
 Basis Dimension        Dim             ....  126

ORBITAL ENERGIES
----------------

  NO   OCC          E(Eh)            E(eV)
   0   2.0000     -18.732461      -509.7362
   1   2.0000      -9.944345      -270.5994
   2   2.0000      -9.885769      -269.0054
   3   2.0000      -9.880670      -268.8667
   4   2.0000      -9.874054      -268.6867
   5   2.0000      -9.873543      -268.6728
   6   2.0000      -9.867312      -268.5032
   7   2.0000      -0.911288       -24.7974
   8   2.0000      -0.722302       -19.6548
   9   2.0000      -0.677435       -18.4340
  10   2.0000      -0.617412       -16.8006
  11   2.0000      -0.612600       -16.6697
  12   2.0000      -0.534034       -14.5318
  13   2.0000      -0.497421       -13.5355
  14   2.0000      -0.443383       -12.0651
  15   2.0000      -0.410022       -11.1573
  16   2.0000      -0.402396       -10.9498
  17   2.0000      -0.384032       -10.4500
  18   2.0000      -0.375041       -10.2054
  19   2.0000      -0.355791        -9.6816
  20   2.0000      -0.340679        -9.2703
  21   2.0000      -0.332101        -9.0369
  22   2.0000      -0.320940        -8.7332
  23   2.0000      -0.306642        -8.3442
  24   2.0000      -0.299861        -8.1596
  25   2.0000      -0.289715        -7.8836
  26   2.0000      -0.281371        -7.6565
  27   2.0000      -0.260935        -7.1004
  28   2.0000      -0.207588        -5.6488
  29   0.0000       0.021719         0.5910
  30   0.0000       0.052168         1.4196
  31   0.0000       0.059200         1.6109
  32   0.0000       0.071555         1.9471
  33   0.0000       0.078592         2.1386

MULLIKEN ATOMIC CHARGES
-----------------------
   0 C :   -0.281748
   1 C :   -0.179273
   2 C :   -0.114028
   3 C :   -0.052317
   4 C :   -0.204757
   5 C :   -0.238677
   6 O :   -0.426353
   7 H :    0.101182
   8 H :    0.110448
   9 H :    0.098004
  10 H :    0.082990
  11 H :    0.087213
  12 H :    0.081592
  13 H :    0.056154
  14 H :    0.096733
  15 H :    0.098834
  16 H :    0.101586
  17 H :    0.085964
  18 H :    0.105057
  19 H :    0.102625
  20 H :    0.288773
Sum of atomic charges:    0.0000000

LOEWDIN ATOMIC CHARGES
----------------------
   0 C :   -0.343157
   1 C :   -0.236422
   2 C :   -0.226626
   3 C :   -0.011660
   4 C :   -0.326999
   5 C :   -0.341032
   6 O :   -0.324953
   7 H :    0.119794
   8 H :    0.115094
   9 H :    0.118284
  10 H :    0.118864
  11 H :    0.115009
  12 H :    0.117245
  13 H :    0.108934
  14 H :    0.121379
  15 H :    0.118296
  16 H :    0.124351
  17 H :    0.112962
  18 H :    0.123373
  19 H :    0.121332
  20 H :    0.275930

  Mayer bond orders larger than 0.100000
B(  0-C ,  1-C ) :   1.1660 B(  0-C ,  7-H ) :   0.9483 B(  0-C ,  8-H ) :   0.9444
B(  0-C ,  9-H ) :   0.9526 B(  1-C ,  2-C ) :   1.1103 B(  1-C , 10-H ) :   0.9176
B(  1-C , 11-H ) :   0.9159 B(  2-C ,  3-C ) :   1.0493 B(  2-C , 12-H ) :   0.9118
B(  2-C , 13-H ) :   0.9034 B(  3-C ,  4-C ) :   1.0893 B(  3-C ,  5-C ) :   1.0865
B(  3-C ,  6-O ) :   1.0026 B(  4-C , 14-H ) :   0.9402 B(  4-C , 15-H ) :   0.9350
B(  4-C , 16-H ) :   0.9387 B(  5-C , 17-H ) :   0.9411 B(  5-C , 18-H ) :   0.9410
B(  5-C , 19-H ) :   0.9299 B(  6-O , 20-H ) :   0.8538

Dispersion correction           -0.017207480
FINAL SINGLE POINT ENERGY      -311.518026094682

DIPOLE MOMENT
-------------

Method             : SCF
Type of density    : Electron Density
Multiplicity       :   1
Irrep              :   0
Energy             :  -311.5969374060399559 Eh
Relativity type    :
Basis              : AO
                                X                 Y                 Z
Electronic contribution:      4.043388301      -0.601347286       3.550639628
Nuclear contribution   :     -4.413447902       0.148422938      -3.645821857
                        -----------------------------------------
Total Dipole Moment    :     -0.370059600      -0.452924348      -0.095182229
                        -----------------------------------------
Magnitude (a.u.)       :      0.592574240
Magnitude (Debye)      :      1.506204018

Rotational constants in cm-1:             0.128047             0.055577             0.053008
Rotational constants in MHz :          3838.762401          1666.157570          1589.153039

                             ****ORCA TERMINATED NORMALLY****
TOTAL RUN TIME: 0 days 0 hours 0 minutes 8 seconds 455 msec
