                         Program Version 6.0.0  -   RELEASE  -
|  1> ! r2scan-3c def2/J RI DEFGRID2 scfconv6 printgap
|  2> %output
|  3>     printlevel normal
|  4> end
|  5> * xyz 0 1
|  6> C -2.8349730419 -0.1626463599 -0.0921715582
|  7> C -1.9528605352 -1.2147336179 -0.2588556162
|  8> C -0.5864051058 -1.0099587696 -0.1511261389
|  9> C -0.0796424162 0.2533237183 0.1223502666
| 10> C -0.9781703758 1.3045909781 0.2871971762
| 11> C -2.3413046266 1.1019814904 0.1834310963
| 12> C 1.3914491676 0.544394381 0.2646028272
| 13> C 2.3292239986 -0.5666076655 -0.2094890971
| 14> O 3.6892510571 -0.2094050633 -0.0746947845
| 15> H -3.8988292817 -0.3254756847 -0.1760247276
| 16> H -2.3274303307 -2.2046317259 -0.4737382805
| 17> H 0.0796784372 -1.847707703 -0.2829446828
| 18> H -0.5996346619 2.2938845749 0.5015046158
| 19> H -3.0201199731 1.9312870947 0.3159808434
| 20> H 1.6167106046 1.4566327343 -0.2959914382
| 21> H 1.6102605913 0.7518204918 1.3166332164
| 22> H 2.2129203693 -1.4589316387 0.4096694121
| 23> H 2.1081972695 -0.8290115615 -1.2533062871
| 24> H 3.8671916851 0.572912985 -0.6152116461
| 25> *
| 26>
| 27>                          ****END OF INPUT****

CARTESIAN COORDINATES (ANGSTROEM)
---------------------------------
  C     -2.834973   -0.162646   -0.092172
  C     -1.952861   -1.214734   -0.258856
  C     -0.586405   -1.009959   -0.151126
  C     -0.079642    0.253324    0.122350
  C     -0.978170    1.304591    0.287197
  C     -2.341305    1.101981    0.183431
  C      1.391449    0.544394    0.264603
  C      2.329224   -0.566608   -0.209489
  O      3.689251   -0.209405   -0.074695
  H     -3.898829   -0.325476   -0.176025
  H     -2.327430   -2.204632   -0.473738
  H      0.079678   -1.847708   -0.282945
  H     -0.599635    2.293885    0.501505
  H     -3.020120    1.931287    0.315981
  H      1.616711    1.456633   -0.295991
  H      1.610261    0.751820    1.316633
  H      2.212920   -1.458932    0.409669
  H      2.108197   -0.829012   -1.253306
  H      3.867192    0.572913   -0.615212

 Total Charge           Charge          ....    0
 Multiplicity           Mult            ....    1
 Number of Electrons    NEL             ....   66
 Basis Dimension        Dim             ....  226

ORBITAL ENERGIES
----------------

  NO   OCC          E(Eh)            E(eV)
   0   2.0000     -18.951872      -515.7067
   1   2.0000     -10.080965      -274.3170
   2   2.0000     -10.047476      -273.4057
   3   2.0000     -10.039181      -273.1800
   4   2.0000     -10.035675      -273.0846
   5   2.0000     -10.035625      -273.0832
   6   2.0000     -10.034516      -273.0531
   7   2.0000     -10.033496      -273.0253
   8   2.0000     -10.033319      -273.0205
   9   2.0000      -0.988695       -26.9038
  10   2.0000      -0.831599       -22.6289
  11   2.0000      -0.756372       -20.5819
  12   2.0000      -0.717766       -19.5314
  13   2.0000      -0.686225       -18.6731
  14   2.0000      -0.611493       -16.6396
  15   2.0000      -0.574976       -15.6459
  16   2.0000      -0.551797       -15.0151
  17   2.0000      -0.488053       -13.2806
  18   2.0000      -0.478202       -13.0125
  19   2.0000      -0.439117       -11.9490
  20   2.0000      -0.426788       -11.6135
  21   2.0000      -0.416390       -11.3305
  22   2.0000      -0.394304       -10.7296
  23   2.0000      -0.389542       -10.6000
  24   2.0000      -0.370214       -10.0740
  25   2.0000      -0.357263        -9.7216
  26   2.0000      -0.333236        -9.0678
  27   2.0000      -0.322537        -8.7767
  28   2.0000      -0.309950        -8.4342
  29   2.0000      -0.293152        -7.9771
  30   2.0000      -0.241957        -6.5840
  31   2.0000      -0.237901        -6.4736
  32   2.0000      -0.228634        -6.2214
  33   0.0000      -0.034485        -0.9384
  34   0.0000      -0.029559        -0.8044
  35   0.0000       0.056304         1.5321
  36   0.0000       0.081221         2.2101
  37   0.0000       0.099294         2.7019

MULLIKEN ATOMIC CHARGES
-----------------------
   0 C :   -0.147243
   1 C :   -0.169833
   2 C :   -0.167867
   3 C :    0.100910
   4 C :   -0.199331
   5 C :   -0.152461
   6 C :   -0.250155
   7 C :   -0.233199
   8 O :   -0.407935
   9 H :    0.146199
  10 H :    0.144928
  11 H :    0.139929
  12 H :    0.144711
  13 H :    0.145187
  14 H :    0.141277
  15 H :    0.178235
  16 H :    0.139493
  17 H :    0.153638
  18 H :    0.293517
Sum of atomic charges:    0.0000000

LOEWDIN ATOMIC CHARGES
----------------------
   0 C :   -0.171956
   1 C :   -0.160103
   2 C :   -0.167119
   3 C :   -0.087328
   4 C :   -0.161279
   5 C :   -0.160388
   6 C :   -0.266778
   7 C :    0.005643
   8 O :   -0.615136
   9 H :    0.166629
  10 H :    0.166887
  11 H :    0.170073
  12 H :    0.169068
  13 H :    0.166895
  14 H :    0.165252
  15 H :    0.176768
  16 H :    0.177913
  17 H :    0.159387
  18 H :    0.265571

  Mayer bond orders larger than 0.100000
B(  0-C ,  1-C ) :   1.4289 B(  0-C ,  5-C ) :   1.4113 B(  0-C ,  9-H ) :   0.9477
B(  1-C ,  2-C ) :   1.4266 B(  1-C , 10-H ) :   0.9489 B(  2-C ,  3-C ) :   1.4541
B(  2-C , 11-H ) :   0.9450 B(  3-C ,  4-C ) :   1.3650 B(  3-C ,  6-C ) :   0.8225
B(  4-C ,  5-C ) :   1.4422 B(  4-C , 12-H ) :   0.9590 B(  5-C , 13-H ) :   0.9478
B(  6-C ,  7-C ) :   0.8388 B(  6-C , 14-H ) :   1.0118 B(  6-C , 15-H ) :   0.9484
B(  7-C ,  8-O ) :   0.9997 B(  7-C , 16-H ) :   0.9469 B(  7-C , 17-H ) :   1.0073
B(  8-O , 18-H ) :   0.8951

Dispersion correction           -0.006002086
FINAL SINGLE POINT ENERGY      -385.986747697553

DIPOLE MOMENT
-------------

Method             : SCF
Type of density    : Electron Density
Multiplicity       :   1
Irrep              :   0
Energy             :  -385.9879702790108240 Eh
Relativity type    :
Basis              : AO
                                X                 Y                 Z
Electronic contribution:     -1.908859826       0.044754800       0.224386040
Nuclear contribution   :      1.601663293       0.316605335      -0.520316737
                        -----------------------------------------
Total Dipole Moment    :     -0.307196533       0.361360135      -0.295930697
                        -----------------------------------------
Magnitude (a.u.)       :      0.559040101
Magnitude (Debye)      :      1.420967011

Rotational constants in cm-1:             0.160321             0.028294             0.024351
Rotational constants in MHz :          4806.312179           848.235195           730.033534

                             ****ORCA TERMINATED NORMALLY****
TOTAL RUN TIME: 0 days 0 hours 0 minutes 24 seconds 945 msec
