                         Program Version 6.0.0  -   RELEASE  -
|  1> ! r2scan-3c def2/J RI DEFGRID2 scfconv6 printgap
|  2> %output
|  3>     printlevel normal
|  4> end
|  5> %cpcm
|  6>     smd true
|  7>     smdsolvent "water"
|  8> end
|  9> * xyz 0 1
| 10> C -2.8349730419 -0.1626463599 -0.0921715582
| 11> C -1.9528605352 -1.2147336179 -0.2588556162
| 12> C -0.5864051058 -1.0099587696 -0.1511261389
| 13> C -0.0796424162 0.2533237183 0.1223502666
| 14> C -0.9781703758 1.3045909781 0.2871971762
| 15> C -2.3413046266 1.1019814904 0.1834310963
| 16> C 1.3914491676 0.544394381 0.2646028272
| 17> C 2.3292239986 -0.5666076655 -0.2094890971
| 18> O 3.6892510571 -0.2094050633 -0.0746947845
| 19> H -3.8988292817 -0.3254756847 -0.1760247276
| 20> H -2.3274303307 -2.2046317259 -0.4737382805
| 21> H 0.0796784372 -1.847707703 -0.2829446828
| 22> H -0.5996346619 2.2938845749 0.5015046158
| 23> H -3.0201199731 1.9312870947 0.3159808434
| 24> H 1.6167106046 1.4566327343 -0.2959914382
| 25> H 1.6102605913 0.7518204918 1.3166332164
| 26> H 2.2129203693 -1.4589316387 0.4096694121
| 27> H 2.1081972695 -0.8290115615 -1.2533062871
| 28> H 3.8671916851 0.572912985 -0.6152116461
| 29> *
| 30>
| 31>                          ****END OF INPUT****

CARTESIAN COORDINATES (ANGSTROEM)
---------------------------------
  C     -2.834973   -0.162646   -0.092172
  C     -1.952861   -1.214734   -0.258856
  C     -0.586405   -1.009959   -0.151126
  C     -0.079642    0.253324    0.122350
  C     -0.978170    1.304591    0.287197
  C     -2.341305    1.101981    0.183431
  C      1.391449    0.544394    0.264603
  C      2.329224   -0.566608   -0.209489
  O      3.689251   -0.209405   -0.074695
  H     -3.898829   -0.325476   -0.176025
  H     -2.327430   -2.204632   -0.473738
  H      0.079678   -1.847708   -0.282945
  H     -0.599635    2.293885    0.501505
  H     -3.020120    1.931287    0.315981
  H      1.616711    1.456633   -0.295991
  H      1.610261    0.751820    1.316633
  H      2.212920   -1.458932    0.409669
  H      2.108197   -0.829012   -1.253306
  H      3.867192    0.572913   -0.615212

 Total Charge           Charge          ....    0
 Multiplicity           Mult            ....    1
 Number of Electrons    NEL             ....   66
 Basis Dimension        Dim             ....  226

ORBITAL ENERGIES
----------------

  NO   OCC          E(Eh)            E(eV)
   0   2.0000     -18.952321      -515.7189
   1   2.0000     -10.072006      -274.0732
   2   2.0000     -10.043912      -273.3087
   3   2.0000     -10.031634      -272.9746
   4   2.0000     -10.031556      -272.9725
   5   2.0000     -10.029829      -272.9255
   6   2.0000     -10.029358      -272.9127
   7   2.0000     -10.028800      -272.8975
   8   2.0000     -10.028060      -272.8774
   9   2.0000      -0.987792       -26.8792
  10   2.0000      -0.828971       -22.5575
  11   2.0000      -0.750229       -20.4148
  12   2.0000      -0.714204       -19.4345
  13   2.0000      -0.680473       -18.5166
  14   2.0000      -0.604365       -16.4456
  15   2.0000      -0.569951       -15.5091
  16   2.0000      -0.545898       -14.8546
  17   2.0000      -0.481470       -13.1015
  18   2.0000      -0.471820       -12.8389
  19   2.0000      -0.432128       -11.7588
  20   2.0000      -0.419152       -11.4057
  21   2.0000      -0.410607       -11.1732
  22   2.0000      -0.389636       -10.6025
  23   2.0000      -0.383061       -10.4236
  24   2.0000      -0.366600        -9.9757
  25   2.0000      -0.351061        -9.5529
  26   2.0000      -0.332058        -9.0358
  27   2.0000      -0.315961        -8.5977
  28   2.0000      -0.303153        -8.2492
  29   2.0000      -0.289429        -7.8758
  30   2.0000      -0.243365        -6.6223
  31   2.0000      -0.238116        -6.4795
  32   2.0000      -0.227259        -6.1840
  33   0.0000      -0.033083        -0.9002
  34   0.0000      -0.028099        -0.7646
  35   0.0000       0.073040         1.9875
  36   0.0000       0.093604         2.5471
  37   0.0000       0.111339         3.0297

MULLIKEN ATOMIC CHARGES
-----------------------
   0 C :   -0.181190
   1 C :   -0.214270
   2 C :   -0.186067
   3 C :    0.054209
   4 C :   -0.215604
   5 C :   -0.195775
   6 C :   -0.257055
   7 C :   -0.216796
   8 O :   -0.497500
   9 H :    0.178024
  10 H :    0.176312
  11 H :    0.172400
  12 H :    0.176461
  13 H :    0.176811
  14 H :    0.176588
  15 H :    0.185259
  16 H :    0.155440
  17 H :    0.162094
  18 H :    0.350658
Sum of atomic charges:    0.0000000

LOEWDIN ATOMIC CHARGES
----------------------
   0 C :   -0.186748
   1 C :   -0.173336
   2 C :   -0.176245
   3 C :   -0.092133
   4 C :   -0.169045
   5 C :   -0.173393
   6 C :   -0.265704
   7 C :    0.006378
   8 O :   -0.651487
   9 H :    0.176387
  10 H :    0.176934
  11 H :    0.180839
  12 H :    0.180141
  13 H :    0.177133
  14 H :    0.177617
  15 H :    0.179422
  16 H :    0.182030
  17 H :    0.166242
  18 H :    0.284965

  Mayer bond orders larger than 0.100000
B(  0-C ,  1-C ) :   1.3906 B(  0-C ,  5-C ) :   1.3714 B(  0-C ,  9-H ) :   0.9548
B(  1-C ,  2-C ) :   1.3913 B(  1-C , 10-H ) :   0.9602 B(  2-C ,  3-C ) :   1.4176
B(  2-C , 11-H ) :   0.9497 B(  3-C ,  4-C ) :   1.3463 B(  3-C ,  6-C ) :   0.8313
B(  4-C ,  5-C ) :   1.4068 B(  4-C , 12-H ) :   0.9641 B(  5-C , 13-H ) :   0.9587
B(  6-C ,  7-C ) :   0.8333 B(  6-C , 14-H ) :   1.0048 B(  6-C , 15-H ) :   0.9486
B(  7-C ,  8-O ) :   0.9868 B(  7-C , 16-H ) :   0.9462 B(  7-C , 17-H ) :   0.9982
B(  8-O , 18-H ) :   0.8668

Dispersion correction           -0.006002086
FINAL SINGLE POINT ENERGY      -385.997706078221

DIPOLE MOMENT
-------------

Method             : SCF
Type of density    : Electron Density
Multiplicity       :   1
Irrep              :   0
Energy             :  -385.9989286596782563 Eh
Relativity type    :
Basis              : AO
                                X                 Y                 Z
Electronic contribution:     -1.954409876       0.203366508       0.089395893
Nuclear contribution   :      1.601663293       0.316605335      -0.520316737
                        -----------------------------------------
Total Dipole Moment    :     -0.352746583       0.519971843      -0.430920844
                        -----------------------------------------
Magnitude (a.u.)       :      0.761901334
Magnitude (Debye)      :      1.936599288

Rotational constants in cm-1:             0.160321             0.028294             0.024351
Rotational constants in MHz :          4806.312179           848.235195           730.033534

                             ****ORCA TERMINATED NORMALLY****
TOTAL RUN TIME: 0 days 0 hours 0 minutes 29 seconds 146 msec
