                         Program Version 6.0.0  -   RELEASE  -
|  1> ! r2scan-3c def2/J RI DEFGRID2 scfconv6 printgap
|  2> %output
|  3>     printlevel normal
|  4> end
|  5> * xyz 0 1
|  6> C -2.2727227962 0.9334930604 -0.6852002969
|  7> C -2.0959317736 -0.3207565597 0.1623589419
|  8> C -0.8105400431 -0.264580261 0.9901435077
|  9> C 0.4158942373 -0.3394147415 0.1184627075
| 10> O 0.5507324479 -1.0609934959 -0.8469413938
| 11> O 1.3686045948 0.4852582169 0.5446109397
| 12> C 2.6056495411 0.4948427449 -0.1725924055
| 13> H -3.2004969659 0.8824688103 -1.2485376883
| 14> H -2.2971165603 1.8206118024 -0.0567163017
| 15> H -1.4498532308 1.0319334171 -1.3906892963
| 16> H -2.0546474991 -1.1971844912 -0.4869081006
| 17> H -2.9457014158 -0.4304792953 0.8363998645
| 18> H -0.7716802927 -1.1228598146 1.6645864371
| 19> H -0.7580016036 0.6476403662 1.5836996988
| 20> H 3.0555825134 -0.4984318393 -0.1536654721
| 21> H 3.2339233744 1.2184906092 0.3366839114
| 22> H 2.4328603112 0.7858882996 -1.2093777928
| 23> *
| 24>
| 25>                          ****END OF INPUT****

CARTESIAN COORDINATES (ANGSTROEM)
---------------------------------
  C     -2.272723    0.933493   -0.685200
  C     -2.095932   -0.320757    0.162359
  C     -0.810540   -0.264580    0.990144
  C      0.415894   -0.339415    0.118463
  O      0.550732   -1.060993   -0.846941
  O      1.368605    0.485258    0.544611
  C      2.605650    0.494843   -0.172592
  H     -3.200497    0.882469   -1.248538
  H     -2.297117    1.820612   -0.056716
  H     -1.449853    1.031933   -1.390689
  H     -2.054647   -1.197184   -0.486908
  H     -2.945701   -0.430479    0.836400
  H     -0.771680   -1.122860    1.664586
  H     -0.758002    0.647640    1.583700
  H      3.055583   -0.498432   -0.153665
  H      3.233923    1.218491    0.336684
  H      2.432860    0.785888   -1.209378

 Total Charge           Charge          ....    0
 Multiplicity           Mult            ....    1
 Number of Electrons    NEL             ....   56
 Basis Dimension        Dim             ....  193

ORBITAL ENERGIES
----------------

  NO   OCC          E(Eh)            E(eV)
   0   2.0000     -19.000215      -517.0221
   1   2.0000     -18.930270      -515.1188
   2   2.0000     -10.152919      -276.2750
   3   2.0000     -10.087170      -274.4859
   4   2.0000     -10.042478      -273.2697
   5   2.0000     -10.032576      -273.0003
   6   2.0000     -10.018310      -272.6121
   7   2.0000      -1.073765       -29.2186
   8   2.0000      -0.977235       -26.5919
   9   2.0000      -0.771047       -20.9813
  10   2.0000      -0.711648       -19.3649
  11   2.0000      -0.659997       -17.9594
  12   2.0000      -0.573989       -15.6190
  13   2.0000      -0.526271       -14.3206
  14   2.0000      -0.472487       -12.8570
  15   2.0000      -0.459960       -12.5161
  16   2.0000      -0.443516       -12.0687
  17   2.0000      -0.420516       -11.4428
  18   2.0000      -0.412476       -11.2240
  19   2.0000      -0.375886       -10.2284
  20   2.0000      -0.372783       -10.1440
  21   2.0000      -0.355280        -9.6677
  22   2.0000      -0.327953        -8.9240
  23   2.0000      -0.311447        -8.4749
  24   2.0000      -0.310306        -8.4439
  25   2.0000      -0.307891        -8.3781
  26   2.0000      -0.275558        -7.4983
  27   2.0000      -0.238417        -6.4877
  28   0.0000      -0.016832        -0.4580
  29   0.0000       0.065905         1.7934
  30   0.0000       0.088735         2.4146
  31   0.0000       0.111687         3.0392
  32   0.0000       0.127156         3.4601

MULLIKEN ATOMIC CHARGES
-----------------------
   0 C :   -0.496751
   1 C :   -0.204178
   2 C :   -0.293645
   3 C :    0.334505
   4 O :   -0.419690
   5 O :   -0.180972
   6 C :   -0.296421
   7 H :    0.148150
   8 H :    0.143499
   9 H :    0.158647
  10 H :    0.158668
  11 H :    0.142276
  12 H :    0.167544
  13 H :    0.164935
  14 H :    0.161239
  15 H :    0.150646
  16 H :    0.161549
Sum of atomic charges:   -0.0000000

LOEWDIN ATOMIC CHARGES
----------------------
   0 C :   -0.416918
   1 C :   -0.296299
   2 C :   -0.233004
   3 C :    0.351670
   4 O :   -0.428941
   5 O :   -0.603737
   6 C :   -0.045365
   7 H :    0.153018
   8 H :    0.149457
   9 H :    0.156997
  10 H :    0.168941
  11 H :    0.152754
  12 H :    0.183307
  13 H :    0.178485
  14 H :    0.176633
  15 H :    0.176217
  16 H :    0.176786

  Mayer bond orders larger than 0.100000
B(  0-C ,  1-C ) :   0.9086 B(  0-C ,  7-H ) :   0.9688 B(  0-C ,  8-H ) :   0.9823
B(  0-C ,  9-H ) :   0.9744 B(  1-C ,  2-C ) :   0.8981 B(  1-C , 10-H ) :   0.9620
B(  1-C , 11-H ) :   0.9646 B(  2-C ,  3-C ) :   0.9502 B(  2-C , 12-H ) :   0.9247
B(  2-C , 13-H ) :   0.9993 B(  3-C ,  4-O ) :   1.8206 B(  3-C ,  5-O ) :   1.0611
B(  5-O ,  6-C ) :   0.8525 B(  6-C , 14-H ) :   0.9623 B(  6-C , 15-H ) :   0.9690
B(  6-C , 16-H ) :   0.9628

Dispersion correction           -0.004089330
FINAL SINGLE POINT ENERGY      -346.932706228596

DIPOLE MOMENT
-------------

Method             : SCF
Type of density    : Electron Density
Multiplicity       :   1
Irrep              :   0
Energy             :  -346.9392885354102987 Eh
Relativity type    :
Basis              : AO
                                X                 Y                 Z
Electronic contribution:      4.562203681      -2.449705065       0.615197149
Nuclear contribution   :     -4.432651897       2.935505787      -0.121307426
                        -----------------------------------------
Total Dipole Moment    :      0.129551783       0.485800722       0.493889723
                        -----------------------------------------
Magnitude (a.u.)       :      0.704778734
Magnitude (Debye)      :      1.791405177

Rotational constants in cm-1:             0.176815             0.048991             0.048246
Rotational constants in MHz :          5300.790773          1468.701822          1446.388989

                             ****ORCA TERMINATED NORMALLY****
TOTAL RUN TIME: 0 days 0 hours 0 minutes 24 seconds 942 msec
