                         Program Version 6.0.0  -   RELEASE  -
|  1> ! pbe def2-sv(p) def2/J RI DEFGRID1 loosescf d4 GCP(DFT/SV(P)) printgap
|  2> %output
|  3>     printlevel normal
|  4> end
|  5> * xyz 0 1
|  6> C 2.5522838971 -0.2220585088 0.7267140117
|  7> C 1.1360313869 -0.6512861802 0.3542321459
|  8> C 0.2428358219 0.5346602325 -0.0306579584
|  9> H 0.3971625645 1.3433249422 0.7051098565
| 10> C -1.2630302206 0.2059104313 -0.049870973
| 11> C -1.5709137131 -1.0175713775 -0.910173845
| 12> C -1.830657035 0.0425228609 1.3570921109
| 13> O 0.5595297967 1.0303111157 -1.3237209904
| 14> H 3.1328900271 -1.0865862014 1.0383436884
| 15> H 2.5303898089 0.4911316606 1.5482427068
| 16> H 3.0637434006 0.237112118 -0.1163174414
| 17> H 1.1725098029 -1.3470008354 -0.485131683
| 18> H 0.6877926474 -1.162778308 1.2055218208
| 19> H -1.7394319248 1.0750416429 -0.5184220086
| 20> H -2.6449040683 -1.1113904863 -1.0498863803
| 21> H -1.1029217867 -0.9098681995 -1.8853103505
| 22> H -1.2055252739 -1.9259069691 -0.4384403251
| 23> H -1.6133158818 0.9172819284 1.9653646153
| 24> H -1.4125464336 -0.8330560838 1.8472657116
| 25> H -2.9090924349 -0.0815110221 1.3050376009
| 26> H 1.5016931204 1.2408144898 -1.3563266978
| 27> *
| 28>
| 29>                          ****END OF INPUT****

CARTESIAN COORDINATES (ANGSTROEM)
---------------------------------
  C      2.552284   -0.222059    0.726714
  C      1.136031   -0.651286    0.354232
  C      0.242836    0.534660   -0.030658
  H      0.397163    1.343325    0.705110
  C     -1.263030    0.205910   -0.049871
  C     -1.570914   -1.017571   -0.910174
  C     -1.830657    0.042523    1.357092
  O      0.559530    1.030311   -1.323721
  H      3.132890   -1.086586    1.038344
  H      2.530390    0.491132    1.548243
  H      3.063743    0.237112   -0.116317
  H      1.172510   -1.347001   -0.485132
  H      0.687793   -1.162778    1.205522
  H     -1.739432    1.075042   -0.518422
  H     -2.644904   -1.111390   -1.049886
  H     -1.102922   -0.909868   -1.885310
  H     -1.205525   -1.925907   -0.438440
  H     -1.613316    0.917282    1.965365
  H     -1.412546   -0.833056    1.847266
  H     -2.909092   -0.081511    1.305038
  H      1.501693    1.240814   -1.356327

 Total Charge           Charge          ....    0
 Multiplicity           Mult            ....    1
 Number of Electrons    NEL             ....   58
 Basis Dimension        Dim             ....  126

ORBITAL ENERGIES
----------------

  NO   OCC          E(Eh)            E(eV)
   0   2.0000     -18.737816      -509.8819
   1   2.0000      -9.930853      -270.2323
   2   2.0000      -9.887372      -269.0491
   3   2.0000      -9.883375      -268.9403
   4   2.0000      -9.882068      -268.9047
   5   2.0000      -9.871656      -268.6214
   6   2.0000      -9.863919      -268.4109
   7   2.0000      -0.915218       -24.9043
   8   2.0000      -0.724133       -19.7047
   9   2.0000      -0.687084       -18.6965
  10   2.0000      -0.606739       -16.5102
  11   2.0000      -0.600652       -16.3446
  12   2.0000      -0.544494       -14.8164
  13   2.0000      -0.480154       -13.0656
  14   2.0000      -0.456957       -12.4344
  15   2.0000      -0.415008       -11.2930
  16   2.0000      -0.410918       -11.1817
  17   2.0000      -0.388126       -10.5614
  18   2.0000      -0.373506       -10.1636
  19   2.0000      -0.342384        -9.3167
  20   2.0000      -0.339748        -9.2450
  21   2.0000      -0.329509        -8.9664
  22   2.0000      -0.325244        -8.8503
  23   2.0000      -0.307498        -8.3675
  24   2.0000      -0.297699        -8.1008
  25   2.0000      -0.287912        -7.8345
  26   2.0000      -0.278981        -7.5915
  27   2.0000      -0.256803        -6.9880
  28   2.0000      -0.210009        -5.7146
  29   0.0000       0.021895         0.5958
  30   0.0000       0.044297         1.2054
  31   0.0000       0.064168         1.7461
  32   0.0000       0.071188         1.9371
  33   0.0000       0.083126         2.2620

MULLIKEN ATOMIC CHARGES
-----------------------
   0 C :   -0.270527
   1 C :   -0.203809
   2 C :    0.050183
   3 H :    0.047306
   4 C :   -0.140287
   5 C :   -0.258561
   6 C :   -0.252174
   7 O :   -0.422857
   8 H :    0.109380
   9 H :    0.102290
  10 H :    0.084157
  11 H :    0.096180
  12 H :    0.088544
  13 H :    0.075829
  14 H :    0.095595
  15 H :    0.112633
  16 H :    0.094873
  17 H :    0.097095
  18 H :    0.099284
  19 H :    0.100811
  20 H :    0.294055
Sum of atomic charges:   -0.0000000

LOEWDIN ATOMIC CHARGES
----------------------
   0 C :   -0.342542
   1 C :   -0.251072
   2 C :   -0.043182
   3 H :    0.091797
   4 C :   -0.159645
   5 C :   -0.332193
   6 C :   -0.330134
   7 O :   -0.330029
   8 H :    0.123663
   9 H :    0.118311
  10 H :    0.108001
  11 H :    0.121500
  12 H :    0.119969
  13 H :    0.120935
  14 H :    0.117549
  15 H :    0.122610
  16 H :    0.113636
  17 H :    0.116161
  18 H :    0.114231
  19 H :    0.121143
  20 H :    0.279292

  Mayer bond orders larger than 0.100000
B(  0-C ,  1-C ) :   1.1464 B(  0-C ,  8-H ) :   0.9513 B(  0-C ,  9-H ) :   0.9526
B(  0-C , 10-H ) :   0.9457 B(  1-C ,  2-C ) :   1.0583 B(  1-C , 11-H ) :   0.9070
B(  1-C , 12-H ) :   0.9076 B(  2-C ,  3-H ) :   0.9070 B(  2-C ,  4-C ) :   1.0341
B(  2-C ,  7-O ) :   1.0540 B(  4-C ,  5-C ) :   1.1099 B(  4-C ,  6-C ) :   1.1058
B(  4-C , 13-H ) :   0.8934 B(  5-C , 14-H ) :   0.9501 B(  5-C , 15-H ) :   0.9441
B(  5-C , 16-H ) :   0.9439 B(  6-C , 17-H ) :   0.9484 B(  6-C , 18-H ) :   0.9417
B(  6-C , 19-H ) :   0.9492 B(  7-O , 20-H ) :   0.8475

Dispersion correction           -0.016654225
FINAL SINGLE POINT ENERGY      -311.517754718551

DIPOLE MOMENT
-------------

Method             : SCF
Type of density    : Electron Density
Multiplicity       :   1
Irrep              :   0
Energy             :  -311.5974758058776501 Eh
Relativity type    :
Basis              : AO
                                X                 Y                 Z
Electronic contribution:      0.552736681       2.887029153      -3.149224082
Nuclear contribution   :     -0.124499229      -2.943106175       3.512588664
                        -----------------------------------------
Total Dipole Moment    :      0.428237452      -0.056077022       0.363364582
                        -----------------------------------------
Magnitude (a.u.)       :      0.564416306
Magnitude (Debye)      :      1.434632238

Rotational constants in cm-1:             0.116738             0.057048             0.049563
Rotational constants in MHz :          3499.715639          1710.260216          1485.851852

                             ****ORCA TERMINATED NORMALLY****
TOTAL RUN TIME: 0 days 0 hours 0 minutes 9 seconds 167 msec
