                         Program Version 6.0.0  -   RELEASE  -
|  1> ! r2scan-3c def2/J RI DEFGRID2 scfconv6 printgap
|  2> %output
|  3>     printlevel normal
|  4> end
|  5> * xyz 0 1
|  6> C 0.5227443405 1.932447316 0.3456062069
|  7> C 1.8709776796 2.1822983201 0.4224169005
|  8> C 2.8141698502 1.1731671608 0.1959778545
|  9> C 2.3501861613 -0.1180101442 -0.1177629988
| 10> C 0.97258137 -0.3530288488 -0.1833441333
| 11> C 0.049380773 0.6498615307 0.0438338075
| 12> C -1.3967874436 0.3929841593 -0.0382855962
| 13> C -2.2463713572 1.2919117344 -0.6835618311
| 14> C -3.6072285799 1.0676263462 -0.775667407
| 15> C -4.1287286106 -0.0777539578 -0.205139818
| 16> C -3.3367422325 -0.997923694 0.4539803115
| 17> C -1.9810718385 -0.7409425407 0.5213018195
| 18> F -1.2125694373 -1.6353990088 1.1960392969
| 19> F -5.4640236195 -0.312839616 -0.2880264225
| 20> C 3.2187726726 -1.2712073943 -0.3953866561
| 21> O 2.8067730725 -2.3724880165 -0.7104741114
| 22> O 4.5306450524 -1.0376949562 -0.2814608463
| 23> O 4.1015104487 1.5237108849 0.2944136279
| 24> H -0.1798273994 2.7266737911 0.5416416874
| 25> H 2.2439208081 3.1646656545 0.6632203513
| 26> H 0.6578203166 -1.3549683073 -0.4343664496
| 27> H -1.8221923961 2.1730936119 -1.1362318498
| 28> H -4.2586751767 1.7611269874 -1.2804350104
| 29> H -3.7553469439 -1.8825378832 0.9036130705
| 30> H 5.0595088178 -1.8356811394 -0.4749227413
| 31> H 4.6938212211 0.7662626916 0.1321409258
| 32> *
| 33>
| 34>                          ****END OF INPUT****

CARTESIAN COORDINATES (ANGSTROEM)
---------------------------------
  C      0.522744    1.932447    0.345606
  C      1.870978    2.182298    0.422417
  C      2.814170    1.173167    0.195978
  C      2.350186   -0.118010   -0.117763
  C      0.972581   -0.353029   -0.183344
  C      0.049381    0.649862    0.043834
  C     -1.396787    0.392984   -0.038286
  C     -2.246371    1.291912   -0.683562
  C     -3.607229    1.067626   -0.775667
  C     -4.128729   -0.077754   -0.205140
  C     -3.336742   -0.997924    0.453980
  C     -1.981072   -0.740943    0.521302
  F     -1.212569   -1.635399    1.196039
  F     -5.464024   -0.312840   -0.288026
  C      3.218773   -1.271207   -0.395387
  O      2.806773   -2.372488   -0.710474
  O      4.530645   -1.037695   -0.281461
  O      4.101510    1.523711    0.294414
  H     -0.179827    2.726674    0.541642
  H      2.243921    3.164666    0.663220
  H      0.657820   -1.354968   -0.434366
  H     -1.822192    2.173094   -1.136232
  H     -4.258675    1.761127   -1.280435
  H     -3.755347   -1.882538    0.903613
  H      5.059509   -1.835681   -0.474923
  H      4.693821    0.766263    0.132141

 Total Charge           Charge          ....    0
 Multiplicity           Mult            ....    1
 Number of Electrons    NEL             ....  128
 Basis Dimension        Dim             ....  407

ORBITAL ENERGIES
----------------

  NO   OCC          E(Eh)            E(eV)
   0   2.0000     -24.506742      -666.8624
   1   2.0000     -24.505437      -666.8268
   2   2.0000     -19.030245      -517.8393
   3   2.0000     -18.997307      -516.9430
   4   2.0000     -18.945124      -515.5230
   5   2.0000     -10.178974      -276.9840
   6   2.0000     -10.137030      -275.8426
   7   2.0000     -10.135168      -275.7920
   8   2.0000     -10.123310      -275.4693
   9   2.0000     -10.064960      -273.8815
  10   2.0000     -10.064686      -273.8740
  11   2.0000     -10.060747      -273.7668
  12   2.0000     -10.058831      -273.7147
  13   2.0000     -10.058096      -273.6947
  14   2.0000     -10.056799      -273.6594
  15   2.0000     -10.053913      -273.5809
  16   2.0000     -10.052780      -273.5500
  17   2.0000     -10.047513      -273.4067
  18   2.0000      -1.192167       -32.4405
  19   2.0000      -1.190386       -32.3920
  20   2.0000      -1.098667       -29.8963
  21   2.0000      -1.047746       -28.5106
  22   2.0000      -0.992481       -27.0068
  23   2.0000      -0.861346       -23.4384
  24   2.0000      -0.839988       -22.8572
  25   2.0000      -0.770010       -20.9531
  26   2.0000      -0.751106       -20.4386
  27   2.0000      -0.741371       -20.1737
  28   2.0000      -0.708372       -19.2758
  29   2.0000      -0.661391       -17.9974
  30   2.0000      -0.621397       -16.9091
  31   2.0000      -0.612430       -16.6651
  32   2.0000      -0.586386       -15.9564
  33   2.0000      -0.581971       -15.8362
  34   2.0000      -0.548554       -14.9269
  35   2.0000      -0.535228       -14.5643
  36   2.0000      -0.502619       -13.6770
  37   2.0000      -0.495228       -13.4758
  38   2.0000      -0.478865       -13.0306
  39   2.0000      -0.472582       -12.8596
  40   2.0000      -0.461460       -12.5570
  41   2.0000      -0.449271       -12.2253
  42   2.0000      -0.443877       -12.0785
  43   2.0000      -0.441049       -12.0015
  44   2.0000      -0.428495       -11.6599
  45   2.0000      -0.428035       -11.6474
  46   2.0000      -0.415061       -11.2944
  47   2.0000      -0.408059       -11.1038
  48   2.0000      -0.399094       -10.8599
  49   2.0000      -0.393758       -10.7147
  50   2.0000      -0.391314       -10.6482
  51   2.0000      -0.372968       -10.1490
  52   2.0000      -0.359616        -9.7856
  53   2.0000      -0.346682        -9.4337
  54   2.0000      -0.342339        -9.3155
  55   2.0000      -0.338274        -9.2049
  56   2.0000      -0.328769        -8.9462
  57   2.0000      -0.317580        -8.6418
  58   2.0000      -0.310979        -8.4622
  59   2.0000      -0.259491        -7.0611
  60   2.0000      -0.257047        -6.9946
  61   2.0000      -0.255947        -6.9647
  62   2.0000      -0.247863        -6.7447
  63   2.0000      -0.210575        -5.7300
  64   0.0000      -0.085797        -2.3347
  65   0.0000      -0.059777        -1.6266
  66   0.0000      -0.048134        -1.3098
  67   0.0000      -0.017543        -0.4774
  68   0.0000       0.017371         0.4727

MULLIKEN ATOMIC CHARGES
-----------------------
   0 C :   -0.162331
   1 C :   -0.329173
   2 C :    0.348811
   3 C :   -0.043385
   4 C :   -0.248224
   5 C :    0.245893
   6 C :   -0.081878
   7 C :   -0.132246
   8 C :   -0.299199
   9 C :    0.415178
  10 C :   -0.397257
  11 C :    0.366428
  12 F :   -0.230094
  13 F :   -0.235717
  14 C :    0.246336
  15 O :   -0.407129
  16 O :   -0.364738
  17 O :   -0.381995
  18 H :    0.155282
  19 H :    0.159500
  20 H :    0.197404
  21 H :    0.157217
  22 H :    0.163812
  23 H :    0.179141
  24 H :    0.338783
  25 H :    0.339580
Sum of atomic charges:    0.0000000

LOEWDIN ATOMIC CHARGES
----------------------
   0 C :   -0.111360
   1 C :   -0.129882
   2 C :    0.224689
   3 C :   -0.046545
   4 C :   -0.059547
   5 C :   -0.080969
   6 C :   -0.071991
   7 C :   -0.123084
   8 C :   -0.162037
   9 C :    0.224941
  10 C :   -0.139047
  11 C :    0.243100
  12 F :   -0.278171
  13 F :   -0.283776
  14 C :    0.377918
  15 O :   -0.427370
  16 O :   -0.426914
  17 O :   -0.464403
  18 H :    0.177072
  19 H :    0.184318
  20 H :    0.204471
  21 H :    0.178865
  22 H :    0.183872
  23 H :    0.196780
  24 H :    0.306509
  25 H :    0.302562

  Mayer bond orders larger than 0.100000
B(  0-C ,  1-C ) :   1.4316 B(  0-C ,  5-C ) :   1.3179 B(  0-C , 18-H ) :   0.9287
B(  1-C ,  2-C ) :   1.3201 B(  1-C , 17-O ) :   0.1044 B(  1-C , 19-H ) :   0.9551
B(  2-C ,  3-C ) :   1.2884 B(  2-C , 17-O ) :   1.0520 B(  3-C ,  4-C ) :   1.3929
B(  3-C , 14-C ) :   1.0761 B(  4-C ,  5-C ) :   1.3349 B(  4-C , 20-H ) :   0.9351
B(  5-C ,  6-C ) :   0.7501 B(  6-C ,  7-C ) :   1.3643 B(  6-C , 11-C ) :   1.4510
B(  7-C ,  8-C ) :   1.3867 B(  7-C , 21-H ) :   0.9367 B(  8-C ,  9-C ) :   1.4238
B(  8-C , 22-H ) :   0.9294 B(  9-C , 10-C ) :   1.3942 B(  9-C , 13-F ) :   0.8657
B( 10-C , 11-C ) :   1.3579 B( 10-C , 23-H ) :   0.9201 B( 11-C , 12-F ) :   0.8951
B( 14-C , 15-O ) :   1.9625 B( 14-C , 16-O ) :   1.0349 B( 16-O , 24-H ) :   0.8567
B( 17-O , 25-H ) :   0.8116

Dispersion correction           -0.011423999
FINAL SINGLE POINT ENERGY      -925.449859576394

DIPOLE MOMENT
-------------

Method             : SCF
Type of density    : Electron Density
Multiplicity       :   1
Irrep              :   0
Energy             :  -925.4492776129975482 Eh
Relativity type    :
Basis              : AO
                                X                 Y                 Z
Electronic contribution:     -8.031628541      -6.266614602       1.762486320
Nuclear contribution   :      8.831175074       6.954615394      -1.869856468
                        -----------------------------------------
Total Dipole Moment    :      0.799546533       0.688000792      -0.107370148
                        -----------------------------------------
Magnitude (a.u.)       :      1.060258505
Magnitude (Debye)      :      2.694962948

Rotational constants in cm-1:             0.033650             0.006890             0.006004
Rotational constants in MHz :          1008.791079           206.553080           180.002716

                             ****ORCA TERMINATED NORMALLY****
TOTAL RUN TIME: 0 days 0 hours 1 minutes 17 seconds 52 msec
