                         Program Version 6.0.0  -   RELEASE  -
|  1> ! r2scan-3c def2/J RI DEFGRID2 scfconv6 printgap
|  2> %output
|  3>     printlevel normal
|  4> end
|  5> %cpcm
|  6>     smd true
|  7>     smdsolvent "water"
|  8> end
|  9> * xyz 0 1
| 10> C 0.5227443405 1.932447316 0.3456062069
| 11> C 1.8709776796 2.1822983201 0.4224169005
| 12> C 2.8141698502 1.1731671608 0.1959778545
| 13> C 2.3501861613 -0.1180101442 -0.1177629988
| 14> C 0.97258137 -0.3530288488 -0.1833441333
| 15> C 0.049380773 0.6498615307 0.0438338075
| 16> C -1.3967874436 0.3929841593 -0.0382855962
| 17> C -2.2463713572 1.2919117344 -0.6835618311
| 18> C -3.6072285799 1.0676263462 -0.775667407
| 19> C -4.1287286106 -0.0777539578 -0.205139818
| 20> C -3.3367422325 -0.997923694 0.4539803115
| 21> C -1.9810718385 -0.7409425407 0.5213018195
| 22> F -1.2125694373 -1.6353990088 1.1960392969
| 23> F -5.4640236195 -0.312839616 -0.2880264225
| 24> C 3.2187726726 -1.2712073943 -0.3953866561
| 25> O 2.8067730725 -2.3724880165 -0.7104741114
| 26> O 4.5306450524 -1.0376949562 -0.2814608463
| 27> O 4.1015104487 1.5237108849 0.2944136279
| 28> H -0.1798273994 2.7266737911 0.5416416874
| 29> H 2.2439208081 3.1646656545 0.6632203513
| 30> H 0.6578203166 -1.3549683073 -0.4343664496
| 31> H -1.8221923961 2.1730936119 -1.1362318498
| 32> H -4.2586751767 1.7611269874 -1.2804350104
| 33> H -3.7553469439 -1.8825378832 0.9036130705
| 34> H 5.0595088178 -1.8356811394 -0.4749227413
| 35> H 4.6938212211 0.7662626916 0.1321409258
| 36> *
| 37>
| 38>                          ****END OF INPUT****

CARTESIAN COORDINATES (ANGSTROEM)
---------------------------------
  C      0.522744    1.932447    0.345606
  C      1.870978    2.182298    0.422417
  C      2.814170    1.173167    0.195978
  C      2.350186   -0.118010   -0.117763
  C      0.972581   -0.353029   -0.183344
  C      0.049381    0.649862    0.043834
  C     -1.396787    0.392984   -0.038286
  C     -2.246371    1.291912   -0.683562
  C     -3.607229    1.067626   -0.775667
  C     -4.128729   -0.077754   -0.205140
  C     -3.336742   -0.997924    0.453980
  C     -1.981072   -0.740943    0.521302
  F     -1.212569   -1.635399    1.196039
  F     -5.464024   -0.312840   -0.288026
  C      3.218773   -1.271207   -0.395387
  O      2.806773   -2.372488   -0.710474
  O      4.530645   -1.037695   -0.281461
  O      4.101510    1.523711    0.294414
  H     -0.179827    2.726674    0.541642
  H      2.243921    3.164666    0.663220
  H      0.657820   -1.354968   -0.434366
  H     -1.822192    2.173094   -1.136232
  H     -4.258675    1.761127   -1.280435
  H     -3.755347   -1.882538    0.903613
  H      5.059509   -1.835681   -0.474923
  H      4.693821    0.766263    0.132141

 Total Charge           Charge          ....    0
 Multiplicity           Mult            ....    1
 Number of Electrons    NEL             ....  128
 Basis Dimension        Dim             ....  407

ORBITAL ENERGIES
----------------

  NO   OCC          E(Eh)            E(eV)
   0   2.0000     -24.508218      -666.9025
   1   2.0000     -24.506374      -666.8523
   2   2.0000     -19.011951      -517.3415
   3   2.0000     -18.992123      -516.8019
   4   2.0000     -18.947689      -515.5928
   5   2.0000     -10.178648      -276.9751
   6   2.0000     -10.133431      -275.7447
   7   2.0000     -10.130800      -275.6731
   8   2.0000     -10.119349      -275.3615
   9   2.0000     -10.061265      -273.7810
  10   2.0000     -10.060091      -273.7490
  11   2.0000     -10.054948      -273.6091
  12   2.0000     -10.052004      -273.5289
  13   2.0000     -10.050931      -273.4997
  14   2.0000     -10.050752      -273.4949
  15   2.0000     -10.050678      -273.4929
  16   2.0000     -10.044889      -273.3353
  17   2.0000     -10.040796      -273.2239
  18   2.0000      -1.194236       -32.4968
  19   2.0000      -1.191897       -32.4332
  20   2.0000      -1.086401       -29.5625
  21   2.0000      -1.042416       -28.3656
  22   2.0000      -0.990757       -26.9599
  23   2.0000      -0.856747       -23.3133
  24   2.0000      -0.835720       -22.7411
  25   2.0000      -0.765286       -20.8245
  26   2.0000      -0.745960       -20.2986
  27   2.0000      -0.735138       -20.0041
  28   2.0000      -0.703967       -19.1559
  29   2.0000      -0.650499       -17.7010
  30   2.0000      -0.615346       -16.7444
  31   2.0000      -0.607004       -16.5174
  32   2.0000      -0.578374       -15.7384
  33   2.0000      -0.576455       -15.6861
  34   2.0000      -0.541599       -14.7376
  35   2.0000      -0.532887       -14.5006
  36   2.0000      -0.495912       -13.4944
  37   2.0000      -0.491901       -13.3853
  38   2.0000      -0.477050       -12.9812
  39   2.0000      -0.468145       -12.7389
  40   2.0000      -0.454321       -12.3627
  41   2.0000      -0.447646       -12.1811
  42   2.0000      -0.439751       -11.9662
  43   2.0000      -0.437005       -11.8915
  44   2.0000      -0.429428       -11.6853
  45   2.0000      -0.418545       -11.3892
  46   2.0000      -0.411466       -11.1966
  47   2.0000      -0.404260       -11.0005
  48   2.0000      -0.394805       -10.7432
  49   2.0000      -0.389259       -10.5923
  50   2.0000      -0.387084       -10.5331
  51   2.0000      -0.367275        -9.9940
  52   2.0000      -0.356626        -9.7043
  53   2.0000      -0.344047        -9.3620
  54   2.0000      -0.338730        -9.2173
  55   2.0000      -0.332472        -9.0470
  56   2.0000      -0.324738        -8.8366
  57   2.0000      -0.313029        -8.5179
  58   2.0000      -0.306428        -8.3383
  59   2.0000      -0.263704        -7.1758
  60   2.0000      -0.255330        -6.9479
  61   2.0000      -0.252065        -6.8590
  62   2.0000      -0.244117        -6.6428
  63   2.0000      -0.207769        -5.6537
  64   0.0000      -0.082776        -2.2525
  65   0.0000      -0.055928        -1.5219
  66   0.0000      -0.043103        -1.1729
  67   0.0000      -0.014188        -0.3861
  68   0.0000       0.021065         0.5732

MULLIKEN ATOMIC CHARGES
-----------------------
   0 C :   -0.161576
   1 C :   -0.366058
   2 C :    0.347590
   3 C :   -0.008589
   4 C :   -0.273724
   5 C :    0.196946
   6 C :   -0.094414
   7 C :   -0.145616
   8 C :   -0.325664
   9 C :    0.400173
  10 C :   -0.398486
  11 C :    0.352042
  12 F :   -0.240381
  13 F :   -0.245004
  14 C :    0.269867
  15 O :   -0.485795
  16 O :   -0.366087
  17 O :   -0.415166
  18 H :    0.191348
  19 H :    0.188900
  20 H :    0.206631
  21 H :    0.194573
  22 H :    0.199286
  23 H :    0.214163
  24 H :    0.385823
  25 H :    0.379219
Sum of atomic charges:    0.0000000

LOEWDIN ATOMIC CHARGES
----------------------
   0 C :   -0.105241
   1 C :   -0.134118
   2 C :    0.222373
   3 C :   -0.048764
   4 C :   -0.075068
   5 C :   -0.087255
   6 C :   -0.075358
   7 C :   -0.118986
   8 C :   -0.161246
   9 C :    0.216288
  10 C :   -0.139218
  11 C :    0.236410
  12 F :   -0.289630
  13 F :   -0.294760
  14 C :    0.386316
  15 O :   -0.490778
  16 O :   -0.394203
  17 O :   -0.474811
  18 H :    0.191112
  19 H :    0.194335
  20 H :    0.204537
  21 H :    0.192944
  22 H :    0.196114
  23 H :    0.208630
  24 H :    0.326941
  25 H :    0.313440

  Mayer bond orders larger than 0.100000
B(  0-C ,  1-C ) :   1.4350 B(  0-C ,  5-C ) :   1.3172 B(  0-C , 18-H ) :   0.9289
B(  1-C ,  2-C ) :   1.2745 B(  1-C , 17-O ) :   0.1001 B(  1-C , 19-H ) :   0.9663
B(  2-C ,  3-C ) :   1.2872 B(  2-C , 17-O ) :   1.0591 B(  3-C ,  4-C ) :   1.3295
B(  3-C , 14-C ) :   1.0815 B(  4-C ,  5-C ) :   1.3402 B(  4-C , 20-H ) :   0.9413
B(  5-C ,  6-C ) :   0.7476 B(  6-C ,  7-C ) :   1.3585 B(  6-C , 11-C ) :   1.4265
B(  7-C ,  8-C ) :   1.3938 B(  7-C , 21-H ) :   0.9356 B(  8-C ,  9-C ) :   1.3886
B(  8-C , 22-H ) :   0.9332 B(  9-C , 10-C ) :   1.3841 B(  9-C , 13-F ) :   0.8626
B( 10-C , 11-C ) :   1.3588 B( 10-C , 23-H ) :   0.9124 B( 11-C , 12-F ) :   0.8909
B( 14-C , 15-O ) :   1.8950 B( 14-C , 16-O ) :   1.0886 B( 16-O , 24-H ) :   0.8320
B( 17-O , 25-H ) :   0.7943

Dispersion correction           -0.011423999
FINAL SINGLE POINT ENERGY      -925.463873351371

DIPOLE MOMENT
-------------

Method             : SCF
Type of density    : Electron Density
Multiplicity       :   1
Irrep              :   0
Energy             :  -925.4632913879740954 Eh
Relativity type    :
Basis              : AO
                                X                 Y                 Z
Electronic contribution:     -7.772474740      -5.816901406       1.722909460
Nuclear contribution   :      8.831175074       6.954615394      -1.869856468
                        -----------------------------------------
Total Dipole Moment    :      1.058700335       1.137713989      -0.146947007
                        -----------------------------------------
Magnitude (a.u.)       :      1.561035855
Magnitude (Debye)      :      3.967837815

Rotational constants in cm-1:             0.033650             0.006890             0.006004
Rotational constants in MHz :          1008.791079           206.553080           180.002716

                             ****ORCA TERMINATED NORMALLY****
TOTAL RUN TIME: 0 days 0 hours 1 minutes 49 seconds 310 msec
