                         Program Version 6.0.0  -   RELEASE  -
|  1> ! r2scan-3c def2/J RI DEFGRID2 scfconv6 printgap
|  2> %output
|  3>     printlevel normal
|  4> end
|  5> * xyz 0 1
|  6> C -2.1065140036 0.1928473163 1.3249815168
|  7> C -1.7651048348 -0.5732667402 0.0494556262
|  8> C -2.9141326428 -0.5082800583 -0.9528317626
|  9> C -0.4962616014 -0.0095688049 -0.586390493
| 10> O 0.6097113227 -0.2563731437 0.2916700513
| 11> C 1.7888339482 0.2506122462 -0.0438039002
| 12> O 1.9674162046 0.8990664319 -1.0555656552
| 13> C 2.842139313 -0.0637194842 0.9752397404
| 14> H -2.9763225799 -0.2456608671 1.8059702874
| 15> H -2.3256080489 1.2328634773 1.0935197414
| 16> H -1.2707956453 0.1592500906 2.0188603111
| 17> H -1.567521675 -1.6182375704 0.3072619631
| 18> H -3.818477721 -0.9134187703 -0.5082761306
| 19> H -2.680734848 -1.0812747652 -1.8464064747
| 20> H -3.1033585433 0.5222060437 -1.2436956127
| 21> H -0.2860316008 -0.4869827351 -1.5495416728
| 22> H -0.5781844599 1.0698050145 -0.7546420437
| 23> H 2.5319511432 -0.9090391948 1.5796606285
| 24> H 2.9733426094 0.8075786726 1.6134367323
| 25> H 3.7844927705 -0.2618394332 0.4738606415
| 26> *
| 27>
| 28>                          ****END OF INPUT****

CARTESIAN COORDINATES (ANGSTROEM)
---------------------------------
  C     -2.106514    0.192847    1.324982
  C     -1.765105   -0.573267    0.049456
  C     -2.914133   -0.508280   -0.952832
  C     -0.496262   -0.009569   -0.586390
  O      0.609711   -0.256373    0.291670
  C      1.788834    0.250612   -0.043804
  O      1.967416    0.899066   -1.055566
  C      2.842139   -0.063719    0.975240
  H     -2.976323   -0.245661    1.805970
  H     -2.325608    1.232863    1.093520
  H     -1.270796    0.159250    2.018860
  H     -1.567522   -1.618238    0.307262
  H     -3.818478   -0.913419   -0.508276
  H     -2.680735   -1.081275   -1.846406
  H     -3.103359    0.522206   -1.243696
  H     -0.286032   -0.486983   -1.549542
  H     -0.578184    1.069805   -0.754642
  H      2.531951   -0.909039    1.579661
  H      2.973343    0.807579    1.613437
  H      3.784493   -0.261839    0.473861

 Total Charge           Charge          ....    0
 Multiplicity           Mult            ....    1
 Number of Electrons    NEL             ....   64
 Basis Dimension        Dim             ....  222

ORBITAL ENERGIES
----------------

  NO   OCC          E(Eh)            E(eV)
   0   2.0000     -18.998060      -516.9635
   1   2.0000     -18.926728      -515.0225
   2   2.0000     -10.154652      -276.3221
   3   2.0000     -10.086933      -274.4794
   4   2.0000     -10.045564      -273.3537
   5   2.0000     -10.039299      -273.1832
   6   2.0000     -10.026640      -272.8387
   7   2.0000     -10.020873      -272.6818
   8   2.0000      -1.073186       -29.2029
   9   2.0000      -0.974208       -26.5095
  10   2.0000      -0.786388       -21.3987
  11   2.0000      -0.727838       -19.8055
  12   2.0000      -0.662171       -18.0186
  13   2.0000      -0.659185       -17.9373
  14   2.0000      -0.551207       -14.9991
  15   2.0000      -0.534882       -14.5549
  16   2.0000      -0.466725       -12.7002
  17   2.0000      -0.455386       -12.3917
  18   2.0000      -0.443662       -12.0727
  19   2.0000      -0.426113       -11.5951
  20   2.0000      -0.402920       -10.9640
  21   2.0000      -0.398280       -10.8378
  22   2.0000      -0.380185       -10.3454
  23   2.0000      -0.369240       -10.0475
  24   2.0000      -0.359780        -9.7901
  25   2.0000      -0.338246        -9.2041
  26   2.0000      -0.333167        -9.0659
  27   2.0000      -0.315980        -8.5982
  28   2.0000      -0.307348        -8.3634
  29   2.0000      -0.300745        -8.1837
  30   2.0000      -0.271548        -7.3892
  31   2.0000      -0.235021        -6.3952
  32   0.0000      -0.013891        -0.3780
  33   0.0000       0.070140         1.9086
  34   0.0000       0.080123         2.1803
  35   0.0000       0.118167         3.2155
  36   0.0000       0.124425         3.3858

MULLIKEN ATOMIC CHARGES
-----------------------
   0 C :   -0.494453
   1 C :    0.013162
   2 C :   -0.482172
   3 C :   -0.223587
   4 O :   -0.163999
   5 C :    0.409198
   6 O :   -0.419991
   7 C :   -0.527686
   8 H :    0.148902
   9 H :    0.147028
  10 H :    0.161692
  11 H :    0.144240
  12 H :    0.152237
  13 H :    0.148017
  14 H :    0.149172
  15 H :    0.152136
  16 H :    0.167958
  17 H :    0.169544
  18 H :    0.174324
  19 H :    0.174276
Sum of atomic charges:    0.0000000

LOEWDIN ATOMIC CHARGES
----------------------
   0 C :   -0.408601
   1 C :   -0.219425
   2 C :   -0.409334
   3 C :    0.046183
   4 O :   -0.605590
   5 C :    0.352408
   6 O :   -0.427942
   7 C :   -0.337023
   8 H :    0.154139
   9 H :    0.155107
  10 H :    0.163154
  11 H :    0.164485
  12 H :    0.157215
  13 H :    0.155430
  14 H :    0.156380
  15 H :    0.184020
  16 H :    0.186797
  17 H :    0.173922
  18 H :    0.181255
  19 H :    0.177422

  Mayer bond orders larger than 0.100000
B(  0-C ,  1-C ) :   0.9204 B(  0-C ,  8-H ) :   0.9741 B(  0-C ,  9-H ) :   0.9810
B(  0-C , 10-H ) :   0.9696 B(  1-C ,  2-C ) :   0.9052 B(  1-C ,  3-C ) :   0.9242
B(  1-C , 11-H ) :   0.9464 B(  2-C , 12-H ) :   0.9715 B(  2-C , 13-H ) :   0.9728
B(  2-C , 14-H ) :   0.9798 B(  3-C ,  4-O ) :   0.8174 B(  3-C , 15-H ) :   0.9517
B(  3-C , 16-H ) :   0.9655 B(  4-O ,  5-C ) :   1.0599 B(  5-C ,  6-O ) :   1.8213
B(  5-C ,  7-C ) :   0.9386 B(  7-C , 17-H ) :   0.9837 B(  7-C , 18-H ) :   0.9389
B(  7-C , 19-H ) :   0.9719

Dispersion correction           -0.005085318
FINAL SINGLE POINT ENERGY      -386.238450522813

DIPOLE MOMENT
-------------

Method             : SCF
Type of density    : Electron Density
Multiplicity       :   1
Irrep              :   0
Energy             :  -386.2452322723374323 Eh
Relativity type    :
Basis              : AO
                                X                 Y                 Z
Electronic contribution:      8.219224696       1.137613496      -2.179339319
Nuclear contribution   :     -8.702918284      -1.608573086       2.793799111
                        -----------------------------------------
Total Dipole Moment    :     -0.483693587      -0.470959589       0.614459793
                        -----------------------------------------
Magnitude (a.u.)       :      0.912865411
Magnitude (Debye)      :      2.320319475

Rotational constants in cm-1:             0.149163             0.033013             0.029223
Rotational constants in MHz :          4471.791213           989.690174           876.086879

                             ****ORCA TERMINATED NORMALLY****
TOTAL RUN TIME: 0 days 0 hours 0 minutes 32 seconds 400 msec
