                         Program Version 6.0.0  -   RELEASE  -
|  1> ! r2scan-3c def2/J RI DEFGRID2 scfconv6 printgap
|  2> %output
|  3>     printlevel normal
|  4> end
|  5> %cpcm
|  6>     smd true
|  7>     smdsolvent "water"
|  8> end
|  9> * xyz 0 1
| 10> C -2.1065140036 0.1928473163 1.3249815168
| 11> C -1.7651048348 -0.5732667402 0.0494556262
| 12> C -2.9141326428 -0.5082800583 -0.9528317626
| 13> C -0.4962616014 -0.0095688049 -0.586390493
| 14> O 0.6097113227 -0.2563731437 0.2916700513
| 15> C 1.7888339482 0.2506122462 -0.0438039002
| 16> O 1.9674162046 0.8990664319 -1.0555656552
| 17> C 2.842139313 -0.0637194842 0.9752397404
| 18> H -2.9763225799 -0.2456608671 1.8059702874
| 19> H -2.3256080489 1.2328634773 1.0935197414
| 20> H -1.2707956453 0.1592500906 2.0188603111
| 21> H -1.567521675 -1.6182375704 0.3072619631
| 22> H -3.818477721 -0.9134187703 -0.5082761306
| 23> H -2.680734848 -1.0812747652 -1.8464064747
| 24> H -3.1033585433 0.5222060437 -1.2436956127
| 25> H -0.2860316008 -0.4869827351 -1.5495416728
| 26> H -0.5781844599 1.0698050145 -0.7546420437
| 27> H 2.5319511432 -0.9090391948 1.5796606285
| 28> H 2.9733426094 0.8075786726 1.6134367323
| 29> H 3.7844927705 -0.2618394332 0.4738606415
| 30> *
| 31>
| 32>                          ****END OF INPUT****

CARTESIAN COORDINATES (ANGSTROEM)
---------------------------------
  C     -2.106514    0.192847    1.324982
  C     -1.765105   -0.573267    0.049456
  C     -2.914133   -0.508280   -0.952832
  C     -0.496262   -0.009569   -0.586390
  O      0.609711   -0.256373    0.291670
  C      1.788834    0.250612   -0.043804
  O      1.967416    0.899066   -1.055566
  C      2.842139   -0.063719    0.975240
  H     -2.976323   -0.245661    1.805970
  H     -2.325608    1.232863    1.093520
  H     -1.270796    0.159250    2.018860
  H     -1.567522   -1.618238    0.307262
  H     -3.818478   -0.913419   -0.508276
  H     -2.680735   -1.081275   -1.846406
  H     -3.103359    0.522206   -1.243696
  H     -0.286032   -0.486983   -1.549542
  H     -0.578184    1.069805   -0.754642
  H      2.531951   -0.909039    1.579661
  H      2.973343    0.807579    1.613437
  H      3.784493   -0.261839    0.473861

 Total Charge           Charge          ....    0
 Multiplicity           Mult            ....    1
 Number of Electrons    NEL             ....   64
 Basis Dimension        Dim             ....  222

ORBITAL ENERGIES
----------------

  NO   OCC          E(Eh)            E(eV)
   0   2.0000     -19.003326      -517.1068
   1   2.0000     -18.943176      -515.4700
   2   2.0000     -10.165268      -276.6110
   3   2.0000     -10.079642      -274.2810
   4   2.0000     -10.034682      -273.0576
   5   2.0000     -10.030386      -272.9407
   6   2.0000     -10.012159      -272.4447
   7   2.0000     -10.009388      -272.3693
   8   2.0000      -1.080274       -29.3957
   9   2.0000      -0.988439       -26.8968
  10   2.0000      -0.777192       -21.1485
  11   2.0000      -0.722595       -19.6628
  12   2.0000      -0.655164       -17.8279
  13   2.0000      -0.647244       -17.6124
  14   2.0000      -0.544851       -14.8261
  15   2.0000      -0.530007       -14.4222
  16   2.0000      -0.464440       -12.6381
  17   2.0000      -0.462390       -12.5823
  18   2.0000      -0.448156       -12.1949
  19   2.0000      -0.419786       -11.4230
  20   2.0000      -0.398114       -10.8332
  21   2.0000      -0.389213       -10.5910
  22   2.0000      -0.373585       -10.1658
  23   2.0000      -0.359755        -9.7894
  24   2.0000      -0.348046        -9.4708
  25   2.0000      -0.335517        -9.1299
  26   2.0000      -0.334139        -9.0924
  27   2.0000      -0.305428        -8.3111
  28   2.0000      -0.300342        -8.1727
  29   2.0000      -0.291997        -7.9456
  30   2.0000      -0.276663        -7.5284
  31   2.0000      -0.252760        -6.8780
  32   0.0000      -0.021586        -0.5874
  33   0.0000       0.074914         2.0385
  34   0.0000       0.092356         2.5131
  35   0.0000       0.123919         3.3720
  36   0.0000       0.133743         3.6393

MULLIKEN ATOMIC CHARGES
-----------------------
   0 C :   -0.533758
   1 C :    0.021796
   2 C :   -0.530071
   3 C :   -0.237765
   4 O :   -0.177256
   5 C :    0.462001
   6 O :   -0.511195
   7 C :   -0.562814
   8 H :    0.164068
   9 H :    0.162694
  10 H :    0.161232
  11 H :    0.156282
  12 H :    0.165763
  13 H :    0.161116
  14 H :    0.162822
  15 H :    0.170857
  16 H :    0.179904
  17 H :    0.188569
  18 H :    0.205149
  19 H :    0.190605
Sum of atomic charges:    0.0000000

LOEWDIN ATOMIC CHARGES
----------------------
   0 C :   -0.415727
   1 C :   -0.214704
   2 C :   -0.414926
   3 C :    0.046155
   4 O :   -0.604825
   5 C :    0.364061
   6 O :   -0.493313
   7 C :   -0.334696
   8 H :    0.158364
   9 H :    0.159339
  10 H :    0.161416
  11 H :    0.167881
  12 H :    0.160767
  13 H :    0.159050
  14 H :    0.159867
  15 H :    0.189938
  16 H :    0.191019
  17 H :    0.183017
  18 H :    0.193342
  19 H :    0.183975

  Mayer bond orders larger than 0.100000
B(  0-C ,  1-C ) :   0.9121 B(  0-C ,  8-H ) :   0.9718 B(  0-C ,  9-H ) :   0.9788
B(  0-C , 10-H ) :   0.9682 B(  1-C ,  2-C ) :   0.8978 B(  1-C ,  3-C ) :   0.9370
B(  1-C , 11-H ) :   0.9489 B(  2-C , 12-H ) :   0.9686 B(  2-C , 13-H ) :   0.9698
B(  2-C , 14-H ) :   0.9787 B(  3-C ,  4-O ) :   0.8024 B(  3-C , 15-H ) :   0.9422
B(  3-C , 16-H ) :   0.9570 B(  4-O ,  5-C ) :   1.0912 B(  5-C ,  6-O ) :   1.7457
B(  5-C ,  7-C ) :   0.9392 B(  7-C , 17-H ) :   0.9727 B(  7-C , 18-H ) :   0.9263
B(  7-C , 19-H ) :   0.9634

Dispersion correction           -0.005085318
FINAL SINGLE POINT ENERGY      -386.243823199807

DIPOLE MOMENT
-------------

Method             : SCF
Type of density    : Electron Density
Multiplicity       :   1
Irrep              :   0
Energy             :  -386.2506049493310343 Eh
Relativity type    :
Basis              : AO
                                X                 Y                 Z
Electronic contribution:      8.072822445       0.967260069      -1.944210379
Nuclear contribution   :     -8.702918284      -1.608573086       2.793799111
                        -----------------------------------------
Total Dipole Moment    :     -0.630095839      -0.641313016       0.849588732
                        -----------------------------------------
Magnitude (a.u.)       :      1.236973793
Magnitude (Debye)      :      3.144137513

Rotational constants in cm-1:             0.149163             0.033013             0.029223
Rotational constants in MHz :          4471.791213           989.690174           876.086879

                             ****ORCA TERMINATED NORMALLY****
TOTAL RUN TIME: 0 days 0 hours 0 minutes 38 seconds 286 msec
