                         Program Version 6.0.0  -   RELEASE  -
|  1> ! pbe def2-sv(p) def2/J RI DEFGRID1 loosescf d4 GCP(DFT/SV(P)) printgap
|  2> %output
|  3>     printlevel normal
|  4> end
|  5> * xyz 0 1
|  6> C -2.7695827951 0.0108079657 -0.3301580728
|  7> C -2.1034604061 -1.1909391913 -0.1600791452
|  8> C -0.7665490739 -1.1988305119 0.1972393171
|  9> C -0.0776655099 -0.0080515096 0.3915799154
| 10> C -0.754575135 1.1924330143 0.2158048517
| 11> C -2.091465599 1.203228059 -0.1408231942
| 12> C 1.3824769194 -0.0186424358 0.7399739385
| 13> C 2.230567662 -0.0159901199 -0.541293267
| 14> O 3.6144269767 0.0679054722 -0.2865903418
| 15> H -3.8128928359 0.0182961869 -0.6075732557
| 16> H -2.6268621972 -2.1242723996 -0.3052515587
| 17> H -0.2532258832 -2.1400913361 0.3310773869
| 18> H -0.2294746921 2.1250371944 0.3634225751
| 19> H -2.6056902307 2.1438964996 -0.270680942
| 20> H 1.6411857988 0.8645338567 1.3265057996
| 21> H 1.6207868127 -0.9088020059 1.3257691942
| 22> H 2.0019472233 -0.9095580684 -1.1381824239
| 23> H 1.9902352775 0.8650427392 -1.1416931534
| 24> H 3.8900608472 -0.7023575205 0.2299576079
| 25> *
| 26>
| 27>                          ****END OF INPUT****

CARTESIAN COORDINATES (ANGSTROEM)
---------------------------------
  C     -2.769583    0.010808   -0.330158
  C     -2.103460   -1.190939   -0.160079
  C     -0.766549   -1.198831    0.197239
  C     -0.077666   -0.008052    0.391580
  C     -0.754575    1.192433    0.215805
  C     -2.091466    1.203228   -0.140823
  C      1.382477   -0.018642    0.739974
  C      2.230568   -0.015990   -0.541293
  O      3.614427    0.067905   -0.286590
  H     -3.812893    0.018296   -0.607573
  H     -2.626862   -2.124272   -0.305252
  H     -0.253226   -2.140091    0.331077
  H     -0.229475    2.125037    0.363423
  H     -2.605690    2.143896   -0.270681
  H      1.641186    0.864534    1.326506
  H      1.620787   -0.908802    1.325769
  H      2.001947   -0.909558   -1.138182
  H      1.990235    0.865043   -1.141693
  H      3.890061   -0.702358    0.229958

 Total Charge           Charge          ....    0
 Multiplicity           Mult            ....    1
 Number of Electrons    NEL             ....   66
 Basis Dimension        Dim             ....  146

ORBITAL ENERGIES
----------------

  NO   OCC          E(Eh)            E(eV)
   0   2.0000     -18.742739      -510.0159
   1   2.0000      -9.932972      -270.2899
   2   2.0000      -9.904568      -269.5170
   3   2.0000      -9.892574      -269.1906
   4   2.0000      -9.892211      -269.1807
   5   2.0000      -9.892067      -269.1768
   6   2.0000      -9.891684      -269.1664
   7   2.0000      -9.891635      -269.1651
   8   2.0000      -9.890476      -269.1335
   9   2.0000      -0.919591       -25.0233
  10   2.0000      -0.780296       -21.2329
  11   2.0000      -0.709359       -19.3026
  12   2.0000      -0.670518       -18.2457
  13   2.0000      -0.640763       -17.4360
  14   2.0000      -0.569279       -15.4909
  15   2.0000      -0.544897       -14.8274
  16   2.0000      -0.521455       -14.1895
  17   2.0000      -0.464866       -12.6497
  18   2.0000      -0.456362       -12.4182
  19   2.0000      -0.423490       -11.5238
  20   2.0000      -0.404861       -11.0168
  21   2.0000      -0.390115       -10.6156
  22   2.0000      -0.377779       -10.2799
  23   2.0000      -0.374748       -10.1974
  24   2.0000      -0.353112        -9.6087
  25   2.0000      -0.331665        -9.0251
  26   2.0000      -0.324716        -8.8360
  27   2.0000      -0.303665        -8.2632
  28   2.0000      -0.297518        -8.0959
  29   2.0000      -0.274402        -7.4669
  30   2.0000      -0.231137        -6.2896
  31   2.0000      -0.228430        -6.2159
  32   2.0000      -0.209841        -5.7101
  33   0.0000      -0.035384        -0.9629
  34   0.0000      -0.034597        -0.9414
  35   0.0000       0.027232         0.7410
  36   0.0000       0.040811         1.1105
  37   0.0000       0.066240         1.8025

MULLIKEN ATOMIC CHARGES
-----------------------
   0 C :   -0.048836
   1 C :   -0.047247
   2 C :   -0.115420
   3 C :    0.059019
   4 C :   -0.114393
   5 C :   -0.047176
   6 C :   -0.129637
   7 C :    0.014050
   8 O :   -0.429422
   9 H :    0.052946
  10 H :    0.050968
  11 H :    0.036104
  12 H :    0.041779
  13 H :    0.051900
  14 H :    0.090240
  15 H :    0.074736
  16 H :    0.074804
  17 H :    0.090880
  18 H :    0.294703
Sum of atomic charges:    0.0000000

LOEWDIN ATOMIC CHARGES
----------------------
   0 C :   -0.127614
   1 C :   -0.120682
   2 C :   -0.125167
   3 C :   -0.039381
   4 C :   -0.122664
   5 C :   -0.120206
   6 C :   -0.233632
   7 C :   -0.118219
   8 O :   -0.339146
   9 H :    0.123190
  10 H :    0.123190
  11 H :    0.119477
  12 H :    0.122276
  13 H :    0.123647
  14 H :    0.125625
  15 H :    0.116161
  16 H :    0.096400
  17 H :    0.115348
  18 H :    0.281398

  Mayer bond orders larger than 0.100000
B(  0-C ,  1-C ) :   1.3820 B(  0-C ,  5-C ) :   1.3798 B(  0-C ,  9-H ) :   0.9651
B(  1-C ,  2-C ) :   1.3758 B(  1-C , 10-H ) :   0.9636 B(  2-C ,  3-C ) :   1.3885
B(  2-C , 11-H ) :   0.9618 B(  3-C ,  4-C ) :   1.3941 B(  3-C ,  6-C ) :   1.0367
B(  4-C ,  5-C ) :   1.3756 B(  4-C , 12-H ) :   0.9617 B(  5-C , 13-H ) :   0.9638
B(  6-C ,  7-C ) :   1.0979 B(  6-C , 14-H ) :   0.8973 B(  6-C , 15-H ) :   0.9022
B(  7-C ,  8-O ) :   1.0695 B(  7-C , 16-H ) :   0.9271 B(  7-C , 17-H ) :   0.9277
B(  8-O , 18-H ) :   0.8549

Dispersion correction           -0.018418478
FINAL SINGLE POINT ENERGY      -385.219351469586

DIPOLE MOMENT
-------------

Method             : SCF
Type of density    : Electron Density
Multiplicity       :   1
Irrep              :   0
Energy             :  -385.2813959440278495 Eh
Relativity type    :
Basis              : AO
                                X                 Y                 Z
Electronic contribution:     -1.780102568       0.261675146       0.124194964
Nuclear contribution   :      1.569712483      -0.719765076       0.102095292
                        -----------------------------------------
Total Dipole Moment    :     -0.210390085      -0.458089930       0.226290255
                        -----------------------------------------
Magnitude (a.u.)       :      0.552555564
Magnitude (Debye)      :      1.404484629

Rotational constants in cm-1:             0.147866             0.028872             0.025871
Rotational constants in MHz :          4432.924390           865.572881           775.595517

                             ****ORCA TERMINATED NORMALLY****
TOTAL RUN TIME: 0 days 0 hours 0 minutes 7 seconds 977 msec
