                         Program Version 6.0.0  -   RELEASE  -
|  1> ! r2scan-3c def2/J RI DEFGRID2 scfconv6 printgap
|  2> %output
|  3>     printlevel normal
|  4> end
|  5> %cpcm
|  6>     smd true
|  7>     smdsolvent "water"
|  8> end
|  9> * xyz 0 1
| 10> C 2.3532542282 -0.1490424051 -0.6984309382
| 11> C 1.5279121363 -0.6609632997 0.4771946697
| 12> C 0.324559862 0.2219594134 0.8043113029
| 13> C -0.7800980046 0.2434618829 -0.2576176876
| 14> H -0.3381043134 0.4752732204 -1.2392797839
| 15> C -1.5327393164 -1.0825211913 -0.3435659074
| 16> O -1.6534167535 1.3055824823 0.1070430847
| 17> H 3.2445812831 -0.7589114576 -0.8240946476
| 18> H 2.6614485503 0.8794372917 -0.5253253827
| 19> H 1.7849279511 -0.1861490305 -1.6239546191
| 20> H 1.1969743859 -1.6805081236 0.274395151
| 21> H 2.1652225439 -0.6949704524 1.3631737573
| 22> H -0.1245563655 -0.1047211906 1.7445534608
| 23> H 0.6576893372 1.2529542981 0.9434174785
| 24> H -0.8531913292 -1.8840958025 -0.6147545097
| 25> H -1.986706582 -1.3116088172 0.6178589029
| 26> H -2.315630772 -1.028200849 -1.0970743188
| 27> H -2.4036107736 1.3233036624 -0.5023198026
| 28> *
| 29>
| 30>                          ****END OF INPUT****

CARTESIAN COORDINATES (ANGSTROEM)
---------------------------------
  C      2.353254   -0.149042   -0.698431
  C      1.527912   -0.660963    0.477195
  C      0.324560    0.221959    0.804311
  C     -0.780098    0.243462   -0.257618
  H     -0.338104    0.475273   -1.239280
  C     -1.532739   -1.082521   -0.343566
  O     -1.653417    1.305582    0.107043
  H      3.244581   -0.758911   -0.824095
  H      2.661449    0.879437   -0.525325
  H      1.784928   -0.186149   -1.623955
  H      1.196974   -1.680508    0.274395
  H      2.165223   -0.694970    1.363174
  H     -0.124556   -0.104721    1.744553
  H      0.657689    1.252954    0.943417
  H     -0.853191   -1.884096   -0.614755
  H     -1.986707   -1.311609    0.617859
  H     -2.315631   -1.028201   -1.097074
  H     -2.403611    1.323304   -0.502320

 Total Charge           Charge          ....    0
 Multiplicity           Mult            ....    1
 Number of Electrons    NEL             ....   50
 Basis Dimension        Dim             ....  179

ORBITAL ENERGIES
----------------

  NO   OCC          E(Eh)            E(eV)
   0   2.0000     -18.947342      -515.5834
   1   2.0000     -10.074136      -274.1312
   2   2.0000     -10.018691      -272.6224
   3   2.0000     -10.015741      -272.5422
   4   2.0000     -10.009414      -272.3700
   5   2.0000     -10.007630      -272.3214
   6   2.0000      -0.983448       -26.7610
   7   2.0000      -0.758617       -20.6430
   8   2.0000      -0.701314       -19.0837
   9   2.0000      -0.643910       -17.5217
  10   2.0000      -0.580849       -15.8057
  11   2.0000      -0.518854       -14.1187
  12   2.0000      -0.471878       -12.8405
  13   2.0000      -0.431579       -11.7439
  14   2.0000      -0.413681       -11.2568
  15   2.0000      -0.382870       -10.4184
  16   2.0000      -0.377812       -10.2808
  17   2.0000      -0.356650        -9.7050
  18   2.0000      -0.339653        -9.2424
  19   2.0000      -0.323702        -8.8084
  20   2.0000      -0.313313        -8.5257
  21   2.0000      -0.297359        -8.0916
  22   2.0000      -0.293360        -7.9827
  23   2.0000      -0.272605        -7.4180
  24   2.0000      -0.237563        -6.4644
  25   0.0000       0.081466         2.2168
  26   0.0000       0.095924         2.6102
  27   0.0000       0.124972         3.4007
  28   0.0000       0.128923         3.5082
  29   0.0000       0.139044         3.7836

MULLIKEN ATOMIC CHARGES
-----------------------
   0 C :   -0.516102
   1 C :   -0.275922
   2 C :   -0.251523
   3 C :    0.052487
   4 H :    0.140442
   5 C :   -0.543883
   6 O :   -0.513742
   7 H :    0.156361
   8 H :    0.155675
   9 H :    0.158316
  10 H :    0.149872
  11 H :    0.151456
  12 H :    0.151351
  13 H :    0.153706
  14 H :    0.166069
  15 H :    0.164904
  16 H :    0.161258
  17 H :    0.339276
Sum of atomic charges:   -0.0000000

LOEWDIN ATOMIC CHARGES
----------------------
   0 C :   -0.434291
   1 C :   -0.313133
   2 C :   -0.280717
   3 C :    0.049396
   4 H :    0.167262
   5 C :   -0.405043
   6 O :   -0.657403
   7 H :    0.153046
   8 H :    0.153402
   9 H :    0.151395
  10 H :    0.155822
  11 H :    0.156591
  12 H :    0.164446
  13 H :    0.167603
  14 H :    0.164058
  15 H :    0.161918
  16 H :    0.159878
  17 H :    0.285771

  Mayer bond orders larger than 0.100000
B(  0-C ,  1-C ) :   0.8879 B(  0-C ,  7-H ) :   0.9687 B(  0-C ,  8-H ) :   0.9780
B(  0-C ,  9-H ) :   0.9776 B(  1-C ,  2-C ) :   0.8965 B(  1-C , 10-H ) :   0.9847
B(  1-C , 11-H ) :   0.9621 B(  2-C ,  3-C ) :   0.9144 B(  2-C , 12-H ) :   0.9632
B(  2-C , 13-H ) :   0.9698 B(  3-C ,  4-H ) :   0.9620 B(  3-C ,  5-C ) :   0.9145
B(  3-C ,  6-O ) :   0.8658 B(  5-C , 14-H ) :   0.9654 B(  5-C , 15-H ) :   0.9775
B(  5-C , 16-H ) :   0.9629 B(  6-O , 17-H ) :   0.8770

Dispersion correction           -0.004303109
FINAL SINGLE POINT ENERGY      -272.908187431997

DIPOLE MOMENT
-------------

Method             : SCF
Type of density    : Electron Density
Multiplicity       :   1
Irrep              :   0
Energy             :  -272.9135031654054728 Eh
Relativity type    :
Basis              : AO
                                X                 Y                 Z
Electronic contribution:     -3.497087608       2.862799553       0.755972120
Nuclear contribution   :      3.436389373      -3.468901989      -1.390087405
                        -----------------------------------------
Total Dipole Moment    :     -0.060698234      -0.606102436      -0.634115286
                        -----------------------------------------
Magnitude (a.u.)       :      0.879287572
Magnitude (Debye)      :      2.234971392

Rotational constants in cm-1:             0.190513             0.065830             0.059619
Rotational constants in MHz :          5711.431597          1973.537651          1787.324420

                             ****ORCA TERMINATED NORMALLY****
TOTAL RUN TIME: 0 days 0 hours 0 minutes 25 seconds 951 msec
