                         Program Version 6.0.0  -   RELEASE  -
|  1> ! pbe def2-sv(p) def2/J RI DEFGRID1 loosescf d4 GCP(DFT/SV(P)) printgap
|  2> %output
|  3>     printlevel normal
|  4> end
|  5> * xyz 0 1
|  6> C -3.2239525231 1.0300173091 0.0591282448
|  7> C -2.1787759625 -0.0024131022 -0.3631429634
|  8> C -2.6028191916 -1.3906340418 0.1117515923
|  9> C -0.8037390114 0.3960727432 0.1875978236
| 10> C 0.3332104508 -0.4646896958 -0.3616352174
| 11> C 1.7566820392 0.0040104404 -0.0045051447
| 12> C 2.7430957842 -1.03242102 -0.556257239
| 13> C 2.0672585468 1.360612832 -0.6421332772
| 14> C 1.9368944969 0.0983456469 1.5124343564
| 15> H -3.2991997886 1.0685113105 1.1438353348
| 16> H -4.2008560365 0.7722266427 -0.3432917299
| 17> H -2.9555321641 2.0203167399 -0.3017815961
| 18> H -2.1244283312 -0.0105965153 -1.4581157386
| 19> H -3.6032765752 -1.6219227602 -0.2471224027
| 20> H -1.9265258101 -2.1558590836 -0.2588300198
| 21> H -2.6109232648 -1.431244702 1.1990040578
| 22> H -0.625281876 1.4397376908 -0.0762916615
| 23> H -0.8307408456 0.3249536523 1.2762002782
| 24> H 0.2484207328 -0.4984465453 -1.4512468445
| 25> H 0.2149003114 -1.4852206794 0.0077819967
| 26> H 2.6325474652 -1.130092917 -1.6339871858
| 27> H 3.7676122864 -0.7358322648 -0.3432015007
| 28> H 2.5687185714 -2.0064794075 -0.1045537946
| 29> H 1.4419813962 2.1448193858 -0.2238701905
| 30> H 3.1059819205 1.6289148269 -0.4624939969
| 31> H 1.9038322252 1.3242297786 -1.7168752008
| 32> H 1.3269002391 0.8955231882 1.9284440783
| 33> H 2.976755172 0.3079575582 1.7535677551
| 34> H 1.6571747406 -0.838400605 1.9892508971
| 35> *
| 36>
| 37>                          ****END OF INPUT****

CARTESIAN COORDINATES (ANGSTROEM)
---------------------------------
  C     -3.223953    1.030017    0.059128
  C     -2.178776   -0.002413   -0.363143
  C     -2.602819   -1.390634    0.111752
  C     -0.803739    0.396073    0.187598
  C      0.333210   -0.464690   -0.361635
  C      1.756682    0.004010   -0.004505
  C      2.743096   -1.032421   -0.556257
  C      2.067259    1.360613   -0.642133
  C      1.936894    0.098346    1.512434
  H     -3.299200    1.068511    1.143835
  H     -4.200856    0.772227   -0.343292
  H     -2.955532    2.020317   -0.301782
  H     -2.124428   -0.010597   -1.458116
  H     -3.603277   -1.621923   -0.247122
  H     -1.926526   -2.155859   -0.258830
  H     -2.610923   -1.431245    1.199004
  H     -0.625282    1.439738   -0.076292
  H     -0.830741    0.324954    1.276200
  H      0.248421   -0.498447   -1.451247
  H      0.214900   -1.485221    0.007782
  H      2.632547   -1.130093   -1.633987
  H      3.767612   -0.735832   -0.343202
  H      2.568719   -2.006479   -0.104554
  H      1.441981    2.144819   -0.223870
  H      3.105982    1.628915   -0.462494
  H      1.903832    1.324230   -1.716875
  H      1.326900    0.895523    1.928444
  H      2.976755    0.307958    1.753568
  H      1.657175   -0.838401    1.989251

 Total Charge           Charge          ....    0
 Multiplicity           Mult            ....    1
 Number of Electrons    NEL             ....   74
 Basis Dimension        Dim             ....  166

ORBITAL ENERGIES
----------------

  NO   OCC          E(Eh)            E(eV)
   0   2.0000      -9.901522      -269.4341
   1   2.0000      -9.889664      -269.1114
   2   2.0000      -9.876121      -268.7429
   3   2.0000      -9.875681      -268.7309
   4   2.0000      -9.868140      -268.5257
   5   2.0000      -9.867862      -268.5182
   6   2.0000      -9.867817      -268.5169
   7   2.0000      -9.867518      -268.5088
   8   2.0000      -9.867018      -268.4952
   9   2.0000      -0.747763       -20.3477
  10   2.0000      -0.719897       -19.5894
  11   2.0000      -0.643440       -17.5089
  12   2.0000      -0.609471       -16.5845
  13   2.0000      -0.609212       -16.5775
  14   2.0000      -0.606065       -16.4919
  15   2.0000      -0.556731       -15.1494
  16   2.0000      -0.493364       -13.4251
  17   2.0000      -0.466042       -12.6816
  18   2.0000      -0.421740       -11.4761
  19   2.0000      -0.408279       -11.1098
  20   2.0000      -0.401198       -10.9171
  21   2.0000      -0.390114       -10.6155
  22   2.0000      -0.375359       -10.2140
  23   2.0000      -0.372350       -10.1322
  24   2.0000      -0.354741        -9.6530
  25   2.0000      -0.340920        -9.2769
  26   2.0000      -0.335357        -9.1255
  27   2.0000      -0.328426        -8.9369
  28   2.0000      -0.317039        -8.6271
  29   2.0000      -0.311486        -8.4760
  30   2.0000      -0.302216        -8.2237
  31   2.0000      -0.296979        -8.0812
  32   2.0000      -0.286348        -7.7919
  33   2.0000      -0.280108        -7.6221
  34   2.0000      -0.272619        -7.4184
  35   2.0000      -0.264224        -7.1899
  36   2.0000      -0.256835        -6.9888
  37   0.0000       0.028723         0.7816
  38   0.0000       0.046029         1.2525
  39   0.0000       0.060221         1.6387
  40   0.0000       0.065662         1.7867
  41   0.0000       0.083750         2.2790

MULLIKEN ATOMIC CHARGES
-----------------------
   0 C :   -0.228538
   1 C :   -0.172726
   2 C :   -0.254316
   3 C :   -0.143674
   4 C :   -0.110448
   5 C :   -0.236783
   6 C :   -0.200566
   7 C :   -0.222428
   8 C :   -0.222329
   9 H :    0.089323
  10 H :    0.095655
  11 H :    0.095474
  12 H :    0.067734
  13 H :    0.096579
  14 H :    0.108227
  15 H :    0.090245
  16 H :    0.077508
  17 H :    0.077698
  18 H :    0.068278
  19 H :    0.078377
  20 H :    0.090108
  21 H :    0.091443
  22 H :    0.090454
  23 H :    0.104498
  24 H :    0.091668
  25 H :    0.090835
  26 H :    0.104317
  27 H :    0.091639
  28 H :    0.091748
Sum of atomic charges:   -0.0000000

LOEWDIN ATOMIC CHARGES
----------------------
   0 C :   -0.328672
   1 C :   -0.155134
   2 C :   -0.330998
   3 C :   -0.219608
   4 C :   -0.207281
   5 C :   -0.105902
   6 C :   -0.315365
   7 C :   -0.317723
   8 C :   -0.317697
   9 H :    0.115487
  10 H :    0.115544
  11 H :    0.115160
  12 H :    0.111985
  13 H :    0.117147
  14 H :    0.116753
  15 H :    0.115927
  16 H :    0.113395
  17 H :    0.114220
  18 H :    0.111876
  19 H :    0.112764
  20 H :    0.114714
  21 H :    0.113970
  22 H :    0.114267
  23 H :    0.114873
  24 H :    0.116589
  25 H :    0.115474
  26 H :    0.116210
  27 H :    0.116292
  28 H :    0.115733

  Mayer bond orders larger than 0.100000
B(  0-C ,  1-C ) :   1.1159 B(  0-C ,  9-H ) :   0.9490 B(  0-C , 10-H ) :   0.9509
B(  0-C , 11-H ) :   0.9487 B(  1-C ,  2-C ) :   1.1060 B(  1-C ,  3-C ) :   1.0860
B(  1-C , 12-H ) :   0.9009 B(  2-C , 13-H ) :   0.9500 B(  2-C , 14-H ) :   0.9456
B(  2-C , 15-H ) :   0.9496 B(  3-C ,  4-C ) :   1.1413 B(  3-C , 16-H ) :   0.9105
B(  3-C , 17-H ) :   0.9013 B(  4-C ,  5-C ) :   1.0416 B(  4-C , 18-H ) :   0.9123
B(  4-C , 19-H ) :   0.9039 B(  5-C ,  6-C ) :   1.0804 B(  5-C ,  7-C ) :   1.0744
B(  5-C ,  8-C ) :   1.0716 B(  6-C , 20-H ) :   0.9473 B(  6-C , 21-H ) :   0.9469
B(  6-C , 22-H ) :   0.9459 B(  7-C , 23-H ) :   0.9400 B(  7-C , 24-H ) :   0.9470
B(  7-C , 25-H ) :   0.9489 B(  8-C , 26-H ) :   0.9418 B(  8-C , 27-H ) :   0.9474
B(  8-C , 28-H ) :   0.9485

Dispersion correction           -0.025769202
FINAL SINGLE POINT ENERGY      -354.089056034906

DIPOLE MOMENT
-------------

Method             : SCF
Type of density    : Electron Density
Multiplicity       :   1
Irrep              :   0
Energy             :  -354.1862218220637146 Eh
Relativity type    :
Basis              : AO
                                X                 Y                 Z
Electronic contribution:      0.310289216      -0.004906401      -0.655955281
Nuclear contribution   :     -0.311413077       0.012285504       0.634593775
                        -----------------------------------------
Total Dipole Moment    :     -0.001123861       0.007379104      -0.021361506
                        -----------------------------------------
Magnitude (a.u.)       :      0.022628040
Magnitude (Debye)      :      0.057515906

Rotational constants in cm-1:             0.094731             0.024578             0.023024
Rotational constants in MHz :          2839.950751           736.822168           690.235509

                             ****ORCA TERMINATED NORMALLY****
TOTAL RUN TIME: 0 days 0 hours 0 minutes 14 seconds 13 msec
