                         Program Version 6.0.0  -   RELEASE  -
|  1> ! pbe def2-sv(p) def2/J RI DEFGRID1 loosescf d4 GCP(DFT/SV(P)) printgap
|  2> %output
|  3>     printlevel normal
|  4> end
|  5> * xyz 0 1
|  6> C -2.998344512 0.2451730525 -0.0543773137
|  7> C -1.6286044217 -0.4135502087 0.0565022637
|  8> C -0.5112409901 0.5673473181 -0.2930756787
|  9> C 0.9040000828 0.0294259297 -0.0203587935
| 10> C 1.9323466323 1.1053549938 -0.3966586326
| 11> C 1.187689993 -1.2500621666 -0.8164125072
| 12> O 0.9704040579 -0.2352337179 1.3787688847
| 13> H -3.7834161741 -0.4670798715 0.187166209
| 14> H -3.1635345689 0.6107840007 -1.0655900811
| 15> H -3.0744933456 1.086286063 0.6309904756
| 16> H -1.4722956939 -0.7704354236 1.0759938665
| 17> H -1.5913639665 -1.2725244185 -0.6150218191
| 18> H -0.5836286208 0.8503580399 -1.3441186649
| 19> H -0.6401117486 1.4675770519 0.3119545342
| 20> H 1.7613406377 2.0039678244 0.1913337198
| 21> H 1.8475082424 1.352936758 -1.4505283237
| 22> H 2.9428321436 0.7511739932 -0.2034551176
| 23> H 2.2345620048 -1.5303562902 -0.7188594655
| 24> H 0.9678333445 -1.0928536768 -1.8680965383
| 25> H 0.5759774552 -2.0671578559 -0.4440688233
| 26> H 1.8518050637 -0.569257461 1.5915551495
| 27> *
| 28>
| 29>                          ****END OF INPUT****

CARTESIAN COORDINATES (ANGSTROEM)
---------------------------------
  C     -2.998345    0.245173   -0.054377
  C     -1.628604   -0.413550    0.056502
  C     -0.511241    0.567347   -0.293076
  C      0.904000    0.029426   -0.020359
  C      1.932347    1.105355   -0.396659
  C      1.187690   -1.250062   -0.816413
  O      0.970404   -0.235234    1.378769
  H     -3.783416   -0.467080    0.187166
  H     -3.163535    0.610784   -1.065590
  H     -3.074493    1.086286    0.630990
  H     -1.472296   -0.770435    1.075994
  H     -1.591364   -1.272524   -0.615022
  H     -0.583629    0.850358   -1.344119
  H     -0.640112    1.467577    0.311955
  H      1.761341    2.003968    0.191334
  H      1.847508    1.352937   -1.450528
  H      2.942832    0.751174   -0.203455
  H      2.234562   -1.530356   -0.718859
  H      0.967833   -1.092854   -1.868097
  H      0.575977   -2.067158   -0.444069
  H      1.851805   -0.569257    1.591555

 Total Charge           Charge          ....    0
 Multiplicity           Mult            ....    1
 Number of Electrons    NEL             ....   58
 Basis Dimension        Dim             ....  126

ORBITAL ENERGIES
----------------

  NO   OCC          E(Eh)            E(eV)
   0   2.0000     -18.736978      -509.8591
   1   2.0000      -9.944315      -270.5986
   2   2.0000      -9.876881      -268.7636
   3   2.0000      -9.873922      -268.6831
   4   2.0000      -9.872582      -268.6466
   5   2.0000      -9.871523      -268.6178
   6   2.0000      -9.866847      -268.4906
   7   2.0000      -0.915821       -24.9208
   8   2.0000      -0.719780       -19.5862
   9   2.0000      -0.678447       -18.4615
  10   2.0000      -0.616540       -16.7769
  11   2.0000      -0.604916       -16.4606
  12   2.0000      -0.527272       -14.3478
  13   2.0000      -0.502313       -13.6686
  14   2.0000      -0.436513       -11.8781
  15   2.0000      -0.410482       -11.1698
  16   2.0000      -0.399724       -10.8770
  17   2.0000      -0.385594       -10.4925
  18   2.0000      -0.364375        -9.9151
  19   2.0000      -0.353482        -9.6187
  20   2.0000      -0.346226        -9.4213
  21   2.0000      -0.332195        -9.0395
  22   2.0000      -0.321195        -8.7402
  23   2.0000      -0.310436        -8.4474
  24   2.0000      -0.293152        -7.9771
  25   2.0000      -0.283885        -7.7249
  26   2.0000      -0.277173        -7.5423
  27   2.0000      -0.259349        -7.0573
  28   2.0000      -0.210301        -5.7226
  29   0.0000       0.020226         0.5504
  30   0.0000       0.056174         1.5286
  31   0.0000       0.070280         1.9124
  32   0.0000       0.075155         2.0451
  33   0.0000       0.077377         2.1055

MULLIKEN ATOMIC CHARGES
-----------------------
   0 C :   -0.256006
   1 C :   -0.190484
   2 C :   -0.128495
   3 C :   -0.038513
   4 C :   -0.205754
   5 C :   -0.238261
   6 O :   -0.423098
   7 H :    0.099326
   8 H :    0.091171
   9 H :    0.097758
  10 H :    0.099486
  11 H :    0.083034
  12 H :    0.073998
  13 H :    0.077079
  14 H :    0.101796
  15 H :    0.090909
  16 H :    0.082195
  17 H :    0.084171
  18 H :    0.093588
  19 H :    0.114691
  20 H :    0.291409
Sum of atomic charges:   -0.0000000

LOEWDIN ATOMIC CHARGES
----------------------
   0 C :   -0.338351
   1 C :   -0.237540
   2 C :   -0.216029
   3 C :   -0.016194
   4 C :   -0.336843
   5 C :   -0.340558
   6 O :   -0.319603
   7 H :    0.117545
   8 H :    0.113934
   9 H :    0.116510
  10 H :    0.121318
  11 H :    0.112255
  12 H :    0.115406
  13 H :    0.118374
  14 H :    0.120762
  15 H :    0.120811
  16 H :    0.110590
  17 H :    0.112589
  18 H :    0.122494
  19 H :    0.122557
  20 H :    0.279972

  Mayer bond orders larger than 0.100000
B(  0-C ,  1-C ) :   1.1563 B(  0-C ,  7-H ) :   0.9534 B(  0-C ,  8-H ) :   0.9534
B(  0-C ,  9-H ) :   0.9546 B(  1-C ,  2-C ) :   1.1429 B(  1-C , 10-H ) :   0.9176
B(  1-C , 11-H ) :   0.9176 B(  2-C ,  3-C ) :   1.0416 B(  2-C , 12-H ) :   0.9155
B(  2-C , 13-H ) :   0.9097 B(  3-C ,  4-C ) :   1.0898 B(  3-C ,  5-C ) :   1.0758
B(  3-C ,  6-O ) :   1.0155 B(  4-C , 14-H ) :   0.9419 B(  4-C , 15-H ) :   0.9383
B(  4-C , 16-H ) :   0.9403 B(  5-C , 17-H ) :   0.9406 B(  5-C , 18-H ) :   0.9399
B(  5-C , 19-H ) :   0.9381 B(  6-O , 20-H ) :   0.8545

Dispersion correction           -0.016436585
FINAL SINGLE POINT ENERGY      -311.521882632106

DIPOLE MOMENT
-------------

Method             : SCF
Type of density    : Electron Density
Multiplicity       :   1
Irrep              :   0
Energy             :  -311.6012830333525017 Eh
Relativity type    :
Basis              : AO
                                X                 Y                 Z
Electronic contribution:      2.442042777      -0.449672335       3.187192303
Nuclear contribution   :     -1.981058457       0.328073522      -3.470205216
                        -----------------------------------------
Total Dipole Moment    :      0.460984320      -0.121598812      -0.283012913
                        -----------------------------------------
Magnitude (a.u.)       :      0.554426842
Magnitude (Debye)      :      1.409241039

Rotational constants in cm-1:             0.142840             0.048204             0.047245
Rotational constants in MHz :          4282.238919          1445.125833          1416.372036

                             ****ORCA TERMINATED NORMALLY****
TOTAL RUN TIME: 0 days 0 hours 0 minutes 9 seconds 185 msec
