                         Program Version 6.0.0  -   RELEASE  -
|  1> ! r2scan-3c def2/J RI DEFGRID2 scfconv6 printgap
|  2> %output
|  3>     printlevel normal
|  4> end
|  5> * xyz 0 1
|  6> C -3.3657718053 0.8148112194 0.143955903
|  7> C -2.168963616 1.5084255622 0.1437215172
|  8> C -0.9677317673 0.8296120736 0.0167663334
|  9> C -0.9541292227 -0.55115282 -0.1097314433
| 10> C -2.160677376 -1.2429324988 -0.1079328178
| 11> C -3.3587657353 -0.5651158966 0.0175058582
| 12> C 0.3295272615 -1.3407979523 -0.2600433426
| 13> N 1.5186538833 -0.5476294768 -0.1145970041
| 14> C 2.1645103593 0.1394698947 -1.1018460201
| 15> C 3.1963673966 0.7946330206 -0.4947669183
| 16> N 3.1933875443 0.531133726 0.8411142292
| 17> C 2.1749574783 -0.2679522143 1.0315263803
| 18> H -4.3000571279 1.3458515544 0.2429323622
| 19> H -2.1648474174 2.5834550586 0.2422888181
| 20> H -0.0419152182 1.3864411467 0.0196634459
| 21> H -2.1565823 -2.3184590649 -0.205617695
| 22> H -4.2885729475 -1.1132293246 0.0180989434
| 23> H 0.3505073952 -2.1346498905 0.4926405163
| 24> H 0.3458800398 -1.8084427741 -1.2498259427
| 25> H 1.8480419192 0.103802377 -2.1232324191
| 26> H 3.9399483264 1.4341881252 -0.9262149908
| 27> H 1.8879675129 -0.6678277635 1.98312059
| 28> *
| 29>
| 30>                          ****END OF INPUT****

CARTESIAN COORDINATES (ANGSTROEM)
---------------------------------
  C     -3.365772    0.814811    0.143956
  C     -2.168964    1.508426    0.143722
  C     -0.967732    0.829612    0.016766
  C     -0.954129   -0.551153   -0.109731
  C     -2.160677   -1.242932   -0.107933
  C     -3.358766   -0.565116    0.017506
  C      0.329527   -1.340798   -0.260043
  N      1.518654   -0.547629   -0.114597
  C      2.164510    0.139470   -1.101846
  C      3.196367    0.794633   -0.494767
  N      3.193388    0.531134    0.841114
  C      2.174957   -0.267952    1.031526
  H     -4.300057    1.345852    0.242932
  H     -2.164847    2.583455    0.242289
  H     -0.041915    1.386441    0.019663
  H     -2.156582   -2.318459   -0.205618
  H     -4.288573   -1.113229    0.018099
  H      0.350507   -2.134650    0.492641
  H      0.345880   -1.808443   -1.249826
  H      1.848042    0.103802   -2.123232
  H      3.939948    1.434188   -0.926215
  H      1.887968   -0.667828    1.983121

 Total Charge           Charge          ....    0
 Multiplicity           Mult            ....    1
 Number of Electrons    NEL             ....   84
 Basis Dimension        Dim             ....  288

ORBITAL ENERGIES
----------------

  NO   OCC          E(Eh)            E(eV)
   0   2.0000     -14.223382      -387.0379
   1   2.0000     -14.134656      -384.6236
   2   2.0000     -10.098439      -274.7925
   3   2.0000     -10.076449      -274.1941
   4   2.0000     -10.058788      -273.7135
   5   2.0000     -10.055108      -273.6134
   6   2.0000     -10.046051      -273.3669
   7   2.0000     -10.045435      -273.3502
   8   2.0000     -10.043705      -273.3031
   9   2.0000     -10.042360      -273.2665
  10   2.0000     -10.042273      -273.2641
  11   2.0000     -10.040042      -273.2034
  12   2.0000      -0.995540       -27.0900
  13   2.0000      -0.866984       -23.5918
  14   2.0000      -0.835411       -22.7327
  15   2.0000      -0.753263       -20.4973
  16   2.0000      -0.726697       -19.7744
  17   2.0000      -0.714679       -19.4474
  18   2.0000      -0.677563       -18.4374
  19   2.0000      -0.590165       -16.0592
  20   2.0000      -0.577631       -15.7181
  21   2.0000      -0.570349       -15.5200
  22   2.0000      -0.544906       -14.8276
  23   2.0000      -0.513383       -13.9699
  24   2.0000      -0.494274       -13.4499
  25   2.0000      -0.446067       -12.1381
  26   2.0000      -0.435588       -11.8530
  27   2.0000      -0.427259       -11.6263
  28   2.0000      -0.421119       -11.4592
  29   2.0000      -0.400160       -10.8889
  30   2.0000      -0.398445       -10.8422
  31   2.0000      -0.393394       -10.7048
  32   2.0000      -0.376234       -10.2379
  33   2.0000      -0.372421       -10.1341
  34   2.0000      -0.347370        -9.4524
  35   2.0000      -0.327859        -8.9215
  36   2.0000      -0.320843        -8.7306
  37   2.0000      -0.252590        -6.8733
  38   2.0000      -0.248082        -6.7507
  39   2.0000      -0.242768        -6.6060
  40   2.0000      -0.234808        -6.3895
  41   2.0000      -0.209862        -5.7106
  42   0.0000      -0.045317        -1.2331
  43   0.0000      -0.038998        -1.0612
  44   0.0000      -0.005188        -0.1412
  45   0.0000       0.035386         0.9629
  46   0.0000       0.069131         1.8812

MULLIKEN ATOMIC CHARGES
-----------------------
   0 C :   -0.135760
   1 C :   -0.180547
   2 C :   -0.123494
   3 C :    0.217904
   4 C :   -0.272490
   5 C :   -0.137986
   6 C :   -0.463895
   7 N :    0.230822
   8 C :   -0.177075
   9 C :   -0.133388
  10 N :   -0.191006
  11 C :   -0.141867
  12 H :    0.147594
  13 H :    0.147788
  14 H :    0.166035
  15 H :    0.142753
  16 H :    0.146310
  17 H :    0.177245
  18 H :    0.175892
  19 H :    0.137148
  20 H :    0.133953
  21 H :    0.134061
Sum of atomic charges:   -0.0000000

LOEWDIN ATOMIC CHARGES
----------------------
   0 C :   -0.165101
   1 C :   -0.154566
   2 C :   -0.139783
   3 C :   -0.066808
   4 C :   -0.161369
   5 C :   -0.156444
   6 C :    0.017844
   7 N :   -0.785789
   8 C :    0.062245
   9 C :    0.051594
  10 N :   -0.565422
  11 C :    0.223843
  12 H :    0.167983
  13 H :    0.169385
  14 H :    0.188823
  15 H :    0.169733
  16 H :    0.168271
  17 H :    0.201199
  18 H :    0.201335
  19 H :    0.189266
  20 H :    0.182131
  21 H :    0.201629

  Mayer bond orders larger than 0.100000
B(  0-C ,  1-C ) :   1.4134 B(  0-C ,  5-C ) :   1.4135 B(  0-C , 12-H ) :   0.9489
B(  1-C ,  2-C ) :   1.4021 B(  1-C , 13-H ) :   0.9510 B(  2-C ,  3-C ) :   1.4661
B(  2-C , 14-H ) :   0.9470 B(  3-C ,  4-C ) :   1.3924 B(  3-C ,  6-C ) :   0.7563
B(  4-C ,  5-C ) :   1.4289 B(  4-C , 15-H ) :   0.9401 B(  5-C , 16-H ) :   0.9471
B(  6-C ,  7-N ) :   1.0123 B(  6-C , 17-H ) :   0.9833 B(  6-C , 18-H ) :   0.9612
B(  7-N ,  8-C ) :   1.2066 B(  7-N , 11-C ) :   1.2277 B(  8-C ,  9-C ) :   1.4735
B(  8-C , 11-C ) :   0.1019 B(  8-C , 19-H ) :   0.9503 B(  9-C , 10-N ) :   1.3057
B(  9-C , 20-H ) :   0.9770 B( 10-N , 11-C ) :   1.6138 B( 11-C , 21-H ) :   0.9553

Dispersion correction           -0.008569223
FINAL SINGLE POINT ENERGY      -496.442117564810

DIPOLE MOMENT
-------------

Method             : SCF
Type of density    : Electron Density
Multiplicity       :   1
Irrep              :   0
Energy             :  -496.4466055281640138 Eh
Relativity type    :
Basis              : AO
                                X                 Y                 Z
Electronic contribution:      3.025935642       0.421504256       0.813869314
Nuclear contribution   :     -4.270609849      -1.115453802      -1.409034325
                        -----------------------------------------
Total Dipole Moment    :     -1.244674208      -0.693949546      -0.595165011
                        -----------------------------------------
Magnitude (a.u.)       :      1.544344924
Magnitude (Debye)      :      3.925412840

Rotational constants in cm-1:             0.089352             0.017914             0.016456
Rotational constants in MHz :          2678.698429           537.036001           493.336402

                             ****ORCA TERMINATED NORMALLY****
TOTAL RUN TIME: 0 days 0 hours 0 minutes 47 seconds 792 msec
