                         Program Version 6.0.0  -   RELEASE  -
|  1> ! r2scan-3c def2/J RI DEFGRID2 scfconv6 printgap
|  2> %output
|  3>     printlevel normal
|  4> end
|  5> %cpcm
|  6>     smd true
|  7>     smdsolvent "water"
|  8> end
|  9> * xyz 0 1
| 10> C -3.3657718053 0.8148112194 0.143955903
| 11> C -2.168963616 1.5084255622 0.1437215172
| 12> C -0.9677317673 0.8296120736 0.0167663334
| 13> C -0.9541292227 -0.55115282 -0.1097314433
| 14> C -2.160677376 -1.2429324988 -0.1079328178
| 15> C -3.3587657353 -0.5651158966 0.0175058582
| 16> C 0.3295272615 -1.3407979523 -0.2600433426
| 17> N 1.5186538833 -0.5476294768 -0.1145970041
| 18> C 2.1645103593 0.1394698947 -1.1018460201
| 19> C 3.1963673966 0.7946330206 -0.4947669183
| 20> N 3.1933875443 0.531133726 0.8411142292
| 21> C 2.1749574783 -0.2679522143 1.0315263803
| 22> H -4.3000571279 1.3458515544 0.2429323622
| 23> H -2.1648474174 2.5834550586 0.2422888181
| 24> H -0.0419152182 1.3864411467 0.0196634459
| 25> H -2.1565823 -2.3184590649 -0.205617695
| 26> H -4.2885729475 -1.1132293246 0.0180989434
| 27> H 0.3505073952 -2.1346498905 0.4926405163
| 28> H 0.3458800398 -1.8084427741 -1.2498259427
| 29> H 1.8480419192 0.103802377 -2.1232324191
| 30> H 3.9399483264 1.4341881252 -0.9262149908
| 31> H 1.8879675129 -0.6678277635 1.98312059
| 32> *
| 33>
| 34>                          ****END OF INPUT****

CARTESIAN COORDINATES (ANGSTROEM)
---------------------------------
  C     -3.365772    0.814811    0.143956
  C     -2.168964    1.508426    0.143722
  C     -0.967732    0.829612    0.016766
  C     -0.954129   -0.551153   -0.109731
  C     -2.160677   -1.242932   -0.107933
  C     -3.358766   -0.565116    0.017506
  C      0.329527   -1.340798   -0.260043
  N      1.518654   -0.547629   -0.114597
  C      2.164510    0.139470   -1.101846
  C      3.196367    0.794633   -0.494767
  N      3.193388    0.531134    0.841114
  C      2.174957   -0.267952    1.031526
  H     -4.300057    1.345852    0.242932
  H     -2.164847    2.583455    0.242289
  H     -0.041915    1.386441    0.019663
  H     -2.156582   -2.318459   -0.205618
  H     -4.288573   -1.113229    0.018099
  H      0.350507   -2.134650    0.492641
  H      0.345880   -1.808443   -1.249826
  H      1.848042    0.103802   -2.123232
  H      3.939948    1.434188   -0.926215
  H      1.887968   -0.667828    1.983121

 Total Charge           Charge          ....    0
 Multiplicity           Mult            ....    1
 Number of Electrons    NEL             ....   84
 Basis Dimension        Dim             ....  288

ORBITAL ENERGIES
----------------

  NO   OCC          E(Eh)            E(eV)
   0   2.0000     -14.221329      -386.9820
   1   2.0000     -14.143133      -384.8542
   2   2.0000     -10.079373      -274.2737
   3   2.0000     -10.076327      -274.1908
   4   2.0000     -10.052745      -273.5491
   5   2.0000     -10.049509      -273.4610
   6   2.0000     -10.040615      -273.2190
   7   2.0000     -10.034663      -273.0571
   8   2.0000     -10.034267      -273.0463
   9   2.0000     -10.033886      -273.0359
  10   2.0000     -10.033625      -273.0288
  11   2.0000     -10.031843      -272.9803
  12   2.0000      -0.995005       -27.0755
  13   2.0000      -0.865958       -23.5639
  14   2.0000      -0.828433       -22.5428
  15   2.0000      -0.744232       -20.2516
  16   2.0000      -0.717495       -19.5240
  17   2.0000      -0.712529       -19.3889
  18   2.0000      -0.668417       -18.1886
  19   2.0000      -0.579924       -15.7805
  20   2.0000      -0.569480       -15.4963
  21   2.0000      -0.567437       -15.4407
  22   2.0000      -0.540149       -14.6982
  23   2.0000      -0.504671       -13.7328
  24   2.0000      -0.482339       -13.1251
  25   2.0000      -0.436758       -11.8848
  26   2.0000      -0.423053       -11.5118
  27   2.0000      -0.416042       -11.3211
  28   2.0000      -0.414423       -11.2770
  29   2.0000      -0.393364       -10.7040
  30   2.0000      -0.386976       -10.5301
  31   2.0000      -0.384112       -10.4522
  32   2.0000      -0.372892       -10.1469
  33   2.0000      -0.369075       -10.0430
  34   2.0000      -0.339412        -9.2359
  35   2.0000      -0.316888        -8.6230
  36   2.0000      -0.308924        -8.4062
  37   2.0000      -0.255780        -6.9601
  38   2.0000      -0.251458        -6.8425
  39   2.0000      -0.242127        -6.5886
  40   2.0000      -0.233205        -6.3458
  41   2.0000      -0.211703        -5.7607
  42   0.0000      -0.037186        -1.0119
  43   0.0000      -0.031531        -0.8580
  44   0.0000      -0.004947        -0.1346
  45   0.0000       0.030680         0.8348
  46   0.0000       0.082606         2.2478

MULLIKEN ATOMIC CHARGES
-----------------------
   0 C :   -0.172371
   1 C :   -0.229625
   2 C :   -0.160307
   3 C :    0.196162
   4 C :   -0.289730
   5 C :   -0.177552
   6 C :   -0.441057
   7 N :    0.241099
   8 C :   -0.190273
   9 C :   -0.187857
  10 N :   -0.274639
  11 C :   -0.144241
  12 H :    0.178970
  13 H :    0.177548
  14 H :    0.183077
  15 H :    0.178043
  16 H :    0.178199
  17 H :    0.210137
  18 H :    0.209179
  19 H :    0.178892
  20 H :    0.162785
  21 H :    0.173561
Sum of atomic charges:   -0.0000000

LOEWDIN ATOMIC CHARGES
----------------------
   0 C :   -0.179759
   1 C :   -0.168491
   2 C :   -0.155996
   3 C :   -0.064464
   4 C :   -0.162430
   5 C :   -0.167418
   6 C :    0.026212
   7 N :   -0.767617
   8 C :    0.071893
   9 C :    0.026561
  10 N :   -0.633626
  11 C :    0.224016
  12 H :    0.177352
  13 H :    0.178311
  14 H :    0.191049
  15 H :    0.183061
  16 H :    0.178484
  17 H :    0.215857
  18 H :    0.216027
  19 H :    0.205413
  20 H :    0.190051
  21 H :    0.215517

  Mayer bond orders larger than 0.100000
B(  0-C ,  1-C ) :   1.3857 B(  0-C ,  5-C ) :   1.3746 B(  0-C , 12-H ) :   0.9559
B(  1-C ,  2-C ) :   1.3785 B(  1-C , 13-H ) :   0.9599 B(  2-C ,  3-C ) :   1.4040
B(  2-C , 14-H ) :   0.9506 B(  3-C ,  4-C ) :   1.3915 B(  3-C ,  6-C ) :   0.7561
B(  4-C ,  5-C ) :   1.3928 B(  4-C , 15-H ) :   0.9487 B(  5-C , 16-H ) :   0.9576
B(  6-C ,  7-N ) :   1.0034 B(  6-C , 17-H ) :   0.9700 B(  6-C , 18-H ) :   0.9506
B(  7-N ,  8-C ) :   1.1933 B(  7-N , 11-C ) :   1.2450 B(  8-C ,  9-C ) :   1.4737
B(  8-C , 19-H ) :   0.9566 B(  9-C , 10-N ) :   1.2929 B(  9-C , 20-H ) :   0.9729
B( 10-N , 11-C ) :   1.6058 B( 11-C , 21-H ) :   0.9479

Dispersion correction           -0.008569223
FINAL SINGLE POINT ENERGY      -496.456638199458

DIPOLE MOMENT
-------------

Method             : SCF
Type of density    : Electron Density
Multiplicity       :   1
Irrep              :   0
Energy             :  -496.4611261628116949 Eh
Relativity type    :
Basis              : AO
                                X                 Y                 Z
Electronic contribution:      2.620758903      -0.032034398       0.547691055
Nuclear contribution   :     -4.270609849      -1.115453802      -1.409034325
                        -----------------------------------------
Total Dipole Moment    :     -1.649850946      -1.147488199      -0.861343270
                        -----------------------------------------
Magnitude (a.u.)       :      2.186469652
Magnitude (Debye)      :      5.557564189

Rotational constants in cm-1:             0.089352             0.017914             0.016456
Rotational constants in MHz :          2678.698429           537.036001           493.336402

                             ****ORCA TERMINATED NORMALLY****
TOTAL RUN TIME: 0 days 0 hours 1 minutes 1 seconds 242 msec
