                         Program Version 6.0.0  -   RELEASE  -
|  1> ! pbe def2-sv(p) def2/J RI DEFGRID1 loosescf d4 GCP(DFT/SV(P)) printgap
|  2> %output
|  3>     printlevel normal
|  4> end
|  5> * xyz 0 1
|  6> C -2.777600885 -0.6656665299 -0.8506957474
|  7> C -2.028806295 0.4725456038 -0.1637337114
|  8> C -1.2262678154 0.0015463028 1.0583225558
|  9> C 0.2820283114 -0.155484117 0.8383261916
| 10> C 0.6952654676 -1.0410301908 -0.3404766079
| 11> C 2.1483356967 -0.6420314826 -0.5733729679
| 12> C 2.1107563924 0.8828924589 -0.4515794474
| 13> C 1.0178694973 1.1776587006 0.5910309576
| 14> H -3.504363097 -1.1045254415 -0.1703383754
| 15> H -3.3089969223 -0.296943251 -1.7255357667
| 16> H -2.0939802322 -1.4487081063 -1.1680085589
| 17> H -1.3650949514 0.9536187227 -0.8835560728
| 18> H -2.7584723896 1.2218476199 0.150378587
| 19> H -1.3598460253 0.7120349626 1.8774352001
| 20> H -1.6285588866 -0.9560967187 1.3956046074
| 21> H 0.6917588369 -0.6067857983 1.7493655952
| 22> H 0.5754376116 -2.1015760397 -0.1223886296
| 23> H 0.1099845786 -0.796769203 -1.2260596769
| 24> H 2.7794986751 -1.0669344189 0.2090038037
| 25> H 2.5284242875 -0.9723609566 -1.5392245397
| 26> H 3.0769757323 1.2924628819 -0.1602468261
| 27> H 1.8398064886 1.3189229533 -1.4140705641
| 28> H 1.4479880652 1.5520589915 1.5197448298
| 29> H 0.3288966833 1.937114962 0.2230063089
| 30> *
| 31>
| 32>                          ****END OF INPUT****

CARTESIAN COORDINATES (ANGSTROEM)
---------------------------------
  C     -2.777601   -0.665667   -0.850696
  C     -2.028806    0.472546   -0.163734
  C     -1.226268    0.001546    1.058323
  C      0.282028   -0.155484    0.838326
  C      0.695265   -1.041030   -0.340477
  C      2.148336   -0.642031   -0.573373
  C      2.110756    0.882892   -0.451579
  C      1.017869    1.177659    0.591031
  H     -3.504363   -1.104525   -0.170338
  H     -3.308997   -0.296943   -1.725536
  H     -2.093980   -1.448708   -1.168009
  H     -1.365095    0.953619   -0.883556
  H     -2.758472    1.221848    0.150379
  H     -1.359846    0.712035    1.877435
  H     -1.628559   -0.956097    1.395605
  H      0.691759   -0.606786    1.749366
  H      0.575438   -2.101576   -0.122389
  H      0.109985   -0.796769   -1.226060
  H      2.779499   -1.066934    0.209004
  H      2.528424   -0.972361   -1.539225
  H      3.076976    1.292463   -0.160247
  H      1.839806    1.318923   -1.414071
  H      1.447988    1.552059    1.519745
  H      0.328897    1.937115    0.223006

 Total Charge           Charge          ....    0
 Multiplicity           Mult            ....    1
 Number of Electrons    NEL             ....   64
 Basis Dimension        Dim             ....  144

ORBITAL ENERGIES
----------------

  NO   OCC          E(Eh)            E(eV)
   0   2.0000      -9.884444      -268.9694
   1   2.0000      -9.879139      -268.8250
   2   2.0000      -9.876366      -268.7496
   3   2.0000      -9.875431      -268.7241
   4   2.0000      -9.875028      -268.7132
   5   2.0000      -9.873890      -268.6822
   6   2.0000      -9.872824      -268.6532
   7   2.0000      -9.869642      -268.5666
   8   2.0000      -0.758721       -20.6458
   9   2.0000      -0.702356       -19.1121
  10   2.0000      -0.644428       -17.5358
  11   2.0000      -0.629575       -17.1316
  12   2.0000      -0.581688       -15.8285
  13   2.0000      -0.526830       -14.3358
  14   2.0000      -0.501662       -13.6509
  15   2.0000      -0.474039       -12.8993
  16   2.0000      -0.434560       -11.8250
  17   2.0000      -0.419780       -11.4228
  18   2.0000      -0.402044       -10.9402
  19   2.0000      -0.377747       -10.2790
  20   2.0000      -0.368601       -10.0301
  21   2.0000      -0.360783        -9.8174
  22   2.0000      -0.346694        -9.4340
  23   2.0000      -0.305155        -8.3037
  24   2.0000      -0.303644        -8.2626
  25   2.0000      -0.300951        -8.1893
  26   2.0000      -0.290423        -7.9028
  27   2.0000      -0.289889        -7.8883
  28   2.0000      -0.276152        -7.5145
  29   2.0000      -0.269250        -7.3267
  30   2.0000      -0.262237        -7.1358
  31   2.0000      -0.257701        -7.0124
  32   0.0000       0.030850         0.8395
  33   0.0000       0.043687         1.1888
  34   0.0000       0.052603         1.4314
  35   0.0000       0.068616         1.8671
  36   0.0000       0.084321         2.2945

MULLIKEN ATOMIC CHARGES
-----------------------
   0 C :   -0.292777
   1 C :   -0.199682
   2 C :   -0.081857
   3 C :   -0.209185
   4 C :   -0.151201
   5 C :   -0.138025
   6 C :   -0.163532
   7 C :   -0.117500
   8 H :    0.100709
   9 H :    0.099040
  10 H :    0.108417
  11 H :    0.096032
  12 H :    0.082206
  13 H :    0.077499
  14 H :    0.074576
  15 H :    0.060699
  16 H :    0.084719
  17 H :    0.091126
  18 H :    0.076093
  19 H :    0.084521
  20 H :    0.081781
  21 H :    0.076499
  22 H :    0.076348
  23 H :    0.083491
Sum of atomic charges:   -0.0000000

LOEWDIN ATOMIC CHARGES
----------------------
   0 C :   -0.341774
   1 C :   -0.238516
   2 C :   -0.217722
   3 C :   -0.143656
   4 C :   -0.224744
   5 C :   -0.226629
   6 C :   -0.229673
   7 C :   -0.225475
   8 H :    0.116508
   9 H :    0.117204
  10 H :    0.115683
  11 H :    0.112198
  12 H :    0.116679
  13 H :    0.115995
  14 H :    0.114261
  15 H :    0.114674
  16 H :    0.115056
  17 H :    0.116101
  18 H :    0.114178
  19 H :    0.114378
  20 H :    0.116178
  21 H :    0.115596
  22 H :    0.117717
  23 H :    0.115782

  Mayer bond orders larger than 0.100000
B(  0-C ,  1-C ) :   1.1583 B(  0-C ,  8-H ) :   0.9522 B(  0-C ,  9-H ) :   0.9517
B(  0-C , 10-H ) :   0.9493 B(  1-C ,  2-C ) :   1.0876 B(  1-C , 11-H ) :   0.9251
B(  1-C , 12-H ) :   0.9281 B(  2-C ,  3-C ) :   1.0980 B(  2-C , 13-H ) :   0.9215
B(  2-C , 14-H ) :   0.9199 B(  3-C ,  4-C ) :   1.1190 B(  3-C ,  7-C ) :   1.1183
B(  3-C , 15-H ) :   0.8893 B(  4-C ,  5-C ) :   1.1099 B(  4-C , 16-H ) :   0.9238
B(  4-C , 17-H ) :   0.9000 B(  5-C ,  6-C ) :   1.1568 B(  5-C , 18-H ) :   0.9183
B(  5-C , 19-H ) :   0.9284 B(  6-C ,  7-C ) :   1.1626 B(  6-C , 20-H ) :   0.9227
B(  6-C , 21-H ) :   0.9188 B(  7-C , 22-H ) :   0.9140 B(  7-C , 23-H ) :   0.9139

Dispersion correction           -0.021316091
FINAL SINGLE POINT ENERGY      -313.688978896584

DIPOLE MOMENT
-------------

Method             : SCF
Type of density    : Electron Density
Multiplicity       :   1
Irrep              :   0
Energy             :  -313.7699262232038109 Eh
Relativity type    :
Basis              : AO
                                X                 Y                 Z
Electronic contribution:      2.477156177       0.350235176       1.237531189
Nuclear contribution   :     -2.477258482      -0.340214357      -1.205436381
                        -----------------------------------------
Total Dipole Moment    :     -0.000102306       0.010020819       0.032094808
                        -----------------------------------------
Magnitude (a.u.)       :      0.033622968
Magnitude (Debye)      :      0.085462792

Rotational constants in cm-1:             0.121106             0.040938             0.037154
Rotational constants in MHz :          3630.670439          1227.280064          1113.858267

                             ****ORCA TERMINATED NORMALLY****
TOTAL RUN TIME: 0 days 0 hours 0 minutes 10 seconds 804 msec
