                         Program Version 6.0.0  -   RELEASE  -
|  1> ! pbe def2-sv(p) def2/J RI DEFGRID1 loosescf d4 GCP(DFT/SV(P)) printgap
|  2> %output
|  3>     printlevel normal
|  4> end
|  5> * xyz 0 1
|  6> C 2.4589282045 -0.0726587474 -0.9117516096
|  7> C 1.2563934887 -0.2863405739 0.0082226206
|  8> H 1.1042757981 -1.3683568153 0.1488829456
|  9> C -0.0067169182 0.3324096526 -0.5966463747
| 10> C -1.274946074 0.0685615239 0.2237747875
| 11> C -2.3871754221 1.0171305712 -0.2201550303
| 12> C -1.744878755 -1.3780935633 0.0857542177
| 13> O 1.4622531219 0.3196515603 1.2756248788
| 14> H 2.2699218485 -0.5251523671 -1.8805397846
| 15> H 2.6352696015 0.9918846229 -1.0466469642
| 16> H 3.3525752347 -0.524636214 -0.4869064547
| 17> H 0.1569345295 1.4104475882 -0.6538263486
| 18> H -0.138929056 -0.0508183572 -1.6093719822
| 19> H -1.0400037381 0.2686361048 1.2743808178
| 20> H -2.6164462907 0.862660354 -1.2724743893
| 21> H -2.0880484446 2.0531305813 -0.0804327112
| 22> H -3.2906350545 0.8404003024 0.3584534019
| 23> H -2.6472652271 -1.5368468968 0.6713547333
| 24> H -1.9659122153 -1.604860566 -0.9553139897
| 25> H -0.9878888712 -2.0736164428 0.4379295063
| 26> H 2.283888233 -0.0156475949 1.6575658829
| 27> *
| 28>
| 29>                          ****END OF INPUT****

CARTESIAN COORDINATES (ANGSTROEM)
---------------------------------
  C      2.458928   -0.072659   -0.911752
  C      1.256393   -0.286341    0.008223
  H      1.104276   -1.368357    0.148883
  C     -0.006717    0.332410   -0.596646
  C     -1.274946    0.068562    0.223775
  C     -2.387175    1.017131   -0.220155
  C     -1.744879   -1.378094    0.085754
  O      1.462253    0.319652    1.275625
  H      2.269922   -0.525152   -1.880540
  H      2.635270    0.991885   -1.046647
  H      3.352575   -0.524636   -0.486906
  H      0.156935    1.410448   -0.653826
  H     -0.138929   -0.050818   -1.609372
  H     -1.040004    0.268636    1.274381
  H     -2.616446    0.862660   -1.272474
  H     -2.088048    2.053131   -0.080433
  H     -3.290635    0.840400    0.358453
  H     -2.647265   -1.536847    0.671355
  H     -1.965912   -1.604861   -0.955314
  H     -0.987889   -2.073616    0.437930
  H      2.283888   -0.015648    1.657566

 Total Charge           Charge          ....    0
 Multiplicity           Mult            ....    1
 Number of Electrons    NEL             ....   58
 Basis Dimension        Dim             ....  126

ORBITAL ENERGIES
----------------

  NO   OCC          E(Eh)            E(eV)
   0   2.0000     -18.738596      -509.9031
   1   2.0000      -9.934862      -270.3413
   2   2.0000      -9.884428      -268.9690
   3   2.0000      -9.876055      -268.7411
   4   2.0000      -9.874922      -268.7103
   5   2.0000      -9.866800      -268.4893
   6   2.0000      -9.865041      -268.4414
   7   2.0000      -0.916046       -24.9269
   8   2.0000      -0.725985       -19.7551
   9   2.0000      -0.676368       -18.4049
  10   2.0000      -0.608041       -16.5456
  11   2.0000      -0.603970       -16.4349
  12   2.0000      -0.528647       -14.3852
  13   2.0000      -0.491976       -13.3874
  14   2.0000      -0.459636       -12.5073
  15   2.0000      -0.409140       -11.1333
  16   2.0000      -0.396306       -10.7840
  17   2.0000      -0.387963       -10.5570
  18   2.0000      -0.363716        -9.8972
  19   2.0000      -0.353635        -9.6229
  20   2.0000      -0.334533        -9.1031
  21   2.0000      -0.330832        -9.0024
  22   2.0000      -0.327741        -8.9183
  23   2.0000      -0.312204        -8.4955
  24   2.0000      -0.289809        -7.8861
  25   2.0000      -0.277011        -7.5379
  26   2.0000      -0.275539        -7.4978
  27   2.0000      -0.258052        -7.0220
  28   2.0000      -0.211301        -5.7498
  29   0.0000       0.023717         0.6454
  30   0.0000       0.049923         1.3585
  31   0.0000       0.067491         1.8365
  32   0.0000       0.074671         2.0319
  33   0.0000       0.080913         2.2018

MULLIKEN ATOMIC CHARGES
-----------------------
   0 C :   -0.244201
   1 C :    0.008104
   2 H :    0.058389
   3 C :   -0.123421
   4 C :   -0.163064
   5 C :   -0.234601
   6 C :   -0.257731
   7 O :   -0.426286
   8 H :    0.095305
   9 H :    0.102224
  10 H :    0.089455
  11 H :    0.076315
  12 H :    0.071629
  13 H :    0.085116
  14 H :    0.086548
  15 H :    0.098762
  16 H :    0.094892
  17 H :    0.096996
  18 H :    0.087320
  19 H :    0.104093
  20 H :    0.294157
Sum of atomic charges:   -0.0000000

LOEWDIN ATOMIC CHARGES
----------------------
   0 C :   -0.351264
   1 C :   -0.057784
   2 H :    0.093750
   3 C :   -0.218587
   4 C :   -0.159813
   5 C :   -0.328214
   6 C :   -0.330813
   7 O :   -0.332469
   8 H :    0.122833
   9 H :    0.121859
  10 H :    0.112163
  11 H :    0.119030
  12 H :    0.116039
  13 H :    0.120538
  14 H :    0.113410
  15 H :    0.116635
  16 H :    0.115475
  17 H :    0.117448
  18 H :    0.113523
  19 H :    0.114503
  20 H :    0.281738

  Mayer bond orders larger than 0.100000
B(  0-C ,  1-C ) :   1.1131 B(  0-C ,  8-H ) :   0.9372 B(  0-C ,  9-H ) :   0.9420
B(  0-C , 10-H ) :   0.9459 B(  1-C ,  2-H ) :   0.8966 B(  1-C ,  3-C ) :   1.0860
B(  1-C ,  7-O ) :   1.0513 B(  3-C ,  4-C ) :   1.0877 B(  3-C , 11-H ) :   0.9047
B(  3-C , 12-H ) :   0.9129 B(  4-C ,  5-C ) :   1.1135 B(  4-C ,  6-C ) :   1.1061
B(  4-C , 13-H ) :   0.8959 B(  5-C , 14-H ) :   0.9491 B(  5-C , 15-H ) :   0.9497
B(  5-C , 16-H ) :   0.9523 B(  6-C , 17-H ) :   0.9501 B(  6-C , 18-H ) :   0.9486
B(  6-C , 19-H ) :   0.9468 B(  7-O , 20-H ) :   0.8529

Dispersion correction           -0.016044799
FINAL SINGLE POINT ENERGY      -311.519340699297

DIPOLE MOMENT
-------------

Method             : SCF
Type of density    : Electron Density
Multiplicity       :   1
Irrep              :   0
Energy             :  -311.5990981270078350 Eh
Relativity type    :
Basis              : AO
                                X                 Y                 Z
Electronic contribution:      3.217171714       0.842262098       3.094444765
Nuclear contribution   :     -2.766768443      -1.189327889      -3.205485568
                        -----------------------------------------
Total Dipole Moment    :      0.450403271      -0.347065791      -0.111040802
                        -----------------------------------------
Magnitude (a.u.)       :      0.579351215
Magnitude (Debye)      :      1.472593759

Rotational constants in cm-1:             0.143958             0.045239             0.044862
Rotational constants in MHz :          4315.766950          1356.238709          1344.922400

                             ****ORCA TERMINATED NORMALLY****
TOTAL RUN TIME: 0 days 0 hours 0 minutes 9 seconds 983 msec
