                         Program Version 6.0.0  -   RELEASE  -
|  1> ! pbe def2-sv(p) def2/J RI DEFGRID1 loosescf d4 GCP(DFT/SV(P)) printgap
|  2> %output
|  3>     printlevel normal
|  4> end
|  5> * xyz 0 1
|  6> C -2.3246524678 0.8083823212 -0.8383409712
|  7> C -2.0384182876 -0.5760646636 -0.2665596826
|  8> C -1.2074589116 -0.5990536753 1.0215277085
|  9> C 0.3017576323 -0.3177179887 0.9464316865
| 10> C 1.0689693933 -1.2143686264 -0.042428953
| 11> C 2.1908102408 -0.3315218458 -0.583444918
| 12> C 1.5146205814 1.0297275325 -0.7085053072
| 13> C 0.693298554 1.1318168816 0.5776149385
| 14> H -3.0720516368 0.7334290952 -1.6259537665
| 15> H -2.7116373373 1.4696105494 -0.0656244216
| 16> H -1.433332601 1.2550479505 -1.2675532484
| 17> H -2.9962546234 -1.0482242943 -0.0316163346
| 18> H -1.564578096 -1.1892347786 -1.0341785217
| 19> H -1.6464373321 0.1106956148 1.7275373613
| 20> H -1.3191047994 -1.5965369973 1.4567811429
| 21> H 0.6816424388 -0.5204212483 1.9539517819
| 22> H 1.4432231266 -2.1182587116 0.4367229688
| 23> H 0.4233887024 -1.515035749 -0.8666005472
| 24> H 3.0076636817 -0.2747604563 0.1381211941
| 25> H 2.5895858155 -0.6952176532 -1.5296270459
| 26> H 2.2260929426 1.847900616 -0.8128181347
| 27> H 0.8603539984 1.0311440188 -1.5820592804
| 28> H 1.3149046051 1.5531227621 1.3693928229
| 29> H -0.1740403042 1.7766198 0.466827673
| 30> *
| 31>
| 32>                          ****END OF INPUT****

CARTESIAN COORDINATES (ANGSTROEM)
---------------------------------
  C     -2.324652    0.808382   -0.838341
  C     -2.038418   -0.576065   -0.266560
  C     -1.207459   -0.599054    1.021528
  C      0.301758   -0.317718    0.946432
  C      1.068969   -1.214369   -0.042429
  C      2.190810   -0.331522   -0.583445
  C      1.514621    1.029728   -0.708505
  C      0.693299    1.131817    0.577615
  H     -3.072052    0.733429   -1.625954
  H     -2.711637    1.469611   -0.065624
  H     -1.433333    1.255048   -1.267553
  H     -2.996255   -1.048224   -0.031616
  H     -1.564578   -1.189235   -1.034179
  H     -1.646437    0.110696    1.727537
  H     -1.319105   -1.596537    1.456781
  H      0.681642   -0.520421    1.953952
  H      1.443223   -2.118259    0.436723
  H      0.423389   -1.515036   -0.866601
  H      3.007664   -0.274760    0.138121
  H      2.589586   -0.695218   -1.529627
  H      2.226093    1.847901   -0.812818
  H      0.860354    1.031144   -1.582059
  H      1.314905    1.553123    1.369393
  H     -0.174040    1.776620    0.466828

 Total Charge           Charge          ....    0
 Multiplicity           Mult            ....    1
 Number of Electrons    NEL             ....   64
 Basis Dimension        Dim             ....  144

ORBITAL ENERGIES
----------------

  NO   OCC          E(Eh)            E(eV)
   0   2.0000      -9.883790      -268.9516
   1   2.0000      -9.879549      -268.8362
   2   2.0000      -9.877409      -268.7780
   3   2.0000      -9.875867      -268.7360
   4   2.0000      -9.875601      -268.7288
   5   2.0000      -9.873220      -268.6640
   6   2.0000      -9.871753      -268.6240
   7   2.0000      -9.870067      -268.5782
   8   2.0000      -0.757816       -20.6212
   9   2.0000      -0.701581       -19.0910
  10   2.0000      -0.645440       -17.5633
  11   2.0000      -0.629661       -17.1339
  12   2.0000      -0.585412       -15.9299
  13   2.0000      -0.523585       -14.2475
  14   2.0000      -0.503057       -13.6889
  15   2.0000      -0.471352       -12.8261
  16   2.0000      -0.436134       -11.8678
  17   2.0000      -0.419830       -11.4242
  18   2.0000      -0.396737       -10.7958
  19   2.0000      -0.386512       -10.5175
  20   2.0000      -0.366290        -9.9673
  21   2.0000      -0.356613        -9.7039
  22   2.0000      -0.349984        -9.5236
  23   2.0000      -0.309500        -8.4219
  24   2.0000      -0.304669        -8.2905
  25   2.0000      -0.300082        -8.1657
  26   2.0000      -0.289754        -7.8846
  27   2.0000      -0.287934        -7.8351
  28   2.0000      -0.278905        -7.5894
  29   2.0000      -0.267460        -7.2780
  30   2.0000      -0.262648        -7.1470
  31   2.0000      -0.253740        -6.9046
  32   0.0000       0.027624         0.7517
  33   0.0000       0.042689         1.1616
  34   0.0000       0.057128         1.5545
  35   0.0000       0.068367         1.8603
  36   0.0000       0.088217         2.4005

MULLIKEN ATOMIC CHARGES
-----------------------
   0 C :   -0.294908
   1 C :   -0.189430
   2 C :   -0.125359
   3 C :   -0.162089
   4 C :   -0.131013
   5 C :   -0.161844
   6 C :   -0.180440
   7 C :   -0.116996
   8 H :    0.099805
   9 H :    0.097992
  10 H :    0.119156
  11 H :    0.082933
  12 H :    0.091082
  13 H :    0.077659
  14 H :    0.074982
  15 H :    0.060661
  16 H :    0.080517
  17 H :    0.080087
  18 H :    0.079732
  19 H :    0.085604
  20 H :    0.085405
  21 H :    0.088454
  22 H :    0.071370
  23 H :    0.086641
Sum of atomic charges:   -0.0000000

LOEWDIN ATOMIC CHARGES
----------------------
   0 C :   -0.345691
   1 C :   -0.236343
   2 C :   -0.218653
   3 C :   -0.144150
   4 C :   -0.223143
   5 C :   -0.226529
   6 C :   -0.228466
   7 C :   -0.226342
   8 H :    0.118639
   9 H :    0.116279
  10 H :    0.117392
  11 H :    0.117563
  12 H :    0.113340
  13 H :    0.113754
  14 H :    0.115597
  15 H :    0.117130
  16 H :    0.116468
  17 H :    0.114233
  18 H :    0.114270
  19 H :    0.114453
  20 H :    0.115140
  21 H :    0.112470
  22 H :    0.116887
  23 H :    0.115703

  Mayer bond orders larger than 0.100000
B(  0-C ,  1-C ) :   1.1630 B(  0-C ,  8-H ) :   0.9478 B(  0-C ,  9-H ) :   0.9495
B(  0-C , 10-H ) :   0.9364 B(  1-C ,  2-C ) :   1.1296 B(  1-C , 11-H ) :   0.9228
B(  1-C , 12-H ) :   0.9143 B(  2-C ,  3-C ) :   1.0980 B(  2-C , 13-H ) :   0.9176
B(  2-C , 14-H ) :   0.9142 B(  3-C ,  4-C ) :   1.1236 B(  3-C ,  7-C ) :   1.1119
B(  3-C , 15-H ) :   0.8899 B(  4-C ,  5-C ) :   1.1360 B(  4-C , 16-H ) :   0.9181
B(  4-C , 17-H ) :   0.9057 B(  5-C ,  6-C ) :   1.1196 B(  5-C , 18-H ) :   0.9219
B(  5-C , 19-H ) :   0.9282 B(  6-C ,  7-C ) :   1.1588 B(  6-C , 20-H ) :   0.9240
B(  6-C , 21-H ) :   0.9111 B(  7-C , 22-H ) :   0.9094 B(  7-C , 23-H ) :   0.9120

Dispersion correction           -0.021871946
FINAL SINGLE POINT ENERGY      -313.689048388427

DIPOLE MOMENT
-------------

Method             : SCF
Type of density    : Electron Density
Multiplicity       :   1
Irrep              :   0
Energy             :  -313.7696557686152232 Eh
Relativity type    :
Basis              : AO
                                X                 Y                 Z
Electronic contribution:      2.215665644      -0.798120728       1.208814199
Nuclear contribution   :     -2.223991870       0.769181599      -1.188367704
                        -----------------------------------------
Total Dipole Moment    :     -0.008326226      -0.028939128       0.020446495
                        -----------------------------------------
Magnitude (a.u.)       :      0.036398604
Magnitude (Debye)      :      0.092517898

Rotational constants in cm-1:             0.104492             0.047049             0.041954
Rotational constants in MHz :          3132.600506          1410.491351          1257.762590

                             ****ORCA TERMINATED NORMALLY****
TOTAL RUN TIME: 0 days 0 hours 0 minutes 10 seconds 956 msec
