                         Program Version 6.0.0  -   RELEASE  -
|  1> ! pbe def2-sv(p) def2/J RI DEFGRID1 loosescf d4 GCP(DFT/SV(P)) printgap
|  2> %output
|  3>     printlevel normal
|  4> end
|  5> * xyz 0 1
|  6> C 3.1758952994 -1.1382132231 -1.4799716705
|  7> C 3.3039946695 -1.2262194055 0.0437844485
|  8> C 3.319659044 0.149743943 0.6530914493
|  9> O 4.3642187271 0.6593268842 1.0471389138
| 10> N 2.1847864131 0.8964755855 0.7578635877
| 11> C 0.8283556002 0.7380126944 0.498689958
| 12> C 0.0153752863 1.8465287898 0.7706518642
| 13> C -1.3455142749 1.8104010683 0.5578544217
| 14> C -1.9417960846 0.6586549105 0.0654952591
| 15> C -1.1486044784 -0.4466745549 -0.2052779044
| 16> C 0.2208445146 -0.4151482841 0.0056485894
| 17> Cl -1.8651801229 -1.9008975979 -0.8200859248
| 18> Cl -3.654376829 0.6062636551 -0.2049307165
| 19> H 4.0298212747 -0.6037306733 -1.8890510441
| 20> H 2.2712024005 -0.6144773538 -1.7761012825
| 21> H 3.1589339497 -2.1376415984 -1.9053438077
| 22> H 4.2601020563 -1.6891555439 0.2944978099
| 23> H 2.5096200975 -1.8282604399 0.4808879643
| 24> H 2.4019884711 1.8095364234 1.1503177203
| 25> H 0.4584674976 2.7511987886 1.1552603109
| 26> H -1.9560067314 2.6716853084 0.7714877843
| 27> H 0.7734991653 -1.3053015202 -0.2250588193
| 28> *
| 29>
| 30>                          ****END OF INPUT****

CARTESIAN COORDINATES (ANGSTROEM)
---------------------------------
  C      3.175895   -1.138213   -1.479972
  C      3.303995   -1.226219    0.043784
  C      3.319659    0.149744    0.653091
  O      4.364219    0.659327    1.047139
  N      2.184786    0.896476    0.757864
  C      0.828356    0.738013    0.498690
  C      0.015375    1.846529    0.770652
  C     -1.345514    1.810401    0.557854
  C     -1.941796    0.658655    0.065495
  C     -1.148604   -0.446675   -0.205278
  C      0.220845   -0.415148    0.005649
  Cl    -1.865180   -1.900898   -0.820086
  Cl    -3.654377    0.606264   -0.204931
  H      4.029821   -0.603731   -1.889051
  H      2.271202   -0.614477   -1.776101
  H      3.158934   -2.137642   -1.905344
  H      4.260102   -1.689156    0.294498
  H      2.509620   -1.828260    0.480888
  H      2.401988    1.809536    1.150318
  H      0.458467    2.751199    1.155260
  H     -1.956007    2.671685    0.771488
  H      0.773499   -1.305302   -0.225059

 Total Charge           Charge          ....    0
 Multiplicity           Mult            ....    1
 Number of Electrons    NEL             ....  112
 Basis Dimension        Dim             ....  208

ORBITAL ENERGIES
----------------

  NO   OCC          E(Eh)            E(eV)
   0   2.0000    -100.652897     -2738.9046
   1   2.0000    -100.649337     -2738.8077
   2   2.0000     -18.729628      -509.6591
   3   2.0000     -14.048045      -382.2667
   4   2.0000     -10.001248      -272.1478
   5   2.0000      -9.971874      -271.3485
   6   2.0000      -9.969268      -271.2776
   7   2.0000      -9.963833      -271.1297
   8   2.0000      -9.922194      -269.9966
   9   2.0000      -9.921482      -269.9773
  10   2.0000      -9.919070      -269.9116
  11   2.0000      -9.910331      -269.6738
  12   2.0000      -9.897615      -269.3278
  13   2.0000      -9.188571      -250.0337
  14   2.0000      -9.184908      -249.9341
  15   2.0000      -7.020139      -191.0277
  16   2.0000      -7.016536      -190.9297
  17   2.0000      -7.008576      -190.7130
  18   2.0000      -7.007772      -190.6912
  19   2.0000      -7.004867      -190.6121
  20   2.0000      -7.004130      -190.5921
  21   2.0000      -0.952676       -25.9236
  22   2.0000      -0.871815       -23.7233
  23   2.0000      -0.840790       -22.8791
  24   2.0000      -0.788271       -21.4499
  25   2.0000      -0.767673       -20.8894
  26   2.0000      -0.720030       -19.5930
  27   2.0000      -0.690879       -18.7998
  28   2.0000      -0.673253       -18.3202
  29   2.0000      -0.606861       -16.5135
  30   2.0000      -0.583995       -15.8913
  31   2.0000      -0.570630       -15.5276
  32   2.0000      -0.536090       -14.5877
  33   2.0000      -0.501832       -13.6555
  34   2.0000      -0.463148       -12.6029
  35   2.0000      -0.453743       -12.3470
  36   2.0000      -0.433371       -11.7926
  37   2.0000      -0.425120       -11.5681
  38   2.0000      -0.412273       -11.2185
  39   2.0000      -0.405488       -11.0339
  40   2.0000      -0.399993       -10.8844
  41   2.0000      -0.387263       -10.5380
  42   2.0000      -0.372291       -10.1305
  43   2.0000      -0.364818        -9.9272
  44   2.0000      -0.347764        -9.4631
  45   2.0000      -0.345624        -9.4049
  46   2.0000      -0.335991        -9.1428
  47   2.0000      -0.323427        -8.8009
  48   2.0000      -0.314063        -8.5461
  49   2.0000      -0.311922        -8.4878
  50   2.0000      -0.289509        -7.8779
  51   2.0000      -0.266672        -7.2565
  52   2.0000      -0.266311        -7.2467
  53   2.0000      -0.240281        -6.5384
  54   2.0000      -0.212774        -5.7899
  55   2.0000      -0.204942        -5.5767
  56   0.0000      -0.065706        -1.7880
  57   0.0000      -0.061721        -1.6795
  58   0.0000      -0.024049        -0.6544
  59   0.0000      -0.009255        -0.2518
  60   0.0000       0.021354         0.5811

MULLIKEN ATOMIC CHARGES
-----------------------
   0 C :   -0.309386
   1 C :   -0.183129
   2 C :    0.038258
   3 O :   -0.209057
   4 N :   -0.164121
   5 C :    0.238982
   6 C :   -0.120865
   7 C :   -0.111007
   8 C :    0.090572
   9 C :    0.059811
  10 C :   -0.198034
  11 Cl:   -0.049227
  12 Cl:   -0.057995
  13 H :    0.120557
  14 H :    0.130703
  15 H :    0.120876
  16 H :    0.106545
  17 H :    0.122789
  18 H :    0.234203
  19 H :    0.046581
  20 H :    0.058543
  21 H :    0.034401
Sum of atomic charges:    0.0000000

LOEWDIN ATOMIC CHARGES
----------------------
   0 C :   -0.336300
   1 C :   -0.255072
   2 C :    0.035547
   3 O :   -0.188369
   4 N :   -0.101747
   5 C :    0.007046
   6 C :   -0.142250
   7 C :   -0.122832
   8 C :   -0.169172
   9 C :   -0.142705
  10 C :   -0.167233
  11 Cl:    0.145798
  12 Cl:    0.138574
  13 H :    0.130316
  14 H :    0.122500
  15 H :    0.128158
  16 H :    0.141383
  17 H :    0.128572
  18 H :    0.242868
  19 H :    0.130285
  20 H :    0.137779
  21 H :    0.136855

  Mayer bond orders larger than 0.100000
B(  0-C ,  1-C ) :   1.1299 B(  0-C , 13-H ) :   0.9471 B(  0-C , 14-H ) :   0.9464
B(  0-C , 15-H ) :   0.9497 B(  1-C ,  2-C ) :   1.0512 B(  1-C , 16-H ) :   0.8963
B(  1-C , 17-H ) :   0.8887 B(  2-C ,  3-O ) :   2.0820 B(  2-C ,  4-N ) :   1.1388
B(  4-N ,  5-C ) :   1.1077 B(  4-N , 18-H ) :   0.8258 B(  5-C ,  6-C ) :   1.2938
B(  5-C , 10-C ) :   1.2883 B(  6-C ,  7-C ) :   1.3794 B(  6-C , 19-H ) :   0.9566
B(  7-C ,  8-C ) :   1.3610 B(  7-C , 20-H ) :   0.9635 B(  8-C ,  9-C ) :   1.4190
B(  8-C , 12-Cl) :   1.0312 B(  9-C , 10-C ) :   1.3745 B(  9-C , 11-Cl) :   1.0521
B( 10-C , 21-H ) :   0.9474

Dispersion correction           -0.028883774
FINAL SINGLE POINT ENERGY     -1397.086691317606

DIPOLE MOMENT
-------------

Method             : SCF
Type of density    : Electron Density
Multiplicity       :   1
Irrep              :   0
Energy             : -1397.1462890044474534 Eh
Relativity type    :
Basis              : AO
                                X                 Y                 Z
Electronic contribution:    -24.508110577      -0.706591311       0.312486100
Nuclear contribution   :     24.285460906       0.864704816      -0.427518815
                        -----------------------------------------
Total Dipole Moment    :     -0.222649671       0.158113505      -0.115032715
                        -----------------------------------------
Magnitude (a.u.)       :      0.296319561
Magnitude (Debye)      :      0.753184466

Rotational constants in cm-1:             0.040166             0.010849             0.008809
Rotational constants in MHz :          1204.148427           325.258181           264.091068

                             ****ORCA TERMINATED NORMALLY****
TOTAL RUN TIME: 0 days 0 hours 0 minutes 15 seconds 85 msec
