                         Program Version 6.0.0  -   RELEASE  -
|  1> ! r2scan-3c def2/J RI DEFGRID2 scfconv6 printgap
|  2> %output
|  3>     printlevel normal
|  4> end
|  5> * xyz 0 1
|  6> C 2.5279538683 -0.3345143192 0.0003865133
|  7> C 1.2677369552 0.5228575823 -0.0007544544
|  8> C -1.768e-06 -0.3283971077 -9.2412e-05
|  9> C -1.267739248 0.5228484829 0.0007422221
| 10> C -2.5279539872 -0.3345126192 -0.0002949612
| 11> H 3.4168554105 0.2915129254 -2.6752e-05
| 12> H 2.5553336585 -0.9717970784 -0.8806759244
| 13> H 2.5549298641 -0.9699210837 0.8827733364
| 14> H 1.267570485 1.1691713655 0.8800375304
| 15> H 1.2678680037 1.1673585863 -0.882866255
| 16> H 0.0005278229 -0.9741061147 0.8814376938
| 17> H -0.0005038912 -0.9739273825 -0.8817616079
| 18> H -1.2677766585 1.16727467 0.8829089386
| 19> H -1.267641063 1.1692611485 -0.8799680569
| 20> H -2.5548436745 -0.9702039883 -0.8825414598
| 21> H -3.4168689304 0.2915470819 -0.0001120999
| 22> H -2.555401217 -0.9715400402 0.8809506745
| 23> *
| 24>
| 25>                          ****END OF INPUT****

CARTESIAN COORDINATES (ANGSTROEM)
---------------------------------
  C      2.527954   -0.334514    0.000387
  C      1.267737    0.522858   -0.000754
  C     -0.000002   -0.328397   -0.000092
  C     -1.267739    0.522848    0.000742
  C     -2.527954   -0.334513   -0.000295
  H      3.416855    0.291513   -0.000027
  H      2.555334   -0.971797   -0.880676
  H      2.554930   -0.969921    0.882773
  H      1.267570    1.169171    0.880038
  H      1.267868    1.167359   -0.882866
  H      0.000528   -0.974106    0.881438
  H     -0.000504   -0.973927   -0.881762
  H     -1.267777    1.167275    0.882909
  H     -1.267641    1.169261   -0.879968
  H     -2.554844   -0.970204   -0.882541
  H     -3.416869    0.291547   -0.000112
  H     -2.555401   -0.971540    0.880951

 Total Charge           Charge          ....    0
 Multiplicity           Mult            ....    1
 Number of Electrons    NEL             ....   42
 Basis Dimension        Dim             ....  155

ORBITAL ENERGIES
----------------

  NO   OCC          E(Eh)            E(eV)
   0   2.0000     -10.020586      -272.6740
   1   2.0000     -10.020584      -272.6740
   2   2.0000     -10.018476      -272.6166
   3   2.0000     -10.012882      -272.4644
   4   2.0000     -10.012873      -272.4641
   5   2.0000      -0.767112       -20.8742
   6   2.0000      -0.716134       -19.4870
   7   2.0000      -0.640143       -17.4192
   8   2.0000      -0.562145       -15.2967
   9   2.0000      -0.539184       -14.6720
  10   2.0000      -0.444047       -12.0831
  11   2.0000      -0.405243       -11.0272
  12   2.0000      -0.400212       -10.8903
  13   2.0000      -0.370313       -10.0767
  14   2.0000      -0.361080        -9.8255
  15   2.0000      -0.344647        -9.3783
  16   2.0000      -0.319909        -8.7052
  17   2.0000      -0.302302        -8.2260
  18   2.0000      -0.294506        -8.0139
  19   2.0000      -0.289207        -7.8697
  20   2.0000      -0.279995        -7.6191
  21   0.0000       0.102390         2.7862
  22   0.0000       0.106579         2.9002
  23   0.0000       0.122695         3.3387
  24   0.0000       0.142001         3.8640
  25   0.0000       0.142406         3.8751

MULLIKEN ATOMIC CHARGES
-----------------------
   0 C :   -0.463105
   1 C :   -0.228586
   2 C :   -0.267238
   3 C :   -0.228582
   4 C :   -0.463107
   5 H :    0.145010
   6 H :    0.140104
   7 H :    0.140141
   8 H :    0.133740
   9 H :    0.133811
  10 H :    0.132499
  11 H :    0.132504
  12 H :    0.133812
  13 H :    0.133740
  14 H :    0.140130
  15 H :    0.145010
  16 H :    0.140116
Sum of atomic charges:    0.0000000

LOEWDIN ATOMIC CHARGES
----------------------
   0 C :   -0.426229
   1 C :   -0.317971
   2 C :   -0.313858
   3 C :   -0.317976
   4 C :   -0.426233
   5 H :    0.149344
   6 H :    0.149169
   7 H :    0.149158
   8 H :    0.150495
   9 H :    0.150495
  10 H :    0.152467
  11 H :    0.152467
  12 H :    0.150494
  13 H :    0.150494
  14 H :    0.149164
  15 H :    0.149348
  16 H :    0.149170

  Mayer bond orders larger than 0.100000
B(  0-C ,  1-C ) :   0.9018 B(  0-C ,  5-H ) :   0.9756 B(  0-C ,  6-H ) :   0.9831
B(  0-C ,  7-H ) :   0.9832 B(  1-C ,  2-C ) :   0.9236 B(  1-C ,  8-H ) :   0.9734
B(  1-C ,  9-H ) :   0.9734 B(  2-C ,  3-C ) :   0.9236 B(  2-C , 10-H ) :   0.9761
B(  2-C , 11-H ) :   0.9761 B(  3-C ,  4-C ) :   0.9018 B(  3-C , 12-H ) :   0.9734
B(  3-C , 13-H ) :   0.9734 B(  4-C , 14-H ) :   0.9832 B(  4-C , 15-H ) :   0.9756
B(  4-C , 16-H ) :   0.9832

Dispersion correction           -0.003561766
FINAL SINGLE POINT ENERGY      -197.688228553626

DIPOLE MOMENT
-------------

Method             : SCF
Type of density    : Electron Density
Multiplicity       :   1
Irrep              :   0
Energy             :  -197.6924926766241697 Eh
Relativity type    :
Basis              : AO
                                X                 Y                 Z
Electronic contribution:     -0.000029399       0.570161710      -0.000127065
Nuclear contribution   :      0.000046730      -0.539789502       0.000146370
                        -----------------------------------------
Total Dipole Moment    :      0.000017331       0.030372207       0.000019304
                        -----------------------------------------
Magnitude (a.u.)       :      0.030372218
Magnitude (Debye)      :      0.077200043

Rotational constants in cm-1:             0.566222             0.065774             0.062344
Rotational constants in MHz :         16974.921285          1971.863268          1869.013737

                             ****ORCA TERMINATED NORMALLY****
TOTAL RUN TIME: 0 days 0 hours 0 minutes 12 seconds 280 msec
