                         Program Version 6.0.0  -   RELEASE  -
|  1> ! r2scan-3c def2/J RI DEFGRID2 scfconv6 printgap
|  2> %output
|  3>     printlevel normal
|  4> end
|  5> %cpcm
|  6>     smd true
|  7>     smdsolvent "water"
|  8> end
|  9> * xyz 0 1
| 10> C 2.5279538683 -0.3345143192 0.0003865133
| 11> C 1.2677369552 0.5228575823 -0.0007544544
| 12> C -1.768e-06 -0.3283971077 -9.2412e-05
| 13> C -1.267739248 0.5228484829 0.0007422221
| 14> C -2.5279539872 -0.3345126192 -0.0002949612
| 15> H 3.4168554105 0.2915129254 -2.6752e-05
| 16> H 2.5553336585 -0.9717970784 -0.8806759244
| 17> H 2.5549298641 -0.9699210837 0.8827733364
| 18> H 1.267570485 1.1691713655 0.8800375304
| 19> H 1.2678680037 1.1673585863 -0.882866255
| 20> H 0.0005278229 -0.9741061147 0.8814376938
| 21> H -0.0005038912 -0.9739273825 -0.8817616079
| 22> H -1.2677766585 1.16727467 0.8829089386
| 23> H -1.267641063 1.1692611485 -0.8799680569
| 24> H -2.5548436745 -0.9702039883 -0.8825414598
| 25> H -3.4168689304 0.2915470819 -0.0001120999
| 26> H -2.555401217 -0.9715400402 0.8809506745
| 27> *
| 28>
| 29>                          ****END OF INPUT****

CARTESIAN COORDINATES (ANGSTROEM)
---------------------------------
  C      2.527954   -0.334514    0.000387
  C      1.267737    0.522858   -0.000754
  C     -0.000002   -0.328397   -0.000092
  C     -1.267739    0.522848    0.000742
  C     -2.527954   -0.334513   -0.000295
  H      3.416855    0.291513   -0.000027
  H      2.555334   -0.971797   -0.880676
  H      2.554930   -0.969921    0.882773
  H      1.267570    1.169171    0.880038
  H      1.267868    1.167359   -0.882866
  H      0.000528   -0.974106    0.881438
  H     -0.000504   -0.973927   -0.881762
  H     -1.267777    1.167275    0.882909
  H     -1.267641    1.169261   -0.879968
  H     -2.554844   -0.970204   -0.882541
  H     -3.416869    0.291547   -0.000112
  H     -2.555401   -0.971540    0.880951

 Total Charge           Charge          ....    0
 Multiplicity           Mult            ....    1
 Number of Electrons    NEL             ....   42
 Basis Dimension        Dim             ....  155

ORBITAL ENERGIES
----------------

  NO   OCC          E(Eh)            E(eV)
   0   2.0000     -10.013743      -272.4878
   1   2.0000     -10.013741      -272.4877
   2   2.0000     -10.011136      -272.4168
   3   2.0000     -10.006465      -272.2897
   4   2.0000     -10.006456      -272.2895
   5   2.0000      -0.760414       -20.6919
   6   2.0000      -0.709935       -19.3183
   7   2.0000      -0.634052       -17.2534
   8   2.0000      -0.556100       -15.1322
   9   2.0000      -0.532657       -14.4943
  10   2.0000      -0.436875       -11.8880
  11   2.0000      -0.398981       -10.8568
  12   2.0000      -0.393625       -10.7111
  13   2.0000      -0.364159        -9.9093
  14   2.0000      -0.354992        -9.6598
  15   2.0000      -0.338019        -9.1980
  16   2.0000      -0.313775        -8.5383
  17   2.0000      -0.295447        -8.0395
  18   2.0000      -0.287971        -7.8361
  19   2.0000      -0.281660        -7.6644
  20   2.0000      -0.273580        -7.4445
  21   0.0000       0.108537         2.9535
  22   0.0000       0.114259         3.1091
  23   0.0000       0.126943         3.4543
  24   0.0000       0.147588         4.0161
  25   0.0000       0.150946         4.1074

MULLIKEN ATOMIC CHARGES
-----------------------
   0 C :   -0.504304
   1 C :   -0.241202
   2 C :   -0.278052
   3 C :   -0.241196
   4 C :   -0.504310
   5 H :    0.154410
   6 H :    0.151372
   7 H :    0.151420
   8 H :    0.142558
   9 H :    0.142643
  10 H :    0.142124
  11 H :    0.142131
  12 H :    0.142645
  13 H :    0.142557
  14 H :    0.151408
  15 H :    0.154411
  16 H :    0.151385
Sum of atomic charges:    0.0000000

LOEWDIN ATOMIC CHARGES
----------------------
   0 C :   -0.435017
   1 C :   -0.320578
   2 C :   -0.316596
   3 C :   -0.320582
   4 C :   -0.435022
   5 H :    0.151443
   6 H :    0.151585
   7 H :    0.151579
   8 H :    0.152365
   9 H :    0.152368
  10 H :    0.154552
  11 H :    0.154552
  12 H :    0.152369
  13 H :    0.152363
  14 H :    0.151584
  15 H :    0.151447
  16 H :    0.151587

  Mayer bond orders larger than 0.100000
B(  0-C ,  1-C ) :   0.8930 B(  0-C ,  5-H ) :   0.9729 B(  0-C ,  6-H ) :   0.9810
B(  0-C ,  7-H ) :   0.9811 B(  1-C ,  2-C ) :   0.9185 B(  1-C ,  8-H ) :   0.9734
B(  1-C ,  9-H ) :   0.9733 B(  2-C ,  3-C ) :   0.9185 B(  2-C , 10-H ) :   0.9742
B(  2-C , 11-H ) :   0.9741 B(  3-C ,  4-C ) :   0.8930 B(  3-C , 12-H ) :   0.9733
B(  3-C , 13-H ) :   0.9733 B(  4-C , 14-H ) :   0.9811 B(  4-C , 15-H ) :   0.9729
B(  4-C , 16-H ) :   0.9810

Dispersion correction           -0.003561766
FINAL SINGLE POINT ENERGY      -197.685196714130

DIPOLE MOMENT
-------------

Method             : SCF
Type of density    : Electron Density
Multiplicity       :   1
Irrep              :   0
Energy             :  -197.6894608371291042 Eh
Relativity type    :
Basis              : AO
                                X                 Y                 Z
Electronic contribution:     -0.000025191       0.574218951      -0.000114722
Nuclear contribution   :      0.000046730      -0.539789502       0.000146370
                        -----------------------------------------
Total Dipole Moment    :      0.000021539       0.034429448       0.000031648
                        -----------------------------------------
Magnitude (a.u.)       :      0.034429469
Magnitude (Debye)      :      0.087512756

Rotational constants in cm-1:             0.566222             0.065774             0.062344
Rotational constants in MHz :         16974.921285          1971.863268          1869.013737

                             ****ORCA TERMINATED NORMALLY****
TOTAL RUN TIME: 0 days 0 hours 0 minutes 14 seconds 961 msec
