                         Program Version 6.0.0  -   RELEASE  -
|  1> ! pbe def2-sv(p) def2/J RI DEFGRID1 loosescf d4 GCP(DFT/SV(P)) printgap
|  2> %output
|  3>     printlevel normal
|  4> end
|  5> * xyz 0 1
|  6> C -2.4577906594 0.263324768 0.6275307522
|  7> C -1.150059495 -0.3342276917 0.0971602704
|  8> C -1.3542930263 -0.6749531645 -1.3796948665
|  9> C 0.0346301282 0.6288238587 0.3290002386
| 10> C 0.1063939681 1.0424625904 1.8043789928
| 11> C 1.4290286624 0.1025930628 -0.1019441965
| 12> C 1.6651503241 -1.3698290511 0.2305030131
| 13> C 1.7621075884 0.3840197884 -1.5687174482
| 14> H -2.6184143044 1.2564910699 0.2129222583
| 15> H -3.2959116947 -0.3657863436 0.3352878919
| 16> H -2.4601608132 0.3308722035 1.710963894
| 17> H -0.9605097715 -1.2615906314 0.6463799509
| 18> H -0.5487888 -1.2889309285 -1.7688156734
| 19> H -1.4206666096 0.2338228377 -1.9737109109
| 20> H -2.2805407196 -1.2323719107 -1.5060215856
| 21> H -0.1613229939 1.5350668702 -0.2570341009
| 22> H -0.7662778464 1.6172669905 2.0976334354
| 23> H 0.9814541659 1.6645192726 1.9798466785
| 24> H 0.1763271751 0.1666187881 2.4456944754
| 25> H 2.1575447385 0.6780824524 0.482640938
| 26> H 1.4412003418 -1.5699974527 1.2751861303
| 27> H 1.0550693595 -2.022378619 -0.3875525319
| 28> H 2.7091482041 -1.6212345401 0.0547634992
| 29> H 1.1612653564 -0.210292988 -2.2483345479
| 30> H 2.808871978 0.1517606942 -1.7558539724
| 31> H 1.6026262829 1.4350221209 -1.7994194381
| 32> *
| 33>
| 34>                          ****END OF INPUT****

CARTESIAN COORDINATES (ANGSTROEM)
---------------------------------
  C     -2.457791    0.263325    0.627531
  C     -1.150059   -0.334228    0.097160
  C     -1.354293   -0.674953   -1.379695
  C      0.034630    0.628824    0.329000
  C      0.106394    1.042463    1.804379
  C      1.429029    0.102593   -0.101944
  C      1.665150   -1.369829    0.230503
  C      1.762108    0.384020   -1.568717
  H     -2.618414    1.256491    0.212922
  H     -3.295912   -0.365786    0.335288
  H     -2.460161    0.330872    1.710964
  H     -0.960510   -1.261591    0.646380
  H     -0.548789   -1.288931   -1.768816
  H     -1.420667    0.233823   -1.973711
  H     -2.280541   -1.232372   -1.506022
  H     -0.161323    1.535067   -0.257034
  H     -0.766278    1.617267    2.097633
  H      0.981454    1.664519    1.979847
  H      0.176327    0.166619    2.445694
  H      2.157545    0.678082    0.482641
  H      1.441200   -1.569997    1.275186
  H      1.055069   -2.022379   -0.387553
  H      2.709148   -1.621235    0.054763
  H      1.161265   -0.210293   -2.248335
  H      2.808872    0.151761   -1.755854
  H      1.602626    1.435022   -1.799419

 Total Charge           Charge          ....    0
 Multiplicity           Mult            ....    1
 Number of Electrons    NEL             ....   66
 Basis Dimension        Dim             ....  148

ORBITAL ENERGIES
----------------

  NO   OCC          E(Eh)            E(eV)
   0   2.0000      -9.889641      -269.1108
   1   2.0000      -9.888581      -269.0820
   2   2.0000      -9.887642      -269.0564
   3   2.0000      -9.868976      -268.5485
   4   2.0000      -9.867686      -268.5134
   5   2.0000      -9.867580      -268.5105
   6   2.0000      -9.867099      -268.4974
   7   2.0000      -9.866147      -268.4715
   8   2.0000      -0.745854       -20.2957
   9   2.0000      -0.695382       -18.9223
  10   2.0000      -0.650033       -17.6883
  11   2.0000      -0.607479       -16.5303
  12   2.0000      -0.603200       -16.4139
  13   2.0000      -0.556301       -15.1377
  14   2.0000      -0.515653       -14.0316
  15   2.0000      -0.475549       -12.9403
  16   2.0000      -0.419810       -11.4236
  17   2.0000      -0.405541       -11.0353
  18   2.0000      -0.392140       -10.6707
  19   2.0000      -0.383417       -10.4333
  20   2.0000      -0.366120        -9.9626
  21   2.0000      -0.353621        -9.6225
  22   2.0000      -0.342091        -9.3088
  23   2.0000      -0.340855        -9.2751
  24   2.0000      -0.332403        -9.0452
  25   2.0000      -0.328946        -8.9511
  26   2.0000      -0.308774        -8.4022
  27   2.0000      -0.302833        -8.2405
  28   2.0000      -0.289182        -7.8690
  29   2.0000      -0.286100        -7.7852
  30   2.0000      -0.267130        -7.2690
  31   2.0000      -0.261132        -7.1058
  32   2.0000      -0.255183        -6.9439
  33   0.0000       0.032434         0.8826
  34   0.0000       0.057466         1.5637
  35   0.0000       0.058334         1.5874
  36   0.0000       0.063237         1.7208
  37   0.0000       0.079797         2.1714

MULLIKEN ATOMIC CHARGES
-----------------------
   0 C :   -0.248852
   1 C :   -0.165614
   2 C :   -0.244099
   3 C :   -0.106585
   4 C :   -0.250601
   5 C :   -0.147977
   6 C :   -0.250523
   7 C :   -0.240340
   8 H :    0.092980
   9 H :    0.094074
  10 H :    0.105584
  11 H :    0.068847
  12 H :    0.116684
  13 H :    0.091699
  14 H :    0.092723
  15 H :    0.053910
  16 H :    0.104343
  17 H :    0.095276
  18 H :    0.096449
  19 H :    0.062185
  20 H :    0.099835
  21 H :    0.101989
  22 H :    0.096298
  23 H :    0.095005
  24 H :    0.093125
  25 H :    0.093586
Sum of atomic charges:   -0.0000000

LOEWDIN ATOMIC CHARGES
----------------------
   0 C :   -0.329158
   1 C :   -0.148395
   2 C :   -0.330637
   3 C :   -0.134334
   4 C :   -0.329962
   5 C :   -0.148242
   6 C :   -0.330572
   7 C :   -0.331532
   8 H :    0.116389
   9 H :    0.115811
  10 H :    0.116782
  11 H :    0.114075
  12 H :    0.113987
  13 H :    0.117182
  14 H :    0.116136
  15 H :    0.110712
  16 H :    0.117546
  17 H :    0.115577
  18 H :    0.116219
  19 H :    0.114589
  20 H :    0.116017
  21 H :    0.116436
  22 H :    0.118598
  23 H :    0.115514
  24 H :    0.116005
  25 H :    0.115255

  Mayer bond orders larger than 0.100000
B(  0-C ,  1-C ) :   1.1101 B(  0-C ,  8-H ) :   0.9493 B(  0-C ,  9-H ) :   0.9469
B(  0-C , 10-H ) :   0.9418 B(  1-C ,  2-C ) :   1.1308 B(  1-C ,  3-C ) :   1.0556
B(  1-C , 11-H ) :   0.8819 B(  2-C , 12-H ) :   0.9291 B(  2-C , 13-H ) :   0.9444
B(  2-C , 14-H ) :   0.9440 B(  3-C ,  4-C ) :   1.1115 B(  3-C ,  5-C ) :   1.0281
B(  3-C , 15-H ) :   0.8886 B(  4-C , 16-H ) :   0.9392 B(  4-C , 17-H ) :   0.9438
B(  4-C , 18-H ) :   0.9458 B(  5-C ,  6-C ) :   1.1182 B(  5-C ,  7-C ) :   1.1183
B(  5-C , 19-H ) :   0.8983 B(  6-C , 20-H ) :   0.9462 B(  6-C , 21-H ) :   0.9346
B(  6-C , 22-H ) :   0.9451 B(  7-C , 23-H ) :   0.9393 B(  7-C , 24-H ) :   0.9478
B(  7-C , 25-H ) :   0.9471

Dispersion correction           -0.023772396
FINAL SINGLE POINT ENERGY      -314.867810824420

DIPOLE MOMENT
-------------

Method             : SCF
Type of density    : Electron Density
Multiplicity       :   1
Irrep              :   0
Energy             :  -314.9547404227035940 Eh
Relativity type    :
Basis              : AO
                                X                 Y                 Z
Electronic contribution:      0.405488961       0.463090034       0.457992370
Nuclear contribution   :     -0.393170360      -0.471951698      -0.427260957
                        -----------------------------------------
Total Dipole Moment    :      0.012318601      -0.008861664       0.030731413
                        -----------------------------------------
Magnitude (a.u.)       :      0.034273850
Magnitude (Debye)      :      0.087117203

Rotational constants in cm-1:             0.081684             0.049888             0.040043
Rotational constants in MHz :          2448.833410          1495.602012          1200.462679

                             ****ORCA TERMINATED NORMALLY****
TOTAL RUN TIME: 0 days 0 hours 0 minutes 11 seconds 706 msec
