                         Program Version 6.0.0  -   RELEASE  -
|  1> ! r2scan-3c def2/J RI DEFGRID2 scfconv6 printgap
|  2> %output
|  3>     printlevel normal
|  4> end
|  5> %cpcm
|  6>     smd true
|  7>     smdsolvent "water"
|  8> end
|  9> * xyz 0 1
| 10> C -2.5850543137 0.53223891 0.6349157278
| 11> C -1.728421441 0.3983040086 -0.6272752774
| 12> C -0.4258698315 -0.2768854642 -0.2833557426
| 13> O -0.1709774756 -1.4432152468 -0.5027807386
| 14> O 0.4048659852 0.555977402 0.3291502474
| 15> C 1.6848021582 0.0612561511 0.7554748789
| 16> C 2.7189093332 0.1950216481 -0.3519480469
| 17> H -2.0694946431 1.1374041105 1.3759000021
| 18> H -3.5300869049 1.0061793066 0.3874247963
| 19> H -2.7865427615 -0.4478601956 1.0608922971
| 20> H -1.5136085081 1.3868828219 -1.0312931913
| 21> H -2.2434123127 -0.2073523818 -1.3719623188
| 22> H 1.9453666747 0.6762070464 1.6175870724
| 23> H 1.5729826783 -0.985599265 1.0539886568
| 24> H 2.4443237775 -0.4337548955 -1.196061091
| 25> H 2.7793166374 1.2277652326 -0.6843904798
| 26> H 3.6881136853 -0.119430425 0.0210120591
| 27> *
| 28>
| 29>                          ****END OF INPUT****

CARTESIAN COORDINATES (ANGSTROEM)
---------------------------------
  C     -2.585054    0.532239    0.634916
  C     -1.728421    0.398304   -0.627275
  C     -0.425870   -0.276885   -0.283356
  O     -0.170977   -1.443215   -0.502781
  O      0.404866    0.555977    0.329150
  C      1.684802    0.061256    0.755475
  C      2.718909    0.195022   -0.351948
  H     -2.069495    1.137404    1.375900
  H     -3.530087    1.006179    0.387425
  H     -2.786543   -0.447860    1.060892
  H     -1.513609    1.386883   -1.031293
  H     -2.243412   -0.207352   -1.371962
  H      1.945367    0.676207    1.617587
  H      1.572983   -0.985599    1.053989
  H      2.444324   -0.433755   -1.196061
  H      2.779317    1.227765   -0.684390
  H      3.688114   -0.119430    0.021012

 Total Charge           Charge          ....    0
 Multiplicity           Mult            ....    1
 Number of Electrons    NEL             ....   56
 Basis Dimension        Dim             ....  193

ORBITAL ENERGIES
----------------

  NO   OCC          E(Eh)            E(eV)
   0   2.0000     -19.001843      -517.0664
   1   2.0000     -18.943231      -515.4715
   2   2.0000     -10.161871      -276.5186
   3   2.0000     -10.083290      -274.3803
   4   2.0000     -10.037367      -273.1306
   5   2.0000     -10.021976      -272.7118
   6   2.0000     -10.018262      -272.6108
   7   2.0000      -1.078703       -29.3530
   8   2.0000      -0.988553       -26.8999
   9   2.0000      -0.762005       -20.7352
  10   2.0000      -0.722038       -19.6477
  11   2.0000      -0.636759       -17.3271
  12   2.0000      -0.592864       -16.1326
  13   2.0000      -0.521832       -14.1998
  14   2.0000      -0.471711       -12.8359
  15   2.0000      -0.459844       -12.5130
  16   2.0000      -0.437745       -11.9116
  17   2.0000      -0.411605       -11.2004
  18   2.0000      -0.404722       -11.0130
  19   2.0000      -0.381446       -10.3797
  20   2.0000      -0.355959        -9.6861
  21   2.0000      -0.349898        -9.5212
  22   2.0000      -0.335613        -9.1325
  23   2.0000      -0.326312        -8.8794
  24   2.0000      -0.318594        -8.6694
  25   2.0000      -0.303893        -8.2693
  26   2.0000      -0.277283        -7.5453
  27   2.0000      -0.248988        -6.7753
  28   0.0000      -0.022534        -0.6132
  29   0.0000       0.077977         2.1219
  30   0.0000       0.098225         2.6728
  31   0.0000       0.130603         3.5539
  32   0.0000       0.133043         3.6203

MULLIKEN ATOMIC CHARGES
-----------------------
   0 C :   -0.494766
   1 C :   -0.312125
   2 C :    0.455583
   3 O :   -0.515970
   4 O :   -0.201054
   5 C :   -0.142823
   6 C :   -0.490437
   7 H :    0.167317
   8 H :    0.172498
   9 H :    0.164018
  10 H :    0.176923
  11 H :    0.173332
  12 H :    0.173434
  13 H :    0.171543
  14 H :    0.167259
  15 H :    0.165258
  16 H :    0.170012
Sum of atomic charges:    0.0000000

LOEWDIN ATOMIC CHARGES
----------------------
   0 C :   -0.394043
   1 C :   -0.233545
   2 C :    0.365773
   3 O :   -0.493352
   4 O :   -0.598935
   5 C :    0.032140
   6 C :   -0.393065
   7 H :    0.161323
   8 H :    0.160212
   9 H :    0.160552
  10 H :    0.184371
  11 H :    0.178491
  12 H :    0.188691
  13 H :    0.189708
  14 H :    0.162077
  15 H :    0.161899
  16 H :    0.167701

  Mayer bond orders larger than 0.100000
B(  0-C ,  1-C ) :   0.8859 B(  0-C ,  7-H ) :   0.9738 B(  0-C ,  8-H ) :   0.9661
B(  0-C ,  9-H ) :   0.9704 B(  1-C ,  2-C ) :   0.9588 B(  1-C , 10-H ) :   0.9576
B(  1-C , 11-H ) :   0.9756 B(  2-C ,  3-O ) :   1.7712 B(  2-C ,  4-O ) :   1.0671
B(  4-O ,  5-C ) :   0.7995 B(  5-C ,  6-C ) :   0.9382 B(  5-C , 12-H ) :   0.9516
B(  5-C , 13-H ) :   0.9622 B(  6-C , 14-H ) :   0.9688 B(  6-C , 15-H ) :   0.9700
B(  6-C , 16-H ) :   0.9607

Dispersion correction           -0.003999153
FINAL SINGLE POINT ENERGY      -346.941047975545

DIPOLE MOMENT
-------------

Method             : SCF
Type of density    : Electron Density
Multiplicity       :   1
Irrep              :   0
Energy             :  -346.9474389839904802 Eh
Relativity type    :
Basis              : AO
                                X                 Y                 Z
Electronic contribution:     -0.110951475      -1.937548559      -0.754898264
Nuclear contribution   :      0.272682554       3.026921470       1.154277642
                        -----------------------------------------
Total Dipole Moment    :      0.161731080       1.089372912       0.399379379
                        -----------------------------------------
Magnitude (a.u.)       :      1.171492284
Magnitude (Debye)      :      2.977696743

Rotational constants in cm-1:             0.190453             0.050013             0.045174
Rotational constants in MHz :          5709.651489          1499.340090          1354.282435

                             ****ORCA TERMINATED NORMALLY****
TOTAL RUN TIME: 0 days 0 hours 0 minutes 26 seconds 733 msec
