                         Program Version 6.0.0  -   RELEASE  -
|  1> ! pbe def2-sv(p) def2/J RI DEFGRID1 loosescf d4 GCP(DFT/SV(P)) printgap
|  2> %output
|  3>     printlevel normal
|  4> end
|  5> * xyz 0 1
|  6> C 2.4604003172 -0.0149517375 -0.2891995817
|  7> C 1.1722141936 0.7687740236 -0.0773260528
|  8> C -0.0109082292 -0.1111869178 0.2292313776
|  9> O 0.0638970502 -1.322277876 0.2861897418
| 10> C -1.3185136659 0.6178560735 0.453214009
| 11> C -2.3726000148 0.1392793622 -0.5471614423
| 12> H 3.2833843051 0.6573436286 -0.5129457909
| 13> H 2.7034608973 -0.5869489368 0.6030567286
| 14> H 2.3422156015 -0.7164030371 -1.1117083496
| 15> H 1.2827695834 1.4756492089 0.7480375232
| 16> H 0.9249581874 1.3492368359 -0.9692812515
| 17> H -1.1759202499 1.6940439536 0.3719543973
| 18> H -1.6590783922 0.3788917217 1.4629281193
| 19> H -3.3354666775 0.5895247764 -0.3242857231
| 20> H -2.4678613259 -0.942805841 -0.4946707398
| 21> H -2.0856563049 0.4106314059 -1.5603751811
| 22> *
| 23>
| 24>                          ****END OF INPUT****

CARTESIAN COORDINATES (ANGSTROEM)
---------------------------------
  C      2.460400   -0.014952   -0.289200
  C      1.172214    0.768774   -0.077326
  C     -0.010908   -0.111187    0.229231
  O      0.063897   -1.322278    0.286190
  C     -1.318514    0.617856    0.453214
  C     -2.372600    0.139279   -0.547161
  H      3.283384    0.657344   -0.512946
  H      2.703461   -0.586949    0.603057
  H      2.342216   -0.716403   -1.111708
  H      1.282770    1.475649    0.748038
  H      0.924958    1.349237   -0.969281
  H     -1.175920    1.694044    0.371954
  H     -1.659078    0.378892    1.462928
  H     -3.335467    0.589525   -0.324286
  H     -2.467861   -0.942806   -0.494671
  H     -2.085656    0.410631   -1.560375

 Total Charge           Charge          ....    0
 Multiplicity           Mult            ....    1
 Number of Electrons    NEL             ....   48
 Basis Dimension        Dim             ....  104

ORBITAL ENERGIES
----------------

  NO   OCC          E(Eh)            E(eV)
   0   2.0000     -18.738878      -509.9108
   1   2.0000      -9.968913      -271.2679
   2   2.0000      -9.895184      -269.2616
   3   2.0000      -9.892505      -269.1887
   4   2.0000      -9.883919      -268.9551
   5   2.0000      -9.875253      -268.7193
   6   2.0000      -0.935480       -25.4557
   7   2.0000      -0.715336       -19.4653
   8   2.0000      -0.689635       -18.7659
   9   2.0000      -0.599985       -16.3264
  10   2.0000      -0.550137       -14.9700
  11   2.0000      -0.460164       -12.5217
  12   2.0000      -0.429344       -11.6830
  13   2.0000      -0.425233       -11.5712
  14   2.0000      -0.403716       -10.9857
  15   2.0000      -0.369887       -10.0651
  16   2.0000      -0.365023        -9.9328
  17   2.0000      -0.340888        -9.2760
  18   2.0000      -0.323889        -8.8135
  19   2.0000      -0.315654        -8.5894
  20   2.0000      -0.313047        -8.5184
  21   2.0000      -0.305657        -8.3173
  22   2.0000      -0.297159        -8.0861
  23   2.0000      -0.196235        -5.3398
  24   0.0000      -0.049051        -1.3347
  25   0.0000       0.030572         0.8319
  26   0.0000       0.061706         1.6791
  27   0.0000       0.075682         2.0594
  28   0.0000       0.084001         2.2858

MULLIKEN ATOMIC CHARGES
-----------------------
   0 C :   -0.252918
   1 C :   -0.208597
   2 C :   -0.009455
   3 O :   -0.172847
   4 C :   -0.140506
   5 C :   -0.290661
   6 H :    0.099028
   7 H :    0.109900
   8 H :    0.110476
   9 H :    0.113328
  10 H :    0.110707
  11 H :    0.083531
  12 H :    0.110952
  13 H :    0.109971
  14 H :    0.123666
  15 H :    0.103427
Sum of atomic charges:   -0.0000000

LOEWDIN ATOMIC CHARGES
----------------------
   0 C :   -0.339514
   1 C :   -0.265144
   2 C :    0.049797
   3 O :   -0.131594
   4 C :   -0.257381
   5 C :   -0.331461
   6 H :    0.119331
   7 H :    0.125582
   8 H :    0.125548
   9 H :    0.138145
  10 H :    0.138151
  11 H :    0.118870
  12 H :    0.141084
  13 H :    0.122051
  14 H :    0.127412
  15 H :    0.119121

  Mayer bond orders larger than 0.100000
B(  0-C ,  1-C ) :   1.1590 B(  0-C ,  6-H ) :   0.9490 B(  0-C ,  7-H ) :   0.9541
B(  0-C ,  8-H ) :   0.9535 B(  1-C ,  2-C ) :   1.0105 B(  1-C ,  9-H ) :   0.8963
B(  1-C , 10-H ) :   0.8970 B(  2-C ,  3-O ) :   2.1769 B(  2-C ,  4-C ) :   1.0079
B(  4-C ,  5-C ) :   1.1406 B(  4-C , 11-H ) :   0.9198 B(  4-C , 12-H ) :   0.8935
B(  5-C , 13-H ) :   0.9521 B(  5-C , 14-H ) :   0.9479 B(  5-C , 15-H ) :   0.9572

Dispersion correction           -0.011040541
FINAL SINGLE POINT ENERGY      -271.143818389384

DIPOLE MOMENT
-------------

Method             : SCF
Type of density    : Electron Density
Multiplicity       :   1
Irrep              :   0
Energy             :  -271.1985055361489003 Eh
Relativity type    :
Basis              : AO
                                X                 Y                 Z
Electronic contribution:      0.066898397      -3.078206829       1.619690642
Nuclear contribution   :     -0.174670324       4.023073619      -1.672530176
                        -----------------------------------------
Total Dipole Moment    :     -0.107771927       0.944866790      -0.052839534
                        -----------------------------------------
Magnitude (a.u.)       :      0.952460002
Magnitude (Debye)      :      2.420960927

Rotational constants in cm-1:             0.250824             0.068177             0.060151
Rotational constants in MHz :          7519.529233          2043.888387          1803.289859

                             ****ORCA TERMINATED NORMALLY****
TOTAL RUN TIME: 0 days 0 hours 0 minutes 5 seconds 724 msec
