                         Program Version 6.0.0  -   RELEASE  -
|  1> ! r2scan-3c def2/J RI DEFGRID2 scfconv6 printgap
|  2> %output
|  3>     printlevel normal
|  4> end
|  5> * xyz 0 1
|  6> C -3.6915450093 -0.7101584506 -0.1207758858
|  7> C -3.5239812674 0.4962571866 0.5392725482
|  8> C -2.2805547686 1.0978528424 0.5874742016
|  9> C -1.192878945 0.4900068245 -0.0313987206
| 10> C -1.3609386031 -0.7124571397 -0.7088545839
| 11> C -2.6095378015 -1.3069265005 -0.7454302881
| 12> O 0.0003546902 1.1731647456 -0.002851482
| 13> C 1.1930177686 0.4893170522 0.0283761268
| 14> C 2.283195323 1.0983572178 -0.5849381158
| 15> C 3.5264085635 0.4965878819 -0.5330637818
| 16> C 3.6913465932 -0.7112341771 0.1250142457
| 17> C 2.6067278572 -1.3094057001 0.7438236147
| 18> C 1.358336765 -0.7148134534 0.7036027175
| 19> H -4.6617652121 -1.1803801764 -0.1527428303
| 20> H -4.3634732243 0.9710479271 1.0231351868
| 21> H -2.1298346723 2.037816012 1.0947555631
| 22> H -0.519693038 -1.1705865554 -1.207892558
| 23> H -2.7344307164 -2.2406134156 -1.2720125322
| 24> H 2.1346743356 2.039352354 -1.0908978289
| 25> H 4.3676462977 0.9722154782 -1.0128654466
| 26> H 4.6613461538 -1.1817138254 0.1597413041
| 27> H 2.7294933425 -2.2443960847 1.2686279065
| 28> H 0.5152151232 -1.1739613371 1.1984486208
| 29> *
| 30>
| 31>                          ****END OF INPUT****

CARTESIAN COORDINATES (ANGSTROEM)
---------------------------------
  C     -3.691545   -0.710158   -0.120776
  C     -3.523981    0.496257    0.539273
  C     -2.280555    1.097853    0.587474
  C     -1.192879    0.490007   -0.031399
  C     -1.360939   -0.712457   -0.708855
  C     -2.609538   -1.306927   -0.745430
  O      0.000355    1.173165   -0.002851
  C      1.193018    0.489317    0.028376
  C      2.283195    1.098357   -0.584938
  C      3.526409    0.496588   -0.533064
  C      3.691347   -0.711234    0.125014
  C      2.606728   -1.309406    0.743824
  C      1.358337   -0.714813    0.703603
  H     -4.661765   -1.180380   -0.152743
  H     -4.363473    0.971048    1.023135
  H     -2.129835    2.037816    1.094756
  H     -0.519693   -1.170587   -1.207893
  H     -2.734431   -2.240613   -1.272013
  H      2.134674    2.039352   -1.090898
  H      4.367646    0.972215   -1.012865
  H      4.661346   -1.181714    0.159741
  H      2.729493   -2.244396    1.268628
  H      0.515215   -1.173961    1.198449

 Total Charge           Charge          ....    0
 Multiplicity           Mult            ....    1
 Number of Electrons    NEL             ....   90
 Basis Dimension        Dim             ....  302

ORBITAL ENERGIES
----------------

  NO   OCC          E(Eh)            E(eV)
   0   2.0000     -19.000776      -517.0374
   1   2.0000     -10.102190      -274.8946
   2   2.0000     -10.102178      -274.8942
   3   2.0000     -10.041463      -273.2421
   4   2.0000     -10.041395      -273.2402
   5   2.0000     -10.040880      -273.2262
   6   2.0000     -10.040807      -273.2242
   7   2.0000     -10.038972      -273.1743
   8   2.0000     -10.038882      -273.1719
   9   2.0000     -10.037318      -273.1293
  10   2.0000     -10.037242      -273.1272
  11   2.0000     -10.034333      -273.0481
  12   2.0000     -10.034238      -273.0455
  13   2.0000      -1.052444       -28.6385
  14   2.0000      -0.836846       -22.7717
  15   2.0000      -0.823487       -22.4082
  16   2.0000      -0.739247       -20.1159
  17   2.0000      -0.726574       -19.7711
  18   2.0000      -0.721615       -19.6361
  19   2.0000      -0.698587       -19.0095
  20   2.0000      -0.610914       -16.6238
  21   2.0000      -0.593198       -16.1417
  22   2.0000      -0.578652       -15.7459
  23   2.0000      -0.555390       -15.1129
  24   2.0000      -0.522170       -14.2090
  25   2.0000      -0.484774       -13.1914
  26   2.0000      -0.460447       -12.5294
  27   2.0000      -0.451470       -12.2851
  28   2.0000      -0.439555       -11.9609
  29   2.0000      -0.419726       -11.4213
  30   2.0000      -0.414680       -11.2840
  31   2.0000      -0.398760       -10.8508
  32   2.0000      -0.397849       -10.8260
  33   2.0000      -0.376024       -10.2321
  34   2.0000      -0.374817       -10.1993
  35   2.0000      -0.346836        -9.4379
  36   2.0000      -0.339389        -9.2352
  37   2.0000      -0.333421        -9.0729
  38   2.0000      -0.328990        -8.9523
  39   2.0000      -0.309247        -8.4150
  40   2.0000      -0.306614        -8.3434
  41   2.0000      -0.246616        -6.7108
  42   2.0000      -0.241084        -6.5602
  43   2.0000      -0.238399        -6.4872
  44   2.0000      -0.203118        -5.5271
  45   0.0000      -0.044053        -1.1987
  46   0.0000      -0.037085        -1.0091
  47   0.0000      -0.030800        -0.8381
  48   0.0000      -0.016731        -0.4553
  49   0.0000       0.075119         2.0441

MULLIKEN ATOMIC CHARGES
-----------------------
   0 C :   -0.170162
   1 C :   -0.116581
   2 C :   -0.305772
   3 C :    0.261839
   4 C :   -0.222927
   5 C :   -0.142750
   6 O :   -0.152345
   7 C :    0.262946
   8 C :   -0.306385
   9 C :   -0.116389
  10 C :   -0.170305
  11 C :   -0.143169
  12 C :   -0.222963
  13 H :    0.147672
  14 H :    0.149467
  15 H :    0.159305
  16 H :    0.167641
  17 H :    0.148435
  18 H :    0.159257
  19 H :    0.149440
  20 H :    0.147652
  21 H :    0.148407
  22 H :    0.167684
Sum of atomic charges:   -0.0000000

LOEWDIN ATOMIC CHARGES
----------------------
   0 C :   -0.180924
   1 C :   -0.153844
   2 C :   -0.129774
   3 C :    0.192898
   4 C :   -0.147257
   5 C :   -0.154348
   6 O :   -0.597237
   7 C :    0.193110
   8 C :   -0.129876
   9 C :   -0.153832
  10 C :   -0.181050
  11 C :   -0.154319
  12 C :   -0.147410
  13 H :    0.167261
  14 H :    0.169003
  15 H :    0.181385
  16 H :    0.185280
  17 H :    0.169025
  18 H :    0.181365
  19 H :    0.168979
  20 H :    0.167248
  21 H :    0.169015
  22 H :    0.185301

  Mayer bond orders larger than 0.100000
B(  0-C ,  1-C ) :   1.4182 B(  0-C ,  5-C ) :   1.4213 B(  0-C , 13-H ) :   0.9475
B(  1-C ,  2-C ) :   1.3779 B(  1-C , 14-H ) :   0.9461 B(  2-C ,  3-C ) :   1.4389
B(  2-C , 15-H ) :   0.9493 B(  3-C ,  4-C ) :   1.4078 B(  3-C ,  6-O ) :   0.8847
B(  4-C ,  5-C ) :   1.4062 B(  4-C , 16-H ) :   0.9258 B(  5-C , 17-H ) :   0.9492
B(  6-O ,  7-C ) :   0.8856 B(  7-C ,  8-C ) :   1.4383 B(  7-C , 12-C ) :   1.4078
B(  8-C ,  9-C ) :   1.3779 B(  8-C , 18-H ) :   0.9492 B(  9-C , 10-C ) :   1.4181
B(  9-C , 19-H ) :   0.9461 B( 10-C , 11-C ) :   1.4213 B( 10-C , 20-H ) :   0.9476
B( 11-C , 12-C ) :   1.4067 B( 11-C , 21-H ) :   0.9492 B( 12-C , 22-H ) :   0.9256

Dispersion correction           -0.009088726
FINAL SINGLE POINT ENERGY      -538.378040691852

DIPOLE MOMENT
-------------

Method             : SCF
Type of density    : Electron Density
Multiplicity       :   1
Irrep              :   0
Energy             :  -538.3746725578700989 Eh
Relativity type    :
Basis              : AO
                                X                 Y                 Z
Electronic contribution:     -0.001367801       2.618425436      -0.007124585
Nuclear contribution   :     -0.000765557      -2.957769766       0.007742131
                        -----------------------------------------
Total Dipole Moment    :     -0.002133358      -0.339344330       0.000617546
                        -----------------------------------------
Magnitude (a.u.)       :      0.339351598
Magnitude (Debye)      :      0.862563213

Rotational constants in cm-1:             0.081949             0.014640             0.013442
Rotational constants in MHz :          2456.781297           438.891492           402.991323

                             ****ORCA TERMINATED NORMALLY****
TOTAL RUN TIME: 0 days 0 hours 0 minutes 49 seconds 840 msec
