                         Program Version 6.0.0  -   RELEASE  -
|  1> ! r2scan-3c def2/J RI DEFGRID2 scfconv6 printgap
|  2> %output
|  3>     printlevel normal
|  4> end
|  5> %cpcm
|  6>     smd true
|  7>     smdsolvent "water"
|  8> end
|  9> * xyz 0 1
| 10> C -3.6915450093 -0.7101584506 -0.1207758858
| 11> C -3.5239812674 0.4962571866 0.5392725482
| 12> C -2.2805547686 1.0978528424 0.5874742016
| 13> C -1.192878945 0.4900068245 -0.0313987206
| 14> C -1.3609386031 -0.7124571397 -0.7088545839
| 15> C -2.6095378015 -1.3069265005 -0.7454302881
| 16> O 0.0003546902 1.1731647456 -0.002851482
| 17> C 1.1930177686 0.4893170522 0.0283761268
| 18> C 2.283195323 1.0983572178 -0.5849381158
| 19> C 3.5264085635 0.4965878819 -0.5330637818
| 20> C 3.6913465932 -0.7112341771 0.1250142457
| 21> C 2.6067278572 -1.3094057001 0.7438236147
| 22> C 1.358336765 -0.7148134534 0.7036027175
| 23> H -4.6617652121 -1.1803801764 -0.1527428303
| 24> H -4.3634732243 0.9710479271 1.0231351868
| 25> H -2.1298346723 2.037816012 1.0947555631
| 26> H -0.519693038 -1.1705865554 -1.207892558
| 27> H -2.7344307164 -2.2406134156 -1.2720125322
| 28> H 2.1346743356 2.039352354 -1.0908978289
| 29> H 4.3676462977 0.9722154782 -1.0128654466
| 30> H 4.6613461538 -1.1817138254 0.1597413041
| 31> H 2.7294933425 -2.2443960847 1.2686279065
| 32> H 0.5152151232 -1.1739613371 1.1984486208
| 33> *
| 34>
| 35>                          ****END OF INPUT****

CARTESIAN COORDINATES (ANGSTROEM)
---------------------------------
  C     -3.691545   -0.710158   -0.120776
  C     -3.523981    0.496257    0.539273
  C     -2.280555    1.097853    0.587474
  C     -1.192879    0.490007   -0.031399
  C     -1.360939   -0.712457   -0.708855
  C     -2.609538   -1.306927   -0.745430
  O      0.000355    1.173165   -0.002851
  C      1.193018    0.489317    0.028376
  C      2.283195    1.098357   -0.584938
  C      3.526409    0.496588   -0.533064
  C      3.691347   -0.711234    0.125014
  C      2.606728   -1.309406    0.743824
  C      1.358337   -0.714813    0.703603
  H     -4.661765   -1.180380   -0.152743
  H     -4.363473    0.971048    1.023135
  H     -2.129835    2.037816    1.094756
  H     -0.519693   -1.170587   -1.207893
  H     -2.734431   -2.240613   -1.272013
  H      2.134674    2.039352   -1.090898
  H      4.367646    0.972215   -1.012865
  H      4.661346   -1.181714    0.159741
  H      2.729493   -2.244396    1.268628
  H      0.515215   -1.173961    1.198449

 Total Charge           Charge          ....    0
 Multiplicity           Mult            ....    1
 Number of Electrons    NEL             ....   90
 Basis Dimension        Dim             ....  302

ORBITAL ENERGIES
----------------

  NO   OCC          E(Eh)            E(eV)
   0   2.0000     -19.005649      -517.1700
   1   2.0000     -10.103099      -274.9193
   2   2.0000     -10.103072      -274.9186
   3   2.0000     -10.038312      -273.1563
   4   2.0000     -10.038292      -273.1558
   5   2.0000     -10.038057      -273.1494
   6   2.0000     -10.038032      -273.1487
   7   2.0000     -10.037225      -273.1268
   8   2.0000     -10.037182      -273.1256
   9   2.0000     -10.036097      -273.0961
  10   2.0000     -10.036062      -273.0951
  11   2.0000     -10.031399      -272.9682
  12   2.0000     -10.031352      -272.9670
  13   2.0000      -1.056966       -28.7615
  14   2.0000      -0.837052       -22.7773
  15   2.0000      -0.823222       -22.4010
  16   2.0000      -0.739328       -20.1181
  17   2.0000      -0.725034       -19.7292
  18   2.0000      -0.720032       -19.5931
  19   2.0000      -0.697699       -18.9854
  20   2.0000      -0.610569       -16.6144
  21   2.0000      -0.591198       -16.0873
  22   2.0000      -0.576374       -15.6839
  23   2.0000      -0.552596       -15.0369
  24   2.0000      -0.519967       -14.1490
  25   2.0000      -0.481222       -13.0947
  26   2.0000      -0.456928       -12.4337
  27   2.0000      -0.451129       -12.2758
  28   2.0000      -0.439749       -11.9662
  29   2.0000      -0.414581       -11.2813
  30   2.0000      -0.410507       -11.1705
  31   2.0000      -0.394601       -10.7377
  32   2.0000      -0.393924       -10.7192
  33   2.0000      -0.377030       -10.2595
  34   2.0000      -0.376574       -10.2471
  35   2.0000      -0.347194        -9.4476
  36   2.0000      -0.336116        -9.1462
  37   2.0000      -0.329177        -8.9574
  38   2.0000      -0.328444        -8.9374
  39   2.0000      -0.307320        -8.3626
  40   2.0000      -0.305531        -8.3139
  41   2.0000      -0.247587        -6.7372
  42   2.0000      -0.242145        -6.5891
  43   2.0000      -0.240533        -6.5452
  44   2.0000      -0.205667        -5.5965
  45   0.0000      -0.044333        -1.2063
  46   0.0000      -0.038148        -1.0381
  47   0.0000      -0.031165        -0.8480
  48   0.0000      -0.017774        -0.4837
  49   0.0000       0.081398         2.2149

MULLIKEN ATOMIC CHARGES
-----------------------
   0 C :   -0.205081
   1 C :   -0.155726
   2 C :   -0.336210
   3 C :    0.266561
   4 C :   -0.230975
   5 C :   -0.183597
   6 O :   -0.170968
   7 C :    0.267866
   8 C :   -0.336875
   9 C :   -0.155510
  10 C :   -0.205277
  11 C :   -0.184053
  12 C :   -0.231113
  13 H :    0.180735
  14 H :    0.184036
  15 H :    0.188149
  16 H :    0.195168
  17 H :    0.182453
  18 H :    0.188107
  19 H :    0.184007
  20 H :    0.180710
  21 H :    0.182427
  22 H :    0.195164
Sum of atomic charges:   -0.0000000

LOEWDIN ATOMIC CHARGES
----------------------
   0 C :   -0.189284
   1 C :   -0.161409
   2 C :   -0.139206
   3 C :    0.183501
   4 C :   -0.149126
   5 C :   -0.160490
   6 O :   -0.615554
   7 C :    0.183738
   8 C :   -0.139329
   9 C :   -0.161405
  10 C :   -0.189445
  11 C :   -0.160485
  12 C :   -0.149302
  13 H :    0.178021
  14 H :    0.180565
  15 H :    0.190541
  16 H :    0.194078
  17 H :    0.180723
  18 H :    0.190525
  19 H :    0.180540
  20 H :    0.178006
  21 H :    0.180716
  22 H :    0.194083

  Mayer bond orders larger than 0.100000
B(  0-C ,  1-C ) :   1.3835 B(  0-C ,  5-C ) :   1.3869 B(  0-C , 13-H ) :   0.9549
B(  1-C ,  2-C ) :   1.3623 B(  1-C , 14-H ) :   0.9507 B(  2-C ,  3-C ) :   1.3873
B(  2-C , 15-H ) :   0.9581 B(  3-C ,  4-C ) :   1.3759 B(  3-C ,  6-O ) :   0.8755
B(  4-C ,  5-C ) :   1.3882 B(  4-C , 16-H ) :   0.9279 B(  5-C , 17-H ) :   0.9559
B(  6-O ,  7-C ) :   0.8764 B(  7-C ,  8-C ) :   1.3866 B(  7-C , 12-C ) :   1.3757
B(  8-C ,  9-C ) :   1.3623 B(  8-C , 18-H ) :   0.9582 B(  9-C , 10-C ) :   1.3834
B(  9-C , 19-H ) :   0.9507 B( 10-C , 11-C ) :   1.3869 B( 10-C , 20-H ) :   0.9549
B( 11-C , 12-C ) :   1.3886 B( 11-C , 21-H ) :   0.9559 B( 12-C , 22-H ) :   0.9277

Dispersion correction           -0.009088726
FINAL SINGLE POINT ENERGY      -538.381895492571

DIPOLE MOMENT
-------------

Method             : SCF
Type of density    : Electron Density
Multiplicity       :   1
Irrep              :   0
Energy             :  -538.3785273585888262 Eh
Relativity type    :
Basis              : AO
                                X                 Y                 Z
Electronic contribution:     -0.001870879       2.399500460      -0.006890589
Nuclear contribution   :     -0.000765557      -2.957769766       0.007742131
                        -----------------------------------------
Total Dipole Moment    :     -0.002636437      -0.558269306       0.000851542
                        -----------------------------------------
Magnitude (a.u.)       :      0.558276181
Magnitude (Debye)      :      1.419025280

Rotational constants in cm-1:             0.081949             0.014640             0.013442
Rotational constants in MHz :          2456.781297           438.891492           402.991323

                             ****ORCA TERMINATED NORMALLY****
TOTAL RUN TIME: 0 days 0 hours 1 minutes 0 seconds 823 msec
