                         Program Version 6.0.0  -   RELEASE  -
|  1> ! pbe def2-sv(p) def2/J RI DEFGRID1 loosescf d4 GCP(DFT/SV(P)) printgap
|  2> %output
|  3>     printlevel normal
|  4> end
|  5> * xyz 0 1
|  6> C 0.5227443405 1.932447316 0.3456062069
|  7> C 1.8709776796 2.1822983201 0.4224169005
|  8> C 2.8141698502 1.1731671608 0.1959778545
|  9> C 2.3501861613 -0.1180101442 -0.1177629988
| 10> C 0.97258137 -0.3530288488 -0.1833441333
| 11> C 0.049380773 0.6498615307 0.0438338075
| 12> C -1.3967874436 0.3929841593 -0.0382855962
| 13> C -2.2463713572 1.2919117344 -0.6835618311
| 14> C -3.6072285799 1.0676263462 -0.775667407
| 15> C -4.1287286106 -0.0777539578 -0.205139818
| 16> C -3.3367422325 -0.997923694 0.4539803115
| 17> C -1.9810718385 -0.7409425407 0.5213018195
| 18> F -1.2125694373 -1.6353990088 1.1960392969
| 19> F -5.4640236195 -0.312839616 -0.2880264225
| 20> C 3.2187726726 -1.2712073943 -0.3953866561
| 21> O 2.8067730725 -2.3724880165 -0.7104741114
| 22> O 4.5306450524 -1.0376949562 -0.2814608463
| 23> O 4.1015104487 1.5237108849 0.2944136279
| 24> H -0.1798273994 2.7266737911 0.5416416874
| 25> H 2.2439208081 3.1646656545 0.6632203513
| 26> H 0.6578203166 -1.3549683073 -0.4343664496
| 27> H -1.8221923961 2.1730936119 -1.1362318498
| 28> H -4.2586751767 1.7611269874 -1.2804350104
| 29> H -3.7553469439 -1.8825378832 0.9036130705
| 30> H 5.0595088178 -1.8356811394 -0.4749227413
| 31> H 4.6938212211 0.7662626916 0.1321409258
| 32> *
| 33>
| 34>                          ****END OF INPUT****

CARTESIAN COORDINATES (ANGSTROEM)
---------------------------------
  C      0.522744    1.932447    0.345606
  C      1.870978    2.182298    0.422417
  C      2.814170    1.173167    0.195978
  C      2.350186   -0.118010   -0.117763
  C      0.972581   -0.353029   -0.183344
  C      0.049381    0.649862    0.043834
  C     -1.396787    0.392984   -0.038286
  C     -2.246371    1.291912   -0.683562
  C     -3.607229    1.067626   -0.775667
  C     -4.128729   -0.077754   -0.205140
  C     -3.336742   -0.997924    0.453980
  C     -1.981072   -0.740943    0.521302
  F     -1.212569   -1.635399    1.196039
  F     -5.464024   -0.312840   -0.288026
  C      3.218773   -1.271207   -0.395387
  O      2.806773   -2.372488   -0.710474
  O      4.530645   -1.037695   -0.281461
  O      4.101510    1.523711    0.294414
  H     -0.179827    2.726674    0.541642
  H      2.243921    3.164666    0.663220
  H      0.657820   -1.354968   -0.434366
  H     -1.822192    2.173094   -1.136232
  H     -4.258675    1.761127   -1.280435
  H     -3.755347   -1.882538    0.903613
  H      5.059509   -1.835681   -0.474923
  H      4.693821    0.766263    0.132141

 Total Charge           Charge          ....    0
 Multiplicity           Mult            ....    1
 Number of Electrons    NEL             ....  128
 Basis Dimension        Dim             ....  268

ORBITAL ENERGIES
----------------

  NO   OCC          E(Eh)            E(eV)
   0   2.0000     -24.278303      -660.6462
   1   2.0000     -24.275085      -660.5586
   2   2.0000     -18.827051      -512.3101
   3   2.0000     -18.792653      -511.3741
   4   2.0000     -18.748014      -510.1594
   5   2.0000     -10.028157      -272.8800
   6   2.0000      -9.986140      -271.7367
   7   2.0000      -9.984826      -271.7009
   8   2.0000      -9.973801      -271.4009
   9   2.0000      -9.917112      -269.8583
  10   2.0000      -9.916269      -269.8354
  11   2.0000      -9.914078      -269.7758
  12   2.0000      -9.911918      -269.7170
  13   2.0000      -9.910259      -269.6719
  14   2.0000      -9.907812      -269.6053
  15   2.0000      -9.905974      -269.5553
  16   2.0000      -9.905541      -269.5435
  17   2.0000      -9.899974      -269.3920
  18   2.0000      -1.104930       -30.0667
  19   2.0000      -1.101854       -29.9830
  20   2.0000      -1.029061       -28.0022
  21   2.0000      -0.978731       -26.6326
  22   2.0000      -0.923793       -25.1377
  23   2.0000      -0.805252       -21.9120
  24   2.0000      -0.785345       -21.3703
  25   2.0000      -0.718416       -19.5491
  26   2.0000      -0.700752       -19.0684
  27   2.0000      -0.690223       -18.7819
  28   2.0000      -0.659651       -17.9500
  29   2.0000      -0.625221       -17.0131
  30   2.0000      -0.584710       -15.9108
  31   2.0000      -0.574293       -15.6273
  32   2.0000      -0.553131       -15.0515
  33   2.0000      -0.546142       -14.8613
  34   2.0000      -0.523264       -14.2387
  35   2.0000      -0.505915       -13.7666
  36   2.0000      -0.474043       -12.8994
  37   2.0000      -0.469360       -12.7719
  38   2.0000      -0.450884       -12.2692
  39   2.0000      -0.445123       -12.1124
  40   2.0000      -0.436058       -11.8657
  41   2.0000      -0.424116       -11.5408
  42   2.0000      -0.421465       -11.4687
  43   2.0000      -0.415475       -11.3057
  44   2.0000      -0.407247       -11.0817
  45   2.0000      -0.400261       -10.8917
  46   2.0000      -0.391025       -10.6403
  47   2.0000      -0.385017       -10.4768
  48   2.0000      -0.376043       -10.2326
  49   2.0000      -0.370762       -10.0890
  50   2.0000      -0.366817        -9.9816
  51   2.0000      -0.350521        -9.5382
  52   2.0000      -0.338738        -9.2175
  53   2.0000      -0.325758        -8.8643
  54   2.0000      -0.318274        -8.6607
  55   2.0000      -0.317509        -8.6399
  56   2.0000      -0.308638        -8.3985
  57   2.0000      -0.298839        -8.1318
  58   2.0000      -0.291683        -7.9371
  59   2.0000      -0.243931        -6.6377
  60   2.0000      -0.242442        -6.5972
  61   2.0000      -0.239273        -6.5109
  62   2.0000      -0.234109        -6.3704
  63   2.0000      -0.198641        -5.4053
  64   0.0000      -0.081605        -2.2206
  65   0.0000      -0.058540        -1.5930
  66   0.0000      -0.047108        -1.2819
  67   0.0000      -0.017852        -0.4858
  68   0.0000       0.007608         0.2070

MULLIKEN ATOMIC CHARGES
-----------------------
   0 C :   -0.095029
   1 C :   -0.121261
   2 C :    0.160739
   3 C :   -0.032395
   4 C :   -0.187601
   5 C :    0.152615
   6 C :    0.042150
   7 C :   -0.123442
   8 C :   -0.140166
   9 C :    0.355245
  10 C :   -0.259694
  11 C :    0.261627
  12 F :   -0.161355
  13 F :   -0.173683
  14 C :    0.133551
  15 O :   -0.175562
  16 O :   -0.338642
  17 O :   -0.302852
  18 H :    0.054223
  19 H :    0.049411
  20 H :    0.065374
  21 H :    0.059333
  22 H :    0.060067
  23 H :    0.064665
  24 H :    0.329825
  25 H :    0.322857
Sum of atomic charges:    0.0000000

LOEWDIN ATOMIC CHARGES
----------------------
   0 C :   -0.089949
   1 C :   -0.142170
   2 C :    0.044375
   3 C :   -0.126465
   4 C :   -0.067757
   5 C :   -0.050736
   6 C :   -0.064159
   7 C :   -0.098030
   8 C :   -0.159466
   9 C :    0.074264
  10 C :   -0.172959
  11 C :    0.084662
  12 F :   -0.043002
  13 F :   -0.053952
  14 C :    0.043977
  15 O :   -0.163658
  16 O :   -0.220796
  17 O :   -0.212680
  18 H :    0.129779
  19 H :    0.134718
  20 H :    0.138898
  21 H :    0.132164
  22 H :    0.138359
  23 H :    0.148833
  24 H :    0.307421
  25 H :    0.288328

  Mayer bond orders larger than 0.100000
B(  0-C ,  1-C ) :   1.3863 B(  0-C ,  5-C ) :   1.3093 B(  0-C , 18-H ) :   0.9614
B(  1-C ,  2-C ) :   1.3281 B(  1-C , 19-H ) :   0.9604 B(  2-C ,  3-C ) :   1.2075
B(  2-C , 17-O ) :   1.3238 B(  3-C ,  4-C ) :   1.3385 B(  3-C , 14-C ) :   0.9659
B(  4-C ,  5-C ) :   1.3440 B(  4-C , 20-H ) :   0.9556 B(  5-C ,  6-C ) :   0.9788
B(  6-C ,  7-C ) :   1.3670 B(  6-C , 11-C ) :   1.3331 B(  7-C ,  8-C ) :   1.3291
B(  7-C , 21-H ) :   0.9564 B(  8-C ,  9-C ) :   1.3438 B(  8-C , 22-H ) :   0.9685
B(  9-C , 10-C ) :   1.2880 B(  9-C , 13-F ) :   1.0866 B( 10-C , 11-C ) :   1.3024
B( 10-C , 23-H ) :   0.9753 B( 11-C , 12-F ) :   1.1093 B( 14-C , 15-O ) :   2.1064
B( 14-C , 16-O ) :   1.1886 B( 16-O , 24-H ) :   0.8092 B( 17-O , 25-H ) :   0.7886

Dispersion correction           -0.034679262
FINAL SINGLE POINT ENERGY      -923.758360469606

DIPOLE MOMENT
-------------

Method             : SCF
Type of density    : Electron Density
Multiplicity       :   1
Irrep              :   0
Energy             :  -923.8431861943697641 Eh
Relativity type    :
Basis              : AO
                                X                 Y                 Z
Electronic contribution:     -7.938937463      -6.473864365       1.756568810
Nuclear contribution   :      8.831175074       6.954615394      -1.869856468
                        -----------------------------------------
Total Dipole Moment    :      0.892237611       0.480751029      -0.113287658
                        -----------------------------------------
Magnitude (a.u.)       :      1.019825280
Magnitude (Debye)      :      2.592189856

Rotational constants in cm-1:             0.033650             0.006890             0.006004
Rotational constants in MHz :          1008.791079           206.553080           180.002716

                             ****ORCA TERMINATED NORMALLY****
TOTAL RUN TIME: 0 days 0 hours 0 minutes 23 seconds 669 msec
