                         Program Version 6.0.0  -   RELEASE  -
|  1> ! pbe def2-sv(p) def2/J RI DEFGRID1 loosescf d4 GCP(DFT/SV(P)) printgap
|  2> %output
|  3>     printlevel normal
|  4> end
|  5> * xyz 0 1
|  6> C -3.4393845755 0.8198756823 -0.230016775
|  7> C -2.041504211 0.4652721716 0.2693825454
|  8> C -2.0989052125 -0.7492063513 1.1920539045
|  9> C -1.1107600699 0.2039891027 -0.930449676
| 10> C 0.3067746734 0.0305361954 -0.4920501183
| 11> C 0.8941233934 -1.2275813943 -0.3374415893
| 12> N 2.138542486 -1.3814906308 0.0847928349
| 13> C 2.822804664 -0.277270124 0.3582143714
| 14> C 2.2541552305 0.978168092 0.199866078
| 15> N 1.0074502558 1.1299827753 -0.2205591822
| 16> H -4.1002287396 1.0177651148 0.6100733557
| 17> H -3.8547479828 -0.0026626449 -0.8077845327
| 18> H -3.4100327087 1.7051754318 -0.8598856652
| 19> H -1.6370465749 1.3158585076 0.8278297721
| 20> H -1.1104946272 -0.9953428904 1.5751876952
| 21> H -2.7511404292 -0.5485704546 2.0383690893
| 22> H -2.4866257166 -1.6139295856 0.6577978386
| 23> H -1.1619250683 1.0627821864 -1.6002251248
| 24> H -1.4456745569 -0.6880988201 -1.4609497751
| 25> H 0.3523513691 -2.1361527784 -0.5604248626
| 26> H 3.8367680462 -0.4130656508 0.704139214
| 27> H 2.8009593175 1.8862931479 0.4103590188
| 28> *
| 29>
| 30>                          ****END OF INPUT****

CARTESIAN COORDINATES (ANGSTROEM)
---------------------------------
  C     -3.439385    0.819876   -0.230017
  C     -2.041504    0.465272    0.269383
  C     -2.098905   -0.749206    1.192054
  C     -1.110760    0.203989   -0.930450
  C      0.306775    0.030536   -0.492050
  C      0.894123   -1.227581   -0.337442
  N      2.138542   -1.381491    0.084793
  C      2.822805   -0.277270    0.358214
  C      2.254155    0.978168    0.199866
  N      1.007450    1.129983   -0.220559
  H     -4.100229    1.017765    0.610073
  H     -3.854748   -0.002663   -0.807785
  H     -3.410033    1.705175   -0.859886
  H     -1.637047    1.315859    0.827830
  H     -1.110495   -0.995343    1.575188
  H     -2.751140   -0.548570    2.038369
  H     -2.486626   -1.613930    0.657798
  H     -1.161925    1.062782   -1.600225
  H     -1.445675   -0.688099   -1.460950
  H      0.352351   -2.136153   -0.560425
  H      3.836768   -0.413066    0.704139
  H      2.800959    1.886293    0.410359

 Total Charge           Charge          ....    0
 Multiplicity           Mult            ....    1
 Number of Electrons    NEL             ....   74
 Basis Dimension        Dim             ....  164

ORBITAL ENERGIES
----------------

  NO   OCC          E(Eh)            E(eV)
   0   2.0000     -13.999440      -380.9441
   1   2.0000     -13.999275      -380.9396
   2   2.0000      -9.942149      -270.5396
   3   2.0000      -9.932060      -270.2651
   4   2.0000      -9.930628      -270.2261
   5   2.0000      -9.929365      -270.1918
   6   2.0000      -9.903441      -269.4863
   7   2.0000      -9.893431      -269.2140
   8   2.0000      -9.877890      -268.7911
   9   2.0000      -9.877531      -268.7813
  10   2.0000      -0.897879       -24.4325
  11   2.0000      -0.823617       -22.4118
  12   2.0000      -0.745650       -20.2902
  13   2.0000      -0.701899       -19.0996
  14   2.0000      -0.635705       -17.2984
  15   2.0000      -0.616264       -16.7694
  16   2.0000      -0.593407       -16.1474
  17   2.0000      -0.565282       -15.3821
  18   2.0000      -0.505837       -13.7645
  19   2.0000      -0.475916       -12.9503
  20   2.0000      -0.464993       -12.6531
  21   2.0000      -0.432211       -11.7611
  22   2.0000      -0.413135       -11.2420
  23   2.0000      -0.407567       -11.0905
  24   2.0000      -0.391885       -10.6637
  25   2.0000      -0.376671       -10.2497
  26   2.0000      -0.364853        -9.9282
  27   2.0000      -0.345917        -9.4129
  28   2.0000      -0.340772        -9.2729
  29   2.0000      -0.330013        -8.9801
  30   2.0000      -0.309711        -8.4277
  31   2.0000      -0.294961        -8.0263
  32   2.0000      -0.292575        -7.9614
  33   2.0000      -0.289411        -7.8753
  34   2.0000      -0.250951        -6.8287
  35   2.0000      -0.243344        -6.6217
  36   2.0000      -0.197945        -5.3864
  37   0.0000      -0.078389        -2.1331
  38   0.0000      -0.055107        -1.4995
  39   0.0000       0.036129         0.9831
  40   0.0000       0.058632         1.5955
  41   0.0000       0.067557         1.8383

MULLIKEN ATOMIC CHARGES
-----------------------
   0 C :   -0.218309
   1 C :   -0.218404
   2 C :   -0.258033
   3 C :   -0.015277
   4 C :   -0.088431
   5 C :   -0.068950
   6 N :   -0.039242
   7 C :   -0.060745
   8 C :   -0.047227
   9 N :   -0.050675
  10 H :    0.101907
  11 H :    0.091285
  12 H :    0.100666
  13 H :    0.087219
  14 H :    0.118708
  15 H :    0.103062
  16 H :    0.091604
  17 H :    0.086789
  18 H :    0.072977
  19 H :    0.060443
  20 H :    0.076151
  21 H :    0.074483
Sum of atomic charges:   -0.0000000

LOEWDIN ATOMIC CHARGES
----------------------
   0 C :   -0.327963
   1 C :   -0.148558
   2 C :   -0.333164
   3 C :   -0.209612
   4 C :   -0.021584
   5 C :   -0.097997
   6 N :   -0.050415
   7 C :   -0.104179
   8 C :   -0.095603
   9 N :   -0.053817
  10 H :    0.119516
  11 H :    0.116731
  12 H :    0.118828
  13 H :    0.120590
  14 H :    0.120290
  15 H :    0.120939
  16 H :    0.116106
  17 H :    0.132059
  18 H :    0.121414
  19 H :    0.117460
  20 H :    0.119562
  21 H :    0.119396

  Mayer bond orders larger than 0.100000
B(  0-C ,  1-C ) :   1.1147 B(  0-C , 10-H ) :   0.9505 B(  0-C , 11-H ) :   0.9474
B(  0-C , 12-H ) :   0.9485 B(  1-C ,  2-C ) :   1.1072 B(  1-C ,  3-C ) :   1.0845
B(  1-C , 13-H ) :   0.8999 B(  2-C , 14-H ) :   0.9425 B(  2-C , 15-H ) :   0.9481
B(  2-C , 16-H ) :   0.9483 B(  3-C ,  4-C ) :   1.0689 B(  3-C , 17-H ) :   0.8840
B(  3-C , 18-H ) :   0.8943 B(  4-C ,  5-C ) :   1.3365 B(  4-C ,  7-C ) :   0.1029
B(  4-C ,  9-N ) :   1.5308 B(  5-C ,  6-N ) :   1.5645 B(  5-C , 19-H ) :   0.9455
B(  6-N ,  7-C ) :   1.5384 B(  7-C ,  8-C ) :   1.3575 B(  7-C , 20-H ) :   0.9474
B(  8-C ,  9-N ) :   1.5334 B(  8-C , 21-H ) :   0.9454

Dispersion correction           -0.022266720
FINAL SINGLE POINT ENERGY      -420.627171154632

DIPOLE MOMENT
-------------

Method             : SCF
Type of density    : Electron Density
Multiplicity       :   1
Irrep              :   0
Energy             :  -420.6949932850421874 Eh
Relativity type    :
Basis              : AO
                                X                 Y                 Z
Electronic contribution:     13.758832112      -0.430918222      -1.411633053
Nuclear contribution   :    -14.025102660       0.552188856       1.438861654
                        -----------------------------------------
Total Dipole Moment    :     -0.266270549       0.121270634       0.027228600
                        -----------------------------------------
Magnitude (a.u.)       :      0.293850248
Magnitude (Debye)      :      0.746907973

Rotational constants in cm-1:             0.106562             0.026075             0.023736
Rotational constants in MHz :          3194.658148           781.697909           711.597436

                             ****ORCA TERMINATED NORMALLY****
TOTAL RUN TIME: 0 days 0 hours 0 minutes 11 seconds 424 msec
