                         Program Version 6.0.0  -   RELEASE  -
|  1> ! pbe def2-sv(p) def2/J RI DEFGRID1 loosescf d4 GCP(DFT/SV(P)) printgap
|  2> %output
|  3>     printlevel normal
|  4> end
|  5> * xyz 0 1
|  6> C 2.5153654983 0.7829437806 0.0599335903
|  7> C 1.3026370852 0.584902354 -0.8449388288
|  8> C 0.2635445508 -0.4792283061 -0.4005285378
|  9> H 0.2298230593 -1.2485464653 -1.181282131
| 10> C 0.6307389503 -1.1949902223 0.8989280077
| 11> C -1.1507174762 0.1419788724 -0.3467829689
| 12> C -2.2455352971 -0.9250901654 -0.3475224163
| 13> C -1.3416044006 1.0805138571 0.8435099001
| 14> H 2.2194553826 1.104318677 1.0545214088
| 15> H 3.0993904106 -0.1288328377 0.1473443001
| 16> H 3.1557685356 1.5529563933 -0.3658614023
| 17> H 1.6668171947 0.3204979341 -1.8401940084
| 18> H 0.8017376771 1.5501093844 -0.9432637086
| 19> H 0.721027919 -0.5023480983 1.7291623232
| 20> H -0.1308070461 -1.9303340663 1.1445559574
| 21> H 1.5736260979 -1.722885736 0.7853107128
| 22> H -1.2702300598 0.728229923 -1.2665437769
| 23> H -2.2271994672 -1.507240621 0.5702064066
| 24> H -2.1226420608 -1.6025375867 -1.1896359248
| 25> H -3.2230044581 -0.4546386303 -0.4267813867
| 26> H -2.2763516267 1.627244347 0.7394194367
| 27> H -0.5310074027 1.8018363881 0.9073667595
| 28> H -1.3816771451 0.5190631699 1.7730661025
| 29> *
| 30>
| 31>                          ****END OF INPUT****

CARTESIAN COORDINATES (ANGSTROEM)
---------------------------------
  C      2.515365    0.782944    0.059934
  C      1.302637    0.584902   -0.844939
  C      0.263545   -0.479228   -0.400529
  H      0.229823   -1.248546   -1.181282
  C      0.630739   -1.194990    0.898928
  C     -1.150717    0.141979   -0.346783
  C     -2.245535   -0.925090   -0.347522
  C     -1.341604    1.080514    0.843510
  H      2.219455    1.104319    1.054521
  H      3.099390   -0.128833    0.147344
  H      3.155769    1.552956   -0.365861
  H      1.666817    0.320498   -1.840194
  H      0.801738    1.550109   -0.943264
  H      0.721028   -0.502348    1.729162
  H     -0.130807   -1.930334    1.144556
  H      1.573626   -1.722886    0.785311
  H     -1.270230    0.728230   -1.266544
  H     -2.227199   -1.507241    0.570206
  H     -2.122642   -1.602538   -1.189636
  H     -3.223004   -0.454639   -0.426781
  H     -2.276352    1.627244    0.739419
  H     -0.531007    1.801836    0.907367
  H     -1.381677    0.519063    1.773066

 Total Charge           Charge          ....    0
 Multiplicity           Mult            ....    1
 Number of Electrons    NEL             ....   58
 Basis Dimension        Dim             ....  130

ORBITAL ENERGIES
----------------

  NO   OCC          E(Eh)            E(eV)
   0   2.0000      -9.887816      -269.0611
   1   2.0000      -9.886424      -269.0233
   2   2.0000      -9.876955      -268.7656
   3   2.0000      -9.868991      -268.5489
   4   2.0000      -9.868393      -268.5326
   5   2.0000      -9.867371      -268.5048
   6   2.0000      -9.866761      -268.4882
   7   2.0000      -0.739404       -20.1202
   8   2.0000      -0.682313       -18.5667
   9   2.0000      -0.635623       -17.2962
  10   2.0000      -0.606382       -16.5005
  11   2.0000      -0.580250       -15.7894
  12   2.0000      -0.515315       -14.0224
  13   2.0000      -0.469246       -12.7688
  14   2.0000      -0.423791       -11.5319
  15   2.0000      -0.411336       -11.1930
  16   2.0000      -0.396663       -10.7937
  17   2.0000      -0.368543       -10.0286
  18   2.0000      -0.353882        -9.6296
  19   2.0000      -0.344549        -9.3757
  20   2.0000      -0.343485        -9.3467
  21   2.0000      -0.332042        -9.0353
  22   2.0000      -0.321269        -8.7422
  23   2.0000      -0.310420        -8.4470
  24   2.0000      -0.293995        -8.0000
  25   2.0000      -0.292790        -7.9672
  26   2.0000      -0.266621        -7.2551
  27   2.0000      -0.263518        -7.1707
  28   2.0000      -0.254999        -6.9389
  29   0.0000       0.028407         0.7730
  30   0.0000       0.057282         1.5587
  31   0.0000       0.065298         1.7768
  32   0.0000       0.067625         1.8402
  33   0.0000       0.089232         2.4281

MULLIKEN ATOMIC CHARGES
-----------------------
   0 C :   -0.265705
   1 C :   -0.158341
   2 C :   -0.131607
   3 H :    0.057139
   4 C :   -0.241482
   5 C :   -0.178294
   6 C :   -0.239770
   7 C :   -0.257296
   8 H :    0.098602
   9 H :    0.096670
  10 H :    0.099897
  11 H :    0.078269
  12 H :    0.085309
  13 H :    0.100286
  14 H :    0.100503
  15 H :    0.095357
  16 H :    0.071518
  17 H :    0.098494
  18 H :    0.094964
  19 H :    0.094995
  20 H :    0.098323
  21 H :    0.101622
  22 H :    0.100546
Sum of atomic charges:    0.0000000

LOEWDIN ATOMIC CHARGES
----------------------
   0 C :   -0.341294
   1 C :   -0.229401
   2 C :   -0.143611
   3 H :    0.112326
   4 C :   -0.332855
   5 C :   -0.151211
   6 C :   -0.330498
   7 C :   -0.331561
   8 H :    0.115235
   9 H :    0.116284
  10 H :    0.119161
  11 H :    0.117277
  12 H :    0.114317
  13 H :    0.117566
  14 H :    0.117663
  15 H :    0.118594
  16 H :    0.112270
  17 H :    0.114639
  18 H :    0.115663
  19 H :    0.117503
  20 H :    0.118913
  21 H :    0.116153
  22 H :    0.116868

  Mayer bond orders larger than 0.100000
B(  0-C ,  1-C ) :   1.2091 B(  0-C ,  8-H ) :   0.9458 B(  0-C ,  9-H ) :   0.9439
B(  0-C , 10-H ) :   0.9463 B(  1-C ,  2-C ) :   1.0607 B(  1-C , 11-H ) :   0.9209
B(  1-C , 12-H ) :   0.9206 B(  2-C ,  3-H ) :   0.9003 B(  2-C ,  4-C ) :   1.1689
B(  2-C ,  5-C ) :   1.0474 B(  4-C , 13-H ) :   0.9298 B(  4-C , 14-H ) :   0.9414
B(  4-C , 15-H ) :   0.9365 B(  5-C ,  6-C ) :   1.1142 B(  5-C ,  7-C ) :   1.1045
B(  5-C , 16-H ) :   0.9017 B(  6-C , 17-H ) :   0.9423 B(  6-C , 18-H ) :   0.9483
B(  6-C , 19-H ) :   0.9496 B(  7-C , 20-H ) :   0.9500 B(  7-C , 21-H ) :   0.9455
B(  7-C , 22-H ) :   0.9427

Dispersion correction           -0.019402371
FINAL SINGLE POINT ENERGY      -275.653828339580

DIPOLE MOMENT
-------------

Method             : SCF
Type of density    : Electron Density
Multiplicity       :   1
Irrep              :   0
Energy             :  -275.7311819688321748 Eh
Relativity type    :
Basis              : AO
                                X                 Y                 Z
Electronic contribution:     -0.275477975      -0.095298329      -1.581234108
Nuclear contribution   :      0.285883130       0.100282117       1.536137157
                        -----------------------------------------
Total Dipole Moment    :      0.010405155       0.004983787      -0.045096951
                        -----------------------------------------
Magnitude (a.u.)       :      0.046549332
Magnitude (Debye)      :      0.118319000

Rotational constants in cm-1:             0.132405             0.052866             0.049130
Rotational constants in MHz :          3969.393014          1584.891658          1472.889958

                             ****ORCA TERMINATED NORMALLY****
TOTAL RUN TIME: 0 days 0 hours 0 minutes 8 seconds 925 msec
