                         Program Version 6.0.0  -   RELEASE  -
|  1> ! pbe def2-sv(p) def2/J RI DEFGRID1 loosescf d4 GCP(DFT/SV(P)) printgap
|  2> %output
|  3>     printlevel normal
|  4> end
|  5> * xyz 0 1
|  6> C -2.8047634807 0.2547255306 -0.3957291955
|  7> C -1.6742622436 0.4839044002 0.6093048646
|  8> C -0.4114080352 -0.1809248261 0.1236364272
|  9> O -0.2722518135 -1.3778932946 -0.0196192339
| 10> O 0.5312794953 0.7088864442 -0.1590545265
| 11> C 1.8021519 0.2373698536 -0.6387094931
| 12> C 2.7387649863 -0.0799566443 0.5168510738
| 13> H -2.9367294112 -0.8106681455 -0.5686119311
| 14> H -3.731579797 0.6680659258 -0.0101073564
| 15> H -2.5741940646 0.7343708803 -1.3436690503
| 16> H -1.9434014586 0.0332717839 1.5653742255
| 17> H -1.4817736412 1.5470658396 0.7431315654
| 18> H 1.6342580331 -0.6514806967 -1.2544090414
| 19> H 2.1869288178 1.0551527114 -1.2487308431
| 20> H 2.8516734142 0.7909698979 1.1567529462
| 21> H 2.3388765966 -0.9028155942 1.1052621507
| 22> H 3.7092798111 -0.3660834796 0.1249348553
| 23> *
| 24>
| 25>                          ****END OF INPUT****

CARTESIAN COORDINATES (ANGSTROEM)
---------------------------------
  C     -2.804763    0.254726   -0.395729
  C     -1.674262    0.483904    0.609305
  C     -0.411408   -0.180925    0.123636
  O     -0.272252   -1.377893   -0.019619
  O      0.531279    0.708886   -0.159055
  C      1.802152    0.237370   -0.638709
  C      2.738765   -0.079957    0.516851
  H     -2.936729   -0.810668   -0.568612
  H     -3.731580    0.668066   -0.010107
  H     -2.574194    0.734371   -1.343669
  H     -1.943401    0.033272    1.565374
  H     -1.481774    1.547066    0.743132
  H      1.634258   -0.651481   -1.254409
  H      2.186929    1.055153   -1.248731
  H      2.851673    0.790970    1.156753
  H      2.338877   -0.902816    1.105262
  H      3.709280   -0.366083    0.124935

 Total Charge           Charge          ....    0
 Multiplicity           Mult            ....    1
 Number of Electrons    NEL             ....   56
 Basis Dimension        Dim             ....  118

ORBITAL ENERGIES
----------------

  NO   OCC          E(Eh)            E(eV)
   0   2.0000     -18.797476      -511.5053
   1   2.0000     -18.730197      -509.6746
   2   2.0000     -10.004051      -272.2241
   3   2.0000      -9.945942      -270.6428
   4   2.0000      -9.898007      -269.3385
   5   2.0000      -9.886759      -269.0324
   6   2.0000      -9.885012      -268.9848
   7   2.0000      -1.003616       -27.3098
   8   2.0000      -0.907754       -24.7013
   9   2.0000      -0.719390       -19.5756
  10   2.0000      -0.686804       -18.6889
  11   2.0000      -0.607917       -16.5423
  12   2.0000      -0.560441       -15.2504
  13   2.0000      -0.495655       -13.4875
  14   2.0000      -0.452016       -12.3000
  15   2.0000      -0.427872       -11.6430
  16   2.0000      -0.415901       -11.3172
  17   2.0000      -0.399877       -10.8812
  18   2.0000      -0.386142       -10.5075
  19   2.0000      -0.363702        -9.8968
  20   2.0000      -0.350558        -9.5392
  21   2.0000      -0.340733        -9.2718
  22   2.0000      -0.321013        -8.7352
  23   2.0000      -0.318903        -8.6778
  24   2.0000      -0.307635        -8.3712
  25   2.0000      -0.288792        -7.8584
  26   2.0000      -0.254680        -6.9302
  27   2.0000      -0.216822        -5.9000
  28   0.0000      -0.019820        -0.5393
  29   0.0000       0.046544         1.2665
  30   0.0000       0.058084         1.5805
  31   0.0000       0.082845         2.2543
  32   0.0000       0.088175         2.3994

MULLIKEN ATOMIC CHARGES
-----------------------
   0 C :   -0.300001
   1 C :   -0.143860
   2 C :    0.101163
   3 O :   -0.215933
   4 O :   -0.235602
   5 C :   -0.015184
   6 C :   -0.302865
   7 H :    0.123228
   8 H :    0.112225
   9 H :    0.109262
  10 H :    0.111679
  11 H :    0.096901
  12 H :    0.107608
  13 H :    0.100919
  14 H :    0.112637
  15 H :    0.126020
  16 H :    0.111802
Sum of atomic charges:   -0.0000000

LOEWDIN ATOMIC CHARGES
----------------------
   0 C :   -0.331085
   1 C :   -0.252303
   2 C :    0.037503
   3 O :   -0.175913
   4 O :   -0.066995
   5 C :   -0.113882
   6 C :   -0.355575
   7 H :    0.127352
   8 H :    0.122637
   9 H :    0.121767
  10 H :    0.139176
  11 H :    0.127306
  12 H :    0.119013
  13 H :    0.116611
  14 H :    0.124086
  15 H :    0.130322
  16 H :    0.129982

  Mayer bond orders larger than 0.100000
B(  0-C ,  1-C ) :   1.1415 B(  0-C ,  7-H ) :   0.9501 B(  0-C ,  8-H ) :   0.9532
B(  0-C ,  9-H ) :   0.9563 B(  1-C ,  2-C ) :   1.0224 B(  1-C , 10-H ) :   0.9037
B(  1-C , 11-H ) :   0.9132 B(  2-C ,  3-O ) :   2.0341 B(  2-C ,  4-O ) :   1.2205
B(  4-O ,  5-C ) :   0.9226 B(  5-C ,  6-C ) :   1.1727 B(  5-C , 12-H ) :   0.9130
B(  5-C , 13-H ) :   0.9371 B(  6-C , 14-H ) :   0.9493 B(  6-C , 15-H ) :   0.9466
B(  6-C , 16-H ) :   0.9446

Dispersion correction           -0.011941305
FINAL SINGLE POINT ENERGY      -346.244659908810

DIPOLE MOMENT
-------------

Method             : SCF
Type of density    : Electron Density
Multiplicity       :   1
Irrep              :   0
Energy             :  -346.3092685577926204 Eh
Relativity type    :
Basis              : AO
                                X                 Y                 Z
Electronic contribution:      0.179437013      -1.314053907      -0.252359702
Nuclear contribution   :      0.053880629       1.958214440       0.250588102
                        -----------------------------------------
Total Dipole Moment    :      0.233317641       0.644160534      -0.001771601
                        -----------------------------------------
Magnitude (a.u.)       :      0.685115358
Magnitude (Debye)      :      1.741424847

Rotational constants in cm-1:             0.221623             0.046622             0.043668
Rotational constants in MHz :          6644.078281          1397.697454          1309.125328

                             ****ORCA TERMINATED NORMALLY****
TOTAL RUN TIME: 0 days 0 hours 0 minutes 8 seconds 563 msec
