                         Program Version 6.0.0  -   RELEASE  -
|  1> ! pbe def2-sv(p) def2/J RI DEFGRID1 loosescf d4 GCP(DFT/SV(P)) printgap
|  2> %output
|  3>     printlevel normal
|  4> end
|  5> * xyz 0 1
|  6> C -0.1630205426 -1.9407471653 0.9964410409
|  7> C 0.0394979792 -1.322653269 -0.3760868581
|  8> O 1.3513619875 -0.7604267032 -0.4889200511
|  9> C 1.6582240107 0.4388781039 0.0240226741
| 10> O 0.8606831164 1.172108378 0.5643813321
| 11> C 3.1114355064 0.7356479531 -0.1693916406
| 12> O -0.9141156182 -0.3760772895 -0.8294890974
| 13> C -1.7041089027 0.3829606336 -0.0421046317
| 14> O -1.8977464423 0.1961859732 1.1320792312
| 15> C -2.3421552191 1.4630807872 -0.8592381234
| 16> H 0.5848229679 -2.7177746604 1.1263678234
| 17> H -1.1570893877 -2.371573802 1.0633672847
| 18> H -0.0530164952 -1.1926771416 1.7774130106
| 19> H 0.0379159476 -2.0973488286 -1.1538428464
| 20> H 3.270741071 1.8088267254 -0.1478365272
| 21> H 3.6622128614 0.2804674264 0.6514311799
| 22> H 3.4571041659 0.2999678697 -1.1008524919
| 23> H -2.4362326961 1.1460966931 -1.8922685451
| 24> H -3.3038073698 1.7247880274 -0.4302419843
| 25> H -1.6897580899 2.3335941746 -0.8138815887
| 26> *
| 27>
| 28>                          ****END OF INPUT****

CARTESIAN COORDINATES (ANGSTROEM)
---------------------------------
  C     -0.163021   -1.940747    0.996441
  C      0.039498   -1.322653   -0.376087
  O      1.351362   -0.760427   -0.488920
  C      1.658224    0.438878    0.024023
  O      0.860683    1.172108    0.564381
  C      3.111436    0.735648   -0.169392
  O     -0.914116   -0.376077   -0.829489
  C     -1.704109    0.382961   -0.042105
  O     -1.897746    0.196186    1.132079
  C     -2.342155    1.463081   -0.859238
  H      0.584823   -2.717775    1.126368
  H     -1.157089   -2.371574    1.063367
  H     -0.053016   -1.192677    1.777413
  H      0.037916   -2.097349   -1.153843
  H      3.270741    1.808827   -0.147837
  H      3.662213    0.280467    0.651431
  H      3.457104    0.299968   -1.100852
  H     -2.436233    1.146097   -1.892269
  H     -3.303807    1.724788   -0.430242
  H     -1.689758    2.333594   -0.813882

 Total Charge           Charge          ....    0
 Multiplicity           Mult            ....    1
 Number of Electrons    NEL             ....   78
 Basis Dimension        Dim             ....  160

ORBITAL ENERGIES
----------------

  NO   OCC          E(Eh)            E(eV)
   0   2.0000     -18.807362      -511.7743
   1   2.0000     -18.799787      -511.5682
   2   2.0000     -18.740063      -509.9431
   3   2.0000     -18.729720      -509.6616
   4   2.0000     -10.019691      -272.6497
   5   2.0000     -10.019547      -272.6457
   6   2.0000     -10.010481      -272.3990
   7   2.0000      -9.899067      -269.3673
   8   2.0000      -9.888585      -269.0821
   9   2.0000      -9.887606      -269.0554
  10   2.0000      -1.028650       -27.9910
  11   2.0000      -0.988062       -26.8865
  12   2.0000      -0.926076       -25.1998
  13   2.0000      -0.908108       -24.7109
  14   2.0000      -0.728738       -19.8300
  15   2.0000      -0.680618       -18.5206
  16   2.0000      -0.661888       -18.0109
  17   2.0000      -0.614760       -16.7285
  18   2.0000      -0.565274       -15.3819
  19   2.0000      -0.480594       -13.0776
  20   2.0000      -0.449337       -12.2271
  21   2.0000      -0.432969       -11.7817
  22   2.0000      -0.429405       -11.6847
  23   2.0000      -0.421676       -11.4744
  24   2.0000      -0.412034       -11.2120
  25   2.0000      -0.401437       -10.9237
  26   2.0000      -0.382076       -10.3968
  27   2.0000      -0.374905       -10.2017
  28   2.0000      -0.368507       -10.0276
  29   2.0000      -0.358490        -9.7550
  30   2.0000      -0.350028        -9.5247
  31   2.0000      -0.340416        -9.2632
  32   2.0000      -0.330576        -8.9954
  33   2.0000      -0.314827        -8.5669
  34   2.0000      -0.303147        -8.2491
  35   2.0000      -0.268593        -7.3088
  36   2.0000      -0.264318        -7.1924
  37   2.0000      -0.223104        -6.0710
  38   2.0000      -0.213140        -5.7998
  39   0.0000      -0.031287        -0.8514
  40   0.0000      -0.019634        -0.5343
  41   0.0000       0.041144         1.1196
  42   0.0000       0.056832         1.5465
  43   0.0000       0.067247         1.8299

MULLIKEN ATOMIC CHARGES
-----------------------
   0 C :   -0.254976
   1 C :    0.179466
   2 O :   -0.245433
   3 C :    0.099044
   4 O :   -0.195510
   5 C :   -0.247181
   6 O :   -0.255540
   7 C :    0.115344
   8 O :   -0.186379
   9 C :   -0.250818
  10 H :    0.109393
  11 H :    0.121934
  12 H :    0.145212
  13 H :    0.090912
  14 H :    0.128415
  15 H :    0.137311
  16 H :    0.125515
  17 H :    0.117628
  18 H :    0.124051
  19 H :    0.141613
Sum of atomic charges:    0.0000000

LOEWDIN ATOMIC CHARGES
----------------------
   0 C :   -0.361878
   1 C :    0.056192
   2 O :   -0.073863
   3 C :    0.039554
   4 O :   -0.156154
   5 C :   -0.357763
   6 O :   -0.078823
   7 C :    0.045471
   8 O :   -0.142742
   9 C :   -0.358154
  10 H :    0.127195
  11 H :    0.137112
  12 H :    0.141914
  13 H :    0.118191
  14 H :    0.142236
  15 H :    0.151400
  16 H :    0.140347
  17 H :    0.135395
  18 H :    0.140079
  19 H :    0.154292

  Mayer bond orders larger than 0.100000
B(  0-C ,  1-C ) :   1.1491 B(  0-C , 10-H ) :   0.9234 B(  0-C , 11-H ) :   0.9337
B(  0-C , 12-H ) :   0.9234 B(  1-C ,  2-O ) :   0.9391 B(  1-C ,  6-O ) :   0.9986
B(  1-C , 13-H ) :   0.9266 B(  2-O ,  3-C ) :   1.1532 B(  3-C ,  4-O ) :   2.0565
B(  3-C ,  5-C ) :   1.0843 B(  5-C , 14-H ) :   0.9391 B(  5-C , 15-H ) :   0.9221
B(  5-C , 16-H ) :   0.9334 B(  6-O ,  7-C ) :   1.0952 B(  7-C ,  8-O ) :   2.1011
B(  7-C ,  9-C ) :   1.0892 B(  9-C , 17-H ) :   0.9359 B(  9-C , 18-H ) :   0.9391
B(  9-C , 19-H ) :   0.9185

Dispersion correction           -0.017900581
FINAL SINGLE POINT ENERGY      -534.461138906610

DIPOLE MOMENT
-------------

Method             : SCF
Type of density    : Electron Density
Multiplicity       :   1
Irrep              :   0
Energy             :  -534.5407312856341377 Eh
Relativity type    :
Basis              : AO
                                X                 Y                 Z
Electronic contribution:     -1.579551219       0.224606166       0.116674356
Nuclear contribution   :      2.217290528      -0.733623755      -0.857838849
                        -----------------------------------------
Total Dipole Moment    :      0.637739309      -0.509017589      -0.741164493
                        -----------------------------------------
Magnitude (a.u.)       :      1.102331682
Magnitude (Debye)      :      2.801904466

Rotational constants in cm-1:             0.068938             0.034159             0.028413
Rotational constants in MHz :          2066.717743          1024.066710           851.806988

                             ****ORCA TERMINATED NORMALLY****
TOTAL RUN TIME: 0 days 0 hours 0 minutes 13 seconds 298 msec
