                         Program Version 6.0.0  -   RELEASE  -
|  1> ! r2scan-3c def2/J RI DEFGRID2 scfconv6 printgap
|  2> %output
|  3>     printlevel normal
|  4> end
|  5> * xyz 0 1
|  6> C -2.5962223271 0.5122774679 0.6276292608
|  7> C -1.7244823302 0.4088634581 -0.6272293752
|  8> C -0.4245626318 -0.2696631157 -0.2799515282
|  9> O -0.1762732744 -1.4392764557 -0.48904633
| 10> O 0.4107752064 0.5641939558 0.3247997742
| 11> C 1.6887230125 0.0668312962 0.7544969754
| 12> C 2.721113788 0.1812849064 -0.3566506566
| 13> H -2.0908622874 1.1013157334 1.3884589803
| 14> H -3.5392414026 0.9901158513 0.3799773817
| 15> H -2.8003953161 -0.4777878568 1.0284685467
| 16> H -1.508466331 1.4063308625 -1.0076668968
| 17> H -2.2290226195 -0.1832914639 -1.3897302697
| 18> H 1.9545495281 0.6905180945 1.6086405798
| 19> H 1.5712848448 -0.9756998076 1.0656090203
| 20> H 2.7880003295 1.2098948236 -0.7006220909
| 21> H 3.6889968566 -0.1359431136 0.0174790069
| 22> H 2.4399509095 -0.4547305692 -1.1930659016
| 23> *
| 24>
| 25>                          ****END OF INPUT****

CARTESIAN COORDINATES (ANGSTROEM)
---------------------------------
  C     -2.596222    0.512277    0.627629
  C     -1.724482    0.408863   -0.627229
  C     -0.424563   -0.269663   -0.279952
  O     -0.176273   -1.439276   -0.489046
  O      0.410775    0.564194    0.324800
  C      1.688723    0.066831    0.754497
  C      2.721114    0.181285   -0.356651
  H     -2.090862    1.101316    1.388459
  H     -3.539241    0.990116    0.379977
  H     -2.800395   -0.477788    1.028469
  H     -1.508466    1.406331   -1.007667
  H     -2.229023   -0.183291   -1.389730
  H      1.954550    0.690518    1.608641
  H      1.571285   -0.975700    1.065609
  H      2.788000    1.209895   -0.700622
  H      3.688997   -0.135943    0.017479
  H      2.439951   -0.454731   -1.193066

 Total Charge           Charge          ....    0
 Multiplicity           Mult            ....    1
 Number of Electrons    NEL             ....   56
 Basis Dimension        Dim             ....  193

ORBITAL ENERGIES
----------------

  NO   OCC          E(Eh)            E(eV)
   0   2.0000     -18.996031      -516.9083
   1   2.0000     -18.926875      -515.0265
   2   2.0000     -10.150879      -276.2195
   3   2.0000     -10.091066      -274.5919
   4   2.0000     -10.043053      -273.2854
   5   2.0000     -10.031491      -272.9708
   6   2.0000     -10.028628      -272.8928
   7   2.0000      -1.071120       -29.1467
   8   2.0000      -0.974401       -26.5148
   9   2.0000      -0.766053       -20.8454
  10   2.0000      -0.729617       -19.8539
  11   2.0000      -0.641984       -17.4693
  12   2.0000      -0.598839       -16.2952
  13   2.0000      -0.523841       -14.2544
  14   2.0000      -0.472869       -12.8674
  15   2.0000      -0.450443       -12.2572
  16   2.0000      -0.436407       -11.8752
  17   2.0000      -0.413866       -11.2619
  18   2.0000      -0.407191       -11.0802
  19   2.0000      -0.385647       -10.4940
  20   2.0000      -0.362734        -9.8705
  21   2.0000      -0.356237        -9.6937
  22   2.0000      -0.338252        -9.2043
  23   2.0000      -0.327971        -8.9246
  24   2.0000      -0.326418        -8.8823
  25   2.0000      -0.305702        -8.3186
  26   2.0000      -0.270266        -7.3543
  27   2.0000      -0.232885        -6.3371
  28   0.0000      -0.014018        -0.3814
  29   0.0000       0.074918         2.0386
  30   0.0000       0.091273         2.4837
  31   0.0000       0.121589         3.3086
  32   0.0000       0.122585         3.3357

MULLIKEN ATOMIC CHARGES
-----------------------
   0 C :   -0.473401
   1 C :   -0.296030
   2 C :    0.417919
   3 O :   -0.431334
   4 O :   -0.183787
   5 C :   -0.137045
   6 C :   -0.465142
   7 H :    0.158891
   8 H :    0.153477
   9 H :    0.157098
  10 H :    0.152522
  11 H :    0.162700
  12 H :    0.147029
  13 H :    0.168257
  14 H :    0.151038
  15 H :    0.146591
  16 H :    0.171217
Sum of atomic charges:    0.0000000

LOEWDIN ATOMIC CHARGES
----------------------
   0 C :   -0.392510
   1 C :   -0.236239
   2 C :    0.356341
   3 O :   -0.432777
   4 O :   -0.597419
   5 C :    0.027340
   6 C :   -0.390057
   7 H :    0.158723
   8 H :    0.152909
   9 H :    0.158720
  10 H :    0.174087
  11 H :    0.174187
  12 H :    0.177159
  13 H :    0.188587
  14 H :    0.156950
  15 H :    0.159055
  16 H :    0.164941

  Mayer bond orders larger than 0.100000
B(  0-C ,  1-C ) :   0.8956 B(  0-C ,  7-H ) :   0.9773 B(  0-C ,  8-H ) :   0.9711
B(  0-C ,  9-H ) :   0.9739 B(  1-C ,  2-C ) :   0.9568 B(  1-C , 10-H ) :   0.9688
B(  1-C , 11-H ) :   0.9785 B(  2-C ,  3-O ) :   1.8418 B(  2-C ,  4-O ) :   1.0407
B(  4-O ,  5-C ) :   0.8181 B(  5-C ,  6-C ) :   0.9395 B(  5-C , 12-H ) :   0.9609
B(  5-C , 13-H ) :   0.9656 B(  6-C , 14-H ) :   0.9737 B(  6-C , 15-H ) :   0.9657
B(  6-C , 16-H ) :   0.9712

Dispersion correction           -0.003998221
FINAL SINGLE POINT ENERGY      -346.935990069832

DIPOLE MOMENT
-------------

Method             : SCF
Type of density    : Electron Density
Multiplicity       :   1
Irrep              :   0
Energy             :  -346.9423792628005003 Eh
Relativity type    :
Basis              : AO
                                X                 Y                 Z
Electronic contribution:     -0.123900995      -2.206481305      -0.849396381
Nuclear contribution   :      0.261279961       2.961693795       1.121065445
                        -----------------------------------------
Total Dipole Moment    :      0.137378966       0.755212490       0.271669065
                        -----------------------------------------
Magnitude (a.u.)       :      0.814262222
Magnitude (Debye)      :      2.069690087

Rotational constants in cm-1:             0.192022             0.049822             0.045146
Rotational constants in MHz :          5756.662563          1493.629560          1353.452164

                             ****ORCA TERMINATED NORMALLY****
TOTAL RUN TIME: 0 days 0 hours 0 minutes 22 seconds 893 msec
