                         Program Version 6.0.0  -   RELEASE  -
|  1> ! r2scan-3c def2/J RI DEFGRID2 scfconv6 printgap
|  2> %output
|  3>     printlevel normal
|  4> end
|  5> %cpcm
|  6>     smd true
|  7>     smdsolvent "water"
|  8> end
|  9> * xyz 0 1
| 10> C -2.5962223271 0.5122774679 0.6276292608
| 11> C -1.7244823302 0.4088634581 -0.6272293752
| 12> C -0.4245626318 -0.2696631157 -0.2799515282
| 13> O -0.1762732744 -1.4392764557 -0.48904633
| 14> O 0.4107752064 0.5641939558 0.3247997742
| 15> C 1.6887230125 0.0668312962 0.7544969754
| 16> C 2.721113788 0.1812849064 -0.3566506566
| 17> H -2.0908622874 1.1013157334 1.3884589803
| 18> H -3.5392414026 0.9901158513 0.3799773817
| 19> H -2.8003953161 -0.4777878568 1.0284685467
| 20> H -1.508466331 1.4063308625 -1.0076668968
| 21> H -2.2290226195 -0.1832914639 -1.3897302697
| 22> H 1.9545495281 0.6905180945 1.6086405798
| 23> H 1.5712848448 -0.9756998076 1.0656090203
| 24> H 2.7880003295 1.2098948236 -0.7006220909
| 25> H 3.6889968566 -0.1359431136 0.0174790069
| 26> H 2.4399509095 -0.4547305692 -1.1930659016
| 27> *
| 28>
| 29>                          ****END OF INPUT****

CARTESIAN COORDINATES (ANGSTROEM)
---------------------------------
  C     -2.596222    0.512277    0.627629
  C     -1.724482    0.408863   -0.627229
  C     -0.424563   -0.269663   -0.279952
  O     -0.176273   -1.439276   -0.489046
  O      0.410775    0.564194    0.324800
  C      1.688723    0.066831    0.754497
  C      2.721114    0.181285   -0.356651
  H     -2.090862    1.101316    1.388459
  H     -3.539241    0.990116    0.379977
  H     -2.800395   -0.477788    1.028469
  H     -1.508466    1.406331   -1.007667
  H     -2.229023   -0.183291   -1.389730
  H      1.954550    0.690518    1.608641
  H      1.571285   -0.975700    1.065609
  H      2.788000    1.209895   -0.700622
  H      3.688997   -0.135943    0.017479
  H      2.439951   -0.454731   -1.193066

 Total Charge           Charge          ....    0
 Multiplicity           Mult            ....    1
 Number of Electrons    NEL             ....   56
 Basis Dimension        Dim             ....  193

ORBITAL ENERGIES
----------------

  NO   OCC          E(Eh)            E(eV)
   0   2.0000     -19.001896      -517.0679
   1   2.0000     -18.943215      -515.4711
   2   2.0000     -10.161859      -276.5182
   3   2.0000     -10.083308      -274.3807
   4   2.0000     -10.037346      -273.1301
   5   2.0000     -10.022093      -272.7150
   6   2.0000     -10.018274      -272.6111
   7   2.0000      -1.078705       -29.3531
   8   2.0000      -0.988578       -26.9006
   9   2.0000      -0.761972       -20.7343
  10   2.0000      -0.722141       -19.6505
  11   2.0000      -0.636884       -17.3305
  12   2.0000      -0.592690       -16.1279
  13   2.0000      -0.521797       -14.1988
  14   2.0000      -0.471738       -12.8366
  15   2.0000      -0.459996       -12.5171
  16   2.0000      -0.437505       -11.9051
  17   2.0000      -0.411664       -11.2019
  18   2.0000      -0.405044       -11.0218
  19   2.0000      -0.381459       -10.3800
  20   2.0000      -0.355987        -9.6869
  21   2.0000      -0.349891        -9.5210
  22   2.0000      -0.335370        -9.1259
  23   2.0000      -0.326560        -8.8862
  24   2.0000      -0.318464        -8.6659
  25   2.0000      -0.303887        -8.2692
  26   2.0000      -0.277335        -7.5467
  27   2.0000      -0.249080        -6.7778
  28   0.0000      -0.022541        -0.6134
  29   0.0000       0.077907         2.1200
  30   0.0000       0.098356         2.6764
  31   0.0000       0.130585         3.5534
  32   0.0000       0.133029         3.6199

MULLIKEN ATOMIC CHARGES
-----------------------
   0 C :   -0.494546
   1 C :   -0.312115
   2 C :    0.455943
   3 O :   -0.516043
   4 O :   -0.200926
   5 C :   -0.143077
   6 C :   -0.490609
   7 H :    0.167096
   8 H :    0.172745
   9 H :    0.164147
  10 H :    0.176241
  11 H :    0.173434
  12 H :    0.173521
  13 H :    0.171520
  14 H :    0.165280
  15 H :    0.170041
  16 H :    0.167346
Sum of atomic charges:    0.0000000

LOEWDIN ATOMIC CHARGES
----------------------
   0 C :   -0.393860
   1 C :   -0.233565
   2 C :    0.365592
   3 O :   -0.493363
   4 O :   -0.598738
   5 C :    0.032100
   6 C :   -0.393045
   7 H :    0.161194
   8 H :    0.160294
   9 H :    0.160559
  10 H :    0.184045
  11 H :    0.178667
  12 H :    0.188739
  13 H :    0.189631
  14 H :    0.161909
  15 H :    0.167714
  16 H :    0.162128

  Mayer bond orders larger than 0.100000
B(  0-C ,  1-C ) :   0.8865 B(  0-C ,  7-H ) :   0.9739 B(  0-C ,  8-H ) :   0.9660
B(  0-C ,  9-H ) :   0.9706 B(  1-C ,  2-C ) :   0.9564 B(  1-C , 10-H ) :   0.9593
B(  1-C , 11-H ) :   0.9746 B(  2-C ,  3-O ) :   1.7700 B(  2-C ,  4-O ) :   1.0679
B(  4-O ,  5-C ) :   0.7999 B(  5-C ,  6-C ) :   0.9380 B(  5-C , 12-H ) :   0.9515
B(  5-C , 13-H ) :   0.9622 B(  6-C , 14-H ) :   0.9699 B(  6-C , 15-H ) :   0.9607
B(  6-C , 16-H ) :   0.9688

Dispersion correction           -0.003998221
FINAL SINGLE POINT ENERGY      -346.941067431518

DIPOLE MOMENT
-------------

Method             : SCF
Type of density    : Electron Density
Multiplicity       :   1
Irrep              :   0
Energy             :  -346.9474566244866196 Eh
Relativity type    :
Basis              : AO
                                X                 Y                 Z
Electronic contribution:     -0.094956402      -1.872948882      -0.730222728
Nuclear contribution   :      0.261279961       2.961693795       1.121065445
                        -----------------------------------------
Total Dipole Moment    :      0.166323559       1.088744913       0.390842717
                        -----------------------------------------
Magnitude (a.u.)       :      1.168668918
Magnitude (Debye)      :      2.970520319

Rotational constants in cm-1:             0.192022             0.049822             0.045146
Rotational constants in MHz :          5756.662563          1493.629560          1353.452164

                             ****ORCA TERMINATED NORMALLY****
TOTAL RUN TIME: 0 days 0 hours 0 minutes 26 seconds 795 msec
