                         Program Version 6.0.0  -   RELEASE  -
|  1> ! r2scan-3c def2/J RI DEFGRID2 scfconv6 printgap
|  2> %output
|  3>     printlevel normal
|  4> end
|  5> * xyz 0 1
|  6> C 2.3720642869 -0.266121007 -0.6791436604
|  7> C 1.6135011261 0.2724742241 0.5293750088
|  8> C 0.2634565959 -0.4161277323 0.7456544925
|  9> C -0.8150004893 -0.0411042684 -0.2804450926
| 10> H -0.4009796766 -0.1110850299 -1.2985141832
| 11> C -2.013540173 -0.9799742985 -0.1754283597
| 12> O -1.3050707293 1.2762535056 -0.0736751745
| 13> H 3.3394501885 0.2228668826 -0.7640192676
| 14> H 1.822399928 -0.091889242 -1.6005989523
| 15> H 2.5356445246 -1.3362769053 -0.5762547997
| 16> H 2.2223476183 0.1171994346 1.4225268044
| 17> H 1.4725494756 1.3502384933 0.4197099067
| 18> H 0.4085287315 -1.4967632361 0.7128163386
| 19> H -0.1214413565 -0.1573291698 1.7348531562
| 20> H -1.7194122866 -1.9953342334 -0.4216892673
| 21> H -2.412958008 -0.9529109462 0.8349954965
| 22> H -2.7909797669 -0.6544981431 -0.8613263209
| 23> H -0.5661354092 1.897811098 -0.1014871171
| 24> *
| 25>
| 26>                          ****END OF INPUT****

CARTESIAN COORDINATES (ANGSTROEM)
---------------------------------
  C      2.372064   -0.266121   -0.679144
  C      1.613501    0.272474    0.529375
  C      0.263457   -0.416128    0.745654
  C     -0.815000   -0.041104   -0.280445
  H     -0.400980   -0.111085   -1.298514
  C     -2.013540   -0.979974   -0.175428
  O     -1.305071    1.276254   -0.073675
  H      3.339450    0.222867   -0.764019
  H      1.822400   -0.091889   -1.600599
  H      2.535645   -1.336277   -0.576255
  H      2.222348    0.117199    1.422527
  H      1.472549    1.350238    0.419710
  H      0.408529   -1.496763    0.712816
  H     -0.121441   -0.157329    1.734853
  H     -1.719412   -1.995334   -0.421689
  H     -2.412958   -0.952911    0.834995
  H     -2.790980   -0.654498   -0.861326
  H     -0.566135    1.897811   -0.101487

 Total Charge           Charge          ....    0
 Multiplicity           Mult            ....    1
 Number of Electrons    NEL             ....   50
 Basis Dimension        Dim             ....  179

ORBITAL ENERGIES
----------------

  NO   OCC          E(Eh)            E(eV)
   0   2.0000     -18.943293      -515.4732
   1   2.0000     -10.078758      -274.2569
   2   2.0000     -10.032894      -273.0089
   3   2.0000     -10.024377      -272.7772
   4   2.0000     -10.021269      -272.6926
   5   2.0000     -10.014339      -272.5040
   6   2.0000      -0.980921       -26.6922
   7   2.0000      -0.765745       -20.8370
   8   2.0000      -0.715763       -19.4769
   9   2.0000      -0.649621       -17.6771
  10   2.0000      -0.576905       -15.6984
  11   2.0000      -0.538963       -14.6659
  12   2.0000      -0.482009       -13.1161
  13   2.0000      -0.439932       -11.9712
  14   2.0000      -0.413142       -11.2422
  15   2.0000      -0.392136       -10.6706
  16   2.0000      -0.381783       -10.3888
  17   2.0000      -0.353390        -9.6162
  18   2.0000      -0.351705        -9.5704
  19   2.0000      -0.338433        -9.2092
  20   2.0000      -0.316286        -8.6066
  21   2.0000      -0.308959        -8.4072
  22   2.0000      -0.302130        -8.2214
  23   2.0000      -0.281584        -7.6623
  24   2.0000      -0.231369        -6.2959
  25   0.0000       0.054863         1.4929
  26   0.0000       0.100106         2.7240
  27   0.0000       0.109046         2.9673
  28   0.0000       0.114736         3.1221
  29   0.0000       0.126458         3.4411

MULLIKEN ATOMIC CHARGES
-----------------------
   0 C :   -0.485408
   1 C :   -0.227719
   2 C :   -0.258990
   3 C :    0.039014
   4 H :    0.127438
   5 C :   -0.498310
   6 O :   -0.421216
   7 H :    0.147685
   8 H :    0.146319
   9 H :    0.146817
  10 H :    0.148785
  11 H :    0.111877
  12 H :    0.131656
  13 H :    0.159299
  14 H :    0.143770
  15 H :    0.150076
  16 H :    0.156837
  17 H :    0.282069
Sum of atomic charges:   -0.0000000

LOEWDIN ATOMIC CHARGES
----------------------
   0 C :   -0.426104
   1 C :   -0.314913
   2 C :   -0.293520
   3 C :    0.048535
   4 H :    0.159928
   5 C :   -0.383207
   6 O :   -0.616038
   7 H :    0.151281
   8 H :    0.148080
   9 H :    0.151187
  10 H :    0.155237
  11 H :    0.144460
  12 H :    0.161430
  13 H :    0.168391
  14 H :    0.155664
  15 H :    0.161329
  16 H :    0.162466
  17 H :    0.265795

  Mayer bond orders larger than 0.100000
B(  0-C ,  1-C ) :   0.9064 B(  0-C ,  7-H ) :   0.9698 B(  0-C ,  8-H ) :   0.9811
B(  0-C ,  9-H ) :   0.9830 B(  1-C ,  2-C ) :   0.8969 B(  1-C , 10-H ) :   0.9696
B(  1-C , 11-H ) :   0.9713 B(  2-C ,  3-C ) :   0.8994 B(  2-C , 12-H ) :   0.9757
B(  2-C , 13-H ) :   0.9640 B(  3-C ,  4-H ) :   0.9645 B(  3-C ,  5-C ) :   0.9350
B(  3-C ,  6-O ) :   0.8525 B(  5-C , 14-H ) :   0.9790 B(  5-C , 15-H ) :   0.9787
B(  5-C , 16-H ) :   0.9717 B(  6-O , 17-H ) :   0.8983

Dispersion correction           -0.004259499
FINAL SINGLE POINT ENERGY      -272.902134363288

DIPOLE MOMENT
-------------

Method             : SCF
Type of density    : Electron Density
Multiplicity       :   1
Irrep              :   0
Energy             :  -272.9074668566746595 Eh
Relativity type    :
Basis              : AO
                                X                 Y                 Z
Electronic contribution:     -2.914231906       2.802380757       0.437084890
Nuclear contribution   :      3.535347247      -2.990661532      -0.469225958
                        -----------------------------------------
Total Dipole Moment    :      0.621115342      -0.188280775      -0.032141068
                        -----------------------------------------
Magnitude (a.u.)       :      0.649820718
Magnitude (Debye)      :      1.651713003

Rotational constants in cm-1:             0.195967             0.065159             0.058996
Rotational constants in MHz :          5874.930978          1953.411615          1768.670491

                             ****ORCA TERMINATED NORMALLY****
TOTAL RUN TIME: 0 days 0 hours 0 minutes 22 seconds 621 msec
