                         Program Version 6.0.0  -   RELEASE  -
|  1> ! r2scan-3c def2/J RI DEFGRID2 scfconv6 printgap
|  2> %output
|  3>     printlevel normal
|  4> end
|  5> %cpcm
|  6>     smd true
|  7>     smdsolvent "water"
|  8> end
|  9> * xyz 0 1
| 10> C 2.3720642869 -0.266121007 -0.6791436604
| 11> C 1.6135011261 0.2724742241 0.5293750088
| 12> C 0.2634565959 -0.4161277323 0.7456544925
| 13> C -0.8150004893 -0.0411042684 -0.2804450926
| 14> H -0.4009796766 -0.1110850299 -1.2985141832
| 15> C -2.013540173 -0.9799742985 -0.1754283597
| 16> O -1.3050707293 1.2762535056 -0.0736751745
| 17> H 3.3394501885 0.2228668826 -0.7640192676
| 18> H 1.822399928 -0.091889242 -1.6005989523
| 19> H 2.5356445246 -1.3362769053 -0.5762547997
| 20> H 2.2223476183 0.1171994346 1.4225268044
| 21> H 1.4725494756 1.3502384933 0.4197099067
| 22> H 0.4085287315 -1.4967632361 0.7128163386
| 23> H -0.1214413565 -0.1573291698 1.7348531562
| 24> H -1.7194122866 -1.9953342334 -0.4216892673
| 25> H -2.412958008 -0.9529109462 0.8349954965
| 26> H -2.7909797669 -0.6544981431 -0.8613263209
| 27> H -0.5661354092 1.897811098 -0.1014871171
| 28> *
| 29>
| 30>                          ****END OF INPUT****

CARTESIAN COORDINATES (ANGSTROEM)
---------------------------------
  C      2.372064   -0.266121   -0.679144
  C      1.613501    0.272474    0.529375
  C      0.263457   -0.416128    0.745654
  C     -0.815000   -0.041104   -0.280445
  H     -0.400980   -0.111085   -1.298514
  C     -2.013540   -0.979974   -0.175428
  O     -1.305071    1.276254   -0.073675
  H      3.339450    0.222867   -0.764019
  H      1.822400   -0.091889   -1.600599
  H      2.535645   -1.336277   -0.576255
  H      2.222348    0.117199    1.422527
  H      1.472549    1.350238    0.419710
  H      0.408529   -1.496763    0.712816
  H     -0.121441   -0.157329    1.734853
  H     -1.719412   -1.995334   -0.421689
  H     -2.412958   -0.952911    0.834995
  H     -2.790980   -0.654498   -0.861326
  H     -0.566135    1.897811   -0.101487

 Total Charge           Charge          ....    0
 Multiplicity           Mult            ....    1
 Number of Electrons    NEL             ....   50
 Basis Dimension        Dim             ....  179

ORBITAL ENERGIES
----------------

  NO   OCC          E(Eh)            E(eV)
   0   2.0000     -18.948245      -515.6079
   1   2.0000     -10.074134      -274.1311
   2   2.0000     -10.018574      -272.6193
   3   2.0000     -10.014891      -272.5190
   4   2.0000     -10.009980      -272.3854
   5   2.0000     -10.007708      -272.3236
   6   2.0000      -0.984703       -26.7951
   7   2.0000      -0.755564       -20.5600
   8   2.0000      -0.708966       -19.2919
   9   2.0000      -0.640587       -17.4313
  10   2.0000      -0.568974       -15.4826
  11   2.0000      -0.531734       -14.4692
  12   2.0000      -0.478495       -13.0205
  13   2.0000      -0.430841       -11.7238
  14   2.0000      -0.403326       -10.9750
  15   2.0000      -0.384980       -10.4758
  16   2.0000      -0.376171       -10.2361
  17   2.0000      -0.347451        -9.4546
  18   2.0000      -0.345375        -9.3981
  19   2.0000      -0.333059        -9.0630
  20   2.0000      -0.310530        -8.4499
  21   2.0000      -0.297247        -8.0885
  22   2.0000      -0.293847        -7.9960
  23   2.0000      -0.277289        -7.5454
  24   2.0000      -0.235328        -6.4036
  25   0.0000       0.071812         1.9541
  26   0.0000       0.111255         3.0274
  27   0.0000       0.117506         3.1975
  28   0.0000       0.126064         3.4304
  29   0.0000       0.138899         3.7796

MULLIKEN ATOMIC CHARGES
-----------------------
   0 C :   -0.526224
   1 C :   -0.237047
   2 C :   -0.281266
   3 C :    0.054658
   4 H :    0.142914
   5 C :   -0.541283
   6 O :   -0.512613
   7 H :    0.156262
   8 H :    0.158305
   9 H :    0.156768
  10 H :    0.155040
  11 H :    0.137281
  12 H :    0.148273
  13 H :    0.160582
  14 H :    0.167135
  15 H :    0.160407
  16 H :    0.161310
  17 H :    0.339501
Sum of atomic charges:    0.0000000

LOEWDIN ATOMIC CHARGES
----------------------
   0 C :   -0.433925
   1 C :   -0.315756
   2 C :   -0.293589
   3 C :    0.048782
   4 H :    0.168121
   5 C :   -0.393478
   6 O :   -0.654101
   7 H :    0.153031
   8 H :    0.151346
   9 H :    0.152973
  10 H :    0.156366
  11 H :    0.153584
  12 H :    0.167136
  13 H :    0.167743
  14 H :    0.164540
  15 H :    0.161944
  16 H :    0.161244
  17 H :    0.284038

  Mayer bond orders larger than 0.100000
B(  0-C ,  1-C ) :   0.8965 B(  0-C ,  7-H ) :   0.9681 B(  0-C ,  8-H ) :   0.9791
B(  0-C ,  9-H ) :   0.9807 B(  1-C ,  2-C ) :   0.8936 B(  1-C , 10-H ) :   0.9706
B(  1-C , 11-H ) :   0.9694 B(  2-C ,  3-C ) :   0.9145 B(  2-C , 12-H ) :   0.9744
B(  2-C , 13-H ) :   0.9638 B(  3-C ,  4-H ) :   0.9590 B(  3-C ,  5-C ) :   0.9206
B(  3-C ,  6-O ) :   0.8372 B(  5-C , 14-H ) :   0.9720 B(  5-C , 15-H ) :   0.9762
B(  5-C , 16-H ) :   0.9715 B(  6-O , 17-H ) :   0.8732

Dispersion correction           -0.004259499
FINAL SINGLE POINT ENERGY      -272.908623141831

DIPOLE MOMENT
-------------

Method             : SCF
Type of density    : Electron Density
Multiplicity       :   1
Irrep              :   0
Energy             :  -272.9139556352173486 Eh
Relativity type    :
Basis              : AO
                                X                 Y                 Z
Electronic contribution:     -2.656644151       2.743144770       0.384293446
Nuclear contribution   :      3.535347247      -2.990661532      -0.469225958
                        -----------------------------------------
Total Dipole Moment    :      0.878703097      -0.247516761      -0.084932512
                        -----------------------------------------
Magnitude (a.u.)       :      0.916840886
Magnitude (Debye)      :      2.330424331

Rotational constants in cm-1:             0.195967             0.065159             0.058996
Rotational constants in MHz :          5874.930978          1953.411615          1768.670491

                             ****ORCA TERMINATED NORMALLY****
TOTAL RUN TIME: 0 days 0 hours 0 minutes 26 seconds 772 msec
