                         Program Version 6.0.0  -   RELEASE  -
|  1> ! pbe def2-sv(p) def2/J RI DEFGRID1 loosescf d4 GCP(DFT/SV(P)) printgap
|  2> %output
|  3>     printlevel normal
|  4> end
|  5> * xyz 0 1
|  6> C -1.0181307248 -0.4205072961 -0.3491566239
|  7> C 0.1491047977 0.3456544166 0.2827059722
|  8> C 1.4815184391 -0.1037900517 -0.3305218939
|  9> O 1.6990900814 -1.4506199019 0.020008251
| 10> O -0.0895832081 1.7198482804 0.0583681502
| 11> O -2.2384580356 -0.15610826 0.2963243557
| 12> H -0.8367842686 -1.4917900848 -0.2540930511
| 13> H -1.0797285926 -0.1509463772 -1.4120858908
| 14> H 0.1638768458 0.1235040827 1.3594767443
| 15> H 2.2878895448 0.5317028586 0.0606747164
| 16> H 1.4291321264 0.0204862392 -1.419894672
| 17> H 2.5289250767 -1.7548107191 -0.3736637037
| 18> H 0.5656852804 2.2517036162 0.5297581373
| 19> H -2.373958705 0.8032835425 0.2924379782
| 20> *
| 21>
| 22>                          ****END OF INPUT****

CARTESIAN COORDINATES (ANGSTROEM)
---------------------------------
  C     -1.018131   -0.420507   -0.349157
  C      0.149105    0.345654    0.282706
  C      1.481518   -0.103790   -0.330522
  O      1.699090   -1.450620    0.020008
  O     -0.089583    1.719848    0.058368
  O     -2.238458   -0.156108    0.296324
  H     -0.836784   -1.491790   -0.254093
  H     -1.079729   -0.150946   -1.412086
  H      0.163877    0.123504    1.359477
  H      2.287890    0.531703    0.060675
  H      1.429132    0.020486   -1.419895
  H      2.528925   -1.754811   -0.373664
  H      0.565685    2.251704    0.529758
  H     -2.373959    0.803284    0.292438

 Total Charge           Charge          ....    0
 Multiplicity           Mult            ....    1
 Number of Electrons    NEL             ....   50
 Basis Dimension        Dim             ....  100

ORBITAL ENERGIES
----------------

  NO   OCC          E(Eh)            E(eV)
   0   2.0000     -18.758322      -510.4399
   1   2.0000     -18.755148      -510.3535
   2   2.0000     -18.730375      -509.6794
   3   2.0000      -9.936298      -270.3804
   4   2.0000      -9.935881      -270.3691
   5   2.0000      -9.918659      -269.9004
   6   2.0000      -0.939679       -25.5700
   7   2.0000      -0.926634       -25.2150
   8   2.0000      -0.903821       -24.5942
   9   2.0000      -0.681219       -18.5369
  10   2.0000      -0.598997       -16.2995
  11   2.0000      -0.537424       -14.6240
  12   2.0000      -0.488797       -13.3008
  13   2.0000      -0.462872       -12.5954
  14   2.0000      -0.437816       -11.9136
  15   2.0000      -0.399745       -10.8776
  16   2.0000      -0.394368       -10.7313
  17   2.0000      -0.356443        -9.6993
  18   2.0000      -0.349502        -9.5104
  19   2.0000      -0.302504        -8.2316
  20   2.0000      -0.296125        -8.0580
  21   2.0000      -0.262742        -7.1496
  22   2.0000      -0.228862        -6.2277
  23   2.0000      -0.223795        -6.0898
  24   2.0000      -0.203414        -5.5352
  25   0.0000       0.015221         0.4142
  26   0.0000       0.020621         0.5611
  27   0.0000       0.063490         1.7277
  28   0.0000       0.078713         2.1419
  29   0.0000       0.097896         2.6639

MULLIKEN ATOMIC CHARGES
-----------------------
   0 C :    0.048229
   1 C :   -0.024492
   2 C :    0.012677
   3 O :   -0.431407
   4 O :   -0.435659
   5 O :   -0.438820
   6 H :    0.100601
   7 H :    0.063492
   8 H :    0.071550
   9 H :    0.059733
  10 H :    0.070914
  11 H :    0.304216
  12 H :    0.302455
  13 H :    0.296510
Sum of atomic charges:   -0.0000000

LOEWDIN ATOMIC CHARGES
----------------------
   0 C :   -0.127296
   1 C :   -0.092730
   2 C :   -0.136185
   3 O :   -0.341118
   4 O :   -0.328355
   5 O :   -0.339399
   6 H :    0.120741
   7 H :    0.096984
   8 H :    0.104132
   9 H :    0.089190
  10 H :    0.097545
  11 H :    0.289324
  12 H :    0.286880
  13 H :    0.280286

  Mayer bond orders larger than 0.100000
B(  0-C ,  1-C ) :   1.0607 B(  0-C ,  5-O ) :   1.0762 B(  0-C ,  6-H ) :   0.9193
B(  0-C ,  7-H ) :   0.9082 B(  1-C ,  2-C ) :   1.0373 B(  1-C ,  4-O ) :   1.0398
B(  1-C ,  8-H ) :   0.8953 B(  2-C ,  3-O ) :   1.0807 B(  2-C ,  9-H ) :   0.9183
B(  2-C , 10-H ) :   0.9068 B(  3-O , 11-H ) :   0.8488 B(  4-O , 12-H ) :   0.8481
B(  5-O , 13-H ) :   0.8469

Dispersion correction           -0.009008853
FINAL SINGLE POINT ENERGY      -344.008101001018

DIPOLE MOMENT
-------------

Method             : SCF
Type of density    : Electron Density
Multiplicity       :   1
Irrep              :   0
Energy             :  -344.0812768331053917 Eh
Relativity type    :
Basis              : AO
                                X                 Y                 Z
Electronic contribution:     -1.233752180       0.252009754       0.953102272
Nuclear contribution   :      2.509689752       0.314216644      -1.136557838
                        -----------------------------------------
Total Dipole Moment    :      1.275937573       0.566226399      -0.183455566
                        -----------------------------------------
Magnitude (a.u.)       :      1.407936422
Magnitude (Debye)      :      3.578689982

Rotational constants in cm-1:             0.176827             0.080013             0.059178
Rotational constants in MHz :          5301.139821          2398.736532          1774.112808

                             ****ORCA TERMINATED NORMALLY****
TOTAL RUN TIME: 0 days 0 hours 0 minutes 6 seconds 494 msec
