                         Program Version 6.0.0  -   RELEASE  -
|  1> ! pbe def2-sv(p) def2/J RI DEFGRID1 loosescf d4 GCP(DFT/SV(P)) printgap
|  2> %output
|  3>     printlevel normal
|  4> end
|  5> * xyz 0 1
|  6> C 1.7403080412 -1.1911012056 -0.1003745024
|  7> C 1.2383142636 0.1286666872 0.4797084202
|  8> H 1.057791974 0.0011558626 1.561256953
|  9> C -0.0567142763 0.6177379457 -0.1771388332
| 10> C -1.2874861233 -0.2592871649 0.1085276826
| 11> C -2.4906370045 0.6080894349 0.4784220532
| 12> C -1.639929478 -1.1367074679 -1.0919654923
| 13> O 2.1917414739 1.1667953736 0.2957166565
| 14> H 1.011278435 -1.9762492816 0.0720839833
| 15> H 1.9085586829 -1.0851819117 -1.1695418771
| 16> H 2.6754811028 -1.4825284067 0.3736977717
| 17> H -0.22515377 1.6300150648 0.1953369409
| 18> H 0.1146248847 0.6972036029 -1.251638986
| 19> H -1.0644800805 -0.9085541088 0.9626313526
| 20> H -2.7305721532 1.287025526 -0.3367953441
| 21> H -2.2809524663 1.1970540197 1.3681092887
| 22> H -3.3611808468 -0.0133406782 0.6756500701
| 23> H -1.927516802 -0.5147790016 -1.9368820757
| 24> H -0.7963377364 -1.751996541 -1.3908464741
| 25> H -2.47419688 -1.7915395582 -0.8502804622
| 26> H 3.04715906 0.8787498072 0.6416845962
| 27> *
| 28>
| 29>                          ****END OF INPUT****

CARTESIAN COORDINATES (ANGSTROEM)
---------------------------------
  C      1.740308   -1.191101   -0.100375
  C      1.238314    0.128667    0.479708
  H      1.057792    0.001156    1.561257
  C     -0.056714    0.617738   -0.177139
  C     -1.287486   -0.259287    0.108528
  C     -2.490637    0.608089    0.478422
  C     -1.639929   -1.136707   -1.091965
  O      2.191741    1.166795    0.295717
  H      1.011278   -1.976249    0.072084
  H      1.908559   -1.085182   -1.169542
  H      2.675481   -1.482528    0.373698
  H     -0.225154    1.630015    0.195337
  H      0.114625    0.697204   -1.251639
  H     -1.064480   -0.908554    0.962631
  H     -2.730572    1.287026   -0.336795
  H     -2.280952    1.197054    1.368109
  H     -3.361181   -0.013341    0.675650
  H     -1.927517   -0.514779   -1.936882
  H     -0.796338   -1.751997   -1.390846
  H     -2.474197   -1.791540   -0.850280
  H      3.047159    0.878750    0.641685

 Total Charge           Charge          ....    0
 Multiplicity           Mult            ....    1
 Number of Electrons    NEL             ....   58
 Basis Dimension        Dim             ....  126

ORBITAL ENERGIES
----------------

  NO   OCC          E(Eh)            E(eV)
   0   2.0000     -18.735084      -509.8076
   1   2.0000      -9.934976      -270.3444
   2   2.0000      -9.894119      -269.2327
   3   2.0000      -9.876302      -268.7478
   4   2.0000      -9.874001      -268.6852
   5   2.0000      -9.871017      -268.6040
   6   2.0000      -9.870089      -268.5788
   7   2.0000      -0.912685       -24.8354
   8   2.0000      -0.730791       -19.8858
   9   2.0000      -0.674087       -18.3428
  10   2.0000      -0.614137       -16.7115
  11   2.0000      -0.606501       -16.5037
  12   2.0000      -0.530561       -14.4373
  13   2.0000      -0.497272       -13.5315
  14   2.0000      -0.446482       -12.1494
  15   2.0000      -0.414073       -11.2675
  16   2.0000      -0.408346       -11.1117
  17   2.0000      -0.380749       -10.3607
  18   2.0000      -0.375557       -10.2194
  19   2.0000      -0.359707        -9.7881
  20   2.0000      -0.339158        -9.2290
  21   2.0000      -0.336524        -9.1573
  22   2.0000      -0.321093        -8.7374
  23   2.0000      -0.305579        -8.3152
  24   2.0000      -0.288281        -7.8445
  25   2.0000      -0.281347        -7.6558
  26   2.0000      -0.278126        -7.5682
  27   2.0000      -0.262234        -7.1358
  28   2.0000      -0.209701        -5.7062
  29   0.0000       0.027300         0.7429
  30   0.0000       0.044983         1.2241
  31   0.0000       0.064062         1.7432
  32   0.0000       0.073462         1.9990
  33   0.0000       0.082018         2.2318

MULLIKEN ATOMIC CHARGES
-----------------------
   0 C :   -0.273476
   1 C :   -0.005118
   2 H :    0.058839
   3 C :   -0.089818
   4 C :   -0.187980
   5 C :   -0.252993
   6 C :   -0.253424
   7 O :   -0.425957
   8 H :    0.111988
   9 H :    0.104150
  10 H :    0.091006
  11 H :    0.087202
  12 H :    0.078597
  13 H :    0.076479
  14 H :    0.098436
  15 H :    0.102157
  16 H :    0.094656
  17 H :    0.096916
  18 H :    0.102142
  19 H :    0.095693
  20 H :    0.290506
Sum of atomic charges:    0.0000000

LOEWDIN ATOMIC CHARGES
----------------------
   0 C :   -0.354970
   1 C :   -0.054982
   2 H :    0.092679
   3 C :   -0.217601
   4 C :   -0.157095
   5 C :   -0.328095
   6 C :   -0.330327
   7 O :   -0.337023
   8 H :    0.124005
   9 H :    0.122072
  10 H :    0.113659
  11 H :    0.121745
  12 H :    0.118854
  13 H :    0.110764
  14 H :    0.117374
  15 H :    0.116714
  16 H :    0.114882
  17 H :    0.117044
  18 H :    0.114982
  19 H :    0.115944
  20 H :    0.279376

  Mayer bond orders larger than 0.100000
B(  0-C ,  1-C ) :   1.1098 B(  0-C ,  8-H ) :   0.9267 B(  0-C ,  9-H ) :   0.9400
B(  0-C , 10-H ) :   0.9430 B(  1-C ,  2-H ) :   0.9094 B(  1-C ,  3-C ) :   1.0880
B(  1-C ,  7-O ) :   1.0624 B(  3-C ,  4-C ) :   1.0209 B(  3-C , 11-H ) :   0.9172
B(  3-C , 12-H ) :   0.9090 B(  4-C ,  5-C ) :   1.1152 B(  4-C ,  6-C ) :   1.1135
B(  4-C , 13-H ) :   0.9090 B(  5-C , 14-H ) :   0.9498 B(  5-C , 15-H ) :   0.9494
B(  5-C , 16-H ) :   0.9521 B(  6-C , 17-H ) :   0.9474 B(  6-C , 18-H ) :   0.9446
B(  6-C , 19-H ) :   0.9505 B(  7-O , 20-H ) :   0.8530

Dispersion correction           -0.016266461
FINAL SINGLE POINT ENERGY      -311.515296477420

DIPOLE MOMENT
-------------

Method             : SCF
Type of density    : Electron Density
Multiplicity       :   1
Irrep              :   0
Energy             :  -311.5947359230976303 Eh
Relativity type    :
Basis              : AO
                                X                 Y                 Z
Electronic contribution:      4.886936612       3.080961209       1.274028586
Nuclear contribution   :     -4.700973844      -3.578632461      -1.014020010
                        -----------------------------------------
Total Dipole Moment    :      0.185962768      -0.497671253       0.260008576
                        -----------------------------------------
Magnitude (a.u.)       :      0.591492423
Magnitude (Debye)      :      1.503454258

Rotational constants in cm-1:             0.141379             0.049009             0.040317
Rotational constants in MHz :          4238.427542          1469.266230          1208.669117

                             ****ORCA TERMINATED NORMALLY****
TOTAL RUN TIME: 0 days 0 hours 0 minutes 9 seconds 412 msec
