                         Program Version 6.0.0  -   RELEASE  -
|  1> ! r2scan-3c def2/J RI DEFGRID2 scfconv6 printgap
|  2> %output
|  3>     printlevel normal
|  4> end
|  5> * xyz 0 1
|  6> C 1.9559983937 -0.7969285082 -0.1217813014
|  7> C 1.2163998567 0.4191202262 0.4237787435
|  8> C -0.0384694866 0.7742068459 -0.3866705747
|  9> C -1.1039344466 -0.2693905918 -0.273723785
| 10> C -2.2549729573 -0.0923383829 0.3475868296
| 11> H 2.8734854767 -0.9610012829 0.438603224
| 12> H 2.2149812622 -0.6474572133 -1.1678031974
| 13> H 1.3456992429 -1.6924835645 -0.0408881893
| 14> H 0.9285896506 0.2365976059 1.4614411864
| 15> H 1.8889378364 1.279666814 0.4106397512
| 16> H 0.2431644245 0.8892367434 -1.4366484618
| 17> H -0.4302190992 1.7288840379 -0.0300578975
| 18> H -0.8808441516 -1.2218200477 -0.7354251065
| 19> H -2.9955547273 -0.8711127637 0.4151378878
| 20> H -2.5073690111 0.8463629272 0.8138150339
| 21> *
| 22>
| 23>                          ****END OF INPUT****

CARTESIAN COORDINATES (ANGSTROEM)
---------------------------------
  C      1.955998   -0.796929   -0.121781
  C      1.216400    0.419120    0.423779
  C     -0.038469    0.774207   -0.386671
  C     -1.103934   -0.269391   -0.273724
  C     -2.254973   -0.092338    0.347587
  H      2.873485   -0.961001    0.438603
  H      2.214981   -0.647457   -1.167803
  H      1.345699   -1.692484   -0.040888
  H      0.928590    0.236598    1.461441
  H      1.888938    1.279667    0.410640
  H      0.243164    0.889237   -1.436648
  H     -0.430219    1.728884   -0.030058
  H     -0.880844   -1.221820   -0.735425
  H     -2.995555   -0.871113    0.415138
  H     -2.507369    0.846363    0.813815

 Total Charge           Charge          ....    0
 Multiplicity           Mult            ....    1
 Number of Electrons    NEL             ....   40
 Basis Dimension        Dim             ....  145

ORBITAL ENERGIES
----------------

  NO   OCC          E(Eh)            E(eV)
   0   2.0000     -10.031632      -272.9746
   1   2.0000     -10.029406      -272.9140
   2   2.0000     -10.028266      -272.8830
   3   2.0000     -10.017326      -272.5853
   4   2.0000     -10.017026      -272.5771
   5   2.0000      -0.776021       -21.1166
   6   2.0000      -0.719844       -19.5880
   7   2.0000      -0.645782       -17.5726
   8   2.0000      -0.566382       -15.4120
   9   2.0000      -0.514449       -13.9989
  10   2.0000      -0.445686       -12.1277
  11   2.0000      -0.422622       -11.5001
  12   2.0000      -0.394322       -10.7301
  13   2.0000      -0.383306       -10.4303
  14   2.0000      -0.354945        -9.6586
  15   2.0000      -0.335541        -9.1305
  16   2.0000      -0.312908        -8.5147
  17   2.0000      -0.303333        -8.2541
  18   2.0000      -0.290112        -7.8944
  19   2.0000      -0.235432        -6.4064
  20   0.0000      -0.012652        -0.3443
  21   0.0000       0.099242         2.7005
  22   0.0000       0.120425         3.2769
  23   0.0000       0.123897         3.3714
  24   0.0000       0.129222         3.5163

MULLIKEN ATOMIC CHARGES
-----------------------
   0 C :   -0.490760
   1 C :   -0.204380
   2 C :   -0.276589
   3 C :   -0.099738
   4 C :   -0.368527
   5 H :    0.146452
   6 H :    0.145025
   7 H :    0.149193
   8 H :    0.139647
   9 H :    0.139748
  10 H :    0.146823
  11 H :    0.143356
  12 H :    0.150778
  13 H :    0.139918
  14 H :    0.139055
Sum of atomic charges:   -0.0000000

LOEWDIN ATOMIC CHARGES
----------------------
   0 C :   -0.426348
   1 C :   -0.307450
   2 C :   -0.302885
   3 C :   -0.196522
   4 C :   -0.316192
   5 H :    0.151747
   6 H :    0.149636
   7 H :    0.150178
   8 H :    0.155412
   9 H :    0.151273
  10 H :    0.161090
  11 H :    0.159809
  12 H :    0.159866
  13 H :    0.155887
  14 H :    0.154500

  Mayer bond orders larger than 0.100000
B(  0-C ,  1-C ) :   0.9072 B(  0-C ,  5-H ) :   0.9703 B(  0-C ,  6-H ) :   0.9830
B(  0-C ,  7-H ) :   0.9794 B(  1-C ,  2-C ) :   0.8759 B(  1-C ,  8-H ) :   0.9710
B(  1-C ,  9-H ) :   0.9668 B(  2-C ,  3-C ) :   0.9317 B(  2-C , 10-H ) :   0.9810
B(  2-C , 11-H ) :   0.9859 B(  3-C ,  4-C ) :   1.9367 B(  3-C , 12-H ) :   0.9274
B(  4-C , 13-H ) :   0.9644 B(  4-C , 14-H ) :   0.9842

Dispersion correction           -0.003316226
FINAL SINGLE POINT ENERGY      -196.457281511617

DIPOLE MOMENT
-------------

Method             : SCF
Type of density    : Electron Density
Multiplicity       :   1
Irrep              :   0
Energy             :  -196.4598237595805301 Eh
Relativity type    :
Basis              : AO
                                X                 Y                 Z
Electronic contribution:     -2.336496303       0.432324481      -0.133708148
Nuclear contribution   :      2.515116558      -0.387583718       0.120849834
                        -----------------------------------------
Total Dipole Moment    :      0.178620255       0.044740762      -0.012858314
                        -----------------------------------------
Magnitude (a.u.)       :      0.184586748
Magnitude (Debye)      :      0.469182226

Rotational constants in cm-1:             0.385528             0.088797             0.081719
Rotational constants in MHz :         11557.850988          2662.063916          2449.876089

                             ****ORCA TERMINATED NORMALLY****
TOTAL RUN TIME: 0 days 0 hours 0 minutes 12 seconds 933 msec
