                         Program Version 6.0.0  -   RELEASE  -
|  1> ! r2scan-3c def2/J RI DEFGRID2 scfconv6 printgap
|  2> %output
|  3>     printlevel normal
|  4> end
|  5> * xyz 0 1
|  6> C -2.0436379477 0.8359785804 -0.6462058333
|  7> C -1.3323335408 0.5378646187 0.6697791858
|  8> C -0.0154467911 -0.2370022526 0.53213039
|  9> H 0.4179087153 -0.3356633832 1.5343472143
| 10> C -0.2168248519 -1.6423009107 -0.0305369549
| 11> C 1.0139628288 0.527804607 -0.305541166
| 12> O 2.2914035334 -0.0377759841 -0.0766880472
| 13> H -1.4248814548 1.4520646019 -1.2930114513
| 14> H -2.2926936902 -0.0813115952 -1.1716911451
| 15> H -2.9680083104 1.3733447804 -0.448201803
| 16> H -2.0001144508 -0.0436876328 1.3086712327
| 17> H -1.1276904615 1.4814120298 1.1814379917
| 18> H 0.736490739 -2.1646995149 -0.0466233214
| 19> H -0.6024541263 -1.6028857142 -1.0459250695
| 20> H -0.9124178936 -2.2031293815 0.5883690311
| 21> H 1.0144005554 1.5863495666 -0.0092195389
| 22> H 0.7574765262 0.4585257512 -1.3700270038
| 23> H 2.9439215675 0.4130583813 -0.6280275139
| 24> *
| 25>
| 26>                          ****END OF INPUT****

CARTESIAN COORDINATES (ANGSTROEM)
---------------------------------
  C     -2.043638    0.835979   -0.646206
  C     -1.332334    0.537865    0.669779
  C     -0.015447   -0.237002    0.532130
  H      0.417909   -0.335663    1.534347
  C     -0.216825   -1.642301   -0.030537
  C      1.013963    0.527805   -0.305541
  O      2.291404   -0.037776   -0.076688
  H     -1.424881    1.452065   -1.293011
  H     -2.292694   -0.081312   -1.171691
  H     -2.968008    1.373345   -0.448202
  H     -2.000114   -0.043688    1.308671
  H     -1.127690    1.481412    1.181438
  H      0.736491   -2.164700   -0.046623
  H     -0.602454   -1.602886   -1.045925
  H     -0.912418   -2.203129    0.588369
  H      1.014401    1.586350   -0.009220
  H      0.757477    0.458526   -1.370027
  H      2.943922    0.413058   -0.628028

 Total Charge           Charge          ....    0
 Multiplicity           Mult            ....    1
 Number of Electrons    NEL             ....   50
 Basis Dimension        Dim             ....  179

ORBITAL ENERGIES
----------------

  NO   OCC          E(Eh)            E(eV)
   0   2.0000     -18.946494      -515.5603
   1   2.0000     -10.071315      -274.0544
   2   2.0000     -10.029419      -272.9144
   3   2.0000     -10.025055      -272.7956
   4   2.0000     -10.016750      -272.5696
   5   2.0000     -10.008976      -272.3581
   6   2.0000      -0.982533       -26.7361
   7   2.0000      -0.773794       -21.0560
   8   2.0000      -0.694919       -18.9097
   9   2.0000      -0.639563       -17.4034
  10   2.0000      -0.597955       -16.2712
  11   2.0000      -0.512009       -13.9325
  12   2.0000      -0.482174       -13.1206
  13   2.0000      -0.434543       -11.8245
  14   2.0000      -0.421146       -11.4600
  15   2.0000      -0.402583       -10.9548
  16   2.0000      -0.378618       -10.3027
  17   2.0000      -0.349260        -9.5038
  18   2.0000      -0.348390        -9.4802
  19   2.0000      -0.334412        -9.0998
  20   2.0000      -0.318311        -8.6617
  21   2.0000      -0.290397        -7.9021
  22   2.0000      -0.288342        -7.8462
  23   2.0000      -0.276556        -7.5255
  24   2.0000      -0.234320        -6.3762
  25   0.0000       0.060772         1.6537
  26   0.0000       0.084020         2.2863
  27   0.0000       0.114122         3.1054
  28   0.0000       0.125632         3.4186
  29   0.0000       0.131338         3.5739

MULLIKEN ATOMIC CHARGES
-----------------------
   0 C :   -0.499340
   1 C :   -0.264444
   2 C :    0.020596
   3 H :    0.155187
   4 C :   -0.543373
   5 C :   -0.194353
   6 O :   -0.430675
   7 H :    0.150086
   8 H :    0.154292
   9 H :    0.146100
  10 H :    0.142583
  11 H :    0.144424
  12 H :    0.170477
  13 H :    0.150791
  14 H :    0.146383
  15 H :    0.127313
  16 H :    0.133517
  17 H :    0.290436
Sum of atomic charges:   -0.0000000

LOEWDIN ATOMIC CHARGES
----------------------
   0 C :   -0.425201
   1 C :   -0.308902
   2 C :   -0.218938
   3 H :    0.170045
   4 C :   -0.412263
   5 C :    0.010654
   6 O :   -0.630618
   7 H :    0.150002
   8 H :    0.151482
   9 H :    0.151395
  10 H :    0.155745
  11 H :    0.154687
  12 H :    0.165840
  13 H :    0.151667
  14 H :    0.153151
  15 H :    0.157411
  16 H :    0.158096
  17 H :    0.265748

  Mayer bond orders larger than 0.100000
B(  0-C ,  1-C ) :   0.8847 B(  0-C ,  7-H ) :   0.9768 B(  0-C ,  8-H ) :   0.9838
B(  0-C ,  9-H ) :   0.9677 B(  1-C ,  2-C ) :   0.8836 B(  1-C , 10-H ) :   0.9779
B(  1-C , 11-H ) :   0.9735 B(  2-C ,  3-H ) :   0.9609 B(  2-C ,  4-C ) :   0.9212
B(  2-C ,  5-C ) :   0.9137 B(  4-C , 12-H ) :   0.9646 B(  4-C , 13-H ) :   0.9862
B(  4-C , 14-H ) :   0.9738 B(  5-C ,  6-O ) :   0.9263 B(  5-C , 15-H ) :   0.9637
B(  5-C , 16-H ) :   0.9690 B(  6-O , 17-H ) :   0.9013

Dispersion correction           -0.004425093
FINAL SINGLE POINT ENERGY      -272.897078870678

DIPOLE MOMENT
-------------

Method             : SCF
Type of density    : Electron Density
Multiplicity       :   1
Irrep              :   0
Energy             :  -272.9025456019919034 Eh
Relativity type    :
Basis              : AO
                                X                 Y                 Z
Electronic contribution:      5.002671528       0.106330887       1.002758842
Nuclear contribution   :     -5.086550052       0.312202398      -1.314474640
                        -----------------------------------------
Total Dipole Moment    :     -0.083878524       0.418533284      -0.311715798
                        -----------------------------------------
Magnitude (a.u.)       :      0.528556956
Magnitude (Debye)      :      1.343485014

Rotational constants in cm-1:             0.180310             0.072519             0.061707
Rotational constants in MHz :          5405.566477          2174.078809          1849.915364

                             ****ORCA TERMINATED NORMALLY****
TOTAL RUN TIME: 0 days 0 hours 0 minutes 22 seconds 937 msec
