                         Program Version 6.0.0  -   RELEASE  -
|  1> ! r2scan-3c def2/J RI DEFGRID2 scfconv6 printgap
|  2> %output
|  3>     printlevel normal
|  4> end
|  5> %cpcm
|  6>     smd true
|  7>     smdsolvent "water"
|  8> end
|  9> * xyz 0 1
| 10> C -2.0436379477 0.8359785804 -0.6462058333
| 11> C -1.3323335408 0.5378646187 0.6697791858
| 12> C -0.0154467911 -0.2370022526 0.53213039
| 13> H 0.4179087153 -0.3356633832 1.5343472143
| 14> C -0.2168248519 -1.6423009107 -0.0305369549
| 15> C 1.0139628288 0.527804607 -0.305541166
| 16> O 2.2914035334 -0.0377759841 -0.0766880472
| 17> H -1.4248814548 1.4520646019 -1.2930114513
| 18> H -2.2926936902 -0.0813115952 -1.1716911451
| 19> H -2.9680083104 1.3733447804 -0.448201803
| 20> H -2.0001144508 -0.0436876328 1.3086712327
| 21> H -1.1276904615 1.4814120298 1.1814379917
| 22> H 0.736490739 -2.1646995149 -0.0466233214
| 23> H -0.6024541263 -1.6028857142 -1.0459250695
| 24> H -0.9124178936 -2.2031293815 0.5883690311
| 25> H 1.0144005554 1.5863495666 -0.0092195389
| 26> H 0.7574765262 0.4585257512 -1.3700270038
| 27> H 2.9439215675 0.4130583813 -0.6280275139
| 28> *
| 29>
| 30>                          ****END OF INPUT****

CARTESIAN COORDINATES (ANGSTROEM)
---------------------------------
  C     -2.043638    0.835979   -0.646206
  C     -1.332334    0.537865    0.669779
  C     -0.015447   -0.237002    0.532130
  H      0.417909   -0.335663    1.534347
  C     -0.216825   -1.642301   -0.030537
  C      1.013963    0.527805   -0.305541
  O      2.291404   -0.037776   -0.076688
  H     -1.424881    1.452065   -1.293011
  H     -2.292694   -0.081312   -1.171691
  H     -2.968008    1.373345   -0.448202
  H     -2.000114   -0.043688    1.308671
  H     -1.127690    1.481412    1.181438
  H      0.736491   -2.164700   -0.046623
  H     -0.602454   -1.602886   -1.045925
  H     -0.912418   -2.203129    0.588369
  H      1.014401    1.586350   -0.009220
  H      0.757477    0.458526   -1.370027
  H      2.943922    0.413058   -0.628028

 Total Charge           Charge          ....    0
 Multiplicity           Mult            ....    1
 Number of Electrons    NEL             ....   50
 Basis Dimension        Dim             ....  179

ORBITAL ENERGIES
----------------

  NO   OCC          E(Eh)            E(eV)
   0   2.0000     -18.949024      -515.6292
   1   2.0000     -10.064855      -273.8786
   2   2.0000     -10.025080      -272.7963
   3   2.0000     -10.017282      -272.5841
   4   2.0000     -10.007608      -272.3209
   5   2.0000     -10.006070      -272.2790
   6   2.0000      -0.983967       -26.7751
   7   2.0000      -0.768237       -20.9048
   8   2.0000      -0.688754       -18.7420
   9   2.0000      -0.635708       -17.2985
  10   2.0000      -0.591301       -16.0901
  11   2.0000      -0.506984       -13.7957
  12   2.0000      -0.478752       -13.0275
  13   2.0000      -0.429592       -11.6898
  14   2.0000      -0.415666       -11.3108
  15   2.0000      -0.397722       -10.8226
  16   2.0000      -0.373053       -10.1513
  17   2.0000      -0.344716        -9.3802
  18   2.0000      -0.342298        -9.3144
  19   2.0000      -0.335700        -9.1349
  20   2.0000      -0.313353        -8.5268
  21   2.0000      -0.285454        -7.7676
  22   2.0000      -0.282796        -7.6953
  23   2.0000      -0.272653        -7.4193
  24   2.0000      -0.237578        -6.4648
  25   0.0000       0.076408         2.0792
  26   0.0000       0.092531         2.5179
  27   0.0000       0.120994         3.2924
  28   0.0000       0.132866         3.6155
  29   0.0000       0.137933         3.7533

MULLIKEN ATOMIC CHARGES
-----------------------
   0 C :   -0.531434
   1 C :   -0.278398
   2 C :    0.020183
   3 H :    0.155878
   4 C :   -0.571354
   5 C :   -0.198477
   6 O :   -0.514843
   7 H :    0.162318
   8 H :    0.163382
   9 H :    0.155958
  10 H :    0.152224
  11 H :    0.153792
  12 H :    0.159637
  13 H :    0.169549
  14 H :    0.161312
  15 H :    0.143431
  16 H :    0.152528
  17 H :    0.344314
Sum of atomic charges:   -0.0000000

LOEWDIN ATOMIC CHARGES
----------------------
   0 C :   -0.431626
   1 C :   -0.309362
   2 C :   -0.221623
   3 H :    0.168268
   4 C :   -0.420646
   5 C :    0.012826
   6 O :   -0.666088
   7 H :    0.153933
   8 H :    0.153879
   9 H :    0.153605
  10 H :    0.158113
  11 H :    0.157861
  12 H :    0.159803
  13 H :    0.157464
  14 H :    0.157383
  15 H :    0.165174
  16 H :    0.166637
  17 H :    0.284398

  Mayer bond orders larger than 0.100000
B(  0-C ,  1-C ) :   0.8852 B(  0-C ,  7-H ) :   0.9732 B(  0-C ,  8-H ) :   0.9804
B(  0-C ,  9-H ) :   0.9661 B(  1-C ,  2-C ) :   0.8849 B(  1-C , 10-H ) :   0.9774
B(  1-C , 11-H ) :   0.9715 B(  2-C ,  3-H ) :   0.9596 B(  2-C ,  4-C ) :   0.9123
B(  2-C ,  5-C ) :   0.9041 B(  4-C , 12-H ) :   0.9659 B(  4-C , 13-H ) :   0.9811
B(  4-C , 14-H ) :   0.9717 B(  5-C ,  6-O ) :   0.9095 B(  5-C , 15-H ) :   0.9636
B(  5-C , 16-H ) :   0.9680 B(  6-O , 17-H ) :   0.8748

Dispersion correction           -0.004425093
FINAL SINGLE POINT ENERGY      -272.902797958676

DIPOLE MOMENT
-------------

Method             : SCF
Type of density    : Electron Density
Multiplicity       :   1
Irrep              :   0
Energy             :  -272.9082646899900624 Eh
Relativity type    :
Basis              : AO
                                X                 Y                 Z
Electronic contribution:      4.912169973       0.316984606       0.840899547
Nuclear contribution   :     -5.086550052       0.312202398      -1.314474640
                        -----------------------------------------
Total Dipole Moment    :     -0.174380079       0.629187004      -0.473575093
                        -----------------------------------------
Magnitude (a.u.)       :      0.806571799
Magnitude (Debye)      :      2.050142586

Rotational constants in cm-1:             0.180310             0.072519             0.061707
Rotational constants in MHz :          5405.566477          2174.078809          1849.915364

                             ****ORCA TERMINATED NORMALLY****
TOTAL RUN TIME: 0 days 0 hours 0 minutes 27 seconds 386 msec
