                         Program Version 6.0.0  -   RELEASE  -
|  1> ! r2scan-3c def2/J RI DEFGRID2 scfconv6 printgap
|  2> %output
|  3>     printlevel normal
|  4> end
|  5> * xyz 0 1
|  6> C -2.5099363037 0.9358909927 -0.4097367672
|  7> C -1.7351953525 -0.3784268282 -0.4110167404
|  8> C -0.6153532775 -0.4197353445 0.6353084502
|  9> C 0.8104310558 -0.1190328616 0.1369993105
| 10> C 0.905488911 1.2321933978 -0.5768784725
| 11> C 1.326316022 -1.235786379 -0.7774657304
| 12> O 1.5926102721 -0.0847500464 1.3334827005
| 13> H -3.2970286333 0.9084787707 -1.1601539774
| 14> H -1.8593248537 1.777834702 -0.6262571856
| 15> H -2.9703654175 1.1009456606 0.561751163
| 16> H -2.43743165 -1.1873564301 -0.2013150142
| 17> H -1.3289072939 -0.5576009558 -1.4068836514
| 18> H -0.8322265267 0.293383086 1.433103493
| 19> H -0.5754763616 -1.4073234292 1.0990813161
| 20> H 0.3003684869 1.2311099449 -1.4773968978
| 21> H 1.9375816023 1.4342124659 -0.8578282244
| 22> H 0.5664335688 2.0253877179 0.0850473039
| 23> H 1.3408009078 -2.178293711 -0.2350920898
| 24> H 2.3362515436 -1.0118491917 -1.1149529109
| 25> H 0.6899665834 -1.3442465439 -1.6499159535
| 26> H 2.5160822128 0.0806597457 1.0999613239
| 27> *
| 28>
| 29>                          ****END OF INPUT****

CARTESIAN COORDINATES (ANGSTROEM)
---------------------------------
  C     -2.509936    0.935891   -0.409737
  C     -1.735195   -0.378427   -0.411017
  C     -0.615353   -0.419735    0.635308
  C      0.810431   -0.119033    0.136999
  C      0.905489    1.232193   -0.576878
  C      1.326316   -1.235786   -0.777466
  O      1.592610   -0.084750    1.333483
  H     -3.297029    0.908479   -1.160154
  H     -1.859325    1.777835   -0.626257
  H     -2.970365    1.100946    0.561751
  H     -2.437432   -1.187356   -0.201315
  H     -1.328907   -0.557601   -1.406884
  H     -0.832227    0.293383    1.433103
  H     -0.575476   -1.407323    1.099081
  H      0.300368    1.231110   -1.477397
  H      1.937582    1.434212   -0.857828
  H      0.566434    2.025388    0.085047
  H      1.340801   -2.178294   -0.235092
  H      2.336252   -1.011849   -1.114953
  H      0.689967   -1.344247   -1.649916
  H      2.516082    0.080660    1.099961

 Total Charge           Charge          ....    0
 Multiplicity           Mult            ....    1
 Number of Electrons    NEL             ....   58
 Basis Dimension        Dim             ....  208

ORBITAL ENERGIES
----------------

  NO   OCC          E(Eh)            E(eV)
   0   2.0000     -18.940506      -515.3974
   1   2.0000     -10.087254      -274.4881
   2   2.0000     -10.026646      -272.8389
   3   2.0000     -10.018865      -272.6272
   4   2.0000     -10.017846      -272.5994
   5   2.0000     -10.017328      -272.5854
   6   2.0000     -10.015534      -272.5365
   7   2.0000      -0.979783       -26.6613
   8   2.0000      -0.770032       -20.9536
   9   2.0000      -0.721766       -19.6402
  10   2.0000      -0.658910       -17.9299
  11   2.0000      -0.649771       -17.6812
  12   2.0000      -0.575647       -15.6641
  13   2.0000      -0.514861       -14.0101
  14   2.0000      -0.456608       -12.4249
  15   2.0000      -0.438994       -11.9456
  16   2.0000      -0.425043       -11.5660
  17   2.0000      -0.393391       -10.7047
  18   2.0000      -0.383881       -10.4459
  19   2.0000      -0.380889       -10.3645
  20   2.0000      -0.364608        -9.9215
  21   2.0000      -0.350975        -9.5505
  22   2.0000      -0.328620        -8.9422
  23   2.0000      -0.322612        -8.7787
  24   2.0000      -0.309308        -8.4167
  25   2.0000      -0.303191        -8.2503
  26   2.0000      -0.292844        -7.9687
  27   2.0000      -0.273793        -7.4503
  28   2.0000      -0.232713        -6.3324
  29   0.0000       0.065407         1.7798
  30   0.0000       0.088981         2.4213
  31   0.0000       0.103944         2.8285
  32   0.0000       0.118689         3.2297
  33   0.0000       0.125907         3.4261

MULLIKEN ATOMIC CHARGES
-----------------------
   0 C :   -0.494206
   1 C :   -0.241819
   2 C :   -0.265758
   3 C :    0.155892
   4 C :   -0.511144
   5 C :   -0.482252
   6 O :   -0.411627
   7 H :    0.144313
   8 H :    0.151930
   9 H :    0.149440
  10 H :    0.143724
  11 H :    0.137923
  12 H :    0.161890
  13 H :    0.154385
  14 H :    0.160527
  15 H :    0.139737
  16 H :    0.171947
  17 H :    0.164240
  18 H :    0.139967
  19 H :    0.149706
  20 H :    0.281184
Sum of atomic charges:    0.0000000

LOEWDIN ATOMIC CHARGES
----------------------
   0 C :   -0.424680
   1 C :   -0.313938
   2 C :   -0.261360
   3 C :    0.060635
   4 C :   -0.389960
   5 C :   -0.389698
   6 O :   -0.609623
   7 H :    0.149482
   8 H :    0.150649
   9 H :    0.150478
  10 H :    0.155334
  11 H :    0.152040
  12 H :    0.173824
  13 H :    0.168935
  14 H :    0.159995
  15 H :    0.155452
  16 H :    0.165151
  17 H :    0.165429
  18 H :    0.155017
  19 H :    0.157574
  20 H :    0.269263

  Mayer bond orders larger than 0.100000
B(  0-C ,  1-C ) :   0.9009 B(  0-C ,  7-H ) :   0.9743 B(  0-C ,  8-H ) :   0.9746
B(  0-C ,  9-H ) :   0.9859 B(  1-C ,  2-C ) :   0.8112 B(  1-C , 10-H ) :   0.9627
B(  1-C , 11-H ) :   0.9840 B(  2-C ,  3-C ) :   0.9050 B(  2-C , 12-H ) :   0.9825
B(  2-C , 13-H ) :   0.9735 B(  3-C ,  4-C ) :   0.9100 B(  3-C ,  5-C ) :   0.9760
B(  3-C ,  6-O ) :   0.8704 B(  4-C , 14-H ) :   0.9655 B(  4-C , 15-H ) :   0.9636
B(  4-C , 16-H ) :   0.9781 B(  5-C , 17-H ) :   0.9766 B(  5-C , 18-H ) :   0.9643
B(  5-C , 19-H ) :   0.9668 B(  6-O , 20-H ) :   0.9026

Dispersion correction           -0.005774662
FINAL SINGLE POINT ENERGY      -312.203965604893

DIPOLE MOMENT
-------------

Method             : SCF
Type of density    : Electron Density
Multiplicity       :   1
Irrep              :   0
Energy             :  -312.2093155494137022 Eh
Relativity type    :
Basis              : AO
                                X                 Y                 Z
Electronic contribution:      3.500676782      -1.047067155       3.606499631
Nuclear contribution   :     -3.366208101       1.092023471      -4.155836533
                        -----------------------------------------
Total Dipole Moment    :      0.134468680       0.044956315      -0.549336902
                        -----------------------------------------
Magnitude (a.u.)       :      0.567339342
Magnitude (Debye)      :      1.442062004

Rotational constants in cm-1:             0.132014             0.053142             0.051403
Rotational constants in MHz :          3957.695140          1593.149630          1541.033192

                             ****ORCA TERMINATED NORMALLY****
TOTAL RUN TIME: 0 days 0 hours 0 minutes 27 seconds 558 msec
