                         Program Version 6.0.0  -   RELEASE  -
|  1> ! r2scan-3c def2/J RI DEFGRID2 scfconv6 printgap
|  2> %output
|  3>     printlevel normal
|  4> end
|  5> %cpcm
|  6>     smd true
|  7>     smdsolvent "water"
|  8> end
|  9> * xyz 0 1
| 10> C -2.5099363037 0.9358909927 -0.4097367672
| 11> C -1.7351953525 -0.3784268282 -0.4110167404
| 12> C -0.6153532775 -0.4197353445 0.6353084502
| 13> C 0.8104310558 -0.1190328616 0.1369993105
| 14> C 0.905488911 1.2321933978 -0.5768784725
| 15> C 1.326316022 -1.235786379 -0.7774657304
| 16> O 1.5926102721 -0.0847500464 1.3334827005
| 17> H -3.2970286333 0.9084787707 -1.1601539774
| 18> H -1.8593248537 1.777834702 -0.6262571856
| 19> H -2.9703654175 1.1009456606 0.561751163
| 20> H -2.43743165 -1.1873564301 -0.2013150142
| 21> H -1.3289072939 -0.5576009558 -1.4068836514
| 22> H -0.8322265267 0.293383086 1.433103493
| 23> H -0.5754763616 -1.4073234292 1.0990813161
| 24> H 0.3003684869 1.2311099449 -1.4773968978
| 25> H 1.9375816023 1.4342124659 -0.8578282244
| 26> H 0.5664335688 2.0253877179 0.0850473039
| 27> H 1.3408009078 -2.178293711 -0.2350920898
| 28> H 2.3362515436 -1.0118491917 -1.1149529109
| 29> H 0.6899665834 -1.3442465439 -1.6499159535
| 30> H 2.5160822128 0.0806597457 1.0999613239
| 31> *
| 32>
| 33>                          ****END OF INPUT****

CARTESIAN COORDINATES (ANGSTROEM)
---------------------------------
  C     -2.509936    0.935891   -0.409737
  C     -1.735195   -0.378427   -0.411017
  C     -0.615353   -0.419735    0.635308
  C      0.810431   -0.119033    0.136999
  C      0.905489    1.232193   -0.576878
  C      1.326316   -1.235786   -0.777466
  O      1.592610   -0.084750    1.333483
  H     -3.297029    0.908479   -1.160154
  H     -1.859325    1.777835   -0.626257
  H     -2.970365    1.100946    0.561751
  H     -2.437432   -1.187356   -0.201315
  H     -1.328907   -0.557601   -1.406884
  H     -0.832227    0.293383    1.433103
  H     -0.575476   -1.407323    1.099081
  H      0.300368    1.231110   -1.477397
  H      1.937582    1.434212   -0.857828
  H      0.566434    2.025388    0.085047
  H      1.340801   -2.178294   -0.235092
  H      2.336252   -1.011849   -1.114953
  H      0.689967   -1.344247   -1.649916
  H      2.516082    0.080660    1.099961

 Total Charge           Charge          ....    0
 Multiplicity           Mult            ....    1
 Number of Electrons    NEL             ....   58
 Basis Dimension        Dim             ....  208

ORBITAL ENERGIES
----------------

  NO   OCC          E(Eh)            E(eV)
   0   2.0000     -18.945365      -515.5296
   1   2.0000     -10.083112      -274.3754
   2   2.0000     -10.017999      -272.6036
   3   2.0000     -10.014676      -272.5132
   4   2.0000     -10.007536      -272.3189
   5   2.0000     -10.007454      -272.3167
   6   2.0000     -10.007040      -272.3054
   7   2.0000      -0.983276       -26.7563
   8   2.0000      -0.763871       -20.7860
   9   2.0000      -0.714037       -19.4299
  10   2.0000      -0.650271       -17.6948
  11   2.0000      -0.643228       -17.5031
  12   2.0000      -0.569581       -15.4991
  13   2.0000      -0.510502       -13.8915
  14   2.0000      -0.451650       -12.2900
  15   2.0000      -0.432545       -11.7702
  16   2.0000      -0.419539       -11.4162
  17   2.0000      -0.386599       -10.5199
  18   2.0000      -0.376322       -10.2402
  19   2.0000      -0.374222       -10.1831
  20   2.0000      -0.356521        -9.7014
  21   2.0000      -0.341144        -9.2830
  22   2.0000      -0.322653        -8.7798
  23   2.0000      -0.315711        -8.5909
  24   2.0000      -0.307467        -8.3666
  25   2.0000      -0.296496        -8.0681
  26   2.0000      -0.287893        -7.8340
  27   2.0000      -0.269213        -7.3257
  28   2.0000      -0.237976        -6.4757
  29   0.0000       0.081391         2.2148
  30   0.0000       0.097831         2.6621
  31   0.0000       0.112414         3.0589
  32   0.0000       0.128706         3.5023
  33   0.0000       0.133802         3.6409

MULLIKEN ATOMIC CHARGES
-----------------------
   0 C :   -0.531071
   1 C :   -0.255665
   2 C :   -0.282707
   3 C :    0.197799
   4 C :   -0.548223
   5 C :   -0.531240
   6 O :   -0.506020
   7 H :    0.154323
   8 H :    0.161500
   9 H :    0.158254
  10 H :    0.152475
  11 H :    0.157405
  12 H :    0.161273
  13 H :    0.160309
  14 H :    0.178298
  15 H :    0.164159
  16 H :    0.171442
  17 H :    0.165374
  18 H :    0.164017
  19 H :    0.170145
  20 H :    0.338152
Sum of atomic charges:    0.0000000

LOEWDIN ATOMIC CHARGES
----------------------
   0 C :   -0.431926
   1 C :   -0.314121
   2 C :   -0.267962
   3 C :    0.062596
   4 C :   -0.393717
   5 C :   -0.394475
   6 O :   -0.648517
   7 H :    0.151962
   8 H :    0.153166
   9 H :    0.151906
  10 H :    0.157543
  11 H :    0.158824
  12 H :    0.171795
  13 H :    0.168766
  14 H :    0.166881
  15 H :    0.163201
  16 H :    0.164462
  17 H :    0.164459
  18 H :    0.163097
  19 H :    0.164531
  20 H :    0.287530

  Mayer bond orders larger than 0.100000
B(  0-C ,  1-C ) :   0.8921 B(  0-C ,  7-H ) :   0.9720 B(  0-C ,  8-H ) :   0.9734
B(  0-C ,  9-H ) :   0.9838 B(  1-C ,  2-C ) :   0.8243 B(  1-C , 10-H ) :   0.9623
B(  1-C , 11-H ) :   0.9827 B(  2-C ,  3-C ) :   0.9053 B(  2-C , 12-H ) :   0.9786
B(  2-C , 13-H ) :   0.9704 B(  3-C ,  4-C ) :   0.9113 B(  3-C ,  5-C ) :   0.9681
B(  3-C ,  6-O ) :   0.8448 B(  4-C , 14-H ) :   0.9620 B(  4-C , 15-H ) :   0.9637
B(  4-C , 16-H ) :   0.9705 B(  5-C , 17-H ) :   0.9716 B(  5-C , 18-H ) :   0.9639
B(  5-C , 19-H ) :   0.9631 B(  6-O , 20-H ) :   0.8776

Dispersion correction           -0.005774662
FINAL SINGLE POINT ENERGY      -312.210152699653

DIPOLE MOMENT
-------------

Method             : SCF
Type of density    : Electron Density
Multiplicity       :   1
Irrep              :   0
Energy             :  -312.2155026441733980 Eh
Relativity type    :
Basis              : AO
                                X                 Y                 Z
Electronic contribution:      3.594757396      -1.012362365       3.279719225
Nuclear contribution   :     -3.366208101       1.092023471      -4.155836533
                        -----------------------------------------
Total Dipole Moment    :      0.228549295       0.079661106      -0.876117308
                        -----------------------------------------
Magnitude (a.u.)       :      0.908934656
Magnitude (Debye)      :      2.310328290

Rotational constants in cm-1:             0.132014             0.053142             0.051403
Rotational constants in MHz :          3957.695140          1593.149630          1541.033192

                             ****ORCA TERMINATED NORMALLY****
TOTAL RUN TIME: 0 days 0 hours 0 minutes 32 seconds 441 msec
