                         Program Version 6.0.0  -   RELEASE  -
|  1> ! r2scan-3c def2/J RI DEFGRID2 scfconv6 printgap
|  2> %output
|  3>     printlevel normal
|  4> end
|  5> * xyz 0 1
|  6> C -3.2356083075 0.9448548734 -0.1502596454
|  7> C -2.4144525094 1.0705065607 0.9582442687
|  8> C -1.2796119202 0.28810584 1.0720139072
|  9> C -0.9531523657 -0.6265934831 0.0781861453
| 10> C -1.7768808131 -0.7432323539 -1.032309272
| 11> C -2.9156293251 0.0363577794 -1.1443970594
| 12> C 0.3063734853 -1.4519552539 0.1989780129
| 13> N 1.4761268144 -0.6098696888 0.1037145229
| 14> C 2.2464120086 -0.1541977017 1.1330240635
| 15> C 3.1844475169 0.6631559064 0.5719062071
| 16> N 3.0013167788 0.7247972986 -0.7756352199
| 17> C 1.9697739333 -0.043194662 -1.0173969114
| 18> H -4.1217718628 1.5545751917 -0.2386256429
| 19> H -2.65897911 1.7785122402 1.7355080244
| 20> H -0.6393889085 0.3906450651 1.9360570485
| 21> H -1.5300392723 -1.4487898713 -1.8120230382
| 22> H -3.55132215 -0.0637917041 -2.0109598589
| 23> H 0.3350124635 -1.9607265863 1.1654695671
| 24> H 0.344084793 -2.1978669939 -0.5986967101
| 25> H 2.0802047039 -0.4492752445 2.1480487155
| 26> H 3.9775663704 1.2076674227 1.0434620365
| 27> H 1.5571540535 -0.2151250318 -1.9909535649
| 28> *
| 29>
| 30>                          ****END OF INPUT****

CARTESIAN COORDINATES (ANGSTROEM)
---------------------------------
  C     -3.235608    0.944855   -0.150260
  C     -2.414453    1.070507    0.958244
  C     -1.279612    0.288106    1.072014
  C     -0.953152   -0.626593    0.078186
  C     -1.776881   -0.743232   -1.032309
  C     -2.915629    0.036358   -1.144397
  C      0.306373   -1.451955    0.198978
  N      1.476127   -0.609870    0.103715
  C      2.246412   -0.154198    1.133024
  C      3.184448    0.663156    0.571906
  N      3.001317    0.724797   -0.775635
  C      1.969774   -0.043195   -1.017397
  H     -4.121772    1.554575   -0.238626
  H     -2.658979    1.778512    1.735508
  H     -0.639389    0.390645    1.936057
  H     -1.530039   -1.448790   -1.812023
  H     -3.551322   -0.063792   -2.010960
  H      0.335012   -1.960727    1.165470
  H      0.344085   -2.197867   -0.598697
  H      2.080205   -0.449275    2.148049
  H      3.977566    1.207667    1.043462
  H      1.557154   -0.215125   -1.990954

 Total Charge           Charge          ....    0
 Multiplicity           Mult            ....    1
 Number of Electrons    NEL             ....   84
 Basis Dimension        Dim             ....  288

ORBITAL ENERGIES
----------------

  NO   OCC          E(Eh)            E(eV)
   0   2.0000     -14.222121      -387.0036
   1   2.0000     -14.131347      -384.5335
   2   2.0000     -10.096643      -274.7436
   3   2.0000     -10.071915      -274.0707
   4   2.0000     -10.058046      -273.6933
   5   2.0000     -10.053105      -273.5589
   6   2.0000     -10.047935      -273.4182
   7   2.0000     -10.046539      -273.3802
   8   2.0000     -10.046383      -273.3760
   9   2.0000     -10.046062      -273.3672
  10   2.0000     -10.044922      -273.3362
  11   2.0000     -10.035877      -273.0901
  12   2.0000      -0.992417       -27.0050
  13   2.0000      -0.864626       -23.5277
  14   2.0000      -0.836158       -22.7530
  15   2.0000      -0.753725       -20.5099
  16   2.0000      -0.729306       -19.8454
  17   2.0000      -0.711432       -19.3591
  18   2.0000      -0.676549       -18.4098
  19   2.0000      -0.592164       -16.1136
  20   2.0000      -0.578844       -15.7511
  21   2.0000      -0.565652       -15.3922
  22   2.0000      -0.543353       -14.7854
  23   2.0000      -0.512853       -13.9555
  24   2.0000      -0.493979       -13.4418
  25   2.0000      -0.452452       -12.3119
  26   2.0000      -0.444208       -12.0875
  27   2.0000      -0.422232       -11.4895
  28   2.0000      -0.414989       -11.2924
  29   2.0000      -0.403412       -10.9774
  30   2.0000      -0.401103       -10.9146
  31   2.0000      -0.380764       -10.3611
  32   2.0000      -0.375958       -10.2303
  33   2.0000      -0.367268        -9.9939
  34   2.0000      -0.353625        -9.6226
  35   2.0000      -0.328433        -8.9371
  36   2.0000      -0.322564        -8.7774
  37   2.0000      -0.255497        -6.9524
  38   2.0000      -0.250294        -6.8108
  39   2.0000      -0.241698        -6.5769
  40   2.0000      -0.231235        -6.2922
  41   2.0000      -0.206029        -5.6063
  42   0.0000      -0.048572        -1.3217
  43   0.0000      -0.043786        -1.1915
  44   0.0000      -0.000745        -0.0203
  45   0.0000       0.035726         0.9722
  46   0.0000       0.064002         1.7416

MULLIKEN ATOMIC CHARGES
-----------------------
   0 C :   -0.133910
   1 C :   -0.170208
   2 C :   -0.172721
   3 C :    0.225227
   4 C :   -0.208093
   5 C :   -0.153311
   6 C :   -0.439458
   7 N :    0.251973
   8 C :   -0.203855
   9 C :   -0.128180
  10 N :   -0.191900
  11 C :   -0.150160
  12 H :    0.148393
  13 H :    0.147351
  14 H :    0.147790
  15 H :    0.145136
  16 H :    0.147301
  17 H :    0.175480
  18 H :    0.167245
  19 H :    0.131654
  20 H :    0.132661
  21 H :    0.131585
Sum of atomic charges:    0.0000000

LOEWDIN ATOMIC CHARGES
----------------------
   0 C :   -0.160321
   1 C :   -0.153155
   2 C :   -0.141868
   3 C :   -0.066292
   4 C :   -0.158456
   5 C :   -0.156151
   6 C :    0.017664
   7 N :   -0.769087
   8 C :    0.058750
   9 C :    0.051898
  10 N :   -0.562779
  11 C :    0.226338
  12 H :    0.168677
  13 H :    0.169185
  14 H :    0.173868
  15 H :    0.169556
  16 H :    0.168861
  17 H :    0.200220
  18 H :    0.194747
  19 H :    0.186005
  20 H :    0.181493
  21 H :    0.200847

  Mayer bond orders larger than 0.100000
B(  0-C ,  1-C ) :   1.4116 B(  0-C ,  5-C ) :   1.4364 B(  0-C , 12-H ) :   0.9476
B(  1-C ,  2-C ) :   1.4515 B(  1-C , 13-H ) :   0.9499 B(  2-C ,  3-C ) :   1.3978
B(  2-C , 14-H ) :   0.9374 B(  3-C ,  4-C ) :   1.4047 B(  3-C ,  6-C ) :   0.8405
B(  4-C ,  5-C ) :   1.4263 B(  4-C , 15-H ) :   0.9412 B(  5-C , 16-H ) :   0.9462
B(  6-C ,  7-N ) :   0.9026 B(  6-C , 17-H ) :   0.9706 B(  6-C , 18-H ) :   0.9862
B(  7-N ,  8-C ) :   1.2119 B(  7-N , 11-C ) :   1.2518 B(  8-C ,  9-C ) :   1.4736
B(  8-C , 11-C ) :   0.1019 B(  8-C , 19-H ) :   0.9497 B(  9-C , 10-N ) :   1.3127
B(  9-C , 20-H ) :   0.9755 B( 10-N , 11-C ) :   1.6090 B( 11-C , 21-H ) :   0.9555

Dispersion correction           -0.008579682
FINAL SINGLE POINT ENERGY      -496.440243423147

DIPOLE MOMENT
-------------

Method             : SCF
Type of density    : Electron Density
Multiplicity       :   1
Irrep              :   0
Energy             :  -496.4445515960849207 Eh
Relativity type    :
Basis              : AO
                                X                 Y                 Z
Electronic contribution:      2.666601375       0.530209615      -0.743816963
Nuclear contribution   :     -3.922756533      -1.316725194       1.288441541
                        -----------------------------------------
Total Dipole Moment    :     -1.256155158      -0.786515578       0.544624578
                        -----------------------------------------
Magnitude (a.u.)       :      1.578970699
Magnitude (Debye)      :      4.013424564

Rotational constants in cm-1:             0.077796             0.018654             0.017756
Rotational constants in MHz :          2332.258804           559.240939           532.310283

                             ****ORCA TERMINATED NORMALLY****
TOTAL RUN TIME: 0 days 0 hours 0 minutes 43 seconds 406 msec
