                         Program Version 6.0.0  -   RELEASE  -
|  1> ! r2scan-3c def2/J RI DEFGRID2 scfconv6 printgap
|  2> %output
|  3>     printlevel normal
|  4> end
|  5> %cpcm
|  6>     smd true
|  7>     smdsolvent "water"
|  8> end
|  9> * xyz 0 1
| 10> C -3.2356083075 0.9448548734 -0.1502596454
| 11> C -2.4144525094 1.0705065607 0.9582442687
| 12> C -1.2796119202 0.28810584 1.0720139072
| 13> C -0.9531523657 -0.6265934831 0.0781861453
| 14> C -1.7768808131 -0.7432323539 -1.032309272
| 15> C -2.9156293251 0.0363577794 -1.1443970594
| 16> C 0.3063734853 -1.4519552539 0.1989780129
| 17> N 1.4761268144 -0.6098696888 0.1037145229
| 18> C 2.2464120086 -0.1541977017 1.1330240635
| 19> C 3.1844475169 0.6631559064 0.5719062071
| 20> N 3.0013167788 0.7247972986 -0.7756352199
| 21> C 1.9697739333 -0.043194662 -1.0173969114
| 22> H -4.1217718628 1.5545751917 -0.2386256429
| 23> H -2.65897911 1.7785122402 1.7355080244
| 24> H -0.6393889085 0.3906450651 1.9360570485
| 25> H -1.5300392723 -1.4487898713 -1.8120230382
| 26> H -3.55132215 -0.0637917041 -2.0109598589
| 27> H 0.3350124635 -1.9607265863 1.1654695671
| 28> H 0.344084793 -2.1978669939 -0.5986967101
| 29> H 2.0802047039 -0.4492752445 2.1480487155
| 30> H 3.9775663704 1.2076674227 1.0434620365
| 31> H 1.5571540535 -0.2151250318 -1.9909535649
| 32> *
| 33>
| 34>                          ****END OF INPUT****

CARTESIAN COORDINATES (ANGSTROEM)
---------------------------------
  C     -3.235608    0.944855   -0.150260
  C     -2.414453    1.070507    0.958244
  C     -1.279612    0.288106    1.072014
  C     -0.953152   -0.626593    0.078186
  C     -1.776881   -0.743232   -1.032309
  C     -2.915629    0.036358   -1.144397
  C      0.306373   -1.451955    0.198978
  N      1.476127   -0.609870    0.103715
  C      2.246412   -0.154198    1.133024
  C      3.184448    0.663156    0.571906
  N      3.001317    0.724797   -0.775635
  C      1.969774   -0.043195   -1.017397
  H     -4.121772    1.554575   -0.238626
  H     -2.658979    1.778512    1.735508
  H     -0.639389    0.390645    1.936057
  H     -1.530039   -1.448790   -1.812023
  H     -3.551322   -0.063792   -2.010960
  H      0.335012   -1.960727    1.165470
  H      0.344085   -2.197867   -0.598697
  H      2.080205   -0.449275    2.148049
  H      3.977566    1.207667    1.043462
  H      1.557154   -0.215125   -1.990954

 Total Charge           Charge          ....    0
 Multiplicity           Mult            ....    1
 Number of Electrons    NEL             ....   84
 Basis Dimension        Dim             ....  288

ORBITAL ENERGIES
----------------

  NO   OCC          E(Eh)            E(eV)
   0   2.0000     -14.220408      -386.9570
   1   2.0000     -14.142643      -384.8409
   2   2.0000     -10.077118      -274.2123
   3   2.0000     -10.074568      -274.1429
   4   2.0000     -10.052237      -273.5353
   5   2.0000     -10.047237      -273.3992
   6   2.0000     -10.039344      -273.1844
   7   2.0000     -10.035229      -273.0725
   8   2.0000     -10.035190      -273.0714
   9   2.0000     -10.034667      -273.0572
  10   2.0000     -10.034539      -273.0537
  11   2.0000     -10.033749      -273.0322
  12   2.0000      -0.993905       -27.0455
  13   2.0000      -0.864694       -23.5295
  14   2.0000      -0.828766       -22.5519
  15   2.0000      -0.744668       -20.2635
  16   2.0000      -0.718395       -19.5485
  17   2.0000      -0.710912       -19.3449
  18   2.0000      -0.667438       -18.1619
  19   2.0000      -0.580489       -15.7959
  20   2.0000      -0.568712       -15.4754
  21   2.0000      -0.565215       -15.3803
  22   2.0000      -0.539796       -14.6886
  23   2.0000      -0.504394       -13.7252
  24   2.0000      -0.480991       -13.0884
  25   2.0000      -0.440766       -11.9938
  26   2.0000      -0.431549       -11.7430
  27   2.0000      -0.414179       -11.2704
  28   2.0000      -0.408297       -11.1103
  29   2.0000      -0.397489       -10.8162
  30   2.0000      -0.389115       -10.5884
  31   2.0000      -0.374874       -10.2008
  32   2.0000      -0.373286       -10.1576
  33   2.0000      -0.357918        -9.7395
  34   2.0000      -0.346083        -9.4174
  35   2.0000      -0.316752        -8.6193
  36   2.0000      -0.308107        -8.3840
  37   2.0000      -0.257599        -7.0096
  38   2.0000      -0.250719        -6.8224
  39   2.0000      -0.242319        -6.5938
  40   2.0000      -0.235771        -6.4157
  41   2.0000      -0.210604        -5.7308
  42   0.0000      -0.040012        -1.0888
  43   0.0000      -0.035330        -0.9614
  44   0.0000      -0.002525        -0.0687
  45   0.0000       0.029923         0.8142
  46   0.0000       0.083766         2.2794

MULLIKEN ATOMIC CHARGES
-----------------------
   0 C :   -0.167163
   1 C :   -0.213394
   2 C :   -0.204730
   3 C :    0.150121
   4 C :   -0.219818
   5 C :   -0.194208
   6 C :   -0.365970
   7 N :    0.239747
   8 C :   -0.211919
   9 C :   -0.187033
  10 N :   -0.276723
  11 C :   -0.158118
  12 H :    0.180498
  13 H :    0.178900
  14 H :    0.181443
  15 H :    0.181026
  16 H :    0.179172
  17 H :    0.202651
  18 H :    0.194299
  19 H :    0.176722
  20 H :    0.161888
  21 H :    0.172610
Sum of atomic charges:    0.0000000

LOEWDIN ATOMIC CHARGES
----------------------
   0 C :   -0.174063
   1 C :   -0.167527
   2 C :   -0.152849
   3 C :   -0.070685
   4 C :   -0.160874
   5 C :   -0.168924
   6 C :    0.026848
   7 N :   -0.750669
   8 C :    0.071104
   9 C :    0.023978
  10 N :   -0.634062
  11 C :    0.222799
  12 H :    0.178065
  13 H :    0.178734
  14 H :    0.184678
  15 H :    0.182771
  16 H :    0.178711
  17 H :    0.214200
  18 H :    0.208446
  19 H :    0.204584
  20 H :    0.189650
  21 H :    0.215084

  Mayer bond orders larger than 0.100000
B(  0-C ,  1-C ) :   1.3763 B(  0-C ,  5-C ) :   1.3955 B(  0-C , 12-H ) :   0.9532
B(  1-C ,  2-C ) :   1.4092 B(  1-C , 13-H ) :   0.9599 B(  2-C ,  3-C ) :   1.3800
B(  2-C , 14-H ) :   0.9450 B(  3-C ,  4-C ) :   1.3954 B(  3-C ,  6-C ) :   0.8463
B(  4-C ,  5-C ) :   1.3864 B(  4-C , 15-H ) :   0.9482 B(  5-C , 16-H ) :   0.9559
B(  6-C ,  7-N ) :   0.9216 B(  6-C , 17-H ) :   0.9508 B(  6-C , 18-H ) :   0.9697
B(  7-N ,  8-C ) :   1.2040 B(  7-N , 11-C ) :   1.2667 B(  8-C ,  9-C ) :   1.4694
B(  8-C , 19-H ) :   0.9579 B(  9-C , 10-N ) :   1.2967 B(  9-C , 20-H ) :   0.9727
B( 10-N , 11-C ) :   1.6028 B( 11-C , 21-H ) :   0.9487

Dispersion correction           -0.008579682
FINAL SINGLE POINT ENERGY      -496.455746447591

DIPOLE MOMENT
-------------

Method             : SCF
Type of density    : Electron Density
Multiplicity       :   1
Irrep              :   0
Energy             :  -496.4600546205287515 Eh
Relativity type    :
Basis              : AO
                                X                 Y                 Z
Electronic contribution:      2.311192317       0.028262746      -0.502200337
Nuclear contribution   :     -3.922756533      -1.316725194       1.288441541
                        -----------------------------------------
Total Dipole Moment    :     -1.611564216      -1.288462447       0.786241204
                        -----------------------------------------
Magnitude (a.u.)       :      2.208042104
Magnitude (Debye)      :      5.612397003

Rotational constants in cm-1:             0.077796             0.018654             0.017756
Rotational constants in MHz :          2332.258804           559.240939           532.310283

                             ****ORCA TERMINATED NORMALLY****
TOTAL RUN TIME: 0 days 0 hours 1 minutes 2 seconds 419 msec
