                         Program Version 6.0.0  -   RELEASE  -
|  1> ! r2scan-3c def2/J RI DEFGRID2 scfconv6 printgap
|  2> %output
|  3>     printlevel normal
|  4> end
|  5> * xyz 0 1
|  6> C -0.2256458691 -2.8457033098 -0.1630704652
|  7> C 0.5331192262 -1.5635756132 -0.0428261574
|  8> C 1.9019048649 -1.4610336836 -0.3396514325
|  9> N 2.5632439724 -0.3243460217 -0.2254989387
| 10> C 1.8975830204 0.7666765364 0.1863616443
| 11> N 0.5810414455 0.7759070789 0.4731138763
| 12> C -0.0556434646 -0.3690429287 0.3481384344
| 13> O -1.4074088671 -0.3269221957 0.6853310218
| 14> C -2.2624656261 -0.0094007551 -0.3294526641
| 15> O -1.8867143237 0.0973684658 -1.4879940855
| 16> N -3.5210456472 0.1422830855 0.0842561371
| 17> C -4.5687211904 0.4203152629 -0.8753864674
| 18> C -3.9435182774 0.0163033775 1.4624524514
| 19> N 2.5797533759 1.9077164182 0.3227940108
| 20> C 1.9485300846 3.1348079608 0.7414742158
| 21> C 3.989872056 1.9910020614 0.027724907
| 22> C 2.6791916759 -2.6473420326 -0.8049713824
| 23> H -0.3181947905 -3.1308708659 -1.2109975617
| 24> H 0.2898645402 -3.644515349 0.3660268059
| 25> H -1.2235679641 -2.7322371989 0.2533855873
| 26> H -4.1263686504 0.467235473 -1.8674754577
| 27> H -5.0408016097 1.3741935144 -0.6401924982
| 28> H -5.3164369758 -0.3723888529 -0.8432236294
| 29> H -4.5312206531 0.8928495316 1.73419108
| 30> H -3.0746703571 -0.0528125299 2.1092641398
| 31> H -4.5582891257 -0.8773063953 1.5816057936
| 32> H 2.0643471916 3.8938806512 -0.034228126
| 33> H 2.4131196057 3.4935235916 1.6615532883
| 34> H 0.8933538492 2.9476975521 0.9127572023
| 35> H 4.5287442575 2.3375580959 0.9107474257
| 36> H 4.1566340612 2.6955031006 -0.7889564535
| 37> H 4.3465855441 1.007244349 -0.2593130994
| 38> H 3.6981827281 -2.3478367361 -1.0255720922
| 39> H 2.6845051832 -3.4135588234 -0.0325971107
| 40> H 2.217314859 -3.0677076272 -1.6953211225
| 41> *
| 42>
| 43>                          ****END OF INPUT****

CARTESIAN COORDINATES (ANGSTROEM)
---------------------------------
  C     -0.225646   -2.845703   -0.163070
  C      0.533119   -1.563576   -0.042826
  C      1.901905   -1.461034   -0.339651
  N      2.563244   -0.324346   -0.225499
  C      1.897583    0.766677    0.186362
  N      0.581041    0.775907    0.473114
  C     -0.055643   -0.369043    0.348138
  O     -1.407409   -0.326922    0.685331
  C     -2.262466   -0.009401   -0.329453
  O     -1.886714    0.097368   -1.487994
  N     -3.521046    0.142283    0.084256
  C     -4.568721    0.420315   -0.875386
  C     -3.943518    0.016303    1.462452
  N      2.579753    1.907716    0.322794
  C      1.948530    3.134808    0.741474
  C      3.989872    1.991002    0.027725
  C      2.679192   -2.647342   -0.804971
  H     -0.318195   -3.130871   -1.210998
  H      0.289865   -3.644515    0.366027
  H     -1.223568   -2.732237    0.253386
  H     -4.126369    0.467235   -1.867475
  H     -5.040802    1.374194   -0.640192
  H     -5.316437   -0.372389   -0.843224
  H     -4.531221    0.892850    1.734191
  H     -3.074670   -0.052813    2.109264
  H     -4.558289   -0.877306    1.581606
  H      2.064347    3.893881   -0.034228
  H      2.413120    3.493524    1.661553
  H      0.893354    2.947698    0.912757
  H      4.528744    2.337558    0.910747
  H      4.156634    2.695503   -0.788956
  H      4.346586    1.007244   -0.259313
  H      3.698183   -2.347837   -1.025572
  H      2.684505   -3.413559   -0.032597
  H      2.217315   -3.067708   -1.695321

 Total Charge           Charge          ....    0
 Multiplicity           Mult            ....    1
 Number of Electrons    NEL             ....  128
 Basis Dimension        Dim             ....  443

ORBITAL ENERGIES
----------------

  NO   OCC          E(Eh)            E(eV)
   0   2.0000     -18.993484      -516.8390
   1   2.0000     -18.905626      -514.4482
   2   2.0000     -14.196985      -386.3196
   3   2.0000     -14.184244      -385.9729
   4   2.0000     -14.139732      -384.7617
   5   2.0000     -14.135221      -384.6389
   6   2.0000     -10.166868      -276.6545
   7   2.0000     -10.122701      -275.4527
   8   2.0000     -10.119326      -275.3609
   9   2.0000     -10.075375      -274.1649
  10   2.0000     -10.066645      -273.9273
  11   2.0000     -10.062452      -273.8133
  12   2.0000     -10.051427      -273.5132
  13   2.0000     -10.051200      -273.5071
  14   2.0000     -10.030771      -272.9512
  15   2.0000     -10.024807      -272.7889
  16   2.0000     -10.024027      -272.7676
  17   2.0000      -1.075037       -29.2532
  18   2.0000      -0.977694       -26.6044
  19   2.0000      -0.961629       -26.1673
  20   2.0000      -0.914339       -24.8804
  21   2.0000      -0.893879       -24.3237
  22   2.0000      -0.844903       -22.9910
  23   2.0000      -0.769605       -20.9420
  24   2.0000      -0.706415       -19.2225
  25   2.0000      -0.698972       -19.0200
  26   2.0000      -0.691707       -18.8223
  27   2.0000      -0.682182       -18.5631
  28   2.0000      -0.673275       -18.3207
  29   2.0000      -0.624970       -17.0063
  30   2.0000      -0.600001       -16.3269
  31   2.0000      -0.553536       -15.0625
  32   2.0000      -0.530398       -14.4329
  33   2.0000      -0.505316       -13.7503
  34   2.0000      -0.500831       -13.6283
  35   2.0000      -0.474707       -12.9174
  36   2.0000      -0.455671       -12.3994
  37   2.0000      -0.452602       -12.3159
  38   2.0000      -0.443810       -12.0767
  39   2.0000      -0.421055       -11.4575
  40   2.0000      -0.415377       -11.3030
  41   2.0000      -0.410565       -11.1720
  42   2.0000      -0.393927       -10.7193
  43   2.0000      -0.385622       -10.4933
  44   2.0000      -0.384129       -10.4527
  45   2.0000      -0.378195       -10.2912
  46   2.0000      -0.373461       -10.1624
  47   2.0000      -0.372882       -10.1466
  48   2.0000      -0.371009       -10.0957
  49   2.0000      -0.365987        -9.9590
  50   2.0000      -0.361539        -9.8380
  51   2.0000      -0.358523        -9.7559
  52   2.0000      -0.352515        -9.5924
  53   2.0000      -0.351079        -9.5534
  54   2.0000      -0.344420        -9.3721
  55   2.0000      -0.338822        -9.2198
  56   2.0000      -0.275317        -7.4917
  57   2.0000      -0.270162        -7.3515
  58   2.0000      -0.266407        -7.2493
  59   2.0000      -0.259848        -7.0708
  60   2.0000      -0.231921        -6.3109
  61   2.0000      -0.217741        -5.9250
  62   2.0000      -0.205944        -5.6040
  63   2.0000      -0.177838        -4.8392
  64   0.0000      -0.040973        -1.1149
  65   0.0000      -0.007848        -0.2135
  66   0.0000       0.031331         0.8526
  67   0.0000       0.061110         1.6629
  68   0.0000       0.079104         2.1525

MULLIKEN ATOMIC CHARGES
-----------------------
   0 C :   -0.608260
   1 C :   -0.002999
   2 C :    0.249571
   3 N :   -0.242176
   4 C :    0.064584
   5 N :   -0.246088
   6 C :    0.173577
   7 O :   -0.142898
   8 C :    0.262158
   9 O :   -0.484148
  10 N :    0.072795
  11 C :   -0.386302
  12 C :   -0.382127
  13 N :    0.159969
  14 C :   -0.383060
  15 C :   -0.381053
  16 C :   -0.634242
  17 H :    0.177823
  18 H :    0.147823
  19 H :    0.168595
  20 H :    0.201879
  21 H :    0.144286
  22 H :    0.140395
  23 H :    0.141523
  24 H :    0.185784
  25 H :    0.148376
  26 H :    0.139966
  27 H :    0.139689
  28 H :    0.198301
  29 H :    0.138343
  30 H :    0.141525
  31 H :    0.198010
  32 H :    0.176488
  33 H :    0.162633
  34 H :    0.159259
Sum of atomic charges:   -0.0000000

LOEWDIN ATOMIC CHARGES
----------------------
   0 C :   -0.372566
   1 C :   -0.066478
   2 C :    0.178891
   3 N :   -0.566946
   4 C :    0.436217
   5 N :   -0.476711
   6 C :    0.396202
   7 O :   -0.472773
   8 C :    0.476099
   9 O :   -0.418693
  10 N :   -0.786332
  11 C :   -0.097842
  12 C :   -0.097381
  13 N :   -0.792865
  14 C :   -0.103528
  15 C :   -0.104790
  16 C :   -0.353728
  17 H :    0.167698
  18 H :    0.160264
  19 H :    0.173434
  20 H :    0.209667
  21 H :    0.172583
  22 H :    0.171892
  23 H :    0.173921
  24 H :    0.205092
  25 H :    0.170805
  26 H :    0.171537
  27 H :    0.170348
  28 H :    0.210698
  29 H :    0.170507
  30 H :    0.170922
  31 H :    0.210467
  32 H :    0.175360
  33 H :    0.168501
  34 H :    0.169531

  Mayer bond orders larger than 0.100000
B(  0-C ,  1-C ) :   0.6865 B(  0-C , 17-H ) :   0.9859 B(  0-C , 18-H ) :   0.9747
B(  0-C , 19-H ) :   0.9966 B(  1-C ,  2-C ) :   1.3329 B(  1-C ,  6-C ) :   1.4090
B(  2-C ,  3-N ) :   1.3632 B(  2-C , 16-C ) :   0.7688 B(  3-N ,  4-C ) :   1.3436
B(  4-C ,  5-N ) :   1.3541 B(  4-C ,  6-C ) :   0.1011 B(  4-C , 13-N ) :   1.3286
B(  5-N ,  6-C ) :   1.5221 B(  6-C ,  7-O ) :   1.0477 B(  7-O ,  8-C ) :   1.0124
B(  8-C ,  9-O ) :   1.7919 B(  8-C , 10-N ) :   1.3269 B( 10-N , 11-C ) :   0.9188
B( 10-N , 12-C ) :   0.9031 B( 11-C , 20-H ) :   0.9549 B( 11-C , 21-H ) :   0.9579
B( 11-C , 22-H ) :   0.9533 B( 12-C , 23-H ) :   0.9570 B( 12-C , 24-H ) :   0.9583
B( 12-C , 25-H ) :   0.9574 B( 13-N , 14-C ) :   0.9118 B( 13-N , 15-C ) :   0.9127
B( 14-C , 26-H ) :   0.9549 B( 14-C , 27-H ) :   0.9581 B( 14-C , 28-H ) :   0.9550
B( 15-C , 29-H ) :   0.9574 B( 15-C , 30-H ) :   0.9566 B( 15-C , 31-H ) :   0.9540
B( 16-C , 32-H ) :   1.0123 B( 16-C , 33-H ) :   0.9777 B( 16-C , 34-H ) :   0.9641

Dispersion correction           -0.013540303
FINAL SINGLE POINT ENERGY      -799.295308151468

DIPOLE MOMENT
-------------

Method             : SCF
Type of density    : Electron Density
Multiplicity       :   1
Irrep              :   0
Energy             :  -799.3194049641733727 Eh
Relativity type    :
Basis              : AO
                                X                 Y                 Z
Electronic contribution:      0.415677342       0.453020798      -0.318568893
Nuclear contribution   :     -0.878169757      -0.486485753       1.053380618
                        -----------------------------------------
Total Dipole Moment    :     -0.462492414      -0.033464955       0.734811725
                        -----------------------------------------
Magnitude (a.u.)       :      0.868888604
Magnitude (Debye)      :      2.208539317

Rotational constants in cm-1:             0.024043             0.009863             0.007707
Rotational constants in MHz :           720.776545           295.695815           231.038339

                             ****ORCA TERMINATED NORMALLY****
TOTAL RUN TIME: 0 days 0 hours 1 minutes 25 seconds 606 msec
