                         Program Version 6.0.0  -   RELEASE  -
|  1> ! r2scan-3c def2/J RI DEFGRID2 scfconv6 printgap
|  2> %output
|  3>     printlevel normal
|  4> end
|  5> %cpcm
|  6>     smd true
|  7>     smdsolvent "water"
|  8> end
|  9> * xyz 0 1
| 10> C -0.2256458691 -2.8457033098 -0.1630704652
| 11> C 0.5331192262 -1.5635756132 -0.0428261574
| 12> C 1.9019048649 -1.4610336836 -0.3396514325
| 13> N 2.5632439724 -0.3243460217 -0.2254989387
| 14> C 1.8975830204 0.7666765364 0.1863616443
| 15> N 0.5810414455 0.7759070789 0.4731138763
| 16> C -0.0556434646 -0.3690429287 0.3481384344
| 17> O -1.4074088671 -0.3269221957 0.6853310218
| 18> C -2.2624656261 -0.0094007551 -0.3294526641
| 19> O -1.8867143237 0.0973684658 -1.4879940855
| 20> N -3.5210456472 0.1422830855 0.0842561371
| 21> C -4.5687211904 0.4203152629 -0.8753864674
| 22> C -3.9435182774 0.0163033775 1.4624524514
| 23> N 2.5797533759 1.9077164182 0.3227940108
| 24> C 1.9485300846 3.1348079608 0.7414742158
| 25> C 3.989872056 1.9910020614 0.027724907
| 26> C 2.6791916759 -2.6473420326 -0.8049713824
| 27> H -0.3181947905 -3.1308708659 -1.2109975617
| 28> H 0.2898645402 -3.644515349 0.3660268059
| 29> H -1.2235679641 -2.7322371989 0.2533855873
| 30> H -4.1263686504 0.467235473 -1.8674754577
| 31> H -5.0408016097 1.3741935144 -0.6401924982
| 32> H -5.3164369758 -0.3723888529 -0.8432236294
| 33> H -4.5312206531 0.8928495316 1.73419108
| 34> H -3.0746703571 -0.0528125299 2.1092641398
| 35> H -4.5582891257 -0.8773063953 1.5816057936
| 36> H 2.0643471916 3.8938806512 -0.034228126
| 37> H 2.4131196057 3.4935235916 1.6615532883
| 38> H 0.8933538492 2.9476975521 0.9127572023
| 39> H 4.5287442575 2.3375580959 0.9107474257
| 40> H 4.1566340612 2.6955031006 -0.7889564535
| 41> H 4.3465855441 1.007244349 -0.2593130994
| 42> H 3.6981827281 -2.3478367361 -1.0255720922
| 43> H 2.6845051832 -3.4135588234 -0.0325971107
| 44> H 2.217314859 -3.0677076272 -1.6953211225
| 45> *
| 46>
| 47>                          ****END OF INPUT****

CARTESIAN COORDINATES (ANGSTROEM)
---------------------------------
  C     -0.225646   -2.845703   -0.163070
  C      0.533119   -1.563576   -0.042826
  C      1.901905   -1.461034   -0.339651
  N      2.563244   -0.324346   -0.225499
  C      1.897583    0.766677    0.186362
  N      0.581041    0.775907    0.473114
  C     -0.055643   -0.369043    0.348138
  O     -1.407409   -0.326922    0.685331
  C     -2.262466   -0.009401   -0.329453
  O     -1.886714    0.097368   -1.487994
  N     -3.521046    0.142283    0.084256
  C     -4.568721    0.420315   -0.875386
  C     -3.943518    0.016303    1.462452
  N      2.579753    1.907716    0.322794
  C      1.948530    3.134808    0.741474
  C      3.989872    1.991002    0.027725
  C      2.679192   -2.647342   -0.804971
  H     -0.318195   -3.130871   -1.210998
  H      0.289865   -3.644515    0.366027
  H     -1.223568   -2.732237    0.253386
  H     -4.126369    0.467235   -1.867475
  H     -5.040802    1.374194   -0.640192
  H     -5.316437   -0.372389   -0.843224
  H     -4.531221    0.892850    1.734191
  H     -3.074670   -0.052813    2.109264
  H     -4.558289   -0.877306    1.581606
  H      2.064347    3.893881   -0.034228
  H      2.413120    3.493524    1.661553
  H      0.893354    2.947698    0.912757
  H      4.528744    2.337558    0.910747
  H      4.156634    2.695503   -0.788956
  H      4.346586    1.007244   -0.259313
  H      3.698183   -2.347837   -1.025572
  H      2.684505   -3.413559   -0.032597
  H      2.217315   -3.067708   -1.695321

 Total Charge           Charge          ....    0
 Multiplicity           Mult            ....    1
 Number of Electrons    NEL             ....  128
 Basis Dimension        Dim             ....  443

ORBITAL ENERGIES
----------------

  NO   OCC          E(Eh)            E(eV)
   0   2.0000     -19.007817      -517.2290
   1   2.0000     -18.930903      -515.1360
   2   2.0000     -14.201762      -386.4496
   3   2.0000     -14.188806      -386.0970
   4   2.0000     -14.152693      -385.1144
   5   2.0000     -14.145783      -384.9263
   6   2.0000     -10.184379      -277.1310
   7   2.0000     -10.134199      -275.7656
   8   2.0000     -10.129054      -275.6256
   9   2.0000     -10.084005      -274.3997
  10   2.0000     -10.054624      -273.6002
  11   2.0000     -10.053937      -273.5815
  12   2.0000     -10.047320      -273.4015
  13   2.0000     -10.046512      -273.3795
  14   2.0000     -10.038532      -273.1624
  15   2.0000     -10.022335      -272.7216
  16   2.0000     -10.020515      -272.6721
  17   2.0000      -1.091236       -29.6940
  18   2.0000      -0.997062       -27.1314
  19   2.0000      -0.972764       -26.4703
  20   2.0000      -0.920087       -25.0369
  21   2.0000      -0.899917       -24.4880
  22   2.0000      -0.856910       -23.3177
  23   2.0000      -0.775395       -21.0996
  24   2.0000      -0.708537       -19.2803
  25   2.0000      -0.699586       -19.0367
  26   2.0000      -0.687126       -18.6976
  27   2.0000      -0.680801       -18.5255
  28   2.0000      -0.673505       -18.3270
  29   2.0000      -0.627087       -17.0639
  30   2.0000      -0.605839       -16.4857
  31   2.0000      -0.557802       -15.1786
  32   2.0000      -0.537248       -14.6193
  33   2.0000      -0.509025       -13.8513
  34   2.0000      -0.503990       -13.7143
  35   2.0000      -0.481406       -13.0997
  36   2.0000      -0.462471       -12.5845
  37   2.0000      -0.455003       -12.3813
  38   2.0000      -0.446340       -12.1455
  39   2.0000      -0.421041       -11.4571
  40   2.0000      -0.416365       -11.3299
  41   2.0000      -0.414992       -11.2925
  42   2.0000      -0.400221       -10.8906
  43   2.0000      -0.391476       -10.6526
  44   2.0000      -0.390939       -10.6380
  45   2.0000      -0.372389       -10.1332
  46   2.0000      -0.371001       -10.0954
  47   2.0000      -0.370382       -10.0786
  48   2.0000      -0.365569        -9.9476
  49   2.0000      -0.363658        -9.8956
  50   2.0000      -0.359968        -9.7952
  51   2.0000      -0.358742        -9.7619
  52   2.0000      -0.352176        -9.5832
  53   2.0000      -0.350410        -9.5351
  54   2.0000      -0.344512        -9.3747
  55   2.0000      -0.340453        -9.2642
  56   2.0000      -0.293928        -7.9982
  57   2.0000      -0.282773        -7.6946
  58   2.0000      -0.279811        -7.6140
  59   2.0000      -0.265725        -7.2307
  60   2.0000      -0.259034        -7.0487
  61   2.0000      -0.224161        -6.0997
  62   2.0000      -0.218855        -5.9553
  63   2.0000      -0.184181        -5.0118
  64   0.0000      -0.052631        -1.4322
  65   0.0000      -0.016980        -0.4621
  66   0.0000       0.015520         0.4223
  67   0.0000       0.055875         1.5204
  68   0.0000       0.075550         2.0558

MULLIKEN ATOMIC CHARGES
-----------------------
   0 C :   -0.640339
   1 C :   -0.016140
   2 C :    0.252004
   3 N :   -0.274714
   4 C :    0.064344
   5 N :   -0.275612
   6 C :    0.146271
   7 O :   -0.143211
   8 C :    0.278966
   9 O :   -0.575686
  10 N :    0.081160
  11 C :   -0.408143
  12 C :   -0.406558
  13 N :    0.160781
  14 C :   -0.413288
  15 C :   -0.410851
  16 C :   -0.656814
  17 H :    0.194583
  18 H :    0.175654
  19 H :    0.184822
  20 H :    0.190146
  21 H :    0.174624
  22 H :    0.172064
  23 H :    0.170440
  24 H :    0.189323
  25 H :    0.175690
  26 H :    0.166552
  27 H :    0.167568
  28 H :    0.191955
  29 H :    0.165796
  30 H :    0.167259
  31 H :    0.193739
  32 H :    0.182003
  33 H :    0.191965
  34 H :    0.183646
Sum of atomic charges:   -0.0000000

LOEWDIN ATOMIC CHARGES
----------------------
   0 C :   -0.375825
   1 C :   -0.070111
   2 C :    0.183237
   3 N :   -0.587218
   4 C :    0.429276
   5 N :   -0.508489
   6 C :    0.382186
   7 O :   -0.474477
   8 C :    0.474392
   9 O :   -0.492527
  10 N :   -0.771048
  11 C :   -0.093980
  12 C :   -0.091488
  13 N :   -0.790415
  14 C :   -0.103369
  15 C :   -0.104212
  16 C :   -0.355454
  17 H :    0.173337
  18 H :    0.171485
  19 H :    0.177490
  20 H :    0.203914
  21 H :    0.185485
  22 H :    0.185582
  23 H :    0.186699
  24 H :    0.205710
  25 H :    0.183812
  26 H :    0.181843
  27 H :    0.181806
  28 H :    0.206288
  29 H :    0.181691
  30 H :    0.181080
  31 H :    0.206992
  32 H :    0.176149
  33 H :    0.180806
  34 H :    0.179354

  Mayer bond orders larger than 0.100000
B(  0-C ,  1-C ) :   0.7012 B(  0-C , 17-H ) :   0.9752 B(  0-C , 18-H ) :   0.9656
B(  0-C , 19-H ) :   0.9929 B(  1-C ,  2-C ) :   1.3130 B(  1-C ,  6-C ) :   1.4225
B(  2-C ,  3-N ) :   1.3668 B(  2-C , 16-C ) :   0.7900 B(  3-N ,  4-C ) :   1.3427
B(  4-C ,  5-N ) :   1.3476 B(  4-C , 13-N ) :   1.3525 B(  5-N ,  6-C ) :   1.5126
B(  6-C ,  7-O ) :   1.0292 B(  7-O ,  8-C ) :   1.0191 B(  8-C ,  9-O ) :   1.7176
B(  8-C , 10-N ) :   1.3838 B( 10-N , 11-C ) :   0.9081 B( 10-N , 12-C ) :   0.8941
B( 11-C , 20-H ) :   0.9561 B( 11-C , 21-H ) :   0.9483 B( 11-C , 22-H ) :   0.9450
B( 12-C , 23-H ) :   0.9485 B( 12-C , 24-H ) :   0.9540 B( 12-C , 25-H ) :   0.9475
B( 13-N , 14-C ) :   0.8986 B( 13-N , 15-C ) :   0.9002 B( 14-C , 26-H ) :   0.9483
B( 14-C , 27-H ) :   0.9501 B( 14-C , 28-H ) :   0.9571 B( 15-C , 29-H ) :   0.9498
B( 15-C , 30-H ) :   0.9494 B( 15-C , 31-H ) :   0.9553 B( 16-C , 32-H ) :   1.0074
B( 16-C , 33-H ) :   0.9616 B( 16-C , 34-H ) :   0.9527

Dispersion correction           -0.013540303
FINAL SINGLE POINT ENERGY      -799.309776242754

DIPOLE MOMENT
-------------

Method             : SCF
Type of density    : Electron Density
Multiplicity       :   1
Irrep              :   0
Energy             :  -799.3338730554598897 Eh
Relativity type    :
Basis              : AO
                                X                 Y                 Z
Electronic contribution:      0.197291333       0.329768734       0.121797896
Nuclear contribution   :     -0.878169757      -0.486485753       1.053380618
                        -----------------------------------------
Total Dipole Moment    :     -0.680878423      -0.156717018       1.175178514
                        -----------------------------------------
Magnitude (a.u.)       :      1.367186963
Magnitude (Debye)      :      3.475113087

Rotational constants in cm-1:             0.024043             0.009863             0.007707
Rotational constants in MHz :           720.776545           295.695815           231.038339

                             ****ORCA TERMINATED NORMALLY****
TOTAL RUN TIME: 0 days 0 hours 2 minutes 3 seconds 496 msec
