                         Program Version 6.0.0  -   RELEASE  -
|  1> ! pbe def2-sv(p) def2/J RI DEFGRID1 loosescf d4 GCP(DFT/SV(P)) printgap
|  2> %output
|  3>     printlevel normal
|  4> end
|  5> * xyz 0 1
|  6> C -1.219205889 0.168485991 -0.3734434462
|  7> C 0.1163624064 0.6140516029 0.245897468
|  8> C 1.3138920838 -0.1829734565 -0.2925233978
|  9> O 1.1894378684 -1.5339149942 0.0791324165
| 10> O 0.3293866031 1.9957416826 0.0730986983
| 11> O -1.7095834989 -0.9399738214 0.3425720052
| 12> H -1.0735777329 -0.0827299197 -1.432490568
| 13> H -1.9189557787 1.0136590868 -0.2957659897
| 14> H 0.0457415178 0.4488907224 1.3259892104
| 15> H 2.2254377544 0.2603498453 0.1309720109
| 16> H 1.3472339964 -0.0845803419 -1.3883786931
| 17> H 1.9711594174 -2.0201228682 -0.2182545038
| 18> H 0.4138142543 2.1944408001 -0.8710609855
| 19> H -2.4977459754 -1.2845804707 -0.0996036507
| 20> *
| 21>
| 22>                          ****END OF INPUT****

CARTESIAN COORDINATES (ANGSTROEM)
---------------------------------
  C     -1.219206    0.168486   -0.373443
  C      0.116362    0.614052    0.245897
  C      1.313892   -0.182973   -0.292523
  O      1.189438   -1.533915    0.079132
  O      0.329387    1.995742    0.073099
  O     -1.709583   -0.939974    0.342572
  H     -1.073578   -0.082730   -1.432491
  H     -1.918956    1.013659   -0.295766
  H      0.045742    0.448891    1.325989
  H      2.225438    0.260350    0.130972
  H      1.347234   -0.084580   -1.388379
  H      1.971159   -2.020123   -0.218255
  H      0.413814    2.194441   -0.871061
  H     -2.497746   -1.284580   -0.099604

 Total Charge           Charge          ....    0
 Multiplicity           Mult            ....    1
 Number of Electrons    NEL             ....   50
 Basis Dimension        Dim             ....  100

ORBITAL ENERGIES
----------------

  NO   OCC          E(Eh)            E(eV)
   0   2.0000     -18.748599      -510.1753
   1   2.0000     -18.741975      -509.9951
   2   2.0000     -18.736944      -509.8582
   3   2.0000      -9.932714      -270.2829
   4   2.0000      -9.928797      -270.1763
   5   2.0000      -9.924996      -270.0729
   6   2.0000      -0.931445       -25.3459
   7   2.0000      -0.915540       -24.9131
   8   2.0000      -0.911153       -24.7937
   9   2.0000      -0.673122       -18.3166
  10   2.0000      -0.600906       -16.3515
  11   2.0000      -0.539235       -14.6733
  12   2.0000      -0.475680       -12.9439
  13   2.0000      -0.453460       -12.3393
  14   2.0000      -0.435948       -11.8627
  15   2.0000      -0.403603       -10.9826
  16   2.0000      -0.398060       -10.8318
  17   2.0000      -0.353808        -9.6276
  18   2.0000      -0.345566        -9.4033
  19   2.0000      -0.298764        -8.1298
  20   2.0000      -0.274513        -7.4699
  21   2.0000      -0.266218        -7.2442
  22   2.0000      -0.220152        -5.9906
  23   2.0000      -0.215130        -5.8540
  24   2.0000      -0.202524        -5.5110
  25   0.0000       0.016714         0.4548
  26   0.0000       0.027036         0.7357
  27   0.0000       0.040189         1.0936
  28   0.0000       0.084819         2.3080
  29   0.0000       0.096658         2.6302

MULLIKEN ATOMIC CHARGES
-----------------------
   0 C :    0.017673
   1 C :    0.019750
   2 C :    0.000112
   3 O :   -0.420085
   4 O :   -0.423454
   5 O :   -0.422578
   6 H :    0.050769
   7 H :    0.072404
   8 H :    0.092554
   9 H :    0.080417
  10 H :    0.045030
  11 H :    0.298298
  12 H :    0.293162
  13 H :    0.295948
Sum of atomic charges:   -0.0000000

LOEWDIN ATOMIC CHARGES
----------------------
   0 C :   -0.136551
   1 C :   -0.076293
   2 C :   -0.138177
   3 O :   -0.337178
   4 O :   -0.312735
   5 O :   -0.337170
   6 H :    0.088757
   7 H :    0.093851
   8 H :    0.125396
   9 H :    0.096603
  10 H :    0.082672
  11 H :    0.285195
  12 H :    0.281374
  13 H :    0.284254

  Mayer bond orders larger than 0.100000
B(  0-C ,  1-C ) :   1.0363 B(  0-C ,  5-O ) :   1.1021 B(  0-C ,  6-H ) :   0.9083
B(  0-C ,  7-H ) :   0.9201 B(  1-C ,  2-C ) :   1.0687 B(  1-C ,  4-O ) :   1.0339
B(  1-C ,  8-H ) :   0.8898 B(  2-C ,  3-O ) :   1.1050 B(  2-C ,  9-H ) :   0.9200
B(  2-C , 10-H ) :   0.9024 B(  3-O , 11-H ) :   0.8509 B(  4-O , 12-H ) :   0.8528
B(  5-O , 13-H ) :   0.8513

Dispersion correction           -0.009105551
FINAL SINGLE POINT ENERGY      -343.997667627112

DIPOLE MOMENT
-------------

Method             : SCF
Type of density    : Electron Density
Multiplicity       :   1
Irrep              :   0
Energy             :  -344.0700067637810662 Eh
Relativity type    :
Basis              : AO
                                X                 Y                 Z
Electronic contribution:     -0.310628413      -0.544128488       1.464187277
Nuclear contribution   :      0.478550726       0.410692676      -2.665125785
                        -----------------------------------------
Total Dipole Moment    :      0.167922313      -0.133435813      -1.200938508
                        -----------------------------------------
Magnitude (a.u.)       :      1.219941113
Magnitude (Debye)      :      3.100843881

Rotational constants in cm-1:             0.118044             0.115587             0.063583
Rotational constants in MHz :          3538.872018          3465.201033          1906.182665

                             ****ORCA TERMINATED NORMALLY****
TOTAL RUN TIME: 0 days 0 hours 0 minutes 6 seconds 719 msec
