                         Program Version 6.0.0  -   RELEASE  -
|  1> ! r2scan-3c def2/J RI DEFGRID2 scfconv6 printgap
|  2> %output
|  3>     printlevel normal
|  4> end
|  5> * xyz 0 1
|  6> C 2.3243759935 -0.5006012444 0.5722082296
|  7> C 1.5234551003 -0.124622741 -0.6695872669
|  8> C 0.568910195 1.0482794535 -0.4429115514
|  9> C -0.5518889001 0.7715002318 0.5489178201
| 10> S -1.7533459573 -0.4845221263 -0.0355541281
| 11> H 2.8694264312 0.3625700599 0.9478590956
| 12> H 3.042065113 -1.2810262824 0.3317013642
| 13> H 1.679452586 -0.8709174444 1.364997439
| 14> H 0.9593392849 -0.990718687 -1.0221749606
| 15> H 2.2167947812 0.1557469554 -1.4651410592
| 16> H 0.123091313 1.3317153843 -1.399125429
| 17> H 1.135547518 1.904817488 -0.0691937536
| 18> H -0.1770093368 0.4419562342 1.5151273687
| 19> H -1.1565947718 1.6669044622 0.6921212652
| 20> H -0.9683825874 -1.5418062886 0.1320797456
| 21> *
| 22>
| 23>                          ****END OF INPUT****

CARTESIAN COORDINATES (ANGSTROEM)
---------------------------------
  C      2.324376   -0.500601    0.572208
  C      1.523455   -0.124623   -0.669587
  C      0.568910    1.048279   -0.442912
  C     -0.551889    0.771500    0.548918
  S     -1.753346   -0.484522   -0.035554
  H      2.869426    0.362570    0.947859
  H      3.042065   -1.281026    0.331701
  H      1.679453   -0.870917    1.364997
  H      0.959339   -0.990719   -1.022175
  H      2.216795    0.155747   -1.465141
  H      0.123091    1.331715   -1.399125
  H      1.135548    1.904817   -0.069194
  H     -0.177009    0.441956    1.515127
  H     -1.156595    1.666904    0.692121
  H     -0.968383   -1.541806    0.132080

 Total Charge           Charge          ....    0
 Multiplicity           Mult            ....    1
 Number of Electrons    NEL             ....   50
 Basis Dimension        Dim             ....  153

ORBITAL ENERGIES
----------------

  NO   OCC          E(Eh)            E(eV)
   0   2.0000     -88.549879     -2409.5647
   1   2.0000     -10.065449      -273.8948
   2   2.0000     -10.034025      -273.0397
   3   2.0000     -10.030405      -272.9412
   4   2.0000     -10.022628      -272.7296
   5   2.0000      -7.845025      -213.4740
   6   2.0000      -5.792103      -157.6111
   7   2.0000      -5.788551      -157.5145
   8   2.0000      -5.782096      -157.3388
   9   2.0000      -0.785025       -21.3616
  10   2.0000      -0.727355       -19.7923
  11   2.0000      -0.661684       -18.0053
  12   2.0000      -0.601430       -16.3657
  13   2.0000      -0.533656       -14.5215
  14   2.0000      -0.450614       -12.2618
  15   2.0000      -0.436880       -11.8881
  16   2.0000      -0.396902       -10.8003
  17   2.0000      -0.381104       -10.3704
  18   2.0000      -0.370594       -10.0844
  19   2.0000      -0.351913        -9.5761
  20   2.0000      -0.314141        -8.5482
  21   2.0000      -0.306177        -8.3315
  22   2.0000      -0.300218        -8.1694
  23   2.0000      -0.292770        -7.9667
  24   2.0000      -0.209886        -5.7113
  25   0.0000       0.014247         0.3877
  26   0.0000       0.044488         1.2106
  27   0.0000       0.095409         2.5962
  28   0.0000       0.115765         3.1501
  29   0.0000       0.120553         3.2804

MULLIKEN ATOMIC CHARGES
-----------------------
   0 C :   -0.476529
   1 C :   -0.279903
   2 C :   -0.177893
   3 C :   -0.281566
   4 S :   -0.265396
   5 H :    0.145913
   6 H :    0.149270
   7 H :    0.143504
   8 H :    0.145384
   9 H :    0.145613
  10 H :    0.152036
  11 H :    0.136365
  12 H :    0.168175
  13 H :    0.160326
  14 H :    0.134703
Sum of atomic charges:    0.0000000

LOEWDIN ATOMIC CHARGES
----------------------
   0 C :   -0.426619
   1 C :   -0.325189
   2 C :   -0.321527
   3 C :   -0.363052
   4 S :   -0.099371
   5 H :    0.151161
   6 H :    0.152874
   7 H :    0.146646
   8 H :    0.153099
   9 H :    0.155035
  10 H :    0.162347
  11 H :    0.156954
  12 H :    0.162250
  13 H :    0.169885
  14 H :    0.125507

  Mayer bond orders larger than 0.100000
B(  0-C ,  1-C ) :   0.9018 B(  0-C ,  5-H ) :   0.9810 B(  0-C ,  6-H ) :   0.9685
B(  0-C ,  7-H ) :   0.9797 B(  1-C ,  2-C ) :   0.8975 B(  1-C ,  8-H ) :   0.9772
B(  1-C ,  9-H ) :   0.9643 B(  2-C ,  3-C ) :   0.8662 B(  2-C , 10-H ) :   0.9642
B(  2-C , 11-H ) :   0.9634 B(  3-C ,  4-S ) :   0.9811 B(  3-C , 12-H ) :   0.9745
B(  3-C , 13-H ) :   0.9533 B(  4-S , 14-H ) :   0.9598

Dispersion correction           -0.003819981
FINAL SINGLE POINT ENERGY      -556.555631847354

DIPOLE MOMENT
-------------

Method             : SCF
Type of density    : Electron Density
Multiplicity       :   1
Irrep              :   0
Energy             :  -556.5622856335710367 Eh
Relativity type    :
Basis              : AO
                                X                 Y                 Z
Electronic contribution:     -8.510880931      -0.909430693      -0.820263332
Nuclear contribution   :      9.172296421       1.120082955       0.965685968
                        -----------------------------------------
Total Dipole Moment    :      0.661415489       0.210652262       0.145422636
                        -----------------------------------------
Magnitude (a.u.)       :      0.709219689
Magnitude (Debye)      :      1.802693188

Rotational constants in cm-1:             0.236840             0.066082             0.061328
Rotational constants in MHz :          7100.283799          1981.091135          1838.555721

                             ****ORCA TERMINATED NORMALLY****
TOTAL RUN TIME: 0 days 0 hours 0 minutes 14 seconds 337 msec
