                         Program Version 6.0.0  -   RELEASE  -
|  1> ! r2scan-3c def2/J RI DEFGRID2 scfconv6 printgap
|  2> %output
|  3>     printlevel normal
|  4> end
|  5> %cpcm
|  6>     smd true
|  7>     smdsolvent "water"
|  8> end
|  9> * xyz 0 1
| 10> C 2.3243759935 -0.5006012444 0.5722082296
| 11> C 1.5234551003 -0.124622741 -0.6695872669
| 12> C 0.568910195 1.0482794535 -0.4429115514
| 13> C -0.5518889001 0.7715002318 0.5489178201
| 14> S -1.7533459573 -0.4845221263 -0.0355541281
| 15> H 2.8694264312 0.3625700599 0.9478590956
| 16> H 3.042065113 -1.2810262824 0.3317013642
| 17> H 1.679452586 -0.8709174444 1.364997439
| 18> H 0.9593392849 -0.990718687 -1.0221749606
| 19> H 2.2167947812 0.1557469554 -1.4651410592
| 20> H 0.123091313 1.3317153843 -1.399125429
| 21> H 1.135547518 1.904817488 -0.0691937536
| 22> H -0.1770093368 0.4419562342 1.5151273687
| 23> H -1.1565947718 1.6669044622 0.6921212652
| 24> H -0.9683825874 -1.5418062886 0.1320797456
| 25> *
| 26>
| 27>                          ****END OF INPUT****

CARTESIAN COORDINATES (ANGSTROEM)
---------------------------------
  C      2.324376   -0.500601    0.572208
  C      1.523455   -0.124623   -0.669587
  C      0.568910    1.048279   -0.442912
  C     -0.551889    0.771500    0.548918
  S     -1.753346   -0.484522   -0.035554
  H      2.869426    0.362570    0.947859
  H      3.042065   -1.281026    0.331701
  H      1.679453   -0.870917    1.364997
  H      0.959339   -0.990719   -1.022175
  H      2.216795    0.155747   -1.465141
  H      0.123091    1.331715   -1.399125
  H      1.135548    1.904817   -0.069194
  H     -0.177009    0.441956    1.515127
  H     -1.156595    1.666904    0.692121
  H     -0.968383   -1.541806    0.132080

 Total Charge           Charge          ....    0
 Multiplicity           Mult            ....    1
 Number of Electrons    NEL             ....   50
 Basis Dimension        Dim             ....  153

ORBITAL ENERGIES
----------------

  NO   OCC          E(Eh)            E(eV)
   0   2.0000     -88.547818     -2409.5086
   1   2.0000     -10.054177      -273.5881
   2   2.0000     -10.021779      -272.7065
   3   2.0000     -10.017856      -272.5997
   4   2.0000     -10.008282      -272.3392
   5   2.0000      -7.843106      -213.4218
   6   2.0000      -5.789933      -157.5521
   7   2.0000      -5.786479      -157.4581
   8   2.0000      -5.780619      -157.2986
   9   2.0000      -0.774383       -21.0720
  10   2.0000      -0.717653       -19.5283
  11   2.0000      -0.652185       -17.7469
  12   2.0000      -0.590505       -16.0684
  13   2.0000      -0.522056       -14.2059
  14   2.0000      -0.438983       -11.9453
  15   2.0000      -0.424572       -11.5532
  16   2.0000      -0.386358       -10.5133
  17   2.0000      -0.369476       -10.0540
  18   2.0000      -0.358030        -9.7425
  19   2.0000      -0.340532        -9.2664
  20   2.0000      -0.305205        -8.3051
  21   2.0000      -0.293355        -7.9826
  22   2.0000      -0.287708        -7.8289
  23   2.0000      -0.285461        -7.7678
  24   2.0000      -0.210294        -5.7224
  25   0.0000       0.018594         0.5060
  26   0.0000       0.052314         1.4235
  27   0.0000       0.108718         2.9584
  28   0.0000       0.127735         3.4759
  29   0.0000       0.131271         3.5721

MULLIKEN ATOMIC CHARGES
-----------------------
   0 C :   -0.514149
   1 C :   -0.276948
   2 C :   -0.212470
   3 C :   -0.273440
   4 S :   -0.347427
   5 H :    0.156195
   6 H :    0.156480
   7 H :    0.159679
   8 H :    0.146661
   9 H :    0.154050
  10 H :    0.156864
  11 H :    0.153829
  12 H :    0.186916
  13 H :    0.180440
  14 H :    0.173319
Sum of atomic charges:    0.0000000

LOEWDIN ATOMIC CHARGES
----------------------
   0 C :   -0.433610
   1 C :   -0.327038
   2 C :   -0.322032
   3 C :   -0.358462
   4 S :   -0.138705
   5 H :    0.153702
   6 H :    0.153941
   7 H :    0.151827
   8 H :    0.153183
   9 H :    0.156728
  10 H :    0.161574
  11 H :    0.163655
  12 H :    0.169902
  13 H :    0.176553
  14 H :    0.138781

  Mayer bond orders larger than 0.100000
B(  0-C ,  1-C ) :   0.8963 B(  0-C ,  5-H ) :   0.9788 B(  0-C ,  6-H ) :   0.9669
B(  0-C ,  7-H ) :   0.9764 B(  1-C ,  2-C ) :   0.8969 B(  1-C ,  8-H ) :   0.9762
B(  1-C ,  9-H ) :   0.9654 B(  2-C ,  3-C ) :   0.8699 B(  2-C , 10-H ) :   0.9692
B(  2-C , 11-H ) :   0.9610 B(  3-C ,  4-S ) :   0.9613 B(  3-C , 12-H ) :   0.9669
B(  3-C , 13-H ) :   0.9466 B(  4-S , 14-H ) :   0.9532

Dispersion correction           -0.003819981
FINAL SINGLE POINT ENERGY      -556.557641994045

DIPOLE MOMENT
-------------

Method             : SCF
Type of density    : Electron Density
Multiplicity       :   1
Irrep              :   0
Energy             :  -556.5642957802618866 Eh
Relativity type    :
Basis              : AO
                                X                 Y                 Z
Electronic contribution:     -8.306967103      -0.827955672      -0.713210227
Nuclear contribution   :      9.172296421       1.120082955       0.965685968
                        -----------------------------------------
Total Dipole Moment    :      0.865329318       0.292127283       0.252475742
                        -----------------------------------------
Magnitude (a.u.)       :      0.947563812
Magnitude (Debye)      :      2.408515802

Rotational constants in cm-1:             0.236840             0.066082             0.061328
Rotational constants in MHz :          7100.283799          1981.091135          1838.555721

                             ****ORCA TERMINATED NORMALLY****
TOTAL RUN TIME: 0 days 0 hours 0 minutes 16 seconds 775 msec
