                         Program Version 6.0.0  -   RELEASE  -
|  1> ! r2scan-3c def2/J RI DEFGRID2 scfconv6 printgap
|  2> %output
|  3>     printlevel normal
|  4> end
|  5> * xyz 0 1
|  6> C -3.4115498048 -0.6909569172 -0.5228793848
|  7> C -2.7834124112 0.1047138155 0.6162450805
|  8> C -1.2881754984 -0.1717846265 0.7949180794
|  9> C -0.4799289296 0.3431914774 -0.380238304
| 10> Br 1.4533437613 0.0795062549 -0.0809991916
| 11> H -3.0198536033 -0.3784543367 -1.4873620168
| 12> H -3.2174252006 -1.7536054296 -0.3972915669
| 13> H -4.4876281128 -0.5393444795 -0.5326956208
| 14> H -3.2851378528 -0.1569510867 1.5491312487
| 15> H -2.9361460339 1.1722189299 0.4454245936
| 16> H -0.9416234433 0.3178292113 1.7079288054
| 17> H -1.1245659092 -1.2457198816 0.9084317307
| 18> H -0.6101863766 1.414469192 -0.5244383881
| 19> H -0.7010518846 -0.1899879042 -1.3019234926
| 20> *
| 21>
| 22>                          ****END OF INPUT****

CARTESIAN COORDINATES (ANGSTROEM)
---------------------------------
  C     -3.411550   -0.690957   -0.522879
  C     -2.783412    0.104714    0.616245
  C     -1.288175   -0.171785    0.794918
  C     -0.479929    0.343191   -0.380238
  Br     1.453344    0.079506   -0.080999
  H     -3.019854   -0.378454   -1.487362
  H     -3.217425   -1.753605   -0.397292
  H     -4.487628   -0.539344   -0.532696
  H     -3.285138   -0.156951    1.549131
  H     -2.936146    1.172219    0.445425
  H     -0.941623    0.317829    1.707929
  H     -1.124566   -1.245720    0.908432
  H     -0.610186    1.414469   -0.524438
  H     -0.701052   -0.189988   -1.301923

 Total Charge           Charge          ....    0
 Multiplicity           Mult            ....    1
 Number of Electrons    NEL             ....   68
 Basis Dimension        Dim             ....  157

ORBITAL ENERGIES
----------------

  NO   OCC          E(Eh)            E(eV)
   0   2.0000    -482.209913    -13121.5988
   1   2.0000     -62.281937     -1694.7777
   2   2.0000     -56.062447     -1525.5367
   3   2.0000     -56.059692     -1525.4618
   4   2.0000     -56.059586     -1525.4589
   5   2.0000     -10.091835      -274.6128
   6   2.0000     -10.043710      -273.3033
   7   2.0000     -10.040978      -273.2289
   8   2.0000     -10.027640      -272.8660
   9   2.0000      -8.614094      -234.4014
  10   2.0000      -6.421520      -174.7384
  11   2.0000      -6.407921      -174.3684
  12   2.0000      -6.407856      -174.3666
  13   2.0000      -2.519071       -68.5474
  14   2.0000      -2.515711       -68.4560
  15   2.0000      -2.515653       -68.4544
  16   2.0000      -2.505543       -68.1793
  17   2.0000      -2.505530       -68.1789
  18   2.0000      -0.796517       -21.6743
  19   2.0000      -0.745648       -20.2901
  20   2.0000      -0.677063       -18.4238
  21   2.0000      -0.609709       -16.5910
  22   2.0000      -0.552212       -15.0265
  23   2.0000      -0.455045       -12.3824
  24   2.0000      -0.434770       -11.8307
  25   2.0000      -0.411515       -11.1979
  26   2.0000      -0.382207       -10.4004
  27   2.0000      -0.360930        -9.8214
  28   2.0000      -0.355393        -9.6707
  29   2.0000      -0.315643        -8.5891
  30   2.0000      -0.314282        -8.5520
  31   2.0000      -0.310019        -8.4360
  32   2.0000      -0.248764        -6.7692
  33   2.0000      -0.247869        -6.7448
  34   0.0000      -0.026924        -0.7327
  35   0.0000       0.090067         2.4508
  36   0.0000       0.103503         2.8164
  37   0.0000       0.111506         3.0342
  38   0.0000       0.125215         3.4073

MULLIKEN ATOMIC CHARGES
-----------------------
   0 C :   -0.476211
   1 C :   -0.234816
   2 C :   -0.260863
   3 C :   -0.223330
   4 Br:   -0.180678
   5 H :    0.145470
   6 H :    0.146968
   7 H :    0.149258
   8 H :    0.149549
   9 H :    0.135454
  10 H :    0.159842
  11 H :    0.152837
  12 H :    0.165929
  13 H :    0.170592
Sum of atomic charges:   -0.0000000

LOEWDIN ATOMIC CHARGES
----------------------
   0 C :   -0.425394
   1 C :   -0.315338
   2 C :   -0.337609
   3 C :   -0.388522
   4 Br:    0.061864
   5 H :    0.148134
   6 H :    0.152411
   7 H :    0.153467
   8 H :    0.157136
   9 H :    0.153025
  10 H :    0.162770
  11 H :    0.161161
  12 H :    0.158428
  13 H :    0.158467

  Mayer bond orders larger than 0.100000
B(  0-C ,  1-C ) :   0.9010 B(  0-C ,  5-H ) :   0.9838 B(  0-C ,  6-H ) :   0.9779
B(  0-C ,  7-H ) :   0.9672 B(  1-C ,  2-C ) :   0.8863 B(  1-C ,  8-H ) :   0.9635
B(  1-C ,  9-H ) :   0.9757 B(  2-C ,  3-C ) :   0.9314 B(  2-C , 10-H ) :   0.9631
B(  2-C , 11-H ) :   0.9739 B(  3-C ,  4-Br) :   0.9787 B(  3-C , 12-H ) :   0.9574
B(  3-C , 13-H ) :   0.9615

Dispersion correction           -0.003351696
FINAL SINGLE POINT ENERGY     -2731.930907200358

DIPOLE MOMENT
-------------

Method             : SCF
Type of density    : Electron Density
Multiplicity       :   1
Irrep              :   0
Energy             : -2731.9343632886452724 Eh
Relativity type    :
Basis              : AO
                                X                 Y                 Z
Electronic contribution:     31.560239144       2.083574393      -1.105482160
Nuclear contribution   :    -32.561494500      -2.013712609       1.096583908
                        -----------------------------------------
Total Dipole Moment    :     -1.001255357       0.069861784      -0.008898251
                        -----------------------------------------
Magnitude (a.u.)       :      1.003729115
Magnitude (Debye)      :      2.551276658

Rotational constants in cm-1:             0.408917             0.033483             0.032413
Rotational constants in MHz :         12259.020199          1003.785301           971.702785

                             ****ORCA TERMINATED NORMALLY****
TOTAL RUN TIME: 0 days 0 hours 0 minutes 14 seconds 757 msec
