                         Program Version 6.0.0  -   RELEASE  -
|  1> ! r2scan-3c def2/J RI DEFGRID2 scfconv6 printgap
|  2> %output
|  3>     printlevel normal
|  4> end
|  5> %cpcm
|  6>     smd true
|  7>     smdsolvent "water"
|  8> end
|  9> * xyz 0 1
| 10> C -3.4115498048 -0.6909569172 -0.5228793848
| 11> C -2.7834124112 0.1047138155 0.6162450805
| 12> C -1.2881754984 -0.1717846265 0.7949180794
| 13> C -0.4799289296 0.3431914774 -0.380238304
| 14> Br 1.4533437613 0.0795062549 -0.0809991916
| 15> H -3.0198536033 -0.3784543367 -1.4873620168
| 16> H -3.2174252006 -1.7536054296 -0.3972915669
| 17> H -4.4876281128 -0.5393444795 -0.5326956208
| 18> H -3.2851378528 -0.1569510867 1.5491312487
| 19> H -2.9361460339 1.1722189299 0.4454245936
| 20> H -0.9416234433 0.3178292113 1.7079288054
| 21> H -1.1245659092 -1.2457198816 0.9084317307
| 22> H -0.6101863766 1.414469192 -0.5244383881
| 23> H -0.7010518846 -0.1899879042 -1.3019234926
| 24> *
| 25>
| 26>                          ****END OF INPUT****

CARTESIAN COORDINATES (ANGSTROEM)
---------------------------------
  C     -3.411550   -0.690957   -0.522879
  C     -2.783412    0.104714    0.616245
  C     -1.288175   -0.171785    0.794918
  C     -0.479929    0.343191   -0.380238
  Br     1.453344    0.079506   -0.080999
  H     -3.019854   -0.378454   -1.487362
  H     -3.217425   -1.753605   -0.397292
  H     -4.487628   -0.539344   -0.532696
  H     -3.285138   -0.156951    1.549131
  H     -2.936146    1.172219    0.445425
  H     -0.941623    0.317829    1.707929
  H     -1.124566   -1.245720    0.908432
  H     -0.610186    1.414469   -0.524438
  H     -0.701052   -0.189988   -1.301923

 Total Charge           Charge          ....    0
 Multiplicity           Mult            ....    1
 Number of Electrons    NEL             ....   68
 Basis Dimension        Dim             ....  157

ORBITAL ENERGIES
----------------

  NO   OCC          E(Eh)            E(eV)
   0   2.0000    -482.208736    -13121.5668
   1   2.0000     -62.280737     -1694.7450
   2   2.0000     -56.061168     -1525.5019
   3   2.0000     -56.058559     -1525.4309
   4   2.0000     -56.058448     -1525.4279
   5   2.0000     -10.077815      -274.2313
   6   2.0000     -10.028274      -272.8832
   7   2.0000     -10.022933      -272.7379
   8   2.0000     -10.009193      -272.3640
   9   2.0000      -8.612658      -234.3623
  10   2.0000      -6.419577      -174.6856
  11   2.0000      -6.406745      -174.3364
  12   2.0000      -6.406682      -174.3347
  13   2.0000      -2.517282       -68.4987
  14   2.0000      -2.514100       -68.4121
  15   2.0000      -2.514044       -68.4106
  16   2.0000      -2.504489       -68.1506
  17   2.0000      -2.504478       -68.1503
  18   2.0000      -0.783802       -21.3283
  19   2.0000      -0.734350       -19.9827
  20   2.0000      -0.664489       -18.0817
  21   2.0000      -0.595117       -16.1940
  22   2.0000      -0.535836       -14.5808
  23   2.0000      -0.439195       -11.9511
  24   2.0000      -0.418227       -11.3805
  25   2.0000      -0.395859       -10.7719
  26   2.0000      -0.366280        -9.9670
  27   2.0000      -0.348657        -9.4874
  28   2.0000      -0.339901        -9.2492
  29   2.0000      -0.299297        -8.1443
  30   2.0000      -0.297248        -8.0885
  31   2.0000      -0.294992        -8.0271
  32   2.0000      -0.247254        -6.7281
  33   2.0000      -0.245928        -6.6920
  34   0.0000      -0.019832        -0.5397
  35   0.0000       0.107078         2.9137
  36   0.0000       0.117686         3.2024
  37   0.0000       0.128139         3.4869
  38   0.0000       0.142577         3.8797

MULLIKEN ATOMIC CHARGES
-----------------------
   0 C :   -0.514223
   1 C :   -0.243603
   2 C :   -0.269358
   3 C :   -0.227579
   4 Br:   -0.229287
   5 H :    0.160420
   6 H :    0.155410
   7 H :    0.156754
   8 H :    0.159032
   9 H :    0.148504
  10 H :    0.163970
  11 H :    0.160459
  12 H :    0.188329
  13 H :    0.191171
Sum of atomic charges:   -0.0000000

LOEWDIN ATOMIC CHARGES
----------------------
   0 C :   -0.433008
   1 C :   -0.313868
   2 C :   -0.338233
   3 C :   -0.381012
   4 Br:    0.029297
   5 H :    0.152735
   6 H :    0.154136
   7 H :    0.154407
   8 H :    0.159759
   9 H :    0.157362
  10 H :    0.163253
  11 H :    0.162505
  12 H :    0.166477
  13 H :    0.166191

  Mayer bond orders larger than 0.100000
B(  0-C ,  1-C ) :   0.8964 B(  0-C ,  5-H ) :   0.9797 B(  0-C ,  6-H ) :   0.9763
B(  0-C ,  7-H ) :   0.9662 B(  1-C ,  2-C ) :   0.8853 B(  1-C ,  8-H ) :   0.9642
B(  1-C ,  9-H ) :   0.9755 B(  2-C ,  3-C ) :   0.9290 B(  2-C , 10-H ) :   0.9640
B(  2-C , 11-H ) :   0.9748 B(  3-C ,  4-Br) :   0.9354 B(  3-C , 12-H ) :   0.9517
B(  3-C , 13-H ) :   0.9544

Dispersion correction           -0.003351696
FINAL SINGLE POINT ENERGY     -2731.933172027349

DIPOLE MOMENT
-------------

Method             : SCF
Type of density    : Electron Density
Multiplicity       :   1
Irrep              :   0
Energy             : -2731.9366281156353580 Eh
Relativity type    :
Basis              : AO
                                X                 Y                 Z
Electronic contribution:     31.318416063       2.136700049      -1.149971833
Nuclear contribution   :    -32.561494500      -2.013712609       1.096583908
                        -----------------------------------------
Total Dipole Moment    :     -1.243078437       0.122987440      -0.053387925
                        -----------------------------------------
Magnitude (a.u.)       :      1.250288039
Magnitude (Debye)      :      3.177979638

Rotational constants in cm-1:             0.408917             0.033483             0.032413
Rotational constants in MHz :         12259.020199          1003.785301           971.702785

                             ****ORCA TERMINATED NORMALLY****
TOTAL RUN TIME: 0 days 0 hours 0 minutes 19 seconds 295 msec
