                         Program Version 6.0.0  -   RELEASE  -
|  1> ! r2scan-3c def2/J RI DEFGRID2 scfconv6 printgap
|  2> %output
|  3>     printlevel normal
|  4> end
|  5> * xyz 0 1
|  6> C -1.808928289 0.919631847 -0.5954349154
|  7> C -1.0015790664 0.578946429 0.6535964468
|  8> C 0.0396816389 -0.5380038395 0.4768212113
|  9> H 0.4951261218 -0.7106493254 1.4594217116
| 10> C -0.5991562052 -1.8416831811 0.0028933979
| 11> C 1.1796947984 -0.1485288788 -0.4759494247
| 12> O 2.0157981945 0.8751480902 0.0225884921
| 13> H -2.4024768331 0.0689392216 -0.9174867496
| 14> H -2.4868327145 1.7418419377 -0.3783563485
| 15> H -1.1650754032 1.2219603183 -1.4171749678
| 16> H -1.692558545 0.2693259535 1.4410424068
| 17> H -0.4968798322 1.4797387731 1.0114120568
| 18> H 0.1191282075 -2.6558782936 0.0579315473
| 19> H -0.9331433977 -1.7542167723 -1.0275128719
| 20> H -1.4523660853 -2.0922781931 0.6278447678
| 21> H 0.7797616086 0.1320080737 -1.4584517649
| 22> H 1.8406990262 -1.008043874 -0.6144523164
| 23> H 1.4971845734 1.6851995354 0.1192411024
| 24> *
| 25>
| 26>                          ****END OF INPUT****

CARTESIAN COORDINATES (ANGSTROEM)
---------------------------------
  C     -1.808928    0.919632   -0.595435
  C     -1.001579    0.578946    0.653596
  C      0.039682   -0.538004    0.476821
  H      0.495126   -0.710649    1.459422
  C     -0.599156   -1.841683    0.002893
  C      1.179695   -0.148529   -0.475949
  O      2.015798    0.875148    0.022588
  H     -2.402477    0.068939   -0.917487
  H     -2.486833    1.741842   -0.378356
  H     -1.165075    1.221960   -1.417175
  H     -1.692559    0.269326    1.441042
  H     -0.496880    1.479739    1.011412
  H      0.119128   -2.655878    0.057932
  H     -0.933143   -1.754217   -1.027513
  H     -1.452366   -2.092278    0.627845
  H      0.779762    0.132008   -1.458452
  H      1.840699   -1.008044   -0.614452
  H      1.497185    1.685200    0.119241

 Total Charge           Charge          ....    0
 Multiplicity           Mult            ....    1
 Number of Electrons    NEL             ....   50
 Basis Dimension        Dim             ....  179

ORBITAL ENERGIES
----------------

  NO   OCC          E(Eh)            E(eV)
   0   2.0000     -18.945725      -515.5394
   1   2.0000     -10.070513      -274.0326
   2   2.0000     -10.033516      -273.0258
   3   2.0000     -10.031253      -272.9643
   4   2.0000     -10.021887      -272.7094
   5   2.0000     -10.020521      -272.6723
   6   2.0000      -0.982263       -26.7287
   7   2.0000      -0.777452       -21.1556
   8   2.0000      -0.702750       -19.1228
   9   2.0000      -0.639860       -17.4115
  10   2.0000      -0.608672       -16.5628
  11   2.0000      -0.522339       -14.2136
  12   2.0000      -0.479801       -13.0561
  13   2.0000      -0.437446       -11.9035
  14   2.0000      -0.423436       -11.5223
  15   2.0000      -0.398613       -10.8468
  16   2.0000      -0.381798       -10.3892
  17   2.0000      -0.359796        -9.7905
  18   2.0000      -0.355944        -9.6857
  19   2.0000      -0.347963        -9.4686
  20   2.0000      -0.314675        -8.5627
  21   2.0000      -0.300288        -8.1713
  22   2.0000      -0.296697        -8.0735
  23   2.0000      -0.281920        -7.6714
  24   2.0000      -0.232027        -6.3138
  25   0.0000       0.049913         1.3582
  26   0.0000       0.085967         2.3393
  27   0.0000       0.110661         3.0112
  28   0.0000       0.123081         3.3492
  29   0.0000       0.137800         3.7497

MULLIKEN ATOMIC CHARGES
-----------------------
   0 C :   -0.495052
   1 C :   -0.273098
   2 C :    0.014552
   3 H :    0.160010
   4 C :   -0.524305
   5 C :   -0.233510
   6 O :   -0.413954
   7 H :    0.155895
   8 H :    0.149153
   9 H :    0.149072
  10 H :    0.151117
  11 H :    0.129260
  12 H :    0.151185
  13 H :    0.157024
  14 H :    0.151913
  15 H :    0.139654
  16 H :    0.138363
  17 H :    0.292722
Sum of atomic charges:    0.0000000

LOEWDIN ATOMIC CHARGES
----------------------
   0 C :   -0.424416
   1 C :   -0.312405
   2 C :   -0.233286
   3 H :    0.166046
   4 C :   -0.413994
   5 C :    0.005413
   6 O :   -0.616870
   7 H :    0.153134
   8 H :    0.152670
   9 H :    0.148941
  10 H :    0.157975
  11 H :    0.149376
  12 H :    0.155872
  13 H :    0.154845
  14 H :    0.156334
  15 H :    0.157505
  16 H :    0.179226
  17 H :    0.263634

  Mayer bond orders larger than 0.100000
B(  0-C ,  1-C ) :   0.8885 B(  0-C ,  7-H ) :   0.9784 B(  0-C ,  8-H ) :   0.9678
B(  0-C ,  9-H ) :   0.9808 B(  1-C ,  2-C ) :   0.8846 B(  1-C , 10-H ) :   0.9700
B(  1-C , 11-H ) :   0.9773 B(  2-C ,  3-H ) :   0.9597 B(  2-C ,  4-C ) :   0.8883
B(  2-C ,  5-C ) :   0.8933 B(  4-C , 12-H ) :   0.9699 B(  4-C , 13-H ) :   0.9790
B(  4-C , 14-H ) :   0.9719 B(  5-C ,  6-O ) :   0.9510 B(  5-C , 15-H ) :   0.9915
B(  5-C , 16-H ) :   0.9728 B(  6-O , 17-H ) :   0.8936

Dispersion correction           -0.004493927
FINAL SINGLE POINT ENERGY      -272.897430831224

DIPOLE MOMENT
-------------

Method             : SCF
Type of density    : Electron Density
Multiplicity       :   1
Irrep              :   0
Energy             :  -272.9029520360688252 Eh
Relativity type    :
Basis              : AO
                                X                 Y                 Z
Electronic contribution:      4.839327295       1.536043777       0.989302790
Nuclear contribution   :     -5.502842041      -1.508763202      -1.028400060
                        -----------------------------------------
Total Dipole Moment    :     -0.663514746       0.027280575      -0.039097270
                        -----------------------------------------
Magnitude (a.u.)       :      0.665225258
Magnitude (Debye)      :      1.690868231

Rotational constants in cm-1:             0.137584             0.087906             0.064679
Rotational constants in MHz :          4124.678195          2635.361453          1939.032849

                             ****ORCA TERMINATED NORMALLY****
TOTAL RUN TIME: 0 days 0 hours 0 minutes 24 seconds 147 msec
