                         Program Version 6.0.0  -   RELEASE  -
|  1> ! r2scan-3c def2/J RI DEFGRID2 scfconv6 printgap
|  2> %output
|  3>     printlevel normal
|  4> end
|  5> %cpcm
|  6>     smd true
|  7>     smdsolvent "water"
|  8> end
|  9> * xyz 0 1
| 10> C -1.808928289 0.919631847 -0.5954349154
| 11> C -1.0015790664 0.578946429 0.6535964468
| 12> C 0.0396816389 -0.5380038395 0.4768212113
| 13> H 0.4951261218 -0.7106493254 1.4594217116
| 14> C -0.5991562052 -1.8416831811 0.0028933979
| 15> C 1.1796947984 -0.1485288788 -0.4759494247
| 16> O 2.0157981945 0.8751480902 0.0225884921
| 17> H -2.4024768331 0.0689392216 -0.9174867496
| 18> H -2.4868327145 1.7418419377 -0.3783563485
| 19> H -1.1650754032 1.2219603183 -1.4171749678
| 20> H -1.692558545 0.2693259535 1.4410424068
| 21> H -0.4968798322 1.4797387731 1.0114120568
| 22> H 0.1191282075 -2.6558782936 0.0579315473
| 23> H -0.9331433977 -1.7542167723 -1.0275128719
| 24> H -1.4523660853 -2.0922781931 0.6278447678
| 25> H 0.7797616086 0.1320080737 -1.4584517649
| 26> H 1.8406990262 -1.008043874 -0.6144523164
| 27> H 1.4971845734 1.6851995354 0.1192411024
| 28> *
| 29>
| 30>                          ****END OF INPUT****

CARTESIAN COORDINATES (ANGSTROEM)
---------------------------------
  C     -1.808928    0.919632   -0.595435
  C     -1.001579    0.578946    0.653596
  C      0.039682   -0.538004    0.476821
  H      0.495126   -0.710649    1.459422
  C     -0.599156   -1.841683    0.002893
  C      1.179695   -0.148529   -0.475949
  O      2.015798    0.875148    0.022588
  H     -2.402477    0.068939   -0.917487
  H     -2.486833    1.741842   -0.378356
  H     -1.165075    1.221960   -1.417175
  H     -1.692559    0.269326    1.441042
  H     -0.496880    1.479739    1.011412
  H      0.119128   -2.655878    0.057932
  H     -0.933143   -1.754217   -1.027513
  H     -1.452366   -2.092278    0.627845
  H      0.779762    0.132008   -1.458452
  H      1.840699   -1.008044   -0.614452
  H      1.497185    1.685200    0.119241

 Total Charge           Charge          ....    0
 Multiplicity           Mult            ....    1
 Number of Electrons    NEL             ....   50
 Basis Dimension        Dim             ....  179

ORBITAL ENERGIES
----------------

  NO   OCC          E(Eh)            E(eV)
   0   2.0000     -18.950092      -515.6582
   1   2.0000     -10.064368      -273.8654
   2   2.0000     -10.024478      -272.7799
   3   2.0000     -10.016985      -272.5760
   4   2.0000     -10.008642      -272.3490
   5   2.0000     -10.007434      -272.3161
   6   2.0000      -0.985447       -26.8154
   7   2.0000      -0.766372       -20.8540
   8   2.0000      -0.690536       -18.7905
   9   2.0000      -0.632789       -17.2191
  10   2.0000      -0.597130       -16.2487
  11   2.0000      -0.513585       -13.9754
  12   2.0000      -0.474460       -12.9107
  13   2.0000      -0.425541       -11.5795
  14   2.0000      -0.414997       -11.2926
  15   2.0000      -0.391742       -10.6598
  16   2.0000      -0.375340       -10.2135
  17   2.0000      -0.348614        -9.4863
  18   2.0000      -0.343923        -9.3586
  19   2.0000      -0.338192        -9.2027
  20   2.0000      -0.306384        -8.3371
  21   2.0000      -0.293816        -7.9951
  22   2.0000      -0.285215        -7.7611
  23   2.0000      -0.274578        -7.4716
  24   2.0000      -0.235295        -6.4027
  25   0.0000       0.066800         1.8177
  26   0.0000       0.097584         2.6554
  27   0.0000       0.122314         3.3283
  28   0.0000       0.131956         3.5907
  29   0.0000       0.149211         4.0602

MULLIKEN ATOMIC CHARGES
-----------------------
   0 C :   -0.533186
   1 C :   -0.267760
   2 C :    0.002668
   3 H :    0.159474
   4 C :   -0.561724
   5 C :   -0.230518
   6 O :   -0.507160
   7 H :    0.163181
   8 H :    0.156964
   9 H :    0.162587
  10 H :    0.158457
  11 H :    0.146563
  12 H :    0.161271
  13 H :    0.168760
  14 H :    0.164092
  15 H :    0.154478
  16 H :    0.150957
  17 H :    0.350896
Sum of atomic charges:   -0.0000000

LOEWDIN ATOMIC CHARGES
----------------------
   0 C :   -0.430949
   1 C :   -0.312931
   2 C :   -0.231170
   3 H :    0.164849
   4 C :   -0.419871
   5 C :    0.002914
   6 O :   -0.656264
   7 H :    0.154209
   8 H :    0.154259
   9 H :    0.153275
  10 H :    0.159316
  11 H :    0.156230
  12 H :    0.157860
  13 H :    0.158527
  14 H :    0.159761
  15 H :    0.166030
  16 H :    0.181714
  17 H :    0.282242

  Mayer bond orders larger than 0.100000
B(  0-C ,  1-C ) :   0.8815 B(  0-C ,  7-H ) :   0.9762 B(  0-C ,  8-H ) :   0.9662
B(  0-C ,  9-H ) :   0.9786 B(  1-C ,  2-C ) :   0.8887 B(  1-C , 10-H ) :   0.9713
B(  1-C , 11-H ) :   0.9718 B(  2-C ,  3-H ) :   0.9625 B(  2-C ,  4-C ) :   0.8883
B(  2-C ,  5-C ) :   0.9073 B(  4-C , 12-H ) :   0.9676 B(  4-C , 13-H ) :   0.9764
B(  4-C , 14-H ) :   0.9691 B(  5-C ,  6-O ) :   0.9345 B(  5-C , 15-H ) :   0.9796
B(  5-C , 16-H ) :   0.9705 B(  6-O , 17-H ) :   0.8659

Dispersion correction           -0.004493927
FINAL SINGLE POINT ENERGY      -272.904015136002

DIPOLE MOMENT
-------------

Method             : SCF
Type of density    : Electron Density
Multiplicity       :   1
Irrep              :   0
Energy             :  -272.9095363408471258 Eh
Relativity type    :
Basis              : AO
                                X                 Y                 Z
Electronic contribution:      4.616850699       1.592128333       0.930386899
Nuclear contribution   :     -5.502842041      -1.508763202      -1.028400060
                        -----------------------------------------
Total Dipole Moment    :     -0.885991342       0.083365132      -0.098013160
                        -----------------------------------------
Magnitude (a.u.)       :      0.895285978
Magnitude (Debye)      :      2.275636109

Rotational constants in cm-1:             0.137584             0.087906             0.064679
Rotational constants in MHz :          4124.678195          2635.361453          1939.032849

                             ****ORCA TERMINATED NORMALLY****
TOTAL RUN TIME: 0 days 0 hours 0 minutes 26 seconds 608 msec
