                         Program Version 6.0.0  -   RELEASE  -
|  1> ! pbe def2-sv(p) def2/J RI DEFGRID1 loosescf d4 GCP(DFT/SV(P)) printgap
|  2> %output
|  3>     printlevel normal
|  4> end
|  5> * xyz 0 1
|  6> C 3.7063819467 0.2938783422 -0.5028628249
|  7> C 2.507504987 -0.2095853667 0.2393322449
|  8> C 2.6093740385 -0.8843555776 1.3736312332
|  9> C 1.1687020106 0.1282993651 -0.3835522175
| 10> H 1.353696252 0.5348690603 -1.3814314395
| 11> C 0.2466424262 -1.1010237809 -0.5308902274
| 12> C -1.0525158552 -0.9833592079 0.2772549099
| 13> C -1.6970357222 0.3370751229 -0.0106039921
| 14> C -0.9194278962 1.4314275594 0.0604541729
| 15> C 0.5016732254 1.258780147 0.4419349481
| 16> C -3.0917085321 0.4105126595 -0.3846178707
| 17> O -3.8516938243 -0.5361747697 -0.4915318092
| 18> H 3.7454275664 -0.1531537682 -1.4953780399
| 19> H 3.6453104399 1.3740541439 -0.6273018322
| 20> H 4.624291782 0.0528795629 0.0256432735
| 21> H 1.7474197969 -1.245113178 1.9084715908
| 22> H 3.5651009122 -1.1117970499 1.8134977225
| 23> H -0.0226618502 -1.2210361215 -1.5815110557
| 24> H 0.7766775657 -2.0021472381 -0.2234542381
| 25> H -1.7363961986 -1.7941349281 0.0232296094
| 26> H -0.8263416483 -1.0480792312 1.3443294431
| 27> H -1.3040121761 2.4164969098 -0.1560329843
| 28> H 1.0662214525 2.1823300646 0.3243546415
| 29> H 0.543171279 0.9673952465 1.4955184387
| 30> H -3.4603467557 1.4355556964 -0.5800962288
| 31> *
| 32>
| 33>                          ****END OF INPUT****

CARTESIAN COORDINATES (ANGSTROEM)
---------------------------------
  C      3.706382    0.293878   -0.502863
  C      2.507505   -0.209585    0.239332
  C      2.609374   -0.884356    1.373631
  C      1.168702    0.128299   -0.383552
  H      1.353696    0.534869   -1.381431
  C      0.246642   -1.101024   -0.530890
  C     -1.052516   -0.983359    0.277255
  C     -1.697036    0.337075   -0.010604
  C     -0.919428    1.431428    0.060454
  C      0.501673    1.258780    0.441935
  C     -3.091709    0.410513   -0.384618
  O     -3.851694   -0.536175   -0.491532
  H      3.745428   -0.153154   -1.495378
  H      3.645310    1.374054   -0.627302
  H      4.624292    0.052880    0.025643
  H      1.747420   -1.245113    1.908472
  H      3.565101   -1.111797    1.813498
  H     -0.022662   -1.221036   -1.581511
  H      0.776678   -2.002147   -0.223454
  H     -1.736396   -1.794135    0.023230
  H     -0.826342   -1.048079    1.344329
  H     -1.304012    2.416497   -0.156033
  H      1.066221    2.182330    0.324355
  H      0.543171    0.967395    1.495518
  H     -3.460347    1.435556   -0.580096

 Total Charge           Charge          ....    0
 Multiplicity           Mult            ....    1
 Number of Electrons    NEL             ....   82
 Basis Dimension        Dim             ....  182

ORBITAL ENERGIES
----------------

  NO   OCC          E(Eh)            E(eV)
   0   2.0000     -18.738017      -509.8874
   1   2.0000      -9.962760      -271.1005
   2   2.0000      -9.913731      -269.7663
   3   2.0000      -9.910873      -269.6886
   4   2.0000      -9.906285      -269.5637
   5   2.0000      -9.905911      -269.5536
   6   2.0000      -9.905779      -269.5499
   7   2.0000      -9.894417      -269.2408
   8   2.0000      -9.893530      -269.2166
   9   2.0000      -9.887815      -269.0611
  10   2.0000      -9.876400      -268.7505
  11   2.0000      -0.930112       -25.3096
  12   2.0000      -0.785071       -21.3629
  13   2.0000      -0.735638       -20.0177
  14   2.0000      -0.680979       -18.5304
  15   2.0000      -0.675725       -18.3874
  16   2.0000      -0.620176       -16.8759
  17   2.0000      -0.594721       -16.1832
  18   2.0000      -0.560520       -15.2525
  19   2.0000      -0.521626       -14.1942
  20   2.0000      -0.482793       -13.1375
  21   2.0000      -0.462894       -12.5960
  22   2.0000      -0.454444       -12.3660
  23   2.0000      -0.436850       -11.8873
  24   2.0000      -0.404121       -10.9967
  25   2.0000      -0.398400       -10.8410
  26   2.0000      -0.390400       -10.6233
  27   2.0000      -0.375100       -10.2070
  28   2.0000      -0.366821        -9.9817
  29   2.0000      -0.365216        -9.9380
  30   2.0000      -0.354085        -9.6352
  31   2.0000      -0.349416        -9.5081
  32   2.0000      -0.342946        -9.3320
  33   2.0000      -0.331767        -9.0279
  34   2.0000      -0.325356        -8.8534
  35   2.0000      -0.300136        -8.1671
  36   2.0000      -0.287314        -7.8182
  37   2.0000      -0.277999        -7.5647
  38   2.0000      -0.237785        -6.4704
  39   2.0000      -0.221594        -6.0299
  40   2.0000      -0.199440        -5.4270
  41   0.0000      -0.090398        -2.4599
  42   0.0000      -0.021635        -0.5887
  43   0.0000       0.021341         0.5807
  44   0.0000       0.024502         0.6667
  45   0.0000       0.047846         1.3020

MULLIKEN ATOMIC CHARGES
-----------------------
   0 C :   -0.211697
   1 C :   -0.048620
   2 C :   -0.246522
   3 C :   -0.156213
   4 H :    0.058553
   5 C :   -0.114544
   6 C :   -0.068117
   7 C :   -0.058718
   8 C :   -0.159672
   9 C :   -0.023838
  10 C :    0.034015
  11 O :   -0.172569
  12 H :    0.113688
  13 H :    0.108524
  14 H :    0.098782
  15 H :    0.092281
  16 H :    0.087710
  17 H :    0.087685
  18 H :    0.097646
  19 H :    0.096333
  20 H :    0.093730
  21 H :    0.065243
  22 H :    0.089367
  23 H :    0.104865
  24 H :    0.032084
Sum of atomic charges:   -0.0000000

LOEWDIN ATOMIC CHARGES
----------------------
   0 C :   -0.321595
   1 C :   -0.047575
   2 C :   -0.269646
   3 C :   -0.124456
   4 H :    0.120886
   5 C :   -0.208065
   6 C :   -0.211271
   7 C :   -0.101456
   8 C :   -0.087268
   9 C :   -0.207219
  10 C :   -0.007757
  11 O :   -0.134054
  12 H :    0.130464
  13 H :    0.127562
  14 H :    0.124110
  15 H :    0.116473
  16 H :    0.120806
  17 H :    0.124046
  18 H :    0.125387
  19 H :    0.130952
  20 H :    0.128794
  21 H :    0.124879
  22 H :    0.126500
  23 H :    0.141394
  24 H :    0.078106

  Mayer bond orders larger than 0.100000
B(  0-C ,  1-C ) :   1.1349 B(  0-C , 12-H ) :   0.9269 B(  0-C , 13-H ) :   0.9292
B(  0-C , 14-H ) :   0.9406 B(  1-C ,  2-C ) :   2.0409 B(  1-C ,  3-C ) :   0.9838
B(  2-C , 15-H ) :   0.9042 B(  2-C , 16-H ) :   0.9038 B(  3-C ,  4-H ) :   0.8882
B(  3-C ,  5-C ) :   1.0716 B(  3-C ,  9-C ) :   1.1010 B(  5-C ,  6-C ) :   1.1541
B(  5-C , 17-H ) :   0.9123 B(  5-C , 18-H ) :   0.9117 B(  6-C ,  7-C ) :   1.1069
B(  6-C , 19-H ) :   0.8900 B(  6-C , 20-H ) :   0.8735 B(  7-C ,  8-C ) :   1.7121
B(  7-C , 10-C ) :   1.0413 B(  8-C ,  9-C ) :   1.0940 B(  8-C , 11-O ) :   0.1053
B(  8-C , 21-H ) :   0.9481 B(  9-C , 22-H ) :   0.9123 B(  9-C , 23-H ) :   0.8590
B( 10-C , 11-O ) :   2.0994 B( 10-C , 24-H ) :   0.9173

Dispersion correction           -0.026592275
FINAL SINGLE POINT ENERGY      -463.620051882239

DIPOLE MOMENT
-------------

Method             : SCF
Type of density    : Electron Density
Multiplicity       :   1
Irrep              :   0
Energy             :  -463.6958322823213621 Eh
Relativity type    :
Basis              : AO
                                X                 Y                 Z
Electronic contribution:    -11.576656681       0.337055450      -0.780824026
Nuclear contribution   :     12.812271017       0.356172433       0.827531462
                        -----------------------------------------
Total Dipole Moment    :      1.235614336       0.693227883       0.046707436
                        -----------------------------------------
Magnitude (a.u.)       :      1.417564555
Magnitude (Debye)      :      3.603162751

Rotational constants in cm-1:             0.098603             0.018779             0.017506
Rotational constants in MHz :          2956.041392           562.969072           524.802770

                             ****ORCA TERMINATED NORMALLY****
TOTAL RUN TIME: 0 days 0 hours 0 minutes 16 seconds 155 msec
