                         Program Version 6.0.0  -   RELEASE  -
|  1> ! r2scan-3c def2/J RI DEFGRID2 scfconv6 printgap
|  2> %output
|  3>     printlevel normal
|  4> end
|  5> * xyz 0 1
|  6> C -3.5174529442 -0.5736835527 -1.8108114827
|  7> C -3.0037414889 -1.5838241293 -0.7924010459
|  8> C -2.4853868818 -0.9876813378 0.5253915258
|  9> H -2.0229853159 -1.8122218861 1.0827103154
| 10> C -3.5769010824 -0.3915508131 1.4036935351
| 11> N -1.3608846291 -0.0629781232 0.2776101651
| 12> C -0.0985041072 -0.6608201748 0.2686917955
| 13> O 0.0325566813 -1.8615160085 0.4421401291
| 14> C 1.0136177266 0.2368594328 0.0530483526
| 15> C 0.8479349186 1.5669580273 -0.155401219
| 16> N -0.433049846 2.0289487025 -0.1589215209
| 17> C -1.5691020041 1.2722934722 0.0239648928
| 18> O -2.6562671853 1.8111542304 -0.0432311235
| 19> C 1.918660383 2.5668945398 -0.3860062324
| 20> Br 2.7234052775 -0.5959348833 0.0766324315
| 21> H -3.941968126 -1.1000047562 -2.661692086
| 22> H -4.2832879853 0.0641180103 -1.3798372136
| 23> H -2.7128802347 0.0625425426 -2.1739307556
| 24> H -3.8049259102 -2.2770007626 -0.5342474124
| 25> H -2.1932964316 -2.1655549658 -1.2398405475
| 26> H -4.1397146902 0.3783950703 0.8881439003
| 27> H -4.2511507523 -1.1911295861 1.6962110498
| 28> H -3.1422612054 0.0421663117 2.3012066504
| 29> H -0.6022529658 3.0154262696 -0.3313693225
| 30> H 2.899635163 2.1055452351 -0.3330295351
| 31> H 1.8545881008 3.3546523665 0.3615383555
| 32> H 1.7940234735 3.020767868 -1.3671543214
| 33> *
| 34>
| 35>                          ****END OF INPUT****

CARTESIAN COORDINATES (ANGSTROEM)
---------------------------------
  C     -3.517453   -0.573684   -1.810811
  C     -3.003741   -1.583824   -0.792401
  C     -2.485387   -0.987681    0.525392
  H     -2.022985   -1.812222    1.082710
  C     -3.576901   -0.391551    1.403694
  N     -1.360885   -0.062978    0.277610
  C     -0.098504   -0.660820    0.268692
  O      0.032557   -1.861516    0.442140
  C      1.013618    0.236859    0.053048
  C      0.847935    1.566958   -0.155401
  N     -0.433050    2.028949   -0.158922
  C     -1.569102    1.272293    0.023965
  O     -2.656267    1.811154   -0.043231
  C      1.918660    2.566895   -0.386006
  Br     2.723405   -0.595935    0.076632
  H     -3.941968   -1.100005   -2.661692
  H     -4.283288    0.064118   -1.379837
  H     -2.712880    0.062543   -2.173931
  H     -3.804926   -2.277001   -0.534247
  H     -2.193296   -2.165555   -1.239841
  H     -4.139715    0.378395    0.888144
  H     -4.251151   -1.191130    1.696211
  H     -3.142261    0.042166    2.301207
  H     -0.602253    3.015426   -0.331369
  H      2.899635    2.105545   -0.333030
  H      1.854588    3.354652    0.361538
  H      1.794023    3.020768   -1.367154

 Total Charge           Charge          ....    0
 Multiplicity           Mult            ....    1
 Number of Electrons    NEL             ....  132
 Basis Dimension        Dim             ....  368

ORBITAL ENERGIES
----------------

  NO   OCC          E(Eh)            E(eV)
   0   2.0000    -482.235087    -13122.2838
   1   2.0000     -62.306264     -1695.4397
   2   2.0000     -56.086872     -1526.2014
   3   2.0000     -56.084033     -1526.1241
   4   2.0000     -56.083870     -1526.1197
   5   2.0000     -18.931543      -515.1535
   6   2.0000     -18.928285      -515.0648
   7   2.0000     -14.238142      -387.4396
   8   2.0000     -14.228844      -387.1865
   9   2.0000     -10.183404      -277.1045
  10   2.0000     -10.151540      -276.2374
  11   2.0000     -10.130196      -275.6567
  12   2.0000     -10.100885      -274.8591
  13   2.0000     -10.078757      -274.2569
  14   2.0000     -10.068717      -273.9837
  15   2.0000     -10.030078      -272.9323
  16   2.0000     -10.018327      -272.6125
  17   2.0000     -10.014214      -272.5006
  18   2.0000      -8.638095      -235.0545
  19   2.0000      -6.446366      -175.4145
  20   2.0000      -6.431745      -175.0167
  21   2.0000      -6.431079      -174.9986
  22   2.0000      -2.543741       -69.2187
  23   2.0000      -2.540164       -69.1214
  24   2.0000      -2.539690       -69.1085
  25   2.0000      -2.528810       -68.8124
  26   2.0000      -2.528792       -68.8119
  27   2.0000      -1.053912       -28.6784
  28   2.0000      -1.016266       -27.6540
  29   2.0000      -0.957881       -26.0653
  30   2.0000      -0.918481       -24.9931
  31   2.0000      -0.813548       -22.1378
  32   2.0000      -0.774862       -21.0851
  33   2.0000      -0.749785       -20.4027
  34   2.0000      -0.708156       -19.2699
  35   2.0000      -0.693504       -18.8712
  36   2.0000      -0.650985       -17.7142
  37   2.0000      -0.628019       -17.0893
  38   2.0000      -0.607229       -16.5235
  39   2.0000      -0.561650       -15.2833
  40   2.0000      -0.551836       -15.0162
  41   2.0000      -0.514769       -14.0076
  42   2.0000      -0.476095       -12.9552
  43   2.0000      -0.451283       -12.2800
  44   2.0000      -0.439293       -11.9538
  45   2.0000      -0.437029       -11.8922
  46   2.0000      -0.427415       -11.6306
  47   2.0000      -0.412426       -11.2227
  48   2.0000      -0.407007       -11.0752
  49   2.0000      -0.402313       -10.9475
  50   2.0000      -0.390715       -10.6319
  51   2.0000      -0.386523       -10.5178
  52   2.0000      -0.383757       -10.4426
  53   2.0000      -0.360175        -9.8009
  54   2.0000      -0.356599        -9.7035
  55   2.0000      -0.353167        -9.6101
  56   2.0000      -0.335671        -9.1341
  57   2.0000      -0.319805        -8.7023
  58   2.0000      -0.309198        -8.4137
  59   2.0000      -0.297364        -8.0917
  60   2.0000      -0.290909        -7.9160
  61   2.0000      -0.269775        -7.3410
  62   2.0000      -0.258245        -7.0272
  63   2.0000      -0.249968        -6.8020
  64   2.0000      -0.235379        -6.4050
  65   2.0000      -0.218595        -5.9483
  66   0.0000      -0.074046        -2.0149
  67   0.0000      -0.033894        -0.9223
  68   0.0000      -0.024692        -0.6719
  69   0.0000       0.038291         1.0420
  70   0.0000       0.062534         1.7016

MULLIKEN ATOMIC CHARGES
-----------------------
   0 C :   -0.471067
   1 C :   -0.327312
   2 C :   -0.066400
   3 H :    0.205869
   4 C :   -0.494333
   5 N :    0.163854
   6 C :    0.221023
   7 O :   -0.429162
   8 C :   -0.162961
   9 C :    0.226099
  10 N :   -0.019024
  11 C :    0.192078
  12 O :   -0.442204
  13 C :   -0.606171
  14 Br:   -0.081378
  15 H :    0.146573
  16 H :    0.167154
  17 H :    0.140088
  18 H :    0.150031
  19 H :    0.171612
  20 H :    0.193968
  21 H :    0.149660
  22 H :    0.150310
  23 H :    0.280621
  24 H :    0.187421
  25 H :    0.175312
  26 H :    0.178338
Sum of atomic charges:    0.0000000

LOEWDIN ATOMIC CHARGES
----------------------
   0 C :   -0.407445
   1 C :   -0.262904
   2 C :    0.042715
   3 H :    0.222709
   4 C :   -0.364956
   5 N :   -0.619788
   6 C :    0.355811
   7 O :   -0.474561
   8 C :   -0.195219
   9 C :    0.156123
  10 N :   -0.519258
  11 C :    0.456849
  12 O :   -0.420511
  13 C :   -0.350958
  14 Br:    0.255917
  15 H :    0.149967
  16 H :    0.160203
  17 H :    0.154857
  18 H :    0.161005
  19 H :    0.167942
  20 H :    0.180605
  21 H :    0.156937
  22 H :    0.162494
  23 H :    0.299174
  24 H :    0.180147
  25 H :    0.175569
  26 H :    0.176574

  Mayer bond orders larger than 0.100000
B(  0-C ,  1-C ) :   0.8740 B(  0-C , 15-H ) :   0.9634 B(  0-C , 16-H ) :   0.9875
B(  0-C , 17-H ) :   0.9710 B(  1-C ,  2-C ) :   0.9134 B(  1-C , 18-H ) :   0.9835
B(  1-C , 19-H ) :   0.9718 B(  2-C ,  3-H ) :   0.9538 B(  2-C ,  4-C ) :   0.8731
B(  2-C ,  5-N ) :   0.8313 B(  4-C , 20-H ) :   0.9719 B(  4-C , 21-H ) :   0.9639
B(  4-C , 22-H ) :   0.9788 B(  5-N ,  6-C ) :   1.0890 B(  5-N , 11-C ) :   1.1596
B(  6-C ,  7-O ) :   1.9142 B(  6-C ,  8-C ) :   0.9706 B(  6-C , 14-Br) :  -0.1162
B(  8-C ,  9-C ) :   1.4727 B(  8-C , 14-Br) :   1.2064 B(  9-C , 10-N ) :   1.1545
B(  9-C , 13-C ) :   0.8455 B( 10-N , 11-C ) :   1.0258 B( 10-N , 23-H ) :   0.9050
B( 11-C , 12-O ) :   1.8866 B( 13-C , 24-H ) :   0.9553 B( 13-C , 25-H ) :   0.9684
B( 13-C , 26-H ) :   0.9652

Dispersion correction           -0.011541468
FINAL SINGLE POINT ENERGY     -3184.782935740702

DIPOLE MOMENT
-------------

Method             : SCF
Type of density    : Electron Density
Multiplicity       :   1
Irrep              :   0
Energy             : -3184.7929072599363280 Eh
Relativity type    :
Basis              : AO
                                X                 Y                 Z
Electronic contribution:     48.678513998      -7.353528436       3.924682490
Nuclear contribution   :    -48.364291976       8.824762579      -4.168052352
                        -----------------------------------------
Total Dipole Moment    :      0.314222022       1.471234143      -0.243369861
                        -----------------------------------------
Magnitude (a.u.)       :      1.523973187
Magnitude (Debye)      :      3.873631998

Rotational constants in cm-1:             0.031515             0.010891             0.009019
Rotational constants in MHz :           944.790076           326.500753           270.396832

                             ****ORCA TERMINATED NORMALLY****
TOTAL RUN TIME: 0 days 0 hours 1 minutes 24 seconds 102 msec
