                         Program Version 6.0.0  -   RELEASE  -
|  1> ! r2scan-3c def2/J RI DEFGRID2 scfconv6 printgap
|  2> %output
|  3>     printlevel normal
|  4> end
|  5> %cpcm
|  6>     smd true
|  7>     smdsolvent "water"
|  8> end
|  9> * xyz 0 1
| 10> C -3.5174529442 -0.5736835527 -1.8108114827
| 11> C -3.0037414889 -1.5838241293 -0.7924010459
| 12> C -2.4853868818 -0.9876813378 0.5253915258
| 13> H -2.0229853159 -1.8122218861 1.0827103154
| 14> C -3.5769010824 -0.3915508131 1.4036935351
| 15> N -1.3608846291 -0.0629781232 0.2776101651
| 16> C -0.0985041072 -0.6608201748 0.2686917955
| 17> O 0.0325566813 -1.8615160085 0.4421401291
| 18> C 1.0136177266 0.2368594328 0.0530483526
| 19> C 0.8479349186 1.5669580273 -0.155401219
| 20> N -0.433049846 2.0289487025 -0.1589215209
| 21> C -1.5691020041 1.2722934722 0.0239648928
| 22> O -2.6562671853 1.8111542304 -0.0432311235
| 23> C 1.918660383 2.5668945398 -0.3860062324
| 24> Br 2.7234052775 -0.5959348833 0.0766324315
| 25> H -3.941968126 -1.1000047562 -2.661692086
| 26> H -4.2832879853 0.0641180103 -1.3798372136
| 27> H -2.7128802347 0.0625425426 -2.1739307556
| 28> H -3.8049259102 -2.2770007626 -0.5342474124
| 29> H -2.1932964316 -2.1655549658 -1.2398405475
| 30> H -4.1397146902 0.3783950703 0.8881439003
| 31> H -4.2511507523 -1.1911295861 1.6962110498
| 32> H -3.1422612054 0.0421663117 2.3012066504
| 33> H -0.6022529658 3.0154262696 -0.3313693225
| 34> H 2.899635163 2.1055452351 -0.3330295351
| 35> H 1.8545881008 3.3546523665 0.3615383555
| 36> H 1.7940234735 3.020767868 -1.3671543214
| 37> *
| 38>
| 39>                          ****END OF INPUT****

CARTESIAN COORDINATES (ANGSTROEM)
---------------------------------
  C     -3.517453   -0.573684   -1.810811
  C     -3.003741   -1.583824   -0.792401
  C     -2.485387   -0.987681    0.525392
  H     -2.022985   -1.812222    1.082710
  C     -3.576901   -0.391551    1.403694
  N     -1.360885   -0.062978    0.277610
  C     -0.098504   -0.660820    0.268692
  O      0.032557   -1.861516    0.442140
  C      1.013618    0.236859    0.053048
  C      0.847935    1.566958   -0.155401
  N     -0.433050    2.028949   -0.158922
  C     -1.569102    1.272293    0.023965
  O     -2.656267    1.811154   -0.043231
  C      1.918660    2.566895   -0.386006
  Br     2.723405   -0.595935    0.076632
  H     -3.941968   -1.100005   -2.661692
  H     -4.283288    0.064118   -1.379837
  H     -2.712880    0.062543   -2.173931
  H     -3.804926   -2.277001   -0.534247
  H     -2.193296   -2.165555   -1.239841
  H     -4.139715    0.378395    0.888144
  H     -4.251151   -1.191130    1.696211
  H     -3.142261    0.042166    2.301207
  H     -0.602253    3.015426   -0.331369
  H      2.899635    2.105545   -0.333030
  H      1.854588    3.354652    0.361538
  H      1.794023    3.020768   -1.367154

 Total Charge           Charge          ....    0
 Multiplicity           Mult            ....    1
 Number of Electrons    NEL             ....  132
 Basis Dimension        Dim             ....  368

ORBITAL ENERGIES
----------------

  NO   OCC          E(Eh)            E(eV)
   0   2.0000    -482.234691    -13122.2731
   1   2.0000     -62.305924     -1695.4304
   2   2.0000     -56.086487     -1526.1909
   3   2.0000     -56.083705     -1526.1152
   4   2.0000     -56.083555     -1526.1111
   5   2.0000     -18.935967      -515.2739
   6   2.0000     -18.935612      -515.2642
   7   2.0000     -14.228454      -387.1759
   8   2.0000     -14.225519      -387.0961
   9   2.0000     -10.183935      -277.1190
  10   2.0000     -10.155834      -276.3543
  11   2.0000     -10.121196      -275.4117
  12   2.0000     -10.094449      -274.6839
  13   2.0000     -10.075231      -274.1610
  14   2.0000     -10.040286      -273.2101
  15   2.0000     -10.025154      -272.7983
  16   2.0000     -10.013021      -272.4682
  17   2.0000     -10.010048      -272.3872
  18   2.0000      -8.637813      -235.0468
  19   2.0000      -6.445860      -175.4008
  20   2.0000      -6.431577      -175.0121
  21   2.0000      -6.430921      -174.9942
  22   2.0000      -2.543305       -69.2068
  23   2.0000      -2.539807       -69.1117
  24   2.0000      -2.539340       -69.0989
  25   2.0000      -2.528707       -68.8096
  26   2.0000      -2.528688       -68.8091
  27   2.0000      -1.054466       -28.6935
  28   2.0000      -1.023515       -27.8513
  29   2.0000      -0.951648       -25.8957
  30   2.0000      -0.915921       -24.9235
  31   2.0000      -0.807693       -21.9784
  32   2.0000      -0.768167       -20.9029
  33   2.0000      -0.738713       -20.1014
  34   2.0000      -0.701753       -19.0957
  35   2.0000      -0.685278       -18.6474
  36   2.0000      -0.646570       -17.5941
  37   2.0000      -0.618678       -16.8351
  38   2.0000      -0.601398       -16.3649
  39   2.0000      -0.555756       -15.1229
  40   2.0000      -0.545772       -14.8512
  41   2.0000      -0.503213       -13.6931
  42   2.0000      -0.470221       -12.7954
  43   2.0000      -0.445514       -12.1231
  44   2.0000      -0.439984       -11.9726
  45   2.0000      -0.429538       -11.6883
  46   2.0000      -0.417381       -11.3575
  47   2.0000      -0.412146       -11.2151
  48   2.0000      -0.396902       -10.8003
  49   2.0000      -0.393087       -10.6964
  50   2.0000      -0.389496       -10.5987
  51   2.0000      -0.384333       -10.4582
  52   2.0000      -0.371997       -10.1226
  53   2.0000      -0.355112        -9.6631
  54   2.0000      -0.353838        -9.6284
  55   2.0000      -0.348972        -9.4960
  56   2.0000      -0.325995        -8.8708
  57   2.0000      -0.315782        -8.5929
  58   2.0000      -0.307118        -8.3571
  59   2.0000      -0.294298        -8.0083
  60   2.0000      -0.290687        -7.9100
  61   2.0000      -0.270526        -7.3614
  62   2.0000      -0.262450        -7.1416
  63   2.0000      -0.252844        -6.8802
  64   2.0000      -0.244242        -6.6462
  65   2.0000      -0.215240        -5.8570
  66   0.0000      -0.067021        -1.8237
  67   0.0000      -0.030668        -0.8345
  68   0.0000      -0.024891        -0.6773
  69   0.0000       0.056381         1.5342
  70   0.0000       0.077174         2.1000

MULLIKEN ATOMIC CHARGES
-----------------------
   0 C :   -0.533500
   1 C :   -0.304832
   2 C :   -0.061063
   3 H :    0.207469
   4 C :   -0.543760
   5 N :    0.187335
   6 C :    0.207162
   7 O :   -0.503526
   8 C :   -0.163700
   9 C :    0.251792
  10 N :   -0.020325
  11 C :    0.230086
  12 O :   -0.517438
  13 C :   -0.616583
  14 Br:   -0.111936
  15 H :    0.161293
  16 H :    0.171359
  17 H :    0.159239
  18 H :    0.170996
  19 H :    0.166195
  20 H :    0.187166
  21 H :    0.170722
  22 H :    0.171530
  23 H :    0.336398
  24 H :    0.181073
  25 H :    0.207073
  26 H :    0.209774
Sum of atomic charges:    0.0000000

LOEWDIN ATOMIC CHARGES
----------------------
   0 C :   -0.416159
   1 C :   -0.262767
   2 C :    0.044782
   3 H :    0.222645
   4 C :   -0.369412
   5 N :   -0.607680
   6 C :    0.357898
   7 O :   -0.540890
   8 C :   -0.205515
   9 C :    0.182760
  10 N :   -0.480106
  11 C :    0.464802
  12 O :   -0.473023
  13 C :   -0.344595
  14 Br:    0.235821
  15 H :    0.154527
  16 H :    0.158398
  17 H :    0.158796
  18 H :    0.167692
  19 H :    0.166311
  20 H :    0.176253
  21 H :    0.164340
  22 H :    0.167223
  23 H :    0.317385
  24 H :    0.175979
  25 H :    0.191874
  26 H :    0.192659

  Mayer bond orders larger than 0.100000
B(  0-C ,  1-C ) :   0.8542 B(  0-C , 15-H ) :   0.9596 B(  0-C , 16-H ) :   0.9883
B(  0-C , 17-H ) :   0.9717 B(  1-C ,  2-C ) :   0.9224 B(  1-C , 18-H ) :   0.9825
B(  1-C , 19-H ) :   0.9658 B(  2-C ,  3-H ) :   0.9506 B(  2-C ,  4-C ) :   0.8593
B(  2-C ,  5-N ) :   0.8203 B(  4-C , 20-H ) :   0.9726 B(  4-C , 21-H ) :   0.9599
B(  4-C , 22-H ) :   0.9789 B(  5-N ,  6-C ) :   1.0958 B(  5-N , 11-C ) :   1.1721
B(  6-C ,  7-O ) :   1.8737 B(  6-C ,  8-C ) :   0.9855 B(  8-C ,  9-C ) :   1.4453
B(  8-C , 14-Br) :   1.1312 B(  9-C , 10-N ) :   1.1636 B(  9-C , 13-C ) :   0.8581
B( 10-N , 11-C ) :   1.0483 B( 10-N , 23-H ) :   0.8807 B( 11-C , 12-O ) :   1.8212
B( 13-C , 24-H ) :   0.9666 B( 13-C , 25-H ) :   0.9478 B( 13-C , 26-H ) :   0.9451

Dispersion correction           -0.011541468
FINAL SINGLE POINT ENERGY     -3184.799886064841

DIPOLE MOMENT
-------------

Method             : SCF
Type of density    : Electron Density
Multiplicity       :   1
Irrep              :   0
Energy             : -3184.8098575840754165 Eh
Relativity type    :
Basis              : AO
                                X                 Y                 Z
Electronic contribution:     48.842576610      -6.577907133       3.805936230
Nuclear contribution   :    -48.364291976       8.824762579      -4.168052352
                        -----------------------------------------
Total Dipole Moment    :      0.478284634       2.246855446      -0.362116121
                        -----------------------------------------
Magnitude (a.u.)       :      2.325563087
Magnitude (Debye)      :      5.911111604

Rotational constants in cm-1:             0.031515             0.010891             0.009019
Rotational constants in MHz :           944.790076           326.500753           270.396832

                             ****ORCA TERMINATED NORMALLY****
TOTAL RUN TIME: 0 days 0 hours 1 minutes 43 seconds 772 msec
