                         Program Version 6.0.0  -   RELEASE  -
|  1> ! pbe def2-sv(p) def2/J RI DEFGRID1 loosescf d4 GCP(DFT/SV(P)) printgap
|  2> %output
|  3>     printlevel normal
|  4> end
|  5> * xyz 0 1
|  6> C 2.8179494745 -0.1962732959 0.2006781574
|  7> C 1.4854534186 0.2915478121 -0.3543607186
|  8> C 0.3171015636 -0.5571312169 0.1428237378
|  9> C -1.0366514873 -0.009013976 -0.3268991788
| 10> H -1.0188237524 0.1130300748 -1.4162537947
| 11> C -2.1758366278 -0.9518910395 0.0623438445
| 12> O -1.2656952385 1.3013404779 0.1623152573
| 13> H 2.8213362806 -0.1460570964 1.287176737
| 14> H 3.6332763494 0.417351422 -0.1738739866
| 15> H 2.9983639612 -1.2272146282 -0.0955524267
| 16> H 1.3196215282 1.3303782012 -0.0612208294
| 17> H 1.5101474089 0.2599137546 -1.4459338694
| 18> H 0.4250609374 -1.5797822594 -0.2213169739
| 19> H 0.3284770773 -0.5857037505 1.235497379
| 20> H -3.12998703 -0.515901601 -0.2230714591
| 21> H -2.0603470264 -1.9056618467 -0.443313786
| 22> H -2.1746092402 -1.1229972135 1.1368960925
| 23> H -1.3400052127 1.2600198137 1.1264463516
| 24> *
| 25>
| 26>                          ****END OF INPUT****

CARTESIAN COORDINATES (ANGSTROEM)
---------------------------------
  C      2.817949   -0.196273    0.200678
  C      1.485453    0.291548   -0.354361
  C      0.317102   -0.557131    0.142824
  C     -1.036651   -0.009014   -0.326899
  H     -1.018824    0.113030   -1.416254
  C     -2.175837   -0.951891    0.062344
  O     -1.265695    1.301340    0.162315
  H      2.821336   -0.146057    1.287177
  H      3.633276    0.417351   -0.173874
  H      2.998364   -1.227215   -0.095552
  H      1.319622    1.330378   -0.061221
  H      1.510147    0.259914   -1.445934
  H      0.425061   -1.579782   -0.221317
  H      0.328477   -0.585704    1.235497
  H     -3.129987   -0.515902   -0.223071
  H     -2.060347   -1.905662   -0.443314
  H     -2.174609   -1.122997    1.136896
  H     -1.340005    1.260020    1.126446

 Total Charge           Charge          ....    0
 Multiplicity           Mult            ....    1
 Number of Electrons    NEL             ....   50
 Basis Dimension        Dim             ....  108

ORBITAL ENERGIES
----------------

  NO   OCC          E(Eh)            E(eV)
   0   2.0000     -18.738227      -509.8931
   1   2.0000      -9.934008      -270.3181
   2   2.0000      -9.881248      -268.8824
   3   2.0000      -9.878411      -268.8052
   4   2.0000      -9.874310      -268.6936
   5   2.0000      -9.870998      -268.6035
   6   2.0000      -0.916676       -24.9440
   7   2.0000      -0.714492       -19.4423
   8   2.0000      -0.669417       -18.2158
   9   2.0000      -0.607608       -16.5339
  10   2.0000      -0.541935       -14.7468
  11   2.0000      -0.520423       -14.1614
  12   2.0000      -0.433900       -11.8070
  13   2.0000      -0.421384       -11.4665
  14   2.0000      -0.394566       -10.7367
  15   2.0000      -0.382502       -10.4084
  16   2.0000      -0.361408        -9.8344
  17   2.0000      -0.349035        -9.4977
  18   2.0000      -0.340298        -9.2600
  19   2.0000      -0.316203        -8.6043
  20   2.0000      -0.302934        -8.2433
  21   2.0000      -0.286034        -7.7834
  22   2.0000      -0.284382        -7.7384
  23   2.0000      -0.263835        -7.1793
  24   2.0000      -0.211190        -5.7468
  25   0.0000       0.025741         0.7005
  26   0.0000       0.051275         1.3953
  27   0.0000       0.058650         1.5960
  28   0.0000       0.077958         2.1213
  29   0.0000       0.090113         2.4521

MULLIKEN ATOMIC CHARGES
-----------------------
   0 C :   -0.253291
   1 C :   -0.173053
   2 C :   -0.178978
   3 C :    0.028108
   4 H :    0.067089
   5 C :   -0.234611
   6 O :   -0.429506
   7 H :    0.094190
   8 H :    0.101919
   9 H :    0.093826
  10 H :    0.087384
  11 H :    0.080856
  12 H :    0.077025
  13 H :    0.060902
  14 H :    0.109359
  15 H :    0.096786
  16 H :    0.083100
  17 H :    0.288894
Sum of atomic charges:   -0.0000000

LOEWDIN ATOMIC CHARGES
----------------------
   0 C :   -0.340005
   1 C :   -0.236282
   2 C :   -0.239891
   3 C :   -0.058742
   4 H :    0.112056
   5 C :   -0.352114
   6 O :   -0.326900
   7 H :    0.115054
   8 H :    0.118698
   9 H :    0.114829
  10 H :    0.115945
  11 H :    0.114401
  12 H :    0.117236
  13 H :    0.108310
  14 H :    0.122368
  15 H :    0.123028
  16 H :    0.113343
  17 H :    0.278665

  Mayer bond orders larger than 0.100000
B(  0-C ,  1-C ) :   1.1542 B(  0-C ,  7-H ) :   0.9547 B(  0-C ,  8-H ) :   0.9535
B(  0-C ,  9-H ) :   0.9538 B(  1-C ,  2-C ) :   1.1346 B(  1-C , 10-H ) :   0.9175
B(  1-C , 11-H ) :   0.9261 B(  2-C ,  3-C ) :   1.0641 B(  2-C , 12-H ) :   0.9127
B(  2-C , 13-H ) :   0.9092 B(  3-C ,  4-H ) :   0.9004 B(  3-C ,  5-C ) :   1.1185
B(  3-C ,  6-O ) :   1.0268 B(  5-C , 14-H ) :   0.9462 B(  5-C , 15-H ) :   0.9393
B(  5-C , 16-H ) :   0.9417 B(  6-O , 17-H ) :   0.8545

Dispersion correction           -0.012222507
FINAL SINGLE POINT ENERGY      -272.306528655736

DIPOLE MOMENT
-------------

Method             : SCF
Type of density    : Electron Density
Multiplicity       :   1
Irrep              :   0
Energy             :  -272.3766424990030828 Eh
Relativity type    :
Basis              : AO
                                X                 Y                 Z
Electronic contribution:     -3.075747415       3.023517040      -0.318997777
Nuclear contribution   :      3.088894113      -3.454355745       0.664263977
                        -----------------------------------------
Total Dipole Moment    :      0.013146698      -0.430838705       0.345266200
                        -----------------------------------------
Magnitude (a.u.)       :      0.552271286
Magnitude (Debye)      :      1.403762051

Rotational constants in cm-1:             0.238500             0.058280             0.050862
Rotational constants in MHz :          7150.062829          1747.186984          1524.819184

                             ****ORCA TERMINATED NORMALLY****
TOTAL RUN TIME: 0 days 0 hours 0 minutes 7 seconds 863 msec
