                         Program Version 6.0.0  -   RELEASE  -
|  1> ! pbe def2-sv(p) def2/J RI DEFGRID1 loosescf d4 GCP(DFT/SV(P)) printgap
|  2> %output
|  3>     printlevel normal
|  4> end
|  5> * xyz 0 1
|  6> C -0.4617453176 2.3494002228 -0.3603797522
|  7> N -0.1454945657 1.0136943488 -0.8270077946
|  8> C -1.2822842399 0.1874824818 -1.1167951229
|  9> C -1.9601160604 -0.3909805329 0.1331390172
| 10> F -2.5365416599 0.5426902942 0.9126887216
| 11> F -2.9446717773 -1.2543533154 -0.1937908971
| 12> F -1.1175345503 -1.0694597862 0.9299485849
| 13> C 1.0380686203 0.4100624267 -0.3893395286
| 14> C 1.4878028846 -0.780888 -0.9680896555
| 15> C 2.6844603406 -1.350443149 -0.5822570004
| 16> C 3.4732549871 -0.7523513556 0.3861161467
| 17> C 3.0431752137 0.4292187055 0.9614029934
| 18> C 1.8439277749 1.0049978405 0.5837610903
| 19> H -1.2862298553 2.7355811756 -0.9564495085
| 20> H 0.4032318134 2.9897015202 -0.5180629407
| 21> H -0.7503991502 2.3851406007 0.695899446
| 22> H -2.040604638 0.77187086 -1.6444643256
| 23> H -1.0043369582 -0.6669159089 -1.7358419822
| 24> H 0.9140858151 -1.2695658189 -1.7395215742
| 25> H 3.0057666838 -2.2702128432 -1.0481692578
| 26> H 4.4071672621 -1.2014755017 0.6863047419
| 27> H 3.6417143731 0.9097146862 1.7213338566
| 28> H 1.5363633322 1.916206616 1.0687711839
| 29> *
| 30>
| 31>                          ****END OF INPUT****

CARTESIAN COORDINATES (ANGSTROEM)
---------------------------------
  C     -0.461745    2.349400   -0.360380
  N     -0.145495    1.013694   -0.827008
  C     -1.282284    0.187482   -1.116795
  C     -1.960116   -0.390981    0.133139
  F     -2.536542    0.542690    0.912689
  F     -2.944672   -1.254353   -0.193791
  F     -1.117535   -1.069460    0.929949
  C      1.038069    0.410062   -0.389340
  C      1.487803   -0.780888   -0.968090
  C      2.684460   -1.350443   -0.582257
  C      3.473255   -0.752351    0.386116
  C      3.043175    0.429219    0.961403
  C      1.843928    1.004998    0.583761
  H     -1.286230    2.735581   -0.956450
  H      0.403232    2.989702   -0.518063
  H     -0.750399    2.385141    0.695899
  H     -2.040605    0.771871   -1.644464
  H     -1.004337   -0.666916   -1.735842
  H      0.914086   -1.269566   -1.739522
  H      3.005767   -2.270213   -1.048169
  H      4.407167   -1.201476    0.686305
  H      3.641714    0.909715    1.721334
  H      1.536363    1.916207    1.068771

 Total Charge           Charge          ....    0
 Multiplicity           Mult            ....    1
 Number of Electrons    NEL             ....   98
 Basis Dimension        Dim             ....  202

ORBITAL ENERGIES
----------------

  NO   OCC          E(Eh)            E(eV)
   0   2.0000     -24.287758      -660.9035
   1   2.0000     -24.285004      -660.8286
   2   2.0000     -24.283953      -660.8000
   3   2.0000     -14.027238      -381.7005
   4   2.0000     -10.122335      -275.4427
   5   2.0000      -9.951419      -270.7919
   6   2.0000      -9.931479      -270.2493
   7   2.0000      -9.922067      -269.9932
   8   2.0000      -9.889378      -269.1036
   9   2.0000      -9.889334      -269.1024
  10   2.0000      -9.885857      -269.0078
  11   2.0000      -9.885093      -268.9871
  12   2.0000      -9.882345      -268.9123
  13   2.0000      -1.189207       -32.3600
  14   2.0000      -1.096539       -29.8383
  15   2.0000      -1.094386       -29.7798
  16   2.0000      -0.879202       -23.9243
  17   2.0000      -0.768037       -20.8994
  18   2.0000      -0.704899       -19.1813
  19   2.0000      -0.675967       -18.3940
  20   2.0000      -0.663835       -18.0639
  21   2.0000      -0.618158       -16.8209
  22   2.0000      -0.591210       -16.0876
  23   2.0000      -0.543837       -14.7985
  24   2.0000      -0.534349       -14.5404
  25   2.0000      -0.525341       -14.2952
  26   2.0000      -0.521664       -14.1952
  27   2.0000      -0.497678       -13.5425
  28   2.0000      -0.477681       -12.9984
  29   2.0000      -0.443283       -12.0623
  30   2.0000      -0.431463       -11.7407
  31   2.0000      -0.409247       -11.1362
  32   2.0000      -0.402635       -10.9562
  33   2.0000      -0.396996       -10.8028
  34   2.0000      -0.396049       -10.7770
  35   2.0000      -0.383319       -10.4306
  36   2.0000      -0.373728       -10.1697
  37   2.0000      -0.370180       -10.0731
  38   2.0000      -0.355796        -9.6817
  39   2.0000      -0.351280        -9.5588
  40   2.0000      -0.346893        -9.4394
  41   2.0000      -0.339891        -9.2489
  42   2.0000      -0.335978        -9.1424
  43   2.0000      -0.329513        -8.9665
  44   2.0000      -0.313119        -8.5204
  45   2.0000      -0.297397        -8.0926
  46   2.0000      -0.256002        -6.9662
  47   2.0000      -0.225726        -6.1423
  48   2.0000      -0.177061        -4.8181
  49   0.0000      -0.031678        -0.8620
  50   0.0000      -0.020536        -0.5588
  51   0.0000       0.029570         0.8046
  52   0.0000       0.043010         1.1704
  53   0.0000       0.059101         1.6082

MULLIKEN ATOMIC CHARGES
-----------------------
   0 C :   -0.177093
   1 N :   -0.249369
   2 C :   -0.122858
   3 C :    0.375652
   4 F :   -0.141446
   5 F :   -0.144927
   6 F :   -0.128546
   7 C :    0.243199
   8 C :   -0.149373
   9 C :   -0.057560
  10 C :   -0.046537
  11 C :   -0.052707
  12 C :   -0.160766
  13 H :    0.111123
  14 H :    0.124011
  15 H :    0.115052
  16 H :    0.117890
  17 H :    0.135244
  18 H :    0.031283
  19 H :    0.048919
  20 H :    0.046374
  21 H :    0.049077
  22 H :    0.033356
Sum of atomic charges:   -0.0000000

LOEWDIN ATOMIC CHARGES
----------------------
   0 C :   -0.255746
   1 N :   -0.067729
   2 C :   -0.185422
   3 C :    0.102976
   4 F :   -0.050602
   5 F :   -0.056218
   6 F :   -0.039980
   7 C :    0.003657
   8 C :   -0.149504
   9 C :   -0.116141
  10 C :   -0.148435
  11 C :   -0.114713
  12 C :   -0.160936
  13 H :    0.120470
  14 H :    0.124309
  15 H :    0.107632
  16 H :    0.136123
  17 H :    0.137442
  18 H :    0.120563
  19 H :    0.122965
  20 H :    0.121440
  21 H :    0.122900
  22 H :    0.124947

  Mayer bond orders larger than 0.100000
B(  0-C ,  1-N ) :   1.0356 B(  0-C , 13-H ) :   0.9447 B(  0-C , 14-H ) :   0.9423
B(  0-C , 15-H ) :   0.9315 B(  1-N ,  2-C ) :   1.0759 B(  1-N ,  7-C ) :   1.0648
B(  2-C ,  3-C ) :   1.0101 B(  2-C , 16-H ) :   0.9003 B(  2-C , 17-H ) :   0.8872
B(  3-C ,  4-F ) :   1.1526 B(  3-C ,  5-F ) :   1.1476 B(  3-C ,  6-F ) :   1.1696
B(  7-C ,  8-C ) :   1.3256 B(  7-C , 12-C ) :   1.3413 B(  8-C ,  9-C ) :   1.4114
B(  8-C , 18-H ) :   0.9547 B(  9-C , 10-C ) :   1.3565 B(  9-C , 19-H ) :   0.9589
B( 10-C , 11-C ) :   1.3816 B( 10-C , 20-H ) :   0.9677 B( 11-C , 12-C ) :   1.3649
B( 11-C , 21-H ) :   0.9606 B( 12-C , 22-H ) :   0.9567

Dispersion correction           -0.026026495
FINAL SINGLE POINT ENERGY      -701.829669707179

DIPOLE MOMENT
-------------

Method             : SCF
Type of density    : Electron Density
Multiplicity       :   1
Irrep              :   0
Energy             :  -701.9218709779595429 Eh
Relativity type    :
Basis              : AO
                                X                 Y                 Z
Electronic contribution:    -14.467075095      -7.052390503       4.255426463
Nuclear contribution   :     14.394097039       7.566348999      -4.787882253
                        -----------------------------------------
Total Dipole Moment    :     -0.072978056       0.513958495      -0.532455790
                        -----------------------------------------
Magnitude (a.u.)       :      0.743631831
Magnitude (Debye)      :      1.890161900

Rotational constants in cm-1:             0.049823             0.017468             0.015550
Rotational constants in MHz :          1493.647873           523.689069           466.179412

                             ****ORCA TERMINATED NORMALLY****
TOTAL RUN TIME: 0 days 0 hours 0 minutes 15 seconds 199 msec
