                         Program Version 6.0.0  -   RELEASE  -
|  1> ! r2scan-3c def2/J RI DEFGRID2 scfconv6 printgap
|  2> %output
|  3>     printlevel normal
|  4> end
|  5> * xyz 0 1
|  6> C 1.6631524838 -0.7755520696 0.4916042377
|  7> C 1.3632614271 0.5493873693 -0.1992137232
|  8> C -0.0300685324 0.6195706387 -0.8281031149
|  9> C -1.1832641831 0.5522871914 0.1841465768
| 10> C -1.8035701576 -0.8366897782 0.2996427005
| 11> H 1.5155357785 -1.605376815 -0.196111242
| 12> H 1.0188531366 -0.9183877623 1.3548185731
| 13> H 2.6954370683 -0.7942718415 0.8343206299
| 14> H 1.4709341025 1.3638693586 0.5212406873
| 15> H 2.102573351 0.7100863343 -0.9880074551
| 16> H -0.1374044611 -0.1901534121 -1.5527271992
| 17> H -0.0944729355 1.5599236727 -1.3802498079
| 18> H -0.8253191913 0.8751033736 1.1637955936
| 19> H -1.9674598606 1.2498806041 -0.1182543052
| 20> H -2.2218514737 -1.1432861399 -0.6568217233
| 21> H -2.6046040306 -0.8320532311 1.0358695439
| 22> H -1.0655631592 -1.5743114773 0.6008895143
| 23> *
| 24>
| 25>                          ****END OF INPUT****

CARTESIAN COORDINATES (ANGSTROEM)
---------------------------------
  C      1.663152   -0.775552    0.491604
  C      1.363261    0.549387   -0.199214
  C     -0.030069    0.619571   -0.828103
  C     -1.183264    0.552287    0.184147
  C     -1.803570   -0.836690    0.299643
  H      1.515536   -1.605377   -0.196111
  H      1.018853   -0.918388    1.354819
  H      2.695437   -0.794272    0.834321
  H      1.470934    1.363869    0.521241
  H      2.102573    0.710086   -0.988007
  H     -0.137404   -0.190153   -1.552727
  H     -0.094473    1.559924   -1.380250
  H     -0.825319    0.875103    1.163796
  H     -1.967460    1.249881   -0.118254
  H     -2.221851   -1.143286   -0.656822
  H     -2.604604   -0.832053    1.035870
  H     -1.065563   -1.574311    0.600890

 Total Charge           Charge          ....    0
 Multiplicity           Mult            ....    1
 Number of Electrons    NEL             ....   42
 Basis Dimension        Dim             ....  155

ORBITAL ENERGIES
----------------

  NO   OCC          E(Eh)            E(eV)
   0   2.0000     -10.021527      -272.6996
   1   2.0000     -10.020969      -272.6844
   2   2.0000     -10.018662      -272.6216
   3   2.0000     -10.013403      -272.4785
   4   2.0000     -10.012511      -272.4543
   5   2.0000      -0.766848       -20.8670
   6   2.0000      -0.711618       -19.3641
   7   2.0000      -0.644753       -17.5446
   8   2.0000      -0.572110       -15.5679
   9   2.0000      -0.528137       -14.3713
  10   2.0000      -0.434494       -11.8232
  11   2.0000      -0.416409       -11.3311
  12   2.0000      -0.400862       -10.9080
  13   2.0000      -0.373402       -10.1608
  14   2.0000      -0.358828        -9.7642
  15   2.0000      -0.338116        -9.2006
  16   2.0000      -0.326297        -8.8790
  17   2.0000      -0.313018        -8.5176
  18   2.0000      -0.290861        -7.9147
  19   2.0000      -0.281330        -7.6554
  20   2.0000      -0.275997        -7.5103
  21   0.0000       0.090142         2.4529
  22   0.0000       0.109068         2.9679
  23   0.0000       0.120990         3.2923
  24   0.0000       0.126247         3.4354
  25   0.0000       0.136546         3.7156

MULLIKEN ATOMIC CHARGES
-----------------------
   0 C :   -0.488497
   1 C :   -0.269652
   2 C :   -0.233009
   3 C :   -0.244352
   4 C :   -0.488628
   5 H :    0.147969
   6 H :    0.149819
   7 H :    0.145048
   8 H :    0.143892
   9 H :    0.136895
  10 H :    0.139569
  11 H :    0.142312
  12 H :    0.140360
  13 H :    0.138837
  14 H :    0.146946
  15 H :    0.142772
  16 H :    0.149719
Sum of atomic charges:   -0.0000000

LOEWDIN ATOMIC CHARGES
----------------------
   0 C :   -0.429449
   1 C :   -0.316783
   2 C :   -0.314707
   3 C :   -0.321063
   4 C :   -0.427601
   5 H :    0.149728
   6 H :    0.149209
   7 H :    0.149864
   8 H :    0.149985
   9 H :    0.150491
  10 H :    0.153982
  11 H :    0.154487
  12 H :    0.151930
  13 H :    0.152093
  14 H :    0.148423
  15 H :    0.149238
  16 H :    0.150175

  Mayer bond orders larger than 0.100000
B(  0-C ,  1-C ) :   0.8808 B(  0-C ,  5-H ) :   0.9798 B(  0-C ,  6-H ) :   0.9783
B(  0-C ,  7-H ) :   0.9690 B(  1-C ,  2-C ) :   0.9052 B(  1-C ,  8-H ) :   0.9953
B(  1-C ,  9-H ) :   0.9720 B(  2-C ,  3-C ) :   0.8427 B(  2-C , 10-H ) :   0.9846
B(  2-C , 11-H ) :   0.9698 B(  3-C ,  4-C ) :   0.9056 B(  3-C , 12-H ) :   0.9777
B(  3-C , 13-H ) :   0.9662 B(  4-C , 14-H ) :   0.9870 B(  4-C , 15-H ) :   0.9742
B(  4-C , 16-H ) :   0.9743

Dispersion correction           -0.003859819
FINAL SINGLE POINT ENERGY      -197.683553096830

DIPOLE MOMENT
-------------

Method             : SCF
Type of density    : Electron Density
Multiplicity       :   1
Irrep              :   0
Energy             :  -197.6877087607818737 Eh
Relativity type    :
Basis              : AO
                                X                 Y                 Z
Electronic contribution:      0.116984809       1.265152999      -0.596694878
Nuclear contribution   :     -0.106332718      -1.218649633       0.580499020
                        -----------------------------------------
Total Dipole Moment    :      0.010652090       0.046503366      -0.016195858
                        -----------------------------------------
Magnitude (a.u.)       :      0.050381900
Magnitude (Debye)      :      0.128060613

Rotational constants in cm-1:             0.249332             0.104882             0.084221
Rotational constants in MHz :          7474.787470          3144.279337          2524.877533

                             ****ORCA TERMINATED NORMALLY****
TOTAL RUN TIME: 0 days 0 hours 0 minutes 12 seconds 443 msec
