                         Program Version 6.0.0  -   RELEASE  -
|  1> ! r2scan-3c def2/J RI DEFGRID2 scfconv6 printgap
|  2> %output
|  3>     printlevel normal
|  4> end
|  5> %cpcm
|  6>     smd true
|  7>     smdsolvent "water"
|  8> end
|  9> * xyz 0 1
| 10> C 1.6631524838 -0.7755520696 0.4916042377
| 11> C 1.3632614271 0.5493873693 -0.1992137232
| 12> C -0.0300685324 0.6195706387 -0.8281031149
| 13> C -1.1832641831 0.5522871914 0.1841465768
| 14> C -1.8035701576 -0.8366897782 0.2996427005
| 15> H 1.5155357785 -1.605376815 -0.196111242
| 16> H 1.0188531366 -0.9183877623 1.3548185731
| 17> H 2.6954370683 -0.7942718415 0.8343206299
| 18> H 1.4709341025 1.3638693586 0.5212406873
| 19> H 2.102573351 0.7100863343 -0.9880074551
| 20> H -0.1374044611 -0.1901534121 -1.5527271992
| 21> H -0.0944729355 1.5599236727 -1.3802498079
| 22> H -0.8253191913 0.8751033736 1.1637955936
| 23> H -1.9674598606 1.2498806041 -0.1182543052
| 24> H -2.2218514737 -1.1432861399 -0.6568217233
| 25> H -2.6046040306 -0.8320532311 1.0358695439
| 26> H -1.0655631592 -1.5743114773 0.6008895143
| 27> *
| 28>
| 29>                          ****END OF INPUT****

CARTESIAN COORDINATES (ANGSTROEM)
---------------------------------
  C      1.663152   -0.775552    0.491604
  C      1.363261    0.549387   -0.199214
  C     -0.030069    0.619571   -0.828103
  C     -1.183264    0.552287    0.184147
  C     -1.803570   -0.836690    0.299643
  H      1.515536   -1.605377   -0.196111
  H      1.018853   -0.918388    1.354819
  H      2.695437   -0.794272    0.834321
  H      1.470934    1.363869    0.521241
  H      2.102573    0.710086   -0.988007
  H     -0.137404   -0.190153   -1.552727
  H     -0.094473    1.559924   -1.380250
  H     -0.825319    0.875103    1.163796
  H     -1.967460    1.249881   -0.118254
  H     -2.221851   -1.143286   -0.656822
  H     -2.604604   -0.832053    1.035870
  H     -1.065563   -1.574311    0.600890

 Total Charge           Charge          ....    0
 Multiplicity           Mult            ....    1
 Number of Electrons    NEL             ....   42
 Basis Dimension        Dim             ....  155

ORBITAL ENERGIES
----------------

  NO   OCC          E(Eh)            E(eV)
   0   2.0000     -10.014384      -272.5053
   1   2.0000     -10.013916      -272.4925
   2   2.0000     -10.011538      -272.4278
   3   2.0000     -10.005901      -272.2744
   4   2.0000     -10.005878      -272.2738
   5   2.0000      -0.759947       -20.6792
   6   2.0000      -0.704958       -19.1829
   7   2.0000      -0.638207       -17.3665
   8   2.0000      -0.565649       -15.3921
   9   2.0000      -0.521375       -14.1873
  10   2.0000      -0.427408       -11.6304
  11   2.0000      -0.409414       -11.1407
  12   2.0000      -0.394126       -10.7247
  13   2.0000      -0.366598        -9.9756
  14   2.0000      -0.352068        -9.5802
  15   2.0000      -0.331130        -9.0105
  16   2.0000      -0.319652        -8.6982
  17   2.0000      -0.306045        -8.3279
  18   2.0000      -0.283591        -7.7169
  19   2.0000      -0.274467        -7.4686
  20   2.0000      -0.268953        -7.3186
  21   0.0000       0.097558         2.6547
  22   0.0000       0.115308         3.1377
  23   0.0000       0.127913         3.4807
  24   0.0000       0.132826         3.6144
  25   0.0000       0.141506         3.8506

MULLIKEN ATOMIC CHARGES
-----------------------
   0 C :   -0.519822
   1 C :   -0.278849
   2 C :   -0.251342
   3 C :   -0.253017
   4 C :   -0.523804
   5 H :    0.156785
   6 H :    0.160449
   7 H :    0.153645
   8 H :    0.151026
   9 H :    0.143833
  10 H :    0.148017
  11 H :    0.150103
  12 H :    0.149240
  13 H :    0.146981
  14 H :    0.157046
  15 H :    0.151601
  16 H :    0.158110
Sum of atomic charges:   -0.0000000

LOEWDIN ATOMIC CHARGES
----------------------
   0 C :   -0.436887
   1 C :   -0.319288
   2 C :   -0.317968
   3 C :   -0.323618
   4 C :   -0.435508
   5 H :    0.151980
   6 H :    0.152250
   7 H :    0.151414
   8 H :    0.151884
   9 H :    0.151819
  10 H :    0.155886
  11 H :    0.156049
  12 H :    0.154421
  13 H :    0.153716
  14 H :    0.150706
  15 H :    0.151069
  16 H :    0.152073

  Mayer bond orders larger than 0.100000
B(  0-C ,  1-C ) :   0.8762 B(  0-C ,  5-H ) :   0.9771 B(  0-C ,  6-H ) :   0.9754
B(  0-C ,  7-H ) :   0.9671 B(  1-C ,  2-C ) :   0.9005 B(  1-C ,  8-H ) :   0.9939
B(  1-C ,  9-H ) :   0.9724 B(  2-C ,  3-C ) :   0.8371 B(  2-C , 10-H ) :   0.9844
B(  2-C , 11-H ) :   0.9701 B(  3-C ,  4-C ) :   0.8972 B(  3-C , 12-H ) :   0.9772
B(  3-C , 13-H ) :   0.9669 B(  4-C , 14-H ) :   0.9838 B(  4-C , 15-H ) :   0.9722
B(  4-C , 16-H ) :   0.9732

Dispersion correction           -0.003859819
FINAL SINGLE POINT ENERGY      -197.680640500632

DIPOLE MOMENT
-------------

Method             : SCF
Type of density    : Electron Density
Multiplicity       :   1
Irrep              :   0
Energy             :  -197.6847961645840996 Eh
Relativity type    :
Basis              : AO
                                X                 Y                 Z
Electronic contribution:      0.115969751       1.273266787      -0.594513350
Nuclear contribution   :     -0.106332718      -1.218649633       0.580499020
                        -----------------------------------------
Total Dipole Moment    :      0.009637033       0.054617154      -0.014014330
                        -----------------------------------------
Magnitude (a.u.)       :      0.057204085
Magnitude (Debye)      :      0.145401229

Rotational constants in cm-1:             0.249332             0.104882             0.084221
Rotational constants in MHz :          7474.787470          3144.279337          2524.877533

                             ****ORCA TERMINATED NORMALLY****
TOTAL RUN TIME: 0 days 0 hours 0 minutes 15 seconds 893 msec
