                         Program Version 6.0.0  -   RELEASE  -
|  1> ! r2scan-3c def2/J RI DEFGRID2 scfconv6 printgap
|  2> %output
|  3>     printlevel normal
|  4> end
|  5> * xyz 0 1
|  6> C 1.7613306959 1.1322365576 0.3054207008
|  7> C 1.1225765293 0.1105372906 -0.6356243685
|  8> C 2.32659e-05 -0.6699481969 6.5701e-06
|  9> O -0.0005580351 -1.88775037 -0.0007185948
| 10> C -1.1218618405 0.1109169636 0.6363359916
| 11> C -1.7614501509 1.1315758446 -0.3053140519
| 12> H 2.1118647806 0.6441418873 1.2116944207
| 13> H 2.6139630001 1.5923432312 -0.1864843317
| 14> H 1.0597454805 1.9144361678 0.5778166085
| 15> H 0.7184174771 0.6214482091 -1.5116670084
| 16> H 1.8733313952 -0.605263443 -0.9763060203
| 17> H -0.7170373417 0.622802767 1.5114811259
| 18> H -1.8723118726 -0.6046239563 0.9782236846
| 19> H -2.6135080183 1.5924126987 0.1868702868
| 20> H -2.1129572312 0.6423869105 -1.2106198528
| 21> H -1.0600198927 1.913314059 -0.5794313127
| 22> *
| 23>
| 24>                          ****END OF INPUT****

CARTESIAN COORDINATES (ANGSTROEM)
---------------------------------
  C      1.761331    1.132237    0.305421
  C      1.122577    0.110537   -0.635624
  C      0.000023   -0.669948    0.000007
  O     -0.000558   -1.887750   -0.000719
  C     -1.121862    0.110917    0.636336
  C     -1.761450    1.131576   -0.305314
  H      2.111865    0.644142    1.211694
  H      2.613963    1.592343   -0.186484
  H      1.059745    1.914436    0.577817
  H      0.718417    0.621448   -1.511667
  H      1.873331   -0.605263   -0.976306
  H     -0.717037    0.622803    1.511481
  H     -1.872312   -0.604624    0.978224
  H     -2.613508    1.592413    0.186870
  H     -2.112957    0.642387   -1.210620
  H     -1.060020    1.913314   -0.579431

 Total Charge           Charge          ....    0
 Multiplicity           Mult            ....    1
 Number of Electrons    NEL             ....   48
 Basis Dimension        Dim             ....  169

ORBITAL ENERGIES
----------------

  NO   OCC          E(Eh)            E(eV)
   0   2.0000     -18.934190      -515.2255
   1   2.0000     -10.113808      -275.2107
   2   2.0000     -10.039437      -273.1870
   3   2.0000     -10.039431      -273.1868
   4   2.0000     -10.036380      -273.1038
   5   2.0000     -10.036373      -273.1036
   6   2.0000      -0.999131       -27.1877
   7   2.0000      -0.772823       -21.0296
   8   2.0000      -0.734685       -19.9918
   9   2.0000      -0.632505       -17.2113
  10   2.0000      -0.610104       -16.6018
  11   2.0000      -0.495482       -13.4827
  12   2.0000      -0.452443       -12.3116
  13   2.0000      -0.444091       -12.0843
  14   2.0000      -0.403225       -10.9723
  15   2.0000      -0.402180       -10.9439
  16   2.0000      -0.390715       -10.6319
  17   2.0000      -0.356963        -9.7135
  18   2.0000      -0.354218        -9.6387
  19   2.0000      -0.349483        -9.5099
  20   2.0000      -0.324811        -8.8385
  21   2.0000      -0.319998        -8.7076
  22   2.0000      -0.313245        -8.5238
  23   2.0000      -0.207567        -5.6482
  24   0.0000      -0.044894        -1.2216
  25   0.0000       0.067988         1.8501
  26   0.0000       0.105484         2.8704
  27   0.0000       0.114328         3.1110
  28   0.0000       0.128953         3.5090

MULLIKEN ATOMIC CHARGES
-----------------------
   0 C :   -0.479301
   1 C :   -0.258772
   2 C :    0.237491
   3 O :   -0.342400
   4 C :   -0.258663
   5 C :   -0.479278
   6 H :    0.159655
   7 H :    0.153855
   8 H :    0.147642
   9 H :    0.159320
  10 H :    0.170018
  11 H :    0.159268
  12 H :    0.170001
  13 H :    0.153868
  14 H :    0.159656
  15 H :    0.147641
Sum of atomic charges:    0.0000000

LOEWDIN ATOMIC CHARGES
----------------------
   0 C :   -0.406539
   1 C :   -0.284833
   2 C :    0.220027
   3 O :   -0.463837
   4 C :   -0.284822
   5 C :   -0.406468
   6 H :    0.156650
   7 H :    0.156033
   8 H :    0.150856
   9 H :    0.172698
  10 H :    0.177022
  11 H :    0.172653
  12 H :    0.177009
  13 H :    0.156030
  14 H :    0.156666
  15 H :    0.150855

  Mayer bond orders larger than 0.100000
B(  0-C ,  1-C ) :   0.8641 B(  0-C ,  6-H ) :   0.9803 B(  0-C ,  7-H ) :   0.9649
B(  0-C ,  8-H ) :   0.9708 B(  1-C ,  2-C ) :   0.9139 B(  1-C ,  9-H ) :   0.9424
B(  1-C , 10-H ) :   0.9667 B(  2-C ,  3-O ) :   1.9746 B(  2-C ,  4-C ) :   0.9138
B(  4-C ,  5-C ) :   0.8642 B(  4-C , 11-H ) :   0.9424 B(  4-C , 12-H ) :   0.9666
B(  5-C , 13-H ) :   0.9649 B(  5-C , 14-H ) :   0.9803 B(  5-C , 15-H ) :   0.9709

Dispersion correction           -0.003912186
FINAL SINGLE POINT ENERGY      -271.701165851146

DIPOLE MOMENT
-------------

Method             : SCF
Type of density    : Electron Density
Multiplicity       :   1
Irrep              :   0
Energy             :  -271.7047326791803243 Eh
Relativity type    :
Basis              : AO
                                X                 Y                 Z
Electronic contribution:     -0.000941282      -6.538479111      -0.001002350
Nuclear contribution   :      0.001387492       7.790089912       0.001469375
                        -----------------------------------------
Total Dipole Moment    :      0.000446211       1.251610801       0.000467025
                        -----------------------------------------
Magnitude (a.u.)       :      1.251610968
Magnitude (Debye)      :      3.181342255

Rotational constants in cm-1:             0.129350             0.105285             0.068405
Rotational constants in MHz :          3877.811986          3156.372586          2050.730564

                             ****ORCA TERMINATED NORMALLY****
TOTAL RUN TIME: 0 days 0 hours 0 minutes 17 seconds 580 msec
