                         Program Version 6.0.0  -   RELEASE  -
|  1> ! r2scan-3c def2/J RI DEFGRID2 scfconv6 printgap
|  2> %output
|  3>     printlevel normal
|  4> end
|  5> %cpcm
|  6>     smd true
|  7>     smdsolvent "water"
|  8> end
|  9> * xyz 0 1
| 10> C 1.7613306959 1.1322365576 0.3054207008
| 11> C 1.1225765293 0.1105372906 -0.6356243685
| 12> C 2.32659e-05 -0.6699481969 6.5701e-06
| 13> O -0.0005580351 -1.88775037 -0.0007185948
| 14> C -1.1218618405 0.1109169636 0.6363359916
| 15> C -1.7614501509 1.1315758446 -0.3053140519
| 16> H 2.1118647806 0.6441418873 1.2116944207
| 17> H 2.6139630001 1.5923432312 -0.1864843317
| 18> H 1.0597454805 1.9144361678 0.5778166085
| 19> H 0.7184174771 0.6214482091 -1.5116670084
| 20> H 1.8733313952 -0.605263443 -0.9763060203
| 21> H -0.7170373417 0.622802767 1.5114811259
| 22> H -1.8723118726 -0.6046239563 0.9782236846
| 23> H -2.6135080183 1.5924126987 0.1868702868
| 24> H -2.1129572312 0.6423869105 -1.2106198528
| 25> H -1.0600198927 1.913314059 -0.5794313127
| 26> *
| 27>
| 28>                          ****END OF INPUT****

CARTESIAN COORDINATES (ANGSTROEM)
---------------------------------
  C      1.761331    1.132237    0.305421
  C      1.122577    0.110537   -0.635624
  C      0.000023   -0.669948    0.000007
  O     -0.000558   -1.887750   -0.000719
  C     -1.121862    0.110917    0.636336
  C     -1.761450    1.131576   -0.305314
  H      2.111865    0.644142    1.211694
  H      2.613963    1.592343   -0.186484
  H      1.059745    1.914436    0.577817
  H      0.718417    0.621448   -1.511667
  H      1.873331   -0.605263   -0.976306
  H     -0.717037    0.622803    1.511481
  H     -1.872312   -0.604624    0.978224
  H     -2.613508    1.592413    0.186870
  H     -2.112957    0.642387   -1.210620
  H     -1.060020    1.913314   -0.579431

 Total Charge           Charge          ....    0
 Multiplicity           Mult            ....    1
 Number of Electrons    NEL             ....   48
 Basis Dimension        Dim             ....  169

ORBITAL ENERGIES
----------------

  NO   OCC          E(Eh)            E(eV)
   0   2.0000     -18.945422      -515.5312
   1   2.0000     -10.121423      -275.4179
   2   2.0000     -10.030038      -272.9312
   3   2.0000     -10.030034      -272.9311
   4   2.0000     -10.019675      -272.6492
   5   2.0000     -10.019659      -272.6488
   6   2.0000      -1.013097       -27.5678
   7   2.0000      -0.763081       -20.7645
   8   2.0000      -0.721880       -19.6433
   9   2.0000      -0.621581       -16.9141
  10   2.0000      -0.598567       -16.2878
  11   2.0000      -0.489902       -13.3309
  12   2.0000      -0.444726       -12.1016
  13   2.0000      -0.439838       -11.9686
  14   2.0000      -0.401657       -10.9296
  15   2.0000      -0.398813       -10.8523
  16   2.0000      -0.377448       -10.2709
  17   2.0000      -0.346860        -9.4385
  18   2.0000      -0.342726        -9.3261
  19   2.0000      -0.339376        -9.2349
  20   2.0000      -0.314048        -8.5457
  21   2.0000      -0.312139        -8.4937
  22   2.0000      -0.308091        -8.3836
  23   2.0000      -0.219148        -5.9633
  24   0.0000      -0.048642        -1.3236
  25   0.0000       0.084110         2.2887
  26   0.0000       0.113637         3.0922
  27   0.0000       0.131423         3.5762
  28   0.0000       0.143124         3.8946

MULLIKEN ATOMIC CHARGES
-----------------------
   0 C :   -0.506659
   1 C :   -0.260519
   2 C :    0.271926
   3 O :   -0.455034
   4 C :   -0.260432
   5 C :   -0.506600
   6 H :    0.167397
   7 H :    0.166939
   8 H :    0.168720
   9 H :    0.188818
  10 H :    0.166825
  11 H :    0.188756
  12 H :    0.166802
  13 H :    0.166964
  14 H :    0.167369
  15 H :    0.168728
Sum of atomic charges:   -0.0000000

LOEWDIN ATOMIC CHARGES
----------------------
   0 C :   -0.406411
   1 C :   -0.281243
   2 C :    0.237366
   3 O :   -0.544347
   4 C :   -0.281233
   5 C :   -0.406337
   6 H :    0.159179
   7 H :    0.160442
   8 H :    0.159069
   9 H :    0.186437
  10 H :    0.176003
  11 H :    0.186387
  12 H :    0.175988
  13 H :    0.160444
  14 H :    0.159181
  15 H :    0.159073

  Mayer bond orders larger than 0.100000
B(  0-C ,  1-C ) :   0.8612 B(  0-C ,  6-H ) :   0.9766 B(  0-C ,  7-H ) :   0.9616
B(  0-C ,  8-H ) :   0.9660 B(  1-C ,  2-C ) :   0.9356 B(  1-C ,  9-H ) :   0.9299
B(  1-C , 10-H ) :   0.9635 B(  2-C ,  3-O ) :   1.8923 B(  2-C ,  4-C ) :   0.9356
B(  4-C ,  5-C ) :   0.8613 B(  4-C , 11-H ) :   0.9300 B(  4-C , 12-H ) :   0.9635
B(  5-C , 13-H ) :   0.9616 B(  5-C , 14-H ) :   0.9766 B(  5-C , 15-H ) :   0.9660

Dispersion correction           -0.003912186
FINAL SINGLE POINT ENERGY      -271.708318727149

DIPOLE MOMENT
-------------

Method             : SCF
Type of density    : Electron Density
Multiplicity       :   1
Irrep              :   0
Energy             :  -271.7118855551836987 Eh
Relativity type    :
Basis              : AO
                                X                 Y                 Z
Electronic contribution:     -0.000736268      -5.963292426      -0.000822066
Nuclear contribution   :      0.001387492       7.790089912       0.001469375
                        -----------------------------------------
Total Dipole Moment    :      0.000651224       1.826797486       0.000647309
                        -----------------------------------------
Magnitude (a.u.)       :      1.826797717
Magnitude (Debye)      :      4.643350784

Rotational constants in cm-1:             0.129350             0.105285             0.068405
Rotational constants in MHz :          3877.811986          3156.372586          2050.730564

                             ****ORCA TERMINATED NORMALLY****
TOTAL RUN TIME: 0 days 0 hours 0 minutes 19 seconds 116 msec
