                         Program Version 6.0.0  -   RELEASE  -
|  1> ! r2scan-3c def2/J RI DEFGRID2 scfconv6 printgap
|  2> %output
|  3>     printlevel normal
|  4> end
|  5> * xyz 0 1
|  6> C -2.8318908576 -0.1879161244 -0.4206210646
|  7> C -1.6812846853 0.7399470511 -0.0539083971
|  8> C -0.4057314775 -0.0162305347 0.2174891285
|  9> O -0.328952219 -1.2044057009 0.4446889125
| 10> O 0.6451008836 0.7995526747 0.2027954021
| 11> C 1.9464324504 0.2430387552 0.4552999773
| 12> C 2.5686672172 -0.3001853987 -0.8219741428
| 13> H -3.7502384728 0.3798728405 -0.5319343045
| 14> H -2.6210330086 -0.7045066606 -1.3533826755
| 15> H -2.9682807057 -0.9375579345 0.3545403604
| 16> H -1.9180328469 1.295740365 0.856332809
| 17> H -1.4842515673 1.4677159316 -0.8411307646
| 18> H 2.5263454165 1.0741056093 0.8576183334
| 19> H 1.8480882112 -0.5499956109 1.2028439908
| 20> H 2.6084265393 0.4782234281 -1.5791726074
| 21> H 3.5745602297 -0.6488100134 -0.6122041305
| 22> H 1.9779881558 -1.132201058 -1.198957682
| 23> *
| 24>
| 25>                          ****END OF INPUT****

CARTESIAN COORDINATES (ANGSTROEM)
---------------------------------
  C     -2.831891   -0.187916   -0.420621
  C     -1.681285    0.739947   -0.053908
  C     -0.405731   -0.016231    0.217489
  O     -0.328952   -1.204406    0.444689
  O      0.645101    0.799553    0.202795
  C      1.946432    0.243039    0.455300
  C      2.568667   -0.300185   -0.821974
  H     -3.750238    0.379873   -0.531934
  H     -2.621033   -0.704507   -1.353383
  H     -2.968281   -0.937558    0.354540
  H     -1.918033    1.295740    0.856333
  H     -1.484252    1.467716   -0.841131
  H      2.526345    1.074106    0.857618
  H      1.848088   -0.549996    1.202844
  H      2.608427    0.478223   -1.579173
  H      3.574560   -0.648810   -0.612204
  H      1.977988   -1.132201   -1.198958

 Total Charge           Charge          ....    0
 Multiplicity           Mult            ....    1
 Number of Electrons    NEL             ....   56
 Basis Dimension        Dim             ....  193

ORBITAL ENERGIES
----------------

  NO   OCC          E(Eh)            E(eV)
   0   2.0000     -18.994869      -516.8767
   1   2.0000     -18.929423      -515.0958
   2   2.0000     -10.152083      -276.2522
   3   2.0000     -10.090584      -274.5787
   4   2.0000     -10.044345      -273.3205
   5   2.0000     -10.028211      -272.8815
   6   2.0000     -10.021772      -272.7063
   7   2.0000      -1.070048       -29.1175
   8   2.0000      -0.976379       -26.5686
   9   2.0000      -0.762500       -20.7487
  10   2.0000      -0.729706       -19.8563
  11   2.0000      -0.644611       -17.5408
  12   2.0000      -0.592238       -16.1156
  13   2.0000      -0.518494       -14.1089
  14   2.0000      -0.473156       -12.8752
  15   2.0000      -0.453516       -12.3408
  16   2.0000      -0.445330       -12.1180
  17   2.0000      -0.412056       -11.2126
  18   2.0000      -0.406865       -11.0714
  19   2.0000      -0.374005       -10.1772
  20   2.0000      -0.363153        -9.8819
  21   2.0000      -0.351703        -9.5703
  22   2.0000      -0.338568        -9.2129
  23   2.0000      -0.329894        -8.9769
  24   2.0000      -0.318155        -8.6574
  25   2.0000      -0.305217        -8.3054
  26   2.0000      -0.271065        -7.3761
  27   2.0000      -0.237384        -6.4595
  28   0.0000      -0.013131        -0.3573
  29   0.0000       0.077187         2.1004
  30   0.0000       0.089499         2.4354
  31   0.0000       0.113636         3.0922
  32   0.0000       0.124478         3.3872

MULLIKEN ATOMIC CHARGES
-----------------------
   0 C :   -0.459804
   1 C :   -0.266004
   2 C :    0.377060
   3 O :   -0.433291
   4 O :   -0.176207
   5 C :   -0.136985
   6 C :   -0.468617
   7 H :    0.145306
   8 H :    0.148205
   9 H :    0.163380
  10 H :    0.162062
  11 H :    0.160612
  12 H :    0.147737
  13 H :    0.166491
  14 H :    0.151301
  15 H :    0.146598
  16 H :    0.172157
Sum of atomic charges:    0.0000000

LOEWDIN ATOMIC CHARGES
----------------------
   0 C :   -0.402249
   1 C :   -0.239772
   2 C :    0.362774
   3 O :   -0.436223
   4 O :   -0.597912
   5 C :    0.026505
   6 C :   -0.390822
   7 H :    0.150363
   8 H :    0.157592
   9 H :    0.165398
  10 H :    0.180668
  11 H :    0.177718
  12 H :    0.177450
  13 H :    0.187424
  14 H :    0.156888
  15 H :    0.158983
  16 H :    0.165216

  Mayer bond orders larger than 0.100000
B(  0-C ,  1-C ) :   0.9305 B(  0-C ,  7-H ) :   0.9727 B(  0-C ,  8-H ) :   0.9771
B(  0-C ,  9-H ) :   0.9696 B(  1-C ,  2-C ) :   0.9869 B(  1-C , 10-H ) :   0.9279
B(  1-C , 11-H ) :   0.9607 B(  2-C ,  3-O ) :   1.8351 B(  2-C ,  4-O ) :   1.0767
B(  4-O ,  5-C ) :   0.8186 B(  5-C ,  6-C ) :   0.9381 B(  5-C , 12-H ) :   0.9615
B(  5-C , 13-H ) :   0.9672 B(  6-C , 14-H ) :   0.9738 B(  6-C , 15-H ) :   0.9651
B(  6-C , 16-H ) :   0.9717

Dispersion correction           -0.003945309
FINAL SINGLE POINT ENERGY      -346.937727802423

DIPOLE MOMENT
-------------

Method             : SCF
Type of density    : Electron Density
Multiplicity       :   1
Irrep              :   0
Energy             :  -346.9442208708558724 Eh
Relativity type    :
Basis              : AO
                                X                 Y                 Z
Electronic contribution:      0.457634035      -0.007431057       2.514804931
Nuclear contribution   :     -0.188976755       0.671904913      -2.659905036
                        -----------------------------------------
Total Dipole Moment    :      0.268657280       0.664473856      -0.145100105
                        -----------------------------------------
Magnitude (a.u.)       :      0.731270319
Magnitude (Debye)      :      1.858741435

Rotational constants in cm-1:             0.214900             0.046534             0.043682
Rotational constants in MHz :          6442.540038          1395.042519          1309.566828

                             ****ORCA TERMINATED NORMALLY****
TOTAL RUN TIME: 0 days 0 hours 0 minutes 21 seconds 74 msec
