                         Program Version 6.0.0  -   RELEASE  -
|  1> ! r2scan-3c def2/J RI DEFGRID2 scfconv6 printgap
|  2> %output
|  3>     printlevel normal
|  4> end
|  5> %cpcm
|  6>     smd true
|  7>     smdsolvent "water"
|  8> end
|  9> * xyz 0 1
| 10> C -2.8318908576 -0.1879161244 -0.4206210646
| 11> C -1.6812846853 0.7399470511 -0.0539083971
| 12> C -0.4057314775 -0.0162305347 0.2174891285
| 13> O -0.328952219 -1.2044057009 0.4446889125
| 14> O 0.6451008836 0.7995526747 0.2027954021
| 15> C 1.9464324504 0.2430387552 0.4552999773
| 16> C 2.5686672172 -0.3001853987 -0.8219741428
| 17> H -3.7502384728 0.3798728405 -0.5319343045
| 18> H -2.6210330086 -0.7045066606 -1.3533826755
| 19> H -2.9682807057 -0.9375579345 0.3545403604
| 20> H -1.9180328469 1.295740365 0.856332809
| 21> H -1.4842515673 1.4677159316 -0.8411307646
| 22> H 2.5263454165 1.0741056093 0.8576183334
| 23> H 1.8480882112 -0.5499956109 1.2028439908
| 24> H 2.6084265393 0.4782234281 -1.5791726074
| 25> H 3.5745602297 -0.6488100134 -0.6122041305
| 26> H 1.9779881558 -1.132201058 -1.198957682
| 27> *
| 28>
| 29>                          ****END OF INPUT****

CARTESIAN COORDINATES (ANGSTROEM)
---------------------------------
  C     -2.831891   -0.187916   -0.420621
  C     -1.681285    0.739947   -0.053908
  C     -0.405731   -0.016231    0.217489
  O     -0.328952   -1.204406    0.444689
  O      0.645101    0.799553    0.202795
  C      1.946432    0.243039    0.455300
  C      2.568667   -0.300185   -0.821974
  H     -3.750238    0.379873   -0.531934
  H     -2.621033   -0.704507   -1.353383
  H     -2.968281   -0.937558    0.354540
  H     -1.918033    1.295740    0.856333
  H     -1.484252    1.467716   -0.841131
  H      2.526345    1.074106    0.857618
  H      1.848088   -0.549996    1.202844
  H      2.608427    0.478223   -1.579173
  H      3.574560   -0.648810   -0.612204
  H      1.977988   -1.132201   -1.198958

 Total Charge           Charge          ....    0
 Multiplicity           Mult            ....    1
 Number of Electrons    NEL             ....   56
 Basis Dimension        Dim             ....  193

ORBITAL ENERGIES
----------------

  NO   OCC          E(Eh)            E(eV)
   0   2.0000     -19.000517      -517.0304
   1   2.0000     -18.944369      -515.5025
   2   2.0000     -10.162152      -276.5262
   3   2.0000     -10.082894      -274.3695
   4   2.0000     -10.037970      -273.1470
   5   2.0000     -10.017994      -272.6035
   6   2.0000     -10.016504      -272.5629
   7   2.0000      -1.077358       -29.3164
   8   2.0000      -0.989175       -26.9168
   9   2.0000      -0.758818       -20.6485
  10   2.0000      -0.723117       -19.6770
  11   2.0000      -0.640499       -17.4289
  12   2.0000      -0.586818       -15.9681
  13   2.0000      -0.517281       -14.0759
  14   2.0000      -0.473827       -12.8935
  15   2.0000      -0.456954       -12.4344
  16   2.0000      -0.449546       -12.2328
  17   2.0000      -0.413519       -11.2524
  18   2.0000      -0.402098       -10.9416
  19   2.0000      -0.369350       -10.0505
  20   2.0000      -0.360062        -9.7978
  21   2.0000      -0.348312        -9.4781
  22   2.0000      -0.334498        -9.1022
  23   2.0000      -0.325860        -8.8671
  24   2.0000      -0.315277        -8.5791
  25   2.0000      -0.303147        -8.2490
  26   2.0000      -0.277322        -7.5463
  27   2.0000      -0.252740        -6.8774
  28   0.0000      -0.020637        -0.5616
  29   0.0000       0.079884         2.1738
  30   0.0000       0.095754         2.6056
  31   0.0000       0.124354         3.3838
  32   0.0000       0.133404         3.6301

MULLIKEN ATOMIC CHARGES
-----------------------
   0 C :   -0.513590
   1 C :   -0.265915
   2 C :    0.414926
   3 O :   -0.514743
   4 O :   -0.197489
   5 C :   -0.143474
   6 C :   -0.493878
   7 H :    0.166048
   8 H :    0.164653
   9 H :    0.161501
  10 H :    0.192897
  11 H :    0.181433
  12 H :    0.173346
  13 H :    0.171075
  14 H :    0.165321
  15 H :    0.169923
  16 H :    0.167965
Sum of atomic charges:    0.0000000

LOEWDIN ATOMIC CHARGES
----------------------
   0 C :   -0.408861
   1 C :   -0.235570
   2 C :    0.374145
   3 O :   -0.494432
   4 O :   -0.601851
   5 C :    0.030878
   6 C :   -0.393813
   7 H :    0.158849
   8 H :    0.159729
   9 H :    0.161740
  10 H :    0.192708
  11 H :    0.187328
  12 H :    0.188613
  13 H :    0.188837
  14 H :    0.161801
  15 H :    0.167562
  16 H :    0.162337

  Mayer bond orders larger than 0.100000
B(  0-C ,  1-C ) :   0.8990 B(  0-C ,  7-H ) :   0.9659 B(  0-C ,  8-H ) :   0.9790
B(  0-C ,  9-H ) :   0.9723 B(  1-C ,  2-C ) :   0.9956 B(  1-C , 10-H ) :   0.9168
B(  1-C , 11-H ) :   0.9495 B(  2-C ,  3-O ) :   1.7729 B(  2-C ,  4-O ) :   1.0989
B(  4-O ,  5-C ) :   0.8001 B(  5-C ,  6-C ) :   0.9370 B(  5-C , 12-H ) :   0.9520
B(  5-C , 13-H ) :   0.9635 B(  6-C , 14-H ) :   0.9698 B(  6-C , 15-H ) :   0.9602
B(  6-C , 16-H ) :   0.9696

Dispersion correction           -0.003945309
FINAL SINGLE POINT ENERGY      -346.942673240584

DIPOLE MOMENT
-------------

Method             : SCF
Type of density    : Electron Density
Multiplicity       :   1
Irrep              :   0
Energy             :  -346.9491663090173574 Eh
Relativity type    :
Basis              : AO
                                X                 Y                 Z
Electronic contribution:      0.542160235       0.352179986       2.470446347
Nuclear contribution   :     -0.188976755       0.671904913      -2.659905036
                        -----------------------------------------
Total Dipole Moment    :      0.353183480       1.024084899      -0.189458689
                        -----------------------------------------
Magnitude (a.u.)       :      1.099719530
Magnitude (Debye)      :      2.795264903

Rotational constants in cm-1:             0.214900             0.046534             0.043682
Rotational constants in MHz :          6442.540038          1395.042519          1309.566828

                             ****ORCA TERMINATED NORMALLY****
TOTAL RUN TIME: 0 days 0 hours 0 minutes 25 seconds 129 msec
