                         Program Version 6.0.0  -   RELEASE  -
|  1> ! r2scan-3c def2/J RI DEFGRID2 scfconv6 printgap
|  2> %output
|  3>     printlevel normal
|  4> end
|  5> * xyz 0 1
|  6> C 1.8669986214 -1.0217791756 -0.4822263824
|  7> C 1.2283848995 -0.0003739383 0.4531637916
|  8> H 1.0142731747 -0.4868969515 1.41979771
|  9> C -0.0694291353 0.6191622503 -0.0924674093
| 10> C -1.349700096 -0.1940561178 0.1506704214
| 11> C -2.5563213523 0.7466852892 0.1700369934
| 12> C -1.5734162867 -1.2726967224 -0.9067636509
| 13> O 2.2139556925 1.0051561693 0.65995363
| 14> H 2.8489541077 -1.2850362749 -0.0969098987
| 15> H 1.2633400708 -1.9192485443 -0.5492600254
| 16> H 1.9913537023 -0.5905476935 -1.4716952872
| 17> H -0.1917960251 1.5872328069 0.401243363
| 18> H 0.0492700415 0.8160582976 -1.1594091379
| 19> H -1.2743038965 -0.6765442385 1.1321117544
| 20> H -2.6410523351 1.2683446341 -0.7806973965
| 21> H -2.461415978 1.4859106656 0.9620227409
| 22> H -3.4728347424 0.1857275579 0.3359290662
| 23> H -2.5150076092 -1.7853385014 -0.7225822783
| 24> H -1.614883817 -0.8264578162 -1.8977594279
| 25> H -0.7799065214 -2.0127003144 -0.8951504283
| 26> H 1.8774970811 1.6669782678 1.2784622084
| 27> *
| 28>
| 29>                          ****END OF INPUT****

CARTESIAN COORDINATES (ANGSTROEM)
---------------------------------
  C      1.866999   -1.021779   -0.482226
  C      1.228385   -0.000374    0.453164
  H      1.014273   -0.486897    1.419798
  C     -0.069429    0.619162   -0.092467
  C     -1.349700   -0.194056    0.150670
  C     -2.556321    0.746685    0.170037
  C     -1.573416   -1.272697   -0.906764
  O      2.213956    1.005156    0.659954
  H      2.848954   -1.285036   -0.096910
  H      1.263340   -1.919249   -0.549260
  H      1.991354   -0.590548   -1.471695
  H     -0.191796    1.587233    0.401243
  H      0.049270    0.816058   -1.159409
  H     -1.274304   -0.676544    1.132112
  H     -2.641052    1.268345   -0.780697
  H     -2.461416    1.485911    0.962023
  H     -3.472835    0.185728    0.335929
  H     -2.515008   -1.785339   -0.722582
  H     -1.614884   -0.826458   -1.897759
  H     -0.779907   -2.012700   -0.895150
  H      1.877497    1.666978    1.278462

 Total Charge           Charge          ....    0
 Multiplicity           Mult            ....    1
 Number of Electrons    NEL             ....   58
 Basis Dimension        Dim             ....  208

ORBITAL ENERGIES
----------------

  NO   OCC          E(Eh)            E(eV)
   0   2.0000     -18.942210      -515.4437
   1   2.0000     -10.080461      -274.3033
   2   2.0000     -10.037778      -273.1418
   3   2.0000     -10.023799      -272.7614
   4   2.0000     -10.017918      -272.6014
   5   2.0000     -10.017076      -272.5785
   6   2.0000     -10.014637      -272.5121
   7   2.0000      -0.979842       -26.6629
   8   2.0000      -0.780504       -21.2386
   9   2.0000      -0.719565       -19.5804
  10   2.0000      -0.656008       -17.8509
  11   2.0000      -0.648319       -17.6416
  12   2.0000      -0.558169       -15.1885
  13   2.0000      -0.531909       -14.4740
  14   2.0000      -0.480837       -13.0842
  15   2.0000      -0.433001       -11.7826
  16   2.0000      -0.426061       -11.5937
  17   2.0000      -0.407438       -11.0869
  18   2.0000      -0.373333       -10.1589
  19   2.0000      -0.367956       -10.0126
  20   2.0000      -0.355253        -9.6669
  21   2.0000      -0.353658        -9.6235
  22   2.0000      -0.337091        -9.1727
  23   2.0000      -0.325362        -8.8535
  24   2.0000      -0.316031        -8.5997
  25   2.0000      -0.296786        -8.0760
  26   2.0000      -0.293930        -7.9982
  27   2.0000      -0.276947        -7.5361
  28   2.0000      -0.231414        -6.2971
  29   0.0000       0.064347         1.7510
  30   0.0000       0.082152         2.2355
  31   0.0000       0.108736         2.9589
  32   0.0000       0.110126         2.9967
  33   0.0000       0.120146         3.2693

MULLIKEN ATOMIC CHARGES
-----------------------
   0 C :   -0.512571
   1 C :    0.024958
   2 H :    0.128171
   3 C :   -0.224194
   4 C :   -0.054163
   5 C :   -0.472550
   6 C :   -0.498437
   7 O :   -0.422711
   8 H :    0.159375
   9 H :    0.136633
  10 H :    0.155766
  11 H :    0.131270
  12 H :    0.148363
  13 H :    0.143504
  14 H :    0.148673
  15 H :    0.144855
  16 H :    0.145453
  17 H :    0.144070
  18 H :    0.155291
  19 H :    0.137080
  20 H :    0.281166
Sum of atomic charges:    0.0000000

LOEWDIN ATOMIC CHARGES
----------------------
   0 C :   -0.380748
   1 C :    0.052874
   2 H :    0.158250
   3 C :   -0.277958
   4 C :   -0.244702
   5 C :   -0.417058
   6 C :   -0.413862
   7 O :   -0.620363
   8 H :    0.165519
   9 H :    0.153419
  10 H :    0.159968
  11 H :    0.162749
  12 H :    0.165402
  13 H :    0.154456
  14 H :    0.155273
  15 H :    0.150988
  16 H :    0.152184
  17 H :    0.152955
  18 H :    0.154334
  19 H :    0.150723
  20 H :    0.265598

  Mayer bond orders larger than 0.100000
B(  0-C ,  1-C ) :   0.9144 B(  0-C ,  8-H ) :   0.9685 B(  0-C ,  9-H ) :   0.9703
B(  0-C , 10-H ) :   0.9840 B(  1-C ,  2-H ) :   0.9896 B(  1-C ,  3-C ) :   0.8791
B(  1-C ,  7-O ) :   0.8928 B(  3-C ,  4-C ) :   0.8567 B(  3-C , 11-H ) :   0.9840
B(  3-C , 12-H ) :   0.9495 B(  4-C ,  5-C ) :   0.8989 B(  4-C ,  6-C ) :   0.9129
B(  4-C , 13-H ) :   0.9720 B(  5-C , 14-H ) :   0.9813 B(  5-C , 15-H ) :   0.9789
B(  5-C , 16-H ) :   0.9766 B(  6-C , 17-H ) :   0.9750 B(  6-C , 18-H ) :   0.9897
B(  6-C , 19-H ) :   0.9664 B(  7-O , 20-H ) :   0.9009

Dispersion correction           -0.005551688
FINAL SINGLE POINT ENERGY      -312.198927971683

DIPOLE MOMENT
-------------

Method             : SCF
Type of density    : Electron Density
Multiplicity       :   1
Irrep              :   0
Energy             :  -312.2046323158492669 Eh
Relativity type    :
Basis              : AO
                                X                 Y                 Z
Electronic contribution:      4.934558993       2.369062122       2.151811086
Nuclear contribution   :     -5.508418133      -2.398525415      -1.907715472
                        -----------------------------------------
Total Dipole Moment    :     -0.573859140      -0.029463293       0.244095614
                        -----------------------------------------
Magnitude (a.u.)       :      0.624311675
Magnitude (Debye)      :      1.586874166

Rotational constants in cm-1:             0.142660             0.049138             0.039098
Rotational constants in MHz :          4276.848236          1473.127637          1172.130278

                             ****ORCA TERMINATED NORMALLY****
TOTAL RUN TIME: 0 days 0 hours 0 minutes 30 seconds 120 msec
