                         Program Version 6.0.0  -   RELEASE  -
|  1> ! r2scan-3c def2/J RI DEFGRID2 scfconv6 printgap
|  2> %output
|  3>     printlevel normal
|  4> end
|  5> %cpcm
|  6>     smd true
|  7>     smdsolvent "water"
|  8> end
|  9> * xyz 0 1
| 10> C 1.8669986214 -1.0217791756 -0.4822263824
| 11> C 1.2283848995 -0.0003739383 0.4531637916
| 12> H 1.0142731747 -0.4868969515 1.41979771
| 13> C -0.0694291353 0.6191622503 -0.0924674093
| 14> C -1.349700096 -0.1940561178 0.1506704214
| 15> C -2.5563213523 0.7466852892 0.1700369934
| 16> C -1.5734162867 -1.2726967224 -0.9067636509
| 17> O 2.2139556925 1.0051561693 0.65995363
| 18> H 2.8489541077 -1.2850362749 -0.0969098987
| 19> H 1.2633400708 -1.9192485443 -0.5492600254
| 20> H 1.9913537023 -0.5905476935 -1.4716952872
| 21> H -0.1917960251 1.5872328069 0.401243363
| 22> H 0.0492700415 0.8160582976 -1.1594091379
| 23> H -1.2743038965 -0.6765442385 1.1321117544
| 24> H -2.6410523351 1.2683446341 -0.7806973965
| 25> H -2.461415978 1.4859106656 0.9620227409
| 26> H -3.4728347424 0.1857275579 0.3359290662
| 27> H -2.5150076092 -1.7853385014 -0.7225822783
| 28> H -1.614883817 -0.8264578162 -1.8977594279
| 29> H -0.7799065214 -2.0127003144 -0.8951504283
| 30> H 1.8774970811 1.6669782678 1.2784622084
| 31> *
| 32>
| 33>                          ****END OF INPUT****

CARTESIAN COORDINATES (ANGSTROEM)
---------------------------------
  C      1.866999   -1.021779   -0.482226
  C      1.228385   -0.000374    0.453164
  H      1.014273   -0.486897    1.419798
  C     -0.069429    0.619162   -0.092467
  C     -1.349700   -0.194056    0.150670
  C     -2.556321    0.746685    0.170037
  C     -1.573416   -1.272697   -0.906764
  O      2.213956    1.005156    0.659954
  H      2.848954   -1.285036   -0.096910
  H      1.263340   -1.919249   -0.549260
  H      1.991354   -0.590548   -1.471695
  H     -0.191796    1.587233    0.401243
  H      0.049270    0.816058   -1.159409
  H     -1.274304   -0.676544    1.132112
  H     -2.641052    1.268345   -0.780697
  H     -2.461416    1.485911    0.962023
  H     -3.472835    0.185728    0.335929
  H     -2.515008   -1.785339   -0.722582
  H     -1.614884   -0.826458   -1.897759
  H     -0.779907   -2.012700   -0.895150
  H      1.877497    1.666978    1.278462

 Total Charge           Charge          ....    0
 Multiplicity           Mult            ....    1
 Number of Electrons    NEL             ....   58
 Basis Dimension        Dim             ....  208

ORBITAL ENERGIES
----------------

  NO   OCC          E(Eh)            E(eV)
   0   2.0000     -18.946809      -515.5689
   1   2.0000     -10.075344      -274.1641
   2   2.0000     -10.026664      -272.8394
   3   2.0000     -10.013507      -272.4814
   4   2.0000     -10.009470      -272.3715
   5   2.0000     -10.006276      -272.2846
   6   2.0000     -10.005401      -272.2608
   7   2.0000      -0.983131       -26.7524
   8   2.0000      -0.770135       -20.9564
   9   2.0000      -0.713866       -19.4253
  10   2.0000      -0.646706       -17.5978
  11   2.0000      -0.638662       -17.3789
  12   2.0000      -0.553430       -15.0596
  13   2.0000      -0.521732       -14.1970
  14   2.0000      -0.477468       -12.9926
  15   2.0000      -0.424732       -11.5575
  16   2.0000      -0.417216       -11.3530
  17   2.0000      -0.397859       -10.8263
  18   2.0000      -0.368849       -10.0369
  19   2.0000      -0.360238        -9.8026
  20   2.0000      -0.348307        -9.4779
  21   2.0000      -0.344580        -9.3765
  22   2.0000      -0.332681        -9.0527
  23   2.0000      -0.322015        -8.7625
  24   2.0000      -0.306469        -8.3394
  25   2.0000      -0.286147        -7.7864
  26   2.0000      -0.283954        -7.7268
  27   2.0000      -0.273110        -7.4317
  28   2.0000      -0.235568        -6.4101
  29   0.0000       0.080735         2.1969
  30   0.0000       0.092515         2.5175
  31   0.0000       0.118851         3.2341
  32   0.0000       0.121963         3.3188
  33   0.0000       0.129056         3.5118

MULLIKEN ATOMIC CHARGES
-----------------------
   0 C :   -0.559917
   1 C :    0.049106
   2 H :    0.140873
   3 C :   -0.253826
   4 C :   -0.032056
   5 C :   -0.519197
   6 C :   -0.550414
   7 O :   -0.514566
   8 H :    0.161419
   9 H :    0.163659
  10 H :    0.167701
  11 H :    0.153587
  12 H :    0.155465
  13 H :    0.153956
  14 H :    0.157940
  15 H :    0.158202
  16 H :    0.156445
  17 H :    0.155066
  18 H :    0.166030
  19 H :    0.152295
  20 H :    0.338232
Sum of atomic charges:    0.0000000

LOEWDIN ATOMIC CHARGES
----------------------
   0 C :   -0.391624
   1 C :    0.054318
   2 H :    0.166208
   3 C :   -0.280023
   4 C :   -0.239950
   5 C :   -0.425509
   6 C :   -0.423244
   7 O :   -0.658605
   8 H :    0.163377
   9 H :    0.163053
  10 H :    0.161236
  11 H :    0.170489
  12 H :    0.166264
  13 H :    0.158263
  14 H :    0.156856
  15 H :    0.154407
  16 H :    0.154423
  17 H :    0.155125
  18 H :    0.156326
  19 H :    0.154248
  20 H :    0.284361

  Mayer bond orders larger than 0.100000
B(  0-C ,  1-C ) :   0.9053 B(  0-C ,  8-H ) :   0.9684 B(  0-C ,  9-H ) :   0.9656
B(  0-C , 10-H ) :   0.9789 B(  1-C ,  2-H ) :   0.9812 B(  1-C ,  3-C ) :   0.8900
B(  1-C ,  7-O ) :   0.8729 B(  3-C ,  4-C ) :   0.8626 B(  3-C , 11-H ) :   0.9785
B(  3-C , 12-H ) :   0.9485 B(  4-C ,  5-C ) :   0.8886 B(  4-C ,  6-C ) :   0.8981
B(  4-C , 13-H ) :   0.9727 B(  5-C , 14-H ) :   0.9806 B(  5-C , 15-H ) :   0.9755
B(  5-C , 16-H ) :   0.9751 B(  6-C , 17-H ) :   0.9732 B(  6-C , 18-H ) :   0.9872
B(  6-C , 19-H ) :   0.9656 B(  7-O , 20-H ) :   0.8749

Dispersion correction           -0.005551688
FINAL SINGLE POINT ENERGY      -312.205216585981

DIPOLE MOMENT
-------------

Method             : SCF
Type of density    : Electron Density
Multiplicity       :   1
Irrep              :   0
Energy             :  -312.2109209301482338 Eh
Relativity type    :
Basis              : AO
                                X                 Y                 Z
Electronic contribution:      4.685917006       2.352034905       2.302428481
Nuclear contribution   :     -5.508418133      -2.398525415      -1.907715472
                        -----------------------------------------
Total Dipole Moment    :     -0.822501127      -0.046490509       0.394713009
                        -----------------------------------------
Magnitude (a.u.)       :      0.913492108
Magnitude (Debye)      :      2.321912414

Rotational constants in cm-1:             0.142660             0.049138             0.039098
Rotational constants in MHz :          4276.848236          1473.127637          1172.130278

                             ****ORCA TERMINATED NORMALLY****
TOTAL RUN TIME: 0 days 0 hours 0 minutes 35 seconds 990 msec
