                         Program Version 6.0.0  -   RELEASE  -
|  1> ! r2scan-3c def2/J RI DEFGRID2 scfconv6 printgap
|  2> %output
|  3>     printlevel normal
|  4> end
|  5> * xyz 0 1
|  6> C -3.5970592327 0.0208327718 -0.2433752318
|  7> C -2.239300016 0.3255343526 0.3787691459
|  8> C -1.1321328172 -0.5311452206 -0.2324445172
|  9> C 0.2384333494 -0.2513441085 0.3798956291
| 10> C 1.3179154486 -1.2215759913 -0.1139215634
| 11> C 2.6167845703 -0.4666073412 0.1418613385
| 12> C 2.2808541525 0.9549307304 -0.3091522371
| 13> C 0.7953669284 1.1476348499 0.0433016738
| 14> H -3.5792274657 0.220551718 -1.3124804972
| 15> H -3.8575059989 -1.0249456122 -0.095550234
| 16> H -4.371768443 0.6355699586 0.2083075082
| 17> H -2.004127151 1.3818078896 0.2352542231
| 18> H -2.2833967391 0.1401323512 1.4544548223
| 19> H -1.3765452987 -1.5859098203 -0.0816172784
| 20> H -1.0891833475 -0.3533279485 -1.3099119485
| 21> H 0.1567090377 -0.3506091808 1.4674252125
| 22> H 1.2770124164 -2.1813649726 0.3991662269
| 23> H 1.1952446691 -1.3959537282 -1.1844814385
| 24> H 2.846618213 -0.4790221546 1.208570259
| 25> H 3.4640912367 -0.8858016661 -0.3987275246
| 26> H 2.9162792576 1.6982801645 0.1700582293
| 27> H 2.4234249629 1.0369686012 -1.3873393967
| 28> H 0.6782216437 1.8218513243 0.8910273673
| 29> H 0.257156196 1.5808450302 -0.7996304102
| 30> *
| 31>
| 32>                          ****END OF INPUT****

CARTESIAN COORDINATES (ANGSTROEM)
---------------------------------
  C     -3.597059    0.020833   -0.243375
  C     -2.239300    0.325534    0.378769
  C     -1.132133   -0.531145   -0.232445
  C      0.238433   -0.251344    0.379896
  C      1.317915   -1.221576   -0.113922
  C      2.616785   -0.466607    0.141861
  C      2.280854    0.954931   -0.309152
  C      0.795367    1.147635    0.043302
  H     -3.579227    0.220552   -1.312480
  H     -3.857506   -1.024946   -0.095550
  H     -4.371768    0.635570    0.208308
  H     -2.004127    1.381808    0.235254
  H     -2.283397    0.140132    1.454455
  H     -1.376545   -1.585910   -0.081617
  H     -1.089183   -0.353328   -1.309912
  H      0.156709   -0.350609    1.467425
  H      1.277012   -2.181365    0.399166
  H      1.195245   -1.395954   -1.184481
  H      2.846618   -0.479022    1.208570
  H      3.464091   -0.885802   -0.398728
  H      2.916279    1.698280    0.170058
  H      2.423425    1.036969   -1.387339
  H      0.678222    1.821851    0.891027
  H      0.257156    1.580845   -0.799630

 Total Charge           Charge          ....    0
 Multiplicity           Mult            ....    1
 Number of Electrons    NEL             ....   64
 Basis Dimension        Dim             ....  232

ORBITAL ENERGIES
----------------

  NO   OCC          E(Eh)            E(eV)
   0   2.0000     -10.023782      -272.7610
   1   2.0000     -10.020100      -272.6608
   2   2.0000     -10.017825      -272.5989
   3   2.0000     -10.017706      -272.5956
   4   2.0000     -10.017675      -272.5948
   5   2.0000     -10.016162      -272.5536
   6   2.0000     -10.016138      -272.5530
   7   2.0000     -10.012726      -272.4601
   8   2.0000      -0.804812       -21.9001
   9   2.0000      -0.749729       -20.4012
  10   2.0000      -0.687604       -18.7107
  11   2.0000      -0.670802       -18.2534
  12   2.0000      -0.617005       -16.7896
  13   2.0000      -0.552190       -15.0259
  14   2.0000      -0.531046       -14.4505
  15   2.0000      -0.511741       -13.9252
  16   2.0000      -0.452945       -12.3253
  17   2.0000      -0.435147       -11.8409
  18   2.0000      -0.422766       -11.5041
  19   2.0000      -0.393365       -10.7040
  20   2.0000      -0.381105       -10.3704
  21   2.0000      -0.365761        -9.9529
  22   2.0000      -0.350834        -9.5467
  23   2.0000      -0.343543        -9.3483
  24   2.0000      -0.311520        -8.4769
  25   2.0000      -0.301979        -8.2173
  26   2.0000      -0.300952        -8.1893
  27   2.0000      -0.297272        -8.0892
  28   2.0000      -0.288975        -7.8634
  29   2.0000      -0.278082        -7.5670
  30   2.0000      -0.275365        -7.4931
  31   2.0000      -0.269932        -7.3452
  32   0.0000       0.084707         2.3050
  33   0.0000       0.094694         2.5768
  34   0.0000       0.104378         2.8403
  35   0.0000       0.112965         3.0739
  36   0.0000       0.124683         3.3928

MULLIKEN ATOMIC CHARGES
-----------------------
   0 C :   -0.474734
   1 C :   -0.232046
   2 C :   -0.365471
   3 C :    0.053015
   4 C :   -0.367984
   5 C :   -0.247684
   6 C :   -0.309124
   7 C :   -0.434419
   8 H :    0.142061
   9 H :    0.141424
  10 H :    0.145212
  11 H :    0.141676
  12 H :    0.139763
  13 H :    0.141741
  14 H :    0.144425
  15 H :    0.155849
  16 H :    0.152992
  17 H :    0.155721
  18 H :    0.145375
  19 H :    0.149369
  20 H :    0.149293
  21 H :    0.150024
  22 H :    0.160622
  23 H :    0.162901
Sum of atomic charges:    0.0000000

LOEWDIN ATOMIC CHARGES
----------------------
   0 C :   -0.425560
   1 C :   -0.313701
   2 C :   -0.300712
   3 C :   -0.226892
   4 C :   -0.297455
   5 C :   -0.303080
   6 C :   -0.304227
   7 C :   -0.304904
   8 H :    0.149241
   9 H :    0.149412
  10 H :    0.149310
  11 H :    0.153120
  12 H :    0.151089
  13 H :    0.157161
  14 H :    0.155261
  15 H :    0.159737
  16 H :    0.157750
  17 H :    0.158443
  18 H :    0.154752
  19 H :    0.154707
  20 H :    0.155096
  21 H :    0.154615
  22 H :    0.158292
  23 H :    0.158544

  Mayer bond orders larger than 0.100000
B(  0-C ,  1-C ) :   0.8988 B(  0-C ,  8-H ) :   0.9849 B(  0-C ,  9-H ) :   0.9851
B(  0-C , 10-H ) :   0.9754 B(  1-C ,  2-C ) :   0.9201 B(  1-C , 11-H ) :   0.9598
B(  1-C , 12-H ) :   0.9775 B(  2-C ,  3-C ) :   0.8804 B(  2-C , 13-H ) :   0.9861
B(  2-C , 14-H ) :   0.9954 B(  3-C ,  4-C ) :   0.8953 B(  3-C ,  7-C ) :   0.8923
B(  3-C , 15-H ) :   0.9482 B(  4-C ,  5-C ) :   0.8799 B(  4-C , 16-H ) :   0.9571
B(  4-C , 17-H ) :   1.0166 B(  5-C ,  6-C ) :   0.9111 B(  5-C , 18-H ) :   0.9821
B(  5-C , 19-H ) :   0.9591 B(  6-C ,  7-C ) :   0.9131 B(  6-C , 20-H ) :   0.9650
B(  6-C , 21-H ) :   0.9881 B(  7-C , 22-H ) :   0.9793 B(  7-C , 23-H ) :   1.0017

Dispersion correction           -0.006838219
FINAL SINGLE POINT ENERGY      -314.383041129927

DIPOLE MOMENT
-------------

Method             : SCF
Type of density    : Electron Density
Multiplicity       :   1
Irrep              :   0
Energy             :  -314.3862982494954394 Eh
Relativity type    :
Basis              : AO
                                X                 Y                 Z
Electronic contribution:      3.152108151      -0.244514501       0.543211867
Nuclear contribution   :     -3.140028702       0.243051732      -0.502362740
                        -----------------------------------------
Total Dipole Moment    :      0.012079449      -0.001462769       0.040849127
                        -----------------------------------------
Magnitude (a.u.)       :      0.042622810
Magnitude (Debye)      :      0.108338573

Rotational constants in cm-1:             0.172881             0.032185             0.029090
Rotational constants in MHz :          5182.844035           964.869107           872.082750

                             ****ORCA TERMINATED NORMALLY****
TOTAL RUN TIME: 0 days 0 hours 0 minutes 24 seconds 966 msec
