                         Program Version 6.0.0  -   RELEASE  -
|  1> ! pbe def2-sv(p) def2/J RI DEFGRID1 loosescf d4 GCP(DFT/SV(P)) printgap
|  2> %output
|  3>     printlevel normal
|  4> end
|  5> * xyz 0 1
|  6> C -2.5047004331 0.6417736076 0.519518638
|  7> C -1.2633096115 -0.2518057064 0.4770457959
|  8> C -1.6242278005 -1.533053632 -0.2772959108
|  9> C -0.0482960333 0.4540221613 -0.1667945412
| 10> C 0.1490646558 1.8527832982 0.4211476894
| 11> C 1.2194981675 -0.4448347397 -0.0697745641
| 12> C 1.6269813178 -0.9419780913 -1.4583651018
| 13> C 2.4373029812 0.2021069276 0.5926370397
| 14> H -3.3636653971 0.062125373 0.8508671405
| 15> H -2.3789288243 1.4716624738 1.2080985317
| 16> H -2.722954944 1.0356390394 -0.4710071065
| 17> H -0.9968191965 -0.5151034074 1.5077758434
| 18> H -2.4696165298 -2.0230885625 0.2010122341
| 19> H -0.7985324862 -2.2380393893 -0.2990478071
| 20> H -1.903229301 -1.296507033 -1.3022388544
| 21> H -0.2791004935 0.5884223074 -1.2297830409
| 22> H 1.0437631378 2.3164755945 0.0177265682
| 23> H 0.231949273 1.816067382 1.5046679745
| 24> H -0.6912078062 2.4902281156 0.1620720706
| 25> H 0.9677727823 -1.3168793377 0.542908189
| 26> H 2.4688898707 -1.6275859403 -1.3860914158
| 27> H 0.8055156393 -1.4604536205 -1.9459146494
| 28> H 1.9238674849 -0.1030675182 -2.0847727047
| 29> H 3.2251039036 -0.5426643574 0.6892631403
| 30> H 2.2016494676 0.5714536367 1.5861050049
| 31> H 2.8271453905 1.0214044828 -0.0059003241
| 32> *
| 33>
| 34>                          ****END OF INPUT****

CARTESIAN COORDINATES (ANGSTROEM)
---------------------------------
  C     -2.504700    0.641774    0.519519
  C     -1.263310   -0.251806    0.477046
  C     -1.624228   -1.533054   -0.277296
  C     -0.048296    0.454022   -0.166795
  C      0.149065    1.852783    0.421148
  C      1.219498   -0.444835   -0.069775
  C      1.626981   -0.941978   -1.458365
  C      2.437303    0.202107    0.592637
  H     -3.363665    0.062125    0.850867
  H     -2.378929    1.471662    1.208099
  H     -2.722955    1.035639   -0.471007
  H     -0.996819   -0.515103    1.507776
  H     -2.469617   -2.023089    0.201012
  H     -0.798532   -2.238039   -0.299048
  H     -1.903229   -1.296507   -1.302239
  H     -0.279100    0.588422   -1.229783
  H      1.043763    2.316476    0.017727
  H      0.231949    1.816067    1.504668
  H     -0.691208    2.490228    0.162072
  H      0.967773   -1.316879    0.542908
  H      2.468890   -1.627586   -1.386091
  H      0.805516   -1.460454   -1.945915
  H      1.923867   -0.103068   -2.084773
  H      3.225104   -0.542664    0.689263
  H      2.201649    0.571454    1.586105
  H      2.827145    1.021404   -0.005900

 Total Charge           Charge          ....    0
 Multiplicity           Mult            ....    1
 Number of Electrons    NEL             ....   66
 Basis Dimension        Dim             ....  148

ORBITAL ENERGIES
----------------

  NO   OCC          E(Eh)            E(eV)
   0   2.0000      -9.889816      -269.1156
   1   2.0000      -9.888355      -269.0758
   2   2.0000      -9.886882      -269.0357
   3   2.0000      -9.867840      -268.5176
   4   2.0000      -9.867671      -268.5130
   5   2.0000      -9.867645      -268.5123
   6   2.0000      -9.867574      -268.5103
   7   2.0000      -9.866520      -268.4817
   8   2.0000      -0.745841       -20.2954
   9   2.0000      -0.697127       -18.9698
  10   2.0000      -0.646953       -17.6045
  11   2.0000      -0.608393       -16.5552
  12   2.0000      -0.602549       -16.3962
  13   2.0000      -0.561581       -15.2814
  14   2.0000      -0.502298       -13.6682
  15   2.0000      -0.484031       -13.1712
  16   2.0000      -0.421883       -11.4800
  17   2.0000      -0.406696       -11.0668
  18   2.0000      -0.389239       -10.5917
  19   2.0000      -0.380327       -10.3492
  20   2.0000      -0.372263       -10.1298
  21   2.0000      -0.352017        -9.5789
  22   2.0000      -0.342044        -9.3075
  23   2.0000      -0.340235        -9.2583
  24   2.0000      -0.334103        -9.0914
  25   2.0000      -0.317174        -8.6307
  26   2.0000      -0.311977        -8.4893
  27   2.0000      -0.308471        -8.3939
  28   2.0000      -0.289098        -7.8668
  29   2.0000      -0.285390        -7.7658
  30   2.0000      -0.267513        -7.2794
  31   2.0000      -0.260689        -7.0937
  32   2.0000      -0.255288        -6.9467
  33   0.0000       0.033295         0.9060
  34   0.0000       0.055354         1.5063
  35   0.0000       0.057349         1.5605
  36   0.0000       0.062965         1.7134
  37   0.0000       0.086796         2.3618

MULLIKEN ATOMIC CHARGES
-----------------------
   0 C :   -0.242831
   1 C :   -0.188090
   2 C :   -0.244358
   3 C :   -0.111098
   4 C :   -0.223586
   5 C :   -0.155981
   6 C :   -0.261084
   7 C :   -0.227383
   8 H :    0.094420
   9 H :    0.105168
  10 H :    0.093067
  11 H :    0.068847
  12 H :    0.096435
  13 H :    0.109379
  14 H :    0.092118
  15 H :    0.056333
  16 H :    0.095236
  17 H :    0.091047
  18 H :    0.104436
  19 H :    0.073859
  20 H :    0.092901
  21 H :    0.102452
  22 H :    0.095809
  23 H :    0.095647
  24 H :    0.095392
  25 H :    0.091867
Sum of atomic charges:   -0.0000000

LOEWDIN ATOMIC CHARGES
----------------------
   0 C :   -0.331253
   1 C :   -0.148428
   2 C :   -0.330936
   3 C :   -0.133457
   4 C :   -0.329954
   5 C :   -0.149660
   6 C :   -0.329328
   7 C :   -0.328826
   8 H :    0.116700
   9 H :    0.117021
  10 H :    0.116727
  11 H :    0.111320
  12 H :    0.116740
  13 H :    0.116247
  14 H :    0.115851
  15 H :    0.112392
  16 H :    0.117410
  17 H :    0.116469
  18 H :    0.118196
  19 H :    0.113895
  20 H :    0.114494
  21 H :    0.114703
  22 H :    0.115250
  23 H :    0.117450
  24 H :    0.115978
  25 H :    0.115002

  Mayer bond orders larger than 0.100000
B(  0-C ,  1-C ) :   1.1168 B(  0-C ,  8-H ) :   0.9480 B(  0-C ,  9-H ) :   0.9399
B(  0-C , 10-H ) :   0.9465 B(  1-C ,  2-C ) :   1.1166 B(  1-C ,  3-C ) :   1.0473
B(  1-C , 11-H ) :   0.8952 B(  2-C , 12-H ) :   0.9476 B(  2-C , 13-H ) :   0.9376
B(  2-C , 14-H ) :   0.9459 B(  3-C ,  4-C ) :   1.1781 B(  3-C ,  5-C ) :   0.9996
B(  3-C , 15-H ) :   0.8905 B(  4-C , 16-H ) :   0.9316 B(  4-C , 17-H ) :   0.9374
B(  4-C , 18-H ) :   0.9325 B(  5-C ,  6-C ) :   1.1084 B(  5-C ,  7-C ) :   1.1691
B(  5-C , 19-H ) :   0.8934 B(  6-C , 20-H ) :   0.9497 B(  6-C , 21-H ) :   0.9445
B(  6-C , 22-H ) :   0.9481 B(  7-C , 23-H ) :   0.9449 B(  7-C , 24-H ) :   0.9368
B(  7-C , 25-H ) :   0.9386

Dispersion correction           -0.023286748
FINAL SINGLE POINT ENERGY      -314.866135368041

DIPOLE MOMENT
-------------

Method             : SCF
Type of density    : Electron Density
Multiplicity       :   1
Irrep              :   0
Energy             :  -314.9534339123537734 Eh
Relativity type    :
Basis              : AO
                                X                 Y                 Z
Electronic contribution:     -0.093316667      -0.245542711       0.464972552
Nuclear contribution   :      0.085937455       0.234624129      -0.426168558
                        -----------------------------------------
Total Dipole Moment    :     -0.007379212      -0.010918582       0.038803994
                        -----------------------------------------
Magnitude (a.u.)       :      0.040980705
Magnitude (Debye)      :      0.104164674

Rotational constants in cm-1:             0.090014             0.046525             0.035486
Rotational constants in MHz :          2698.539212          1394.785787          1063.835058

                             ****ORCA TERMINATED NORMALLY****
TOTAL RUN TIME: 0 days 0 hours 0 minutes 11 seconds 442 msec
