                         Program Version 6.0.0  -   RELEASE  -
|  1> ! pbe def2-sv(p) def2/J RI DEFGRID1 loosescf d4 GCP(DFT/SV(P)) printgap
|  2> %output
|  3>     printlevel normal
|  4> end
|  5> * xyz 0 1
|  6> C 2.3647420148 1.6753797418 -0.1883098572
|  7> C 2.2237901403 0.562813366 0.8467268841
|  8> C 1.3795361318 -0.6292768464 0.3707961382
|  9> H 1.4325190143 -1.3882306271 1.1642595316
| 10> C 2.0002114052 -1.2357766721 -0.8947764661
| 11> C -0.0923615809 -0.3178121526 0.1737205075
| 12> C -0.6953249519 0.8360742551 0.662705511
| 13> C -2.0473596914 1.0734792238 0.4777881089
| 14> C -2.8356545951 0.157314534 -0.1935531353
| 15> C -2.2564619484 -1.0067783153 -0.6678248882
| 16> C -0.9059326806 -1.2386741342 -0.483173365
| 17> H 2.8564253325 2.5377935704 0.2563627813
| 18> H 2.963778505 1.3433897932 -1.0316770334
| 19> H 1.3926498143 1.9868172376 -0.562072921
| 20> H 3.2198746434 0.1896310784 1.0974083485
| 21> H 1.7983636361 0.9637626041 1.7682896417
| 22> H 1.6486871509 -2.2494650996 -1.0631799866
| 23> H 1.7519452992 -0.6376247188 -1.767606228
| 24> H 3.0821722976 -1.2740813816 -0.7926265061
| 25> H -0.1210403446 1.5714544819 1.2021056497
| 26> H -2.4850166529 1.982502384 0.8643489607
| 27> H -3.8891769907 0.3438056442 -0.3394596122
| 28> H -2.8594148865 -1.7404097188 -1.182909251
| 29> H -0.4858812664 -2.1605092255 -0.8537814749
| 30> *
| 31>
| 32>                          ****END OF INPUT****

CARTESIAN COORDINATES (ANGSTROEM)
---------------------------------
  C      2.364742    1.675380   -0.188310
  C      2.223790    0.562813    0.846727
  C      1.379536   -0.629277    0.370796
  H      1.432519   -1.388231    1.164260
  C      2.000211   -1.235777   -0.894776
  C     -0.092362   -0.317812    0.173721
  C     -0.695325    0.836074    0.662706
  C     -2.047360    1.073479    0.477788
  C     -2.835655    0.157315   -0.193553
  C     -2.256462   -1.006778   -0.667825
  C     -0.905933   -1.238674   -0.483173
  H      2.856425    2.537794    0.256363
  H      2.963779    1.343390   -1.031677
  H      1.392650    1.986817   -0.562073
  H      3.219875    0.189631    1.097408
  H      1.798364    0.963763    1.768290
  H      1.648687   -2.249465   -1.063180
  H      1.751945   -0.637625   -1.767606
  H      3.082172   -1.274081   -0.792627
  H     -0.121040    1.571454    1.202106
  H     -2.485017    1.982502    0.864349
  H     -3.889177    0.343806   -0.339460
  H     -2.859415   -1.740410   -1.182909
  H     -0.485881   -2.160509   -0.853781

 Total Charge           Charge          ....    0
 Multiplicity           Mult            ....    1
 Number of Electrons    NEL             ....   74
 Basis Dimension        Dim             ....  168

ORBITAL ENERGIES
----------------

  NO   OCC          E(Eh)            E(eV)
   0   2.0000      -9.899586      -269.3814
   1   2.0000      -9.898881      -269.3623
   2   2.0000      -9.886622      -269.0287
   3   2.0000      -9.886589      -269.0278
   4   2.0000      -9.885602      -269.0009
   5   2.0000      -9.884976      -268.9839
   6   2.0000      -9.884747      -268.9776
   7   2.0000      -9.884539      -268.9720
   8   2.0000      -9.875554      -268.7275
   9   2.0000      -9.871322      -268.6123
  10   2.0000      -0.776586       -21.1320
  11   2.0000      -0.729567       -19.8525
  12   2.0000      -0.669965       -18.2307
  13   2.0000      -0.662669       -18.0321
  14   2.0000      -0.639156       -17.3923
  15   2.0000      -0.578704       -15.7473
  16   2.0000      -0.541262       -14.7285
  17   2.0000      -0.532818       -14.4987
  18   2.0000      -0.494190       -13.4476
  19   2.0000      -0.458654       -12.4806
  20   2.0000      -0.420951       -11.4546
  21   2.0000      -0.407317       -11.0836
  22   2.0000      -0.401868       -10.9354
  23   2.0000      -0.392668       -10.6850
  24   2.0000      -0.372731       -10.1425
  25   2.0000      -0.358780        -9.7629
  26   2.0000      -0.347844        -9.4653
  27   2.0000      -0.338522        -9.2116
  28   2.0000      -0.333477        -9.0744
  29   2.0000      -0.323771        -8.8103
  30   2.0000      -0.309632        -8.4255
  31   2.0000      -0.301575        -8.2063
  32   2.0000      -0.288852        -7.8601
  33   2.0000      -0.277594        -7.5537
  34   2.0000      -0.272802        -7.4233
  35   2.0000      -0.224360        -6.1051
  36   2.0000      -0.215930        -5.8758
  37   0.0000      -0.031206        -0.8491
  38   0.0000      -0.029108        -0.7921
  39   0.0000       0.033353         0.9076
  40   0.0000       0.054924         1.4946
  41   0.0000       0.068342         1.8597

MULLIKEN ATOMIC CHARGES
-----------------------
   0 C :   -0.293600
   1 C :   -0.169911
   2 C :   -0.114293
   3 H :    0.087214
   4 C :   -0.269854
   5 C :    0.116081
   6 C :   -0.136008
   7 C :   -0.047995
   8 C :   -0.047350
   9 C :   -0.044791
  10 C :   -0.128330
  11 H :    0.101828
  12 H :    0.102624
  13 H :    0.118154
  14 H :    0.084340
  15 H :    0.092501
  16 H :    0.111853
  17 H :    0.113447
  18 H :    0.099690
  19 H :    0.044503
  20 H :    0.046870
  21 H :    0.049483
  22 H :    0.048129
  23 H :    0.035414
Sum of atomic charges:   -0.0000000

LOEWDIN ATOMIC CHARGES
----------------------
   0 C :   -0.346459
   1 C :   -0.227081
   2 C :   -0.137434
   3 H :    0.129726
   4 C :   -0.327765
   5 C :   -0.029419
   6 C :   -0.128322
   7 C :   -0.122406
   8 C :   -0.129494
   9 C :   -0.121896
  10 C :   -0.122117
  11 H :    0.120552
  12 H :    0.118742
  13 H :    0.121111
  14 H :    0.117102
  15 H :    0.114287
  16 H :    0.118458
  17 H :    0.123290
  18 H :    0.119044
  19 H :    0.123058
  20 H :    0.121898
  21 H :    0.121968
  22 H :    0.121901
  23 H :    0.121259

  Mayer bond orders larger than 0.100000
B(  0-C ,  1-C ) :   1.1488 B(  0-C , 11-H ) :   0.9509 B(  0-C , 12-H ) :   0.9463
B(  0-C , 13-H ) :   0.9481 B(  1-C ,  2-C ) :   1.1218 B(  1-C , 14-H ) :   0.9170
B(  1-C , 15-H ) :   0.9077 B(  2-C ,  3-H ) :   0.8724 B(  2-C ,  4-C ) :   1.1088
B(  2-C ,  5-C ) :   0.9916 B(  4-C , 16-H ) :   0.9372 B(  4-C , 17-H ) :   0.9460
B(  4-C , 18-H ) :   0.9463 B(  5-C ,  6-C ) :   1.4124 B(  5-C , 10-C ) :   1.3793
B(  6-C ,  7-C ) :   1.3656 B(  6-C , 19-H ) :   0.9451 B(  7-C ,  8-C ) :   1.3844
B(  7-C , 20-H ) :   0.9608 B(  8-C ,  9-C ) :   1.3708 B(  8-C , 21-H ) :   0.9662
B(  9-C , 10-C ) :   1.3863 B(  9-C , 22-H ) :   0.9617 B( 10-C , 23-H ) :   0.9607

Dispersion correction           -0.025476957
FINAL SINGLE POINT ENERGY      -388.575905829160

DIPOLE MOMENT
-------------

Method             : SCF
Type of density    : Electron Density
Multiplicity       :   1
Irrep              :   0
Energy             :  -388.6456627200807361 Eh
Relativity type    :
Basis              : AO
                                X                 Y                 Z
Electronic contribution:     -9.506741360      -1.431587143       1.200323166
Nuclear contribution   :      9.668637925       1.378012942      -1.163831449
                        -----------------------------------------
Total Dipole Moment    :      0.161896565      -0.053574201       0.036491717
                        -----------------------------------------
Magnitude (a.u.)       :      0.174391336
Magnitude (Debye)      :      0.443267548

Rotational constants in cm-1:             0.083408             0.031345             0.025006
Rotational constants in MHz :          2500.518490           939.685750           749.656650

                             ****ORCA TERMINATED NORMALLY****
TOTAL RUN TIME: 0 days 0 hours 0 minutes 12 seconds 695 msec
