                         Program Version 6.0.0  -   RELEASE  -
|  1> ! r2scan-3c def2/J RI DEFGRID2 scfconv6 printgap
|  2> %output
|  3>     printlevel normal
|  4> end
|  5> * xyz 0 1
|  6> C -1.2330153349 0.1986035718 -0.2920016948
|  7> C 0.1251573549 0.6602266917 0.2651373603
|  8> C 1.2776276248 -0.1889525449 -0.296474085
|  9> O 1.0884065578 -1.5338456367 0.0876612361
| 10> O 0.3513807477 2.0279364586 0.0210812658
| 11> O -1.6741101185 -1.0098289067 0.2754256688
| 12> H -1.1695865851 0.103870794 -1.3874316363
| 13> H -1.9909418095 0.947739801 -0.0470847524
| 14> H 0.1051682365 0.5514070019 1.3550473088
| 15> H 2.2203258107 0.2076287883 0.0993872282
| 16> H 1.2877998343 -0.1022291167 -1.392735941
| 17> H 1.8509070923 -2.0604934868 -0.1886609458
| 18> H 0.3270304812 2.1957090223 -0.9322182989
| 19> H -0.9342073081 -1.6394758731 0.2485950737
| 20> *
| 21>
| 22>                          ****END OF INPUT****

CARTESIAN COORDINATES (ANGSTROEM)
---------------------------------
  C     -1.233015    0.198604   -0.292002
  C      0.125157    0.660227    0.265137
  C      1.277628   -0.188953   -0.296474
  O      1.088407   -1.533846    0.087661
  O      0.351381    2.027936    0.021081
  O     -1.674110   -1.009829    0.275426
  H     -1.169587    0.103871   -1.387432
  H     -1.990942    0.947740   -0.047085
  H      0.105168    0.551407    1.355047
  H      2.220326    0.207629    0.099387
  H      1.287800   -0.102229   -1.392736
  H      1.850907   -2.060493   -0.188661
  H      0.327030    2.195709   -0.932218
  H     -0.934207   -1.639476    0.248595

 Total Charge           Charge          ....    0
 Multiplicity           Mult            ....    1
 Number of Electrons    NEL             ....   50
 Basis Dimension        Dim             ....  169

ORBITAL ENERGIES
----------------

  NO   OCC          E(Eh)            E(eV)
   0   2.0000     -18.977616      -516.4072
   1   2.0000     -18.963219      -516.0154
   2   2.0000     -18.935687      -515.2662
   3   2.0000     -10.091764      -274.6108
   4   2.0000     -10.088031      -274.5093
   5   2.0000     -10.072501      -274.0867
   6   2.0000      -1.016568       -27.6622
   7   2.0000      -0.999897       -27.2086
   8   2.0000      -0.974004       -26.5040
   9   2.0000      -0.726044       -19.7567
  10   2.0000      -0.646633       -17.5958
  11   2.0000      -0.582106       -15.8399
  12   2.0000      -0.516106       -14.0439
  13   2.0000      -0.490808       -13.3556
  14   2.0000      -0.452981       -12.3262
  15   2.0000      -0.425920       -11.5899
  16   2.0000      -0.422786       -11.5046
  17   2.0000      -0.390150       -10.6165
  18   2.0000      -0.370028       -10.0690
  19   2.0000      -0.349205        -9.5024
  20   2.0000      -0.306822        -8.3490
  21   2.0000      -0.300028        -8.1642
  22   2.0000      -0.261602        -7.1186
  23   2.0000      -0.254640        -6.9291
  24   2.0000      -0.222454        -6.0533
  25   0.0000       0.020319         0.5529
  26   0.0000       0.060463         1.6453
  27   0.0000       0.101832         2.7710
  28   0.0000       0.120639         3.2827
  29   0.0000       0.129962         3.5364

MULLIKEN ATOMIC CHARGES
-----------------------
   0 C :   -0.181320
   1 C :   -0.000218
   2 C :   -0.154228
   3 O :   -0.430371
   4 O :   -0.408824
   5 O :   -0.423173
   6 H :    0.121694
   7 H :    0.150907
   8 H :    0.151714
   9 H :    0.139777
  10 H :    0.119261
  11 H :    0.302976
  12 H :    0.297439
  13 H :    0.314366
Sum of atomic charges:    0.0000000

LOEWDIN ATOMIC CHARGES
----------------------
   0 C :    0.020849
   1 C :    0.084797
   2 C :    0.028130
   3 O :   -0.629865
   4 O :   -0.586226
   5 O :   -0.604581
   6 H :    0.156019
   7 H :    0.184454
   8 H :    0.194781
   9 H :    0.169034
  10 H :    0.158611
  11 H :    0.274015
  12 H :    0.271135
  13 H :    0.278846

  Mayer bond orders larger than 0.100000
B(  0-C ,  1-C ) :   0.9429 B(  0-C ,  5-O ) :   0.9737 B(  0-C ,  6-H ) :   0.9655
B(  0-C ,  7-H ) :   0.9703 B(  1-C ,  2-C ) :   0.9698 B(  1-C ,  4-O ) :   0.9540
B(  1-C ,  8-H ) :   0.9431 B(  2-C ,  3-O ) :   0.9378 B(  2-C ,  9-H ) :   0.9567
B(  2-C , 10-H ) :   0.9541 B(  3-O , 11-H ) :   0.8933 B(  4-O , 12-H ) :   0.8908
B(  5-O , 13-H ) :   0.8510

Dispersion correction           -0.003064825
FINAL SINGLE POINT ENERGY      -344.721835742809

DIPOLE MOMENT
-------------

Method             : SCF
Type of density    : Electron Density
Multiplicity       :   1
Irrep              :   0
Energy             :  -344.7296637056989539 Eh
Relativity type    :
Basis              : AO
                                X                 Y                 Z
Electronic contribution:     -0.461195331      -0.367175385       1.233033514
Nuclear contribution   :      1.588127141       0.183875199      -2.100589479
                        -----------------------------------------
Total Dipole Moment    :      1.126931809      -0.183300186      -0.867555965
                        -----------------------------------------
Magnitude (a.u.)       :      1.433955234
Magnitude (Debye)      :      3.644824547

Rotational constants in cm-1:             0.129388             0.112026             0.064876
Rotational constants in MHz :          3878.947110          3358.461234          1944.927385

                             ****ORCA TERMINATED NORMALLY****
TOTAL RUN TIME: 0 days 0 hours 0 minutes 20 seconds 752 msec
