                         Program Version 6.0.0  -   RELEASE  -
|  1> ! r2scan-3c def2/J RI DEFGRID2 scfconv6 printgap
|  2> %output
|  3>     printlevel normal
|  4> end
|  5> %cpcm
|  6>     smd true
|  7>     smdsolvent "water"
|  8> end
|  9> * xyz 0 1
| 10> C -1.2330153349 0.1986035718 -0.2920016948
| 11> C 0.1251573549 0.6602266917 0.2651373603
| 12> C 1.2776276248 -0.1889525449 -0.296474085
| 13> O 1.0884065578 -1.5338456367 0.0876612361
| 14> O 0.3513807477 2.0279364586 0.0210812658
| 15> O -1.6741101185 -1.0098289067 0.2754256688
| 16> H -1.1695865851 0.103870794 -1.3874316363
| 17> H -1.9909418095 0.947739801 -0.0470847524
| 18> H 0.1051682365 0.5514070019 1.3550473088
| 19> H 2.2203258107 0.2076287883 0.0993872282
| 20> H 1.2877998343 -0.1022291167 -1.392735941
| 21> H 1.8509070923 -2.0604934868 -0.1886609458
| 22> H 0.3270304812 2.1957090223 -0.9322182989
| 23> H -0.9342073081 -1.6394758731 0.2485950737
| 24> *
| 25>
| 26>                          ****END OF INPUT****

CARTESIAN COORDINATES (ANGSTROEM)
---------------------------------
  C     -1.233015    0.198604   -0.292002
  C      0.125157    0.660227    0.265137
  C      1.277628   -0.188953   -0.296474
  O      1.088407   -1.533846    0.087661
  O      0.351381    2.027936    0.021081
  O     -1.674110   -1.009829    0.275426
  H     -1.169587    0.103871   -1.387432
  H     -1.990942    0.947740   -0.047085
  H      0.105168    0.551407    1.355047
  H      2.220326    0.207629    0.099387
  H      1.287800   -0.102229   -1.392736
  H      1.850907   -2.060493   -0.188661
  H      0.327030    2.195709   -0.932218
  H     -0.934207   -1.639476    0.248595

 Total Charge           Charge          ....    0
 Multiplicity           Mult            ....    1
 Number of Electrons    NEL             ....   50
 Basis Dimension        Dim             ....  169

ORBITAL ENERGIES
----------------

  NO   OCC          E(Eh)            E(eV)
   0   2.0000     -18.961336      -515.9642
   1   2.0000     -18.960513      -515.9418
   2   2.0000     -18.949740      -515.6486
   3   2.0000     -10.081981      -274.3447
   4   2.0000     -10.073857      -274.1236
   5   2.0000     -10.070315      -274.0272
   6   2.0000      -1.006147       -27.3787
   7   2.0000      -0.991889       -26.9907
   8   2.0000      -0.984168       -26.7806
   9   2.0000      -0.717575       -19.5262
  10   2.0000      -0.639774       -17.4091
  11   2.0000      -0.575146       -15.6505
  12   2.0000      -0.505168       -13.7463
  13   2.0000      -0.483654       -13.1609
  14   2.0000      -0.445597       -12.1253
  15   2.0000      -0.422265       -11.4904
  16   2.0000      -0.412822       -11.2335
  17   2.0000      -0.393341       -10.7033
  18   2.0000      -0.364782        -9.9262
  19   2.0000      -0.347647        -9.4600
  20   2.0000      -0.304464        -8.2849
  21   2.0000      -0.303631        -8.2622
  22   2.0000      -0.258345        -7.0299
  23   2.0000      -0.247106        -6.7241
  24   2.0000      -0.230538        -6.2733
  25   0.0000       0.039049         1.0626
  26   0.0000       0.090586         2.4650
  27   0.0000       0.108178         2.9437
  28   0.0000       0.130077         3.5396
  29   0.0000       0.145719         3.9652

MULLIKEN ATOMIC CHARGES
-----------------------
   0 C :   -0.185508
   1 C :    0.007726
   2 C :   -0.163826
   3 O :   -0.492007
   4 O :   -0.488080
   5 O :   -0.503934
   6 H :    0.149443
   7 H :    0.157025
   8 H :    0.162999
   9 H :    0.149181
  10 H :    0.149342
  11 H :    0.352178
  12 H :    0.355974
  13 H :    0.349488
Sum of atomic charges:    0.0000000

LOEWDIN ATOMIC CHARGES
----------------------
   0 C :    0.021179
   1 C :    0.082775
   2 C :    0.034477
   3 O :   -0.643672
   4 O :   -0.613452
   5 O :   -0.646930
   6 H :    0.169776
   7 H :    0.186477
   8 H :    0.194250
   9 H :    0.173494
  10 H :    0.171568
  11 H :    0.292340
  12 H :    0.291639
  13 H :    0.286079

  Mayer bond orders larger than 0.100000
B(  0-C ,  1-C ) :   0.9299 B(  0-C ,  5-O ) :   0.9502 B(  0-C ,  6-H ) :   0.9598
B(  0-C ,  7-H ) :   0.9652 B(  1-C ,  2-C ) :   0.9484 B(  1-C ,  4-O ) :   0.9483
B(  1-C ,  8-H ) :   0.9551 B(  2-C ,  3-O ) :   0.9318 B(  2-C ,  9-H ) :   0.9561
B(  2-C , 10-H ) :   0.9560 B(  3-O , 11-H ) :   0.8669 B(  4-O , 12-H ) :   0.8617
B(  5-O , 13-H ) :   0.8328

Dispersion correction           -0.003064825
FINAL SINGLE POINT ENERGY      -344.742225608048

DIPOLE MOMENT
-------------

Method             : SCF
Type of density    : Electron Density
Multiplicity       :   1
Irrep              :   0
Energy             :  -344.7500535709381211 Eh
Relativity type    :
Basis              : AO
                                X                 Y                 Z
Electronic contribution:     -0.114828417      -0.386479367       0.807550163
Nuclear contribution   :      1.588127141       0.183875199      -2.100589479
                        -----------------------------------------
Total Dipole Moment    :      1.473298724      -0.202604169      -1.293039317
                        -----------------------------------------
Magnitude (a.u.)       :      1.970687254
Magnitude (Debye)      :      5.009088921

Rotational constants in cm-1:             0.129388             0.112026             0.064876
Rotational constants in MHz :          3878.947110          3358.461234          1944.927385

                             ****ORCA TERMINATED NORMALLY****
TOTAL RUN TIME: 0 days 0 hours 0 minutes 23 seconds 713 msec
