                         Program Version 6.0.0  -   RELEASE  -
|  1> ! r2scan-3c def2/J RI DEFGRID2 scfconv6 printgap
|  2> %output
|  3>     printlevel normal
|  4> end
|  5> * xyz 0 1
|  6> C -1.5726249108 -0.8463556378 0.0840971961
|  7> O -1.2524235851 0.5321578698 0.1099392179
|  8> C -0.0410598774 0.8610969115 -0.5363763666
|  9> C 1.2128352055 0.4865699219 0.2627972897
| 10> O 1.5316726885 -0.8739137653 0.0439739684
| 11> H -1.6923737052 -1.1927177102 -0.9481548013
| 12> H -2.5135803227 -0.944617539 0.6196340216
| 13> H -0.7993635867 -1.4454069685 0.5702451312
| 14> H 0.0097511406 0.3769161379 -1.5205485731
| 15> H -0.0752293888 1.9448251732 -0.6600941657
| 16> H 1.0195753522 0.6735071849 1.3269128936
| 17> H 2.0376404121 1.1267260829 -0.0718605498
| 18> H 2.3575278907 -1.0880993633 0.4986343586
| 19> *
| 20>
| 21>                          ****END OF INPUT****

CARTESIAN COORDINATES (ANGSTROEM)
---------------------------------
  C     -1.572625   -0.846356    0.084097
  O     -1.252424    0.532158    0.109939
  C     -0.041060    0.861097   -0.536376
  C      1.212835    0.486570    0.262797
  O      1.531673   -0.873914    0.043974
  H     -1.692374   -1.192718   -0.948155
  H     -2.513580   -0.944618    0.619634
  H     -0.799364   -1.445407    0.570245
  H      0.009751    0.376916   -1.520549
  H     -0.075229    1.944825   -0.660094
  H      1.019575    0.673507    1.326913
  H      2.037640    1.126726   -0.071861
  H      2.357528   -1.088099    0.498634

 Total Charge           Charge          ....    0
 Multiplicity           Mult            ....    1
 Number of Electrons    NEL             ....   42
 Basis Dimension        Dim             ....  145

ORBITAL ENERGIES
----------------

  NO   OCC          E(Eh)            E(eV)
   0   2.0000     -18.954416      -515.7759
   1   2.0000     -18.945206      -515.5253
   2   2.0000     -10.078967      -274.2626
   3   2.0000     -10.075059      -274.1563
   4   2.0000     -10.058421      -273.7035
   5   2.0000      -0.997751       -27.1502
   6   2.0000      -0.982981       -26.7483
   7   2.0000      -0.715802       -19.4780
   8   2.0000      -0.641152       -17.4466
   9   2.0000      -0.563162       -15.3244
  10   2.0000      -0.496116       -13.5000
  11   2.0000      -0.457842       -12.4585
  12   2.0000      -0.423984       -11.5372
  13   2.0000      -0.420918       -11.4538
  14   2.0000      -0.390069       -10.6143
  15   2.0000      -0.364046        -9.9062
  16   2.0000      -0.343398        -9.3443
  17   2.0000      -0.314086        -8.5467
  18   2.0000      -0.275992        -7.5101
  19   2.0000      -0.244929        -6.6649
  20   2.0000      -0.213351        -5.8056
  21   0.0000       0.054451         1.4817
  22   0.0000       0.082528         2.2457
  23   0.0000       0.113594         3.0910
  24   0.0000       0.120954         3.2913
  25   0.0000       0.136289         3.7086

MULLIKEN ATOMIC CHARGES
-----------------------
   0 C :   -0.292832
   1 O :   -0.241629
   2 C :   -0.182607
   3 C :   -0.102840
   4 O :   -0.433749
   5 H :    0.129697
   6 H :    0.139742
   7 H :    0.158000
   8 H :    0.139605
   9 H :    0.142445
  10 H :    0.133844
  11 H :    0.116621
  12 H :    0.293703
Sum of atomic charges:    0.0000000

LOEWDIN ATOMIC CHARGES
----------------------
   0 C :   -0.073548
   1 O :   -0.780957
   2 C :    0.023561
   3 C :    0.013783
   4 O :   -0.629630
   5 H :    0.156105
   6 H :    0.170622
   7 H :    0.169071
   8 H :    0.174753
   9 H :    0.183392
  10 H :    0.166378
  11 H :    0.159336
  12 H :    0.267133

  Mayer bond orders larger than 0.100000
B(  0-C ,  1-O ) :   0.8890 B(  0-C ,  5-H ) :   0.9683 B(  0-C ,  6-H ) :   0.9737
B(  0-C ,  7-H ) :   0.9573 B(  1-O ,  2-C ) :   0.9286 B(  2-C ,  3-C ) :   0.9534
B(  2-C ,  8-H ) :   0.9700 B(  2-C ,  9-H ) :   0.9686 B(  3-C ,  4-O ) :   0.9222
B(  3-C , 10-H ) :   0.9633 B(  3-C , 11-H ) :   0.9568 B(  4-O , 12-H ) :   0.9003

Dispersion correction           -0.002516253
FINAL SINGLE POINT ENERGY      -269.489168494418

DIPOLE MOMENT
-------------

Method             : SCF
Type of density    : Electron Density
Multiplicity       :   1
Irrep              :   0
Energy             :  -269.4971906378797257 Eh
Relativity type    :
Basis              : AO
                                X                 Y                 Z
Electronic contribution:      0.370796656       0.495651465       0.298071639
Nuclear contribution   :      0.326833267      -0.520012000      -0.171491517
                        -----------------------------------------
Total Dipole Moment    :      0.697629923      -0.024360534       0.126580122
                        -----------------------------------------
Magnitude (a.u.)       :      0.709438843
Magnitude (Debye)      :      1.803250233

Rotational constants in cm-1:             0.284866             0.119635             0.093483
Rotational constants in MHz :          8540.069098          3586.558857          2802.548727

                             ****ORCA TERMINATED NORMALLY****
TOTAL RUN TIME: 0 days 0 hours 0 minutes 15 seconds 375 msec
