                         Program Version 6.0.0  -   RELEASE  -
|  1> ! r2scan-3c def2/J RI DEFGRID2 scfconv6 printgap
|  2> %output
|  3>     printlevel normal
|  4> end
|  5> %cpcm
|  6>     smd true
|  7>     smdsolvent "water"
|  8> end
|  9> * xyz 0 1
| 10> C -1.5726249108 -0.8463556378 0.0840971961
| 11> O -1.2524235851 0.5321578698 0.1099392179
| 12> C -0.0410598774 0.8610969115 -0.5363763666
| 13> C 1.2128352055 0.4865699219 0.2627972897
| 14> O 1.5316726885 -0.8739137653 0.0439739684
| 15> H -1.6923737052 -1.1927177102 -0.9481548013
| 16> H -2.5135803227 -0.944617539 0.6196340216
| 17> H -0.7993635867 -1.4454069685 0.5702451312
| 18> H 0.0097511406 0.3769161379 -1.5205485731
| 19> H -0.0752293888 1.9448251732 -0.6600941657
| 20> H 1.0195753522 0.6735071849 1.3269128936
| 21> H 2.0376404121 1.1267260829 -0.0718605498
| 22> H 2.3575278907 -1.0880993633 0.4986343586
| 23> *
| 24>
| 25>                          ****END OF INPUT****

CARTESIAN COORDINATES (ANGSTROEM)
---------------------------------
  C     -1.572625   -0.846356    0.084097
  O     -1.252424    0.532158    0.109939
  C     -0.041060    0.861097   -0.536376
  C      1.212835    0.486570    0.262797
  O      1.531673   -0.873914    0.043974
  H     -1.692374   -1.192718   -0.948155
  H     -2.513580   -0.944618    0.619634
  H     -0.799364   -1.445407    0.570245
  H      0.009751    0.376916   -1.520549
  H     -0.075229    1.944825   -0.660094
  H      1.019575    0.673507    1.326913
  H      2.037640    1.126726   -0.071861
  H      2.357528   -1.088099    0.498634

 Total Charge           Charge          ....    0
 Multiplicity           Mult            ....    1
 Number of Electrons    NEL             ....   42
 Basis Dimension        Dim             ....  145

ORBITAL ENERGIES
----------------

  NO   OCC          E(Eh)            E(eV)
   0   2.0000     -18.955948      -515.8176
   1   2.0000     -18.951299      -515.6911
   2   2.0000     -10.071704      -274.0650
   3   2.0000     -10.071102      -274.0486
   4   2.0000     -10.060273      -273.7540
   5   2.0000      -1.002747       -27.2861
   6   2.0000      -0.983459       -26.7613
   7   2.0000      -0.713577       -19.4174
   8   2.0000      -0.641300       -17.4507
   9   2.0000      -0.560879       -15.2623
  10   2.0000      -0.489882       -13.3304
  11   2.0000      -0.458865       -12.4863
  12   2.0000      -0.425928       -11.5901
  13   2.0000      -0.423321       -11.5191
  14   2.0000      -0.387050       -10.5322
  15   2.0000      -0.363692        -9.8966
  16   2.0000      -0.342033        -9.3072
  17   2.0000      -0.314263        -8.5515
  18   2.0000      -0.284748        -7.7484
  19   2.0000      -0.244500        -6.6532
  20   2.0000      -0.221103        -6.0165
  21   0.0000       0.070110         1.9078
  22   0.0000       0.084272         2.2932
  23   0.0000       0.120681         3.2839
  24   0.0000       0.129475         3.5232
  25   0.0000       0.139428         3.7940

MULLIKEN ATOMIC CHARGES
-----------------------
   0 C :   -0.315262
   1 O :   -0.306124
   2 C :   -0.184600
   3 C :   -0.117737
   4 O :   -0.505381
   5 H :    0.154124
   6 H :    0.158971
   7 H :    0.160843
   8 H :    0.154654
   9 H :    0.164317
  10 H :    0.145191
  11 H :    0.144838
  12 H :    0.346167
Sum of atomic charges:    0.0000000

LOEWDIN ATOMIC CHARGES
----------------------
   0 C :   -0.076491
   1 O :   -0.820666
   2 C :    0.021692
   3 C :    0.019275
   4 O :   -0.657569
   5 H :    0.164896
   6 H :    0.177579
   7 H :    0.169823
   8 H :    0.180454
   9 H :    0.192094
  10 H :    0.171260
  11 H :    0.171930
  12 H :    0.285723

  Mayer bond orders larger than 0.100000
B(  0-C ,  1-O ) :   0.8791 B(  0-C ,  5-H ) :   0.9634 B(  0-C ,  6-H ) :   0.9668
B(  0-C ,  7-H ) :   0.9556 B(  1-O ,  2-C ) :   0.9088 B(  2-C ,  3-C ) :   0.9450
B(  2-C ,  8-H ) :   0.9629 B(  2-C ,  9-H ) :   0.9617 B(  3-C ,  4-O ) :   0.9102
B(  3-C , 10-H ) :   0.9633 B(  3-C , 11-H ) :   0.9573 B(  4-O , 12-H ) :   0.8740

Dispersion correction           -0.002516253
FINAL SINGLE POINT ENERGY      -269.498750530594

DIPOLE MOMENT
-------------

Method             : SCF
Type of density    : Electron Density
Multiplicity       :   1
Irrep              :   0
Energy             :  -269.5067726740556395 Eh
Relativity type    :
Basis              : AO
                                X                 Y                 Z
Electronic contribution:      0.622540213       0.526467869       0.317934977
Nuclear contribution   :      0.326833267      -0.520012000      -0.171491517
                        -----------------------------------------
Total Dipole Moment    :      0.949373479       0.006455869       0.146443460
                        -----------------------------------------
Magnitude (a.u.)       :      0.960623427
Magnitude (Debye)      :      2.441710705

Rotational constants in cm-1:             0.284866             0.119635             0.093483
Rotational constants in MHz :          8540.069098          3586.558857          2802.548727

                             ****ORCA TERMINATED NORMALLY****
TOTAL RUN TIME: 0 days 0 hours 0 minutes 18 seconds 306 msec
