                         Program Version 6.0.0  -   RELEASE  -
|  1> ! pbe def2-sv(p) def2/J RI DEFGRID1 loosescf d4 GCP(DFT/SV(P)) printgap
|  2> %output
|  3>     printlevel normal
|  4> end
|  5> * xyz 0 1
|  6> C 1.9440751692 -0.7626161179 -0.8239161156
|  7> C 1.2034028713 -0.1294247889 0.3532012274
|  8> H 0.91114084 -0.9173674773 1.067064308
|  9> C -0.0520392962 0.6395886803 -0.0890660535
| 10> C -1.3761737907 -0.075366445 0.1971967642
| 11> C -2.5411557474 0.8650130589 -0.1086332206
| 12> C -1.5196931711 -1.361010237 -0.6141566646
| 13> O 2.0382475449 0.8017407734 1.0321630354
| 14> H 2.3122972605 0.0199015102 -1.4837149955
| 15> H 2.7892342419 -1.3527066194 -0.4749683204
| 16> H 1.2769867737 -1.4100691672 -1.3833309671
| 17> H -0.0411390169 1.5876986658 0.4532255372
| 18> H 0.0155681277 0.8686384466 -1.1537109599
| 19> H -1.4069040257 -0.3292064921 1.2630598554
| 20> H -2.5372566296 1.1403139917 -1.1608834494
| 21> H -2.4677253209 1.7733634245 0.4844148697
| 22> H -3.4891510218 0.3827723946 0.1171074674
| 23> H -2.4887908527 -1.8168379999 -0.4246320185
| 24> H -1.4446929871 -1.1461796531 -1.6778562853
| 25> H -0.749884525 -2.079914706 -0.3472215551
| 26> H 2.8695057791 0.3700598394 1.2711425138
| 27> *
| 28>
| 29>                          ****END OF INPUT****

CARTESIAN COORDINATES (ANGSTROEM)
---------------------------------
  C      1.944075   -0.762616   -0.823916
  C      1.203403   -0.129425    0.353201
  H      0.911141   -0.917367    1.067064
  C     -0.052039    0.639589   -0.089066
  C     -1.376174   -0.075366    0.197197
  C     -2.541156    0.865013   -0.108633
  C     -1.519693   -1.361010   -0.614157
  O      2.038248    0.801741    1.032163
  H      2.312297    0.019902   -1.483715
  H      2.789234   -1.352707   -0.474968
  H      1.276987   -1.410069   -1.383331
  H     -0.041139    1.587699    0.453226
  H      0.015568    0.868638   -1.153711
  H     -1.406904   -0.329206    1.263060
  H     -2.537257    1.140314   -1.160883
  H     -2.467725    1.773363    0.484415
  H     -3.489151    0.382772    0.117107
  H     -2.488791   -1.816838   -0.424632
  H     -1.444693   -1.146180   -1.677856
  H     -0.749885   -2.079915   -0.347222
  H      2.869506    0.370060    1.271143

 Total Charge           Charge          ....    0
 Multiplicity           Mult            ....    1
 Number of Electrons    NEL             ....   58
 Basis Dimension        Dim             ....  126

ORBITAL ENERGIES
----------------

  NO   OCC          E(Eh)            E(eV)
   0   2.0000     -18.734536      -509.7926
   1   2.0000      -9.933948      -270.3165
   2   2.0000      -9.893047      -269.2035
   3   2.0000      -9.874800      -268.7070
   4   2.0000      -9.874183      -268.6902
   5   2.0000      -9.872358      -268.6405
   6   2.0000      -9.869293      -268.5571
   7   2.0000      -0.911880       -24.8135
   8   2.0000      -0.730935       -19.8897
   9   2.0000      -0.673579       -18.3290
  10   2.0000      -0.613521       -16.6948
  11   2.0000      -0.606553       -16.5052
  12   2.0000      -0.529883       -14.4188
  13   2.0000      -0.496892       -13.5211
  14   2.0000      -0.451478       -12.2853
  15   2.0000      -0.412435       -11.2229
  16   2.0000      -0.403063       -10.9679
  17   2.0000      -0.384286       -10.4570
  18   2.0000      -0.373604       -10.1663
  19   2.0000      -0.352920        -9.6034
  20   2.0000      -0.341886        -9.3032
  21   2.0000      -0.336803        -9.1649
  22   2.0000      -0.320219        -8.7136
  23   2.0000      -0.309994        -8.4354
  24   2.0000      -0.288527        -7.8512
  25   2.0000      -0.281462        -7.6590
  26   2.0000      -0.278921        -7.5898
  27   2.0000      -0.261067        -7.1040
  28   2.0000      -0.208115        -5.6631
  29   0.0000       0.028118         0.7651
  30   0.0000       0.044733         1.2172
  31   0.0000       0.060498         1.6462
  32   0.0000       0.074208         2.0193
  33   0.0000       0.086256         2.3471

MULLIKEN ATOMIC CHARGES
-----------------------
   0 C :   -0.283299
   1 C :    0.037199
   2 H :    0.061361
   3 C :   -0.110866
   4 C :   -0.208465
   5 C :   -0.234295
   6 C :   -0.251937
   7 O :   -0.430110
   8 H :    0.106529
   9 H :    0.090427
  10 H :    0.103708
  11 H :    0.092486
  12 H :    0.072497
  13 H :    0.077674
  14 H :    0.091586
  15 H :    0.099504
  16 H :    0.096705
  17 H :    0.097906
  18 H :    0.093566
  19 H :    0.108343
  20 H :    0.289480
Sum of atomic charges:   -0.0000000

LOEWDIN ATOMIC CHARGES
----------------------
   0 C :   -0.355610
   1 C :   -0.052119
   2 H :    0.092483
   3 C :   -0.219848
   4 C :   -0.156288
   5 C :   -0.328581
   6 C :   -0.333100
   7 O :   -0.336603
   8 H :    0.122097
   9 H :    0.112046
  10 H :    0.123182
  11 H :    0.126177
  12 H :    0.114662
  13 H :    0.114801
  14 H :    0.116171
  15 H :    0.117688
  16 H :    0.116009
  17 H :    0.118051
  18 H :    0.116158
  19 H :    0.114465
  20 H :    0.278159

  Mayer bond orders larger than 0.100000
B(  0-C ,  1-C ) :   1.1157 B(  0-C ,  8-H ) :   0.9383 B(  0-C ,  9-H ) :   0.9453
B(  0-C , 10-H ) :   0.9306 B(  1-C ,  2-H ) :   0.9158 B(  1-C ,  3-C ) :   1.0472
B(  1-C ,  7-O ) :   1.0631 B(  3-C ,  4-C ) :   1.0842 B(  3-C , 11-H ) :   0.9085
B(  3-C , 12-H ) :   0.9149 B(  4-C ,  5-C ) :   1.1127 B(  4-C ,  6-C ) :   1.1052
B(  4-C , 13-H ) :   0.9024 B(  5-C , 14-H ) :   0.9497 B(  5-C , 15-H ) :   0.9501
B(  5-C , 16-H ) :   0.9512 B(  6-C , 17-H ) :   0.9482 B(  6-C , 18-H ) :   0.9467
B(  6-C , 19-H ) :   0.9409 B(  7-O , 20-H ) :   0.8538

Dispersion correction           -0.016259549
FINAL SINGLE POINT ENERGY      -311.515310729261

DIPOLE MOMENT
-------------

Method             : SCF
Type of density    : Electron Density
Multiplicity       :   1
Irrep              :   0
Energy             :  -311.5948228032314091 Eh
Relativity type    :
Basis              : AO
                                X                 Y                 Z
Electronic contribution:      4.323485359       2.200432821       3.173245034
Nuclear contribution   :     -4.145339799      -2.717720136      -3.221631341
                        -----------------------------------------
Total Dipole Moment    :      0.178145560      -0.517287315      -0.048386307
                        -----------------------------------------
Magnitude (a.u.)       :      0.549238784
Magnitude (Debye)      :      1.396054043

Rotational constants in cm-1:             0.142001             0.048989             0.040463
Rotational constants in MHz :          4257.083639          1468.650430          1213.053395

                             ****ORCA TERMINATED NORMALLY****
TOTAL RUN TIME: 0 days 0 hours 0 minutes 9 seconds 305 msec
