                         Program Version 6.0.0  -   RELEASE  -
|  1> ! r2scan-3c def2/J RI DEFGRID2 scfconv6 printgap
|  2> %output
|  3>     printlevel normal
|  4> end
|  5> * xyz 0 1
|  6> C -1.7661609466 0.9752543577 -0.3421888428
|  7> C -1.0530034089 0.2101996522 0.7687745266
|  8> C 0.1335226496 -0.6497000488 0.3015236921
|  9> C 1.197425349 0.1216012289 -0.4907604697
| 10> C 1.863550592 1.2282612508 0.3170644351
| 11> O -0.3052656394 -1.7839181834 -0.4305688534
| 12> H -2.1230704425 0.301099769 -1.1173490741
| 13> H -2.6276914774 1.4943308772 0.0705887876
| 14> H -1.1114880145 1.7152883428 -0.7943260253
| 15> H -0.6937131021 0.9105126824 1.5228484615
| 16> H -1.7642484019 -0.462760056 1.2534787137
| 17> H 0.6061889332 -1.081837479 1.1928165426
| 18> H 1.9529159621 -0.6024775591 -0.805455226
| 19> H 0.7475495295 0.5403526302 -1.3928699454
| 20> H 2.6755920199 1.6684180616 -0.2560728157
| 21> H 1.155075772 2.0142891871 0.5631080314
| 22> H 2.2722930794 0.8296150081 1.2426033226
| 23> H -0.7164228344 -1.479543525 -1.2513871724
| 24> *
| 25>
| 26>                          ****END OF INPUT****

CARTESIAN COORDINATES (ANGSTROEM)
---------------------------------
  C     -1.766161    0.975254   -0.342189
  C     -1.053003    0.210200    0.768775
  C      0.133523   -0.649700    0.301524
  C      1.197425    0.121601   -0.490760
  C      1.863551    1.228261    0.317064
  O     -0.305266   -1.783918   -0.430569
  H     -2.123070    0.301100   -1.117349
  H     -2.627691    1.494331    0.070589
  H     -1.111488    1.715288   -0.794326
  H     -0.693713    0.910513    1.522848
  H     -1.764248   -0.462760    1.253479
  H      0.606189   -1.081837    1.192817
  H      1.952916   -0.602478   -0.805455
  H      0.747550    0.540353   -1.392870
  H      2.675592    1.668418   -0.256073
  H      1.155076    2.014289    0.563108
  H      2.272293    0.829615    1.242603
  H     -0.716423   -1.479544   -1.251387

 Total Charge           Charge          ....    0
 Multiplicity           Mult            ....    1
 Number of Electrons    NEL             ....   50
 Basis Dimension        Dim             ....  179

ORBITAL ENERGIES
----------------

  NO   OCC          E(Eh)            E(eV)
   0   2.0000     -18.942081      -515.4402
   1   2.0000     -10.076599      -274.1982
   2   2.0000     -10.025810      -272.8162
   3   2.0000     -10.025763      -272.8149
   4   2.0000     -10.024194      -272.7722
   5   2.0000     -10.021872      -272.7090
   6   2.0000      -0.980505       -26.6809
   7   2.0000      -0.761970       -20.7343
   8   2.0000      -0.719921       -19.5900
   9   2.0000      -0.644256       -17.5311
  10   2.0000      -0.592105       -16.1120
  11   2.0000      -0.538821       -14.6621
  12   2.0000      -0.460128       -12.5207
  13   2.0000      -0.441798       -12.0219
  14   2.0000      -0.421720       -11.4756
  15   2.0000      -0.394702       -10.7404
  16   2.0000      -0.382388       -10.4053
  17   2.0000      -0.363076        -9.8798
  18   2.0000      -0.345875        -9.4117
  19   2.0000      -0.339445        -9.2368
  20   2.0000      -0.316475        -8.6117
  21   2.0000      -0.313723        -8.5368
  22   2.0000      -0.301446        -8.2028
  23   2.0000      -0.277697        -7.5565
  24   2.0000      -0.230258        -6.2656
  25   0.0000       0.059610         1.6221
  26   0.0000       0.084116         2.2889
  27   0.0000       0.109898         2.9905
  28   0.0000       0.122564         3.3351
  29   0.0000       0.133570         3.6346

MULLIKEN ATOMIC CHARGES
-----------------------
   0 C :   -0.513491
   1 C :   -0.235271
   2 C :   -0.028635
   3 C :   -0.244128
   4 C :   -0.494126
   5 O :   -0.411358
   6 H :    0.138425
   7 H :    0.153643
   8 H :    0.153714
   9 H :    0.144974
  10 H :    0.155724
  11 H :    0.146704
  12 H :    0.158124
  13 H :    0.137659
  14 H :    0.148542
  15 H :    0.149610
  16 H :    0.150185
  17 H :    0.289705
Sum of atomic charges:   -0.0000000

LOEWDIN ATOMIC CHARGES
----------------------
   0 C :   -0.424547
   1 C :   -0.297398
   2 C :    0.046636
   3 C :   -0.294585
   4 C :   -0.419476
   5 O :   -0.608581
   6 H :    0.146512
   7 H :    0.155345
   8 H :    0.151021
   9 H :    0.157890
  10 H :    0.165489
  11 H :    0.182232
  12 H :    0.164347
  13 H :    0.153791
  14 H :    0.152867
  15 H :    0.149803
  16 H :    0.152973
  17 H :    0.265683

  Mayer bond orders larger than 0.100000
B(  0-C ,  1-C ) :   0.8632 B(  0-C ,  6-H ) :   0.9834 B(  0-C ,  7-H ) :   0.9676
B(  0-C ,  8-H ) :   0.9792 B(  1-C ,  2-C ) :   0.8956 B(  1-C ,  9-H ) :   0.9722
B(  1-C , 10-H ) :   0.9662 B(  2-C ,  3-C ) :   0.9224 B(  2-C ,  5-O ) :   0.9428
B(  2-C , 11-H ) :   0.9801 B(  3-C ,  4-C ) :   0.8849 B(  3-C , 12-H ) :   0.9647
B(  3-C , 13-H ) :   0.9640 B(  4-C , 14-H ) :   0.9657 B(  4-C , 15-H ) :   0.9772
B(  4-C , 16-H ) :   0.9833 B(  5-O , 17-H ) :   0.8952

Dispersion correction           -0.004450386
FINAL SINGLE POINT ENERGY      -272.902140040650

DIPOLE MOMENT
-------------

Method             : SCF
Type of density    : Electron Density
Multiplicity       :   1
Irrep              :   0
Energy             :  -272.9073817772850816 Eh
Relativity type    :
Basis              : AO
                                X                 Y                 Z
Electronic contribution:     -0.389189779      -4.829396328      -0.334795923
Nuclear contribution   :      0.345386950       5.459238716       0.207496086
                        -----------------------------------------
Total Dipole Moment    :     -0.043802829       0.629842388      -0.127299837
                        -----------------------------------------
Magnitude (a.u.)       :      0.644069383
Magnitude (Debye)      :      1.637094270

Rotational constants in cm-1:             0.130776             0.093636             0.066543
Rotational constants in MHz :          3920.563357          2807.141039          1994.909236

                             ****ORCA TERMINATED NORMALLY****
TOTAL RUN TIME: 0 days 0 hours 0 minutes 24 seconds 414 msec
