                         Program Version 6.0.0  -   RELEASE  -
|  1> ! r2scan-3c def2/J RI DEFGRID2 scfconv6 printgap
|  2> %output
|  3>     printlevel normal
|  4> end
|  5> %cpcm
|  6>     smd true
|  7>     smdsolvent "water"
|  8> end
|  9> * xyz 0 1
| 10> C -1.7661609466 0.9752543577 -0.3421888428
| 11> C -1.0530034089 0.2101996522 0.7687745266
| 12> C 0.1335226496 -0.6497000488 0.3015236921
| 13> C 1.197425349 0.1216012289 -0.4907604697
| 14> C 1.863550592 1.2282612508 0.3170644351
| 15> O -0.3052656394 -1.7839181834 -0.4305688534
| 16> H -2.1230704425 0.301099769 -1.1173490741
| 17> H -2.6276914774 1.4943308772 0.0705887876
| 18> H -1.1114880145 1.7152883428 -0.7943260253
| 19> H -0.6937131021 0.9105126824 1.5228484615
| 20> H -1.7642484019 -0.462760056 1.2534787137
| 21> H 0.6061889332 -1.081837479 1.1928165426
| 22> H 1.9529159621 -0.6024775591 -0.805455226
| 23> H 0.7475495295 0.5403526302 -1.3928699454
| 24> H 2.6755920199 1.6684180616 -0.2560728157
| 25> H 1.155075772 2.0142891871 0.5631080314
| 26> H 2.2722930794 0.8296150081 1.2426033226
| 27> H -0.7164228344 -1.479543525 -1.2513871724
| 28> *
| 29>
| 30>                          ****END OF INPUT****

CARTESIAN COORDINATES (ANGSTROEM)
---------------------------------
  C     -1.766161    0.975254   -0.342189
  C     -1.053003    0.210200    0.768775
  C      0.133523   -0.649700    0.301524
  C      1.197425    0.121601   -0.490760
  C      1.863551    1.228261    0.317064
  O     -0.305266   -1.783918   -0.430569
  H     -2.123070    0.301100   -1.117349
  H     -2.627691    1.494331    0.070589
  H     -1.111488    1.715288   -0.794326
  H     -0.693713    0.910513    1.522848
  H     -1.764248   -0.462760    1.253479
  H      0.606189   -1.081837    1.192817
  H      1.952916   -0.602478   -0.805455
  H      0.747550    0.540353   -1.392870
  H      2.675592    1.668418   -0.256073
  H      1.155076    2.014289    0.563108
  H      2.272293    0.829615    1.242603
  H     -0.716423   -1.479544   -1.251387

 Total Charge           Charge          ....    0
 Multiplicity           Mult            ....    1
 Number of Electrons    NEL             ....   50
 Basis Dimension        Dim             ....  179

ORBITAL ENERGIES
----------------

  NO   OCC          E(Eh)            E(eV)
   0   2.0000     -18.947377      -515.5843
   1   2.0000     -10.071739      -274.0659
   2   2.0000     -10.016848      -272.5723
   3   2.0000     -10.016709      -272.5685
   4   2.0000     -10.010425      -272.3975
   5   2.0000     -10.010025      -272.3866
   6   2.0000      -0.984524       -26.7903
   7   2.0000      -0.753381       -20.5005
   8   2.0000      -0.709230       -19.2991
   9   2.0000      -0.636099       -17.3091
  10   2.0000      -0.582374       -15.8472
  11   2.0000      -0.533162       -14.5081
  12   2.0000      -0.453825       -12.3492
  13   2.0000      -0.435208       -11.8426
  14   2.0000      -0.411841       -11.2068
  15   2.0000      -0.389851       -10.6084
  16   2.0000      -0.370853       -10.0914
  17   2.0000      -0.356314        -9.6958
  18   2.0000      -0.337708        -9.1895
  19   2.0000      -0.329571        -8.9681
  20   2.0000      -0.307297        -8.3620
  21   2.0000      -0.305419        -8.3109
  22   2.0000      -0.294354        -8.0098
  23   2.0000      -0.274039        -7.4570
  24   2.0000      -0.234583        -6.3833
  25   0.0000       0.075428         2.0525
  26   0.0000       0.096451         2.6246
  27   0.0000       0.119692         3.2570
  28   0.0000       0.132609         3.6085
  29   0.0000       0.141768         3.8577

MULLIKEN ATOMIC CHARGES
-----------------------
   0 C :   -0.537136
   1 C :   -0.262060
   2 C :   -0.008443
   3 C :   -0.253400
   4 C :   -0.530086
   5 O :   -0.506479
   6 H :    0.158256
   7 H :    0.161782
   8 H :    0.164190
   9 H :    0.159634
  10 H :    0.154961
  11 H :    0.155850
  12 H :    0.153138
  13 H :    0.158460
  14 H :    0.158728
  15 H :    0.163637
  16 H :    0.160287
  17 H :    0.348680
Sum of atomic charges:   -0.0000000

LOEWDIN ATOMIC CHARGES
----------------------
   0 C :   -0.429887
   1 C :   -0.297589
   2 C :    0.045200
   3 C :   -0.294140
   4 C :   -0.424960
   5 O :   -0.648962
   6 H :    0.153851
   7 H :    0.156322
   8 H :    0.155216
   9 H :    0.163593
  10 H :    0.163635
  11 H :    0.184970
  12 H :    0.162284
  13 H :    0.161012
  14 H :    0.155367
  15 H :    0.154446
  16 H :    0.155504
  17 H :    0.284137

  Mayer bond orders larger than 0.100000
B(  0-C ,  1-C ) :   0.8692 B(  0-C ,  6-H ) :   0.9766 B(  0-C ,  7-H ) :   0.9671
B(  0-C ,  8-H ) :   0.9750 B(  1-C ,  2-C ) :   0.8991 B(  1-C ,  9-H ) :   0.9704
B(  1-C , 10-H ) :   0.9683 B(  2-C ,  3-C ) :   0.9192 B(  2-C ,  5-O ) :   0.9231
B(  2-C , 11-H ) :   0.9777 B(  3-C ,  4-C ) :   0.8822 B(  3-C , 12-H ) :   0.9623
B(  3-C , 13-H ) :   0.9656 B(  4-C , 14-H ) :   0.9636 B(  4-C , 15-H ) :   0.9743
B(  4-C , 16-H ) :   0.9801 B(  5-O , 17-H ) :   0.8673

Dispersion correction           -0.004450386
FINAL SINGLE POINT ENERGY      -272.908791184583

DIPOLE MOMENT
-------------

Method             : SCF
Type of density    : Electron Density
Multiplicity       :   1
Irrep              :   0
Energy             :  -272.9140329212184497 Eh
Relativity type    :
Basis              : AO
                                X                 Y                 Z
Electronic contribution:     -0.419044977      -4.564548557      -0.428090302
Nuclear contribution   :      0.345386950       5.459238716       0.207496086
                        -----------------------------------------
Total Dipole Moment    :     -0.073658026       0.894690160      -0.220594216
                        -----------------------------------------
Magnitude (a.u.)       :      0.924422952
Magnitude (Debye)      :      2.349696411

Rotational constants in cm-1:             0.130776             0.093636             0.066543
Rotational constants in MHz :          3920.563357          2807.141039          1994.909236

                             ****ORCA TERMINATED NORMALLY****
TOTAL RUN TIME: 0 days 0 hours 0 minutes 27 seconds 779 msec
