                         Program Version 6.0.0  -   RELEASE  -
|  1> ! r2scan-3c def2/J RI DEFGRID2 scfconv6 printgap
|  2> %output
|  3>     printlevel normal
|  4> end
|  5> * xyz 0 1
|  6> C 1.5604565777 -1.1922524479 -0.6521167238
|  7> C 1.062317478 -0.2659114093 0.4565925491
|  8> C 1.2492991549 1.195659189 0.0596135604
|  9> C -0.3881494557 -0.5730487299 0.8584692766
| 10> C -1.4489699956 -0.3533397261 -0.2205441712
| 11> O -1.7545229879 1.0250538586 -0.3291459662
| 12> H 1.0602601852 -0.979085266 -1.5933505885
| 13> H 1.3834026958 -2.233223254 -0.3917785411
| 14> H 2.6282184006 -1.0515160025 -0.8016874918
| 15> H 1.6726739343 -0.4555840685 1.3481993624
| 16> H 0.9183980599 1.8526086831 0.8601880612
| 17> H 0.6664462316 1.4296010418 -0.8265731638
| 18> H 2.2972542553 1.3997273287 -0.1485222555
| 19> H -0.6582447941 0.0552867089 1.7096141941
| 20> H -0.4450855158 -1.616349109 1.1746517521
| 21> H -1.1017411493 -0.7430619262 -1.185115705
| 22> H -2.3536772137 -0.907345375 0.0668829233
| 23> H -2.4668677939 1.1451101136 -0.9700818022
| 24> *
| 25>
| 26>                          ****END OF INPUT****

CARTESIAN COORDINATES (ANGSTROEM)
---------------------------------
  C      1.560457   -1.192252   -0.652117
  C      1.062317   -0.265911    0.456593
  C      1.249299    1.195659    0.059614
  C     -0.388149   -0.573049    0.858469
  C     -1.448970   -0.353340   -0.220544
  O     -1.754523    1.025054   -0.329146
  H      1.060260   -0.979085   -1.593351
  H      1.383403   -2.233223   -0.391779
  H      2.628218   -1.051516   -0.801687
  H      1.672674   -0.455584    1.348199
  H      0.918398    1.852609    0.860188
  H      0.666446    1.429601   -0.826573
  H      2.297254    1.399727   -0.148522
  H     -0.658245    0.055287    1.709614
  H     -0.445086   -1.616349    1.174652
  H     -1.101741   -0.743062   -1.185116
  H     -2.353677   -0.907345    0.066883
  H     -2.466868    1.145110   -0.970082

 Total Charge           Charge          ....    0
 Multiplicity           Mult            ....    1
 Number of Electrons    NEL             ....   50
 Basis Dimension        Dim             ....  179

ORBITAL ENERGIES
----------------

  NO   OCC          E(Eh)            E(eV)
   0   2.0000     -18.946163      -515.5513
   1   2.0000     -10.073715      -274.1197
   2   2.0000     -10.028907      -272.9004
   3   2.0000     -10.022166      -272.7170
   4   2.0000     -10.012048      -272.4417
   5   2.0000     -10.002293      -272.1762
   6   2.0000      -0.982599       -26.7379
   7   2.0000      -0.771450       -20.9922
   8   2.0000      -0.689691       -18.7674
   9   2.0000      -0.643013       -17.4973
  10   2.0000      -0.591882       -16.1059
  11   2.0000      -0.508287       -13.8312
  12   2.0000      -0.484962       -13.1965
  13   2.0000      -0.446119       -12.1395
  14   2.0000      -0.403929       -10.9915
  15   2.0000      -0.391187       -10.6447
  16   2.0000      -0.377246       -10.2654
  17   2.0000      -0.361044        -9.8245
  18   2.0000      -0.344216        -9.3666
  19   2.0000      -0.328999        -8.9525
  20   2.0000      -0.313482        -8.5303
  21   2.0000      -0.291248        -7.9253
  22   2.0000      -0.288250        -7.8437
  23   2.0000      -0.271376        -7.3845
  24   2.0000      -0.232497        -6.3266
  25   0.0000       0.059228         1.6117
  26   0.0000       0.092056         2.5050
  27   0.0000       0.117594         3.1999
  28   0.0000       0.123658         3.3649
  29   0.0000       0.132864         3.6154

MULLIKEN ATOMIC CHARGES
-----------------------
   0 C :   -0.511058
   1 C :   -0.037919
   2 C :   -0.486086
   3 C :   -0.259125
   4 C :   -0.170053
   5 O :   -0.414385
   6 H :    0.148140
   7 H :    0.145354
   8 H :    0.147362
   9 H :    0.146546
  10 H :    0.147747
  11 H :    0.172377
  12 H :    0.136106
  13 H :    0.153568
  14 H :    0.142256
  15 H :    0.127424
  16 H :    0.120324
  17 H :    0.291422
Sum of atomic charges:    0.0000000

LOEWDIN ATOMIC CHARGES
----------------------
   0 C :   -0.420799
   1 C :   -0.245612
   2 C :   -0.413670
   3 C :   -0.282595
   4 C :    0.004681
   5 O :   -0.632896
   6 H :    0.150230
   7 H :    0.152304
   8 H :    0.154151
   9 H :    0.154668
  10 H :    0.157012
  11 H :    0.164493
  12 H :    0.147827
  13 H :    0.170532
  14 H :    0.161933
  15 H :    0.156160
  16 H :    0.156609
  17 H :    0.264973

  Mayer bond orders larger than 0.100000
B(  0-C ,  1-C ) :   0.9164 B(  0-C ,  6-H ) :   0.9828 B(  0-C ,  7-H ) :   0.9758
B(  0-C ,  8-H ) :   0.9697 B(  1-C ,  2-C ) :   0.9213 B(  1-C ,  3-C ) :   0.9136
B(  1-C ,  9-H ) :   0.9668 B(  2-C , 10-H ) :   0.9711 B(  2-C , 11-H ) :   0.9754
B(  2-C , 12-H ) :   0.9702 B(  3-C ,  4-C ) :   0.9349 B(  3-C , 13-H ) :   0.9691
B(  3-C , 14-H ) :   0.9716 B(  4-C ,  5-O ) :   0.9144 B(  4-C , 15-H ) :   0.9797
B(  4-C , 16-H ) :   0.9549 B(  5-O , 17-H ) :   0.9007

Dispersion correction           -0.004471527
FINAL SINGLE POINT ENERGY      -272.895756808705

DIPOLE MOMENT
-------------

Method             : SCF
Type of density    : Electron Density
Multiplicity       :   1
Irrep              :   0
Energy             :  -272.9012345284545518 Eh
Relativity type    :
Basis              : AO
                                X                 Y                 Z
Electronic contribution:     -3.644451307       1.575507524       0.465260793
Nuclear contribution   :      3.352324301      -1.958525579      -0.715612348
                        -----------------------------------------
Total Dipole Moment    :     -0.292127005      -0.383018055      -0.250351554
                        -----------------------------------------
Magnitude (a.u.)       :      0.542878364
Magnitude (Debye)      :      1.379887141

Rotational constants in cm-1:             0.166127             0.079827             0.067852
Rotational constants in MHz :          4980.369903          2393.139250          2034.137247

                             ****ORCA TERMINATED NORMALLY****
TOTAL RUN TIME: 0 days 0 hours 0 minutes 24 seconds 785 msec
