                         Program Version 6.0.0  -   RELEASE  -
|  1> ! r2scan-3c def2/J RI DEFGRID2 scfconv6 printgap
|  2> %output
|  3>     printlevel normal
|  4> end
|  5> %cpcm
|  6>     smd true
|  7>     smdsolvent "water"
|  8> end
|  9> * xyz 0 1
| 10> C 1.5604565777 -1.1922524479 -0.6521167238
| 11> C 1.062317478 -0.2659114093 0.4565925491
| 12> C 1.2492991549 1.195659189 0.0596135604
| 13> C -0.3881494557 -0.5730487299 0.8584692766
| 14> C -1.4489699956 -0.3533397261 -0.2205441712
| 15> O -1.7545229879 1.0250538586 -0.3291459662
| 16> H 1.0602601852 -0.979085266 -1.5933505885
| 17> H 1.3834026958 -2.233223254 -0.3917785411
| 18> H 2.6282184006 -1.0515160025 -0.8016874918
| 19> H 1.6726739343 -0.4555840685 1.3481993624
| 20> H 0.9183980599 1.8526086831 0.8601880612
| 21> H 0.6664462316 1.4296010418 -0.8265731638
| 22> H 2.2972542553 1.3997273287 -0.1485222555
| 23> H -0.6582447941 0.0552867089 1.7096141941
| 24> H -0.4450855158 -1.616349109 1.1746517521
| 25> H -1.1017411493 -0.7430619262 -1.185115705
| 26> H -2.3536772137 -0.907345375 0.0668829233
| 27> H -2.4668677939 1.1451101136 -0.9700818022
| 28> *
| 29>
| 30>                          ****END OF INPUT****

CARTESIAN COORDINATES (ANGSTROEM)
---------------------------------
  C      1.560457   -1.192252   -0.652117
  C      1.062317   -0.265911    0.456593
  C      1.249299    1.195659    0.059614
  C     -0.388149   -0.573049    0.858469
  C     -1.448970   -0.353340   -0.220544
  O     -1.754523    1.025054   -0.329146
  H      1.060260   -0.979085   -1.593351
  H      1.383403   -2.233223   -0.391779
  H      2.628218   -1.051516   -0.801687
  H      1.672674   -0.455584    1.348199
  H      0.918398    1.852609    0.860188
  H      0.666446    1.429601   -0.826573
  H      2.297254    1.399727   -0.148522
  H     -0.658245    0.055287    1.709614
  H     -0.445086   -1.616349    1.174652
  H     -1.101741   -0.743062   -1.185116
  H     -2.353677   -0.907345    0.066883
  H     -2.466868    1.145110   -0.970082

 Total Charge           Charge          ....    0
 Multiplicity           Mult            ....    1
 Number of Electrons    NEL             ....   50
 Basis Dimension        Dim             ....  179

ORBITAL ENERGIES
----------------

  NO   OCC          E(Eh)            E(eV)
   0   2.0000     -18.946923      -515.5720
   1   2.0000     -10.066274      -273.9172
   2   2.0000     -10.024754      -272.7874
   3   2.0000     -10.016015      -272.5496
   4   2.0000     -10.005388      -272.2604
   5   2.0000     -10.003346      -272.2049
   6   2.0000      -0.982334       -26.7307
   7   2.0000      -0.767234       -20.8775
   8   2.0000      -0.684853       -18.6358
   9   2.0000      -0.640816       -17.4375
  10   2.0000      -0.587016       -15.9735
  11   2.0000      -0.504517       -13.7286
  12   2.0000      -0.480385       -13.0719
  13   2.0000      -0.441460       -12.0127
  14   2.0000      -0.400355       -10.8942
  15   2.0000      -0.387506       -10.5446
  16   2.0000      -0.372524       -10.1369
  17   2.0000      -0.360148        -9.8001
  18   2.0000      -0.342638        -9.3237
  19   2.0000      -0.325476        -8.8567
  20   2.0000      -0.312779        -8.5111
  21   2.0000      -0.288150        -7.8410
  22   2.0000      -0.284950        -7.7539
  23   2.0000      -0.268096        -7.2953
  24   2.0000      -0.233631        -6.3574
  25   0.0000       0.074865         2.0372
  26   0.0000       0.100058         2.7227
  27   0.0000       0.126525         3.4429
  28   0.0000       0.132406         3.6030
  29   0.0000       0.137724         3.7477

MULLIKEN ATOMIC CHARGES
-----------------------
   0 C :   -0.551768
   1 C :   -0.007189
   2 C :   -0.542722
   3 C :   -0.281805
   4 C :   -0.179172
   5 O :   -0.494115
   6 H :    0.162219
   7 H :    0.158334
   8 H :    0.157651
   9 H :    0.155003
  10 H :    0.158613
  11 H :    0.169883
  12 H :    0.151708
  13 H :    0.155356
  14 H :    0.160681
  15 H :    0.145391
  16 H :    0.137977
  17 H :    0.343954
Sum of atomic charges:    0.0000000

LOEWDIN ATOMIC CHARGES
----------------------
   0 C :   -0.427713
   1 C :   -0.243582
   2 C :   -0.425161
   3 C :   -0.286558
   4 C :    0.006889
   5 O :   -0.666514
   6 H :    0.154226
   7 H :    0.156460
   8 H :    0.155985
   9 H :    0.157600
  10 H :    0.156345
  11 H :    0.161007
  12 H :    0.152310
  13 H :    0.168641
  14 H :    0.168645
  15 H :    0.164237
  16 H :    0.164263
  17 H :    0.282921

  Mayer bond orders larger than 0.100000
B(  0-C ,  1-C ) :   0.9120 B(  0-C ,  6-H ) :   0.9790 B(  0-C ,  7-H ) :   0.9723
B(  0-C ,  8-H ) :   0.9681 B(  1-C ,  2-C ) :   0.8976 B(  1-C ,  3-C ) :   0.9058
B(  1-C ,  9-H ) :   0.9675 B(  2-C , 10-H ) :   0.9743 B(  2-C , 11-H ) :   0.9764
B(  2-C , 12-H ) :   0.9676 B(  3-C ,  4-C ) :   0.9205 B(  3-C , 13-H ) :   0.9726
B(  3-C , 14-H ) :   0.9678 B(  4-C ,  5-O ) :   0.9012 B(  4-C , 15-H ) :   0.9798
B(  4-C , 16-H ) :   0.9548 B(  5-O , 17-H ) :   0.8745

Dispersion correction           -0.004471527
FINAL SINGLE POINT ENERGY      -272.901134941051

DIPOLE MOMENT
-------------

Method             : SCF
Type of density    : Electron Density
Multiplicity       :   1
Irrep              :   0
Energy             :  -272.9066126608007039 Eh
Relativity type    :
Basis              : AO
                                X                 Y                 Z
Electronic contribution:     -3.716617850       1.330895847       0.351008922
Nuclear contribution   :      3.352324301      -1.958525579      -0.715612348
                        -----------------------------------------
Total Dipole Moment    :     -0.364293548      -0.627629732      -0.364603426
                        -----------------------------------------
Magnitude (a.u.)       :      0.812135782
Magnitude (Debye)      :      2.064285105

Rotational constants in cm-1:             0.166127             0.079827             0.067852
Rotational constants in MHz :          4980.369903          2393.139250          2034.137247

                             ****ORCA TERMINATED NORMALLY****
TOTAL RUN TIME: 0 days 0 hours 0 minutes 27 seconds 491 msec
