                         Program Version 6.0.0  -   RELEASE  -
|  1> ! r2scan-3c def2/J RI DEFGRID2 scfconv6 printgap
|  2> %output
|  3>     printlevel normal
|  4> end
|  5> * xyz 0 1
|  6> C -3.0097769125 0.2964671601 -0.1318562995
|  7> C -1.5717035854 0.6044771924 0.271387471
|  8> C -0.5942953486 -0.3428929862 -0.4234962719
|  9> C 0.8902597639 -0.163908351 -0.0408589794
| 10> C 1.3859624441 1.2529105001 -0.3481899838
| 11> C 1.7290639442 -1.1819726738 -0.8200150096
| 12> O 1.0964059074 -0.4705862584 1.3362481219
| 13> H -3.2737324832 -0.7223302928 0.1428632868
| 14> H -3.1345468298 0.4037876308 -1.2069295186
| 15> H -3.698602827 0.9759213264 0.3642085943
| 16> H -1.3448801154 1.6380394014 0.0055492338
| 17> H -1.4800404856 0.50045057 1.3546179186
| 18> H -0.8739164948 -1.370826877 -0.1796980529
| 19> H -0.6841344881 -0.2193476794 -1.5039493289
| 20> H 1.2196743236 1.4884021871 -1.3951085004
| 21> H 2.4506929642 1.3201106603 -0.1373233609
| 22> H 0.8692294345 1.9882478305 0.2635192939
| 23> H 1.6419098104 -1.0079121023 -1.8876429722
| 24> H 1.391441073 -2.1890825379 -0.5907104704
| 25> H 2.7715353098 -1.0968386405 -0.5251774664
| 26> H 0.6895865466 0.219160837 1.8763984665
| 27> *
| 28>
| 29>                          ****END OF INPUT****

CARTESIAN COORDINATES (ANGSTROEM)
---------------------------------
  C     -3.009777    0.296467   -0.131856
  C     -1.571704    0.604477    0.271387
  C     -0.594295   -0.342893   -0.423496
  C      0.890260   -0.163908   -0.040859
  C      1.385962    1.252911   -0.348190
  C      1.729064   -1.181973   -0.820015
  O      1.096406   -0.470586    1.336248
  H     -3.273732   -0.722330    0.142863
  H     -3.134547    0.403788   -1.206930
  H     -3.698603    0.975921    0.364209
  H     -1.344880    1.638039    0.005549
  H     -1.480040    0.500451    1.354618
  H     -0.873916   -1.370827   -0.179698
  H     -0.684134   -0.219348   -1.503949
  H      1.219674    1.488402   -1.395109
  H      2.450693    1.320111   -0.137323
  H      0.869229    1.988248    0.263519
  H      1.641910   -1.007912   -1.887643
  H      1.391441   -2.189083   -0.590710
  H      2.771535   -1.096839   -0.525177
  H      0.689587    0.219161    1.876398

 Total Charge           Charge          ....    0
 Multiplicity           Mult            ....    1
 Number of Electrons    NEL             ....   58
 Basis Dimension        Dim             ....  208

ORBITAL ENERGIES
----------------

  NO   OCC          E(Eh)            E(eV)
   0   2.0000     -18.941438      -515.4227
   1   2.0000     -10.086504      -274.4677
   2   2.0000     -10.029020      -272.9035
   3   2.0000     -10.021535      -272.6998
   4   2.0000     -10.019015      -272.6313
   5   2.0000     -10.018226      -272.6098
   6   2.0000     -10.012733      -272.4603
   7   2.0000      -0.980880       -26.6911
   8   2.0000      -0.769574       -20.9412
   9   2.0000      -0.729825       -19.8595
  10   2.0000      -0.657697       -17.8968
  11   2.0000      -0.646111       -17.5816
  12   2.0000      -0.565148       -15.3784
  13   2.0000      -0.530835       -14.4447
  14   2.0000      -0.461366       -12.5544
  15   2.0000      -0.437109       -11.8944
  16   2.0000      -0.419980       -11.4282
  17   2.0000      -0.410158       -11.1610
  18   2.0000      -0.378402       -10.2968
  19   2.0000      -0.362374        -9.8607
  20   2.0000      -0.358113        -9.7448
  21   2.0000      -0.350821        -9.5463
  22   2.0000      -0.337602        -9.1866
  23   2.0000      -0.329168        -8.9571
  24   2.0000      -0.309936        -8.4338
  25   2.0000      -0.305679        -8.3180
  26   2.0000      -0.299288        -8.1440
  27   2.0000      -0.275668        -7.5013
  28   2.0000      -0.231435        -6.2977
  29   0.0000       0.059795         1.6271
  30   0.0000       0.099587         2.7099
  31   0.0000       0.101824         2.7708
  32   0.0000       0.115446         3.1415
  33   0.0000       0.129481         3.5234

MULLIKEN ATOMIC CHARGES
-----------------------
   0 C :   -0.482333
   1 C :   -0.275390
   2 C :   -0.253731
   3 C :    0.175231
   4 C :   -0.494777
   5 C :   -0.475921
   6 O :   -0.412101
   7 H :    0.147051
   8 H :    0.142708
   9 H :    0.146983
  10 H :    0.148177
  11 H :    0.136562
  12 H :    0.154317
  13 H :    0.140460
  14 H :    0.153784
  15 H :    0.160203
  16 H :    0.146376
  17 H :    0.146066
  18 H :    0.153068
  19 H :    0.157928
  20 H :    0.285339
Sum of atomic charges:    0.0000000

LOEWDIN ATOMIC CHARGES
----------------------
   0 C :   -0.420721
   1 C :   -0.314977
   2 C :   -0.281136
   3 C :    0.057701
   4 C :   -0.389392
   5 C :   -0.371814
   6 O :   -0.600422
   7 H :    0.151349
   8 H :    0.150317
   9 H :    0.149787
  10 H :    0.152963
  11 H :    0.150198
  12 H :    0.168579
  13 H :    0.161780
  14 H :    0.160873
  15 H :    0.163969
  16 H :    0.155428
  17 H :    0.158105
  18 H :    0.164838
  19 H :    0.164047
  20 H :    0.268527

  Mayer bond orders larger than 0.100000
B(  0-C ,  1-C ) :   0.9085 B(  0-C ,  7-H ) :   0.9856 B(  0-C ,  8-H ) :   0.9840
B(  0-C ,  9-H ) :   0.9746 B(  1-C ,  2-C ) :   0.8763 B(  1-C , 10-H ) :   0.9674
B(  1-C , 11-H ) :   0.9717 B(  2-C ,  3-C ) :   0.9070 B(  2-C , 12-H ) :   0.9795
B(  2-C , 13-H ) :   0.9811 B(  3-C ,  4-C ) :   0.9419 B(  3-C ,  5-C ) :   0.9412
B(  3-C ,  6-O ) :   0.8498 B(  4-C , 14-H ) :   0.9750 B(  4-C , 15-H ) :   0.9703
B(  4-C , 16-H ) :   0.9662 B(  5-C , 17-H ) :   0.9829 B(  5-C , 18-H ) :   0.9752
B(  5-C , 19-H ) :   0.9740 B(  6-O , 20-H ) :   0.9009

Dispersion correction           -0.005561381
FINAL SINGLE POINT ENERGY      -312.207905368765

DIPOLE MOMENT
-------------

Method             : SCF
Type of density    : Electron Density
Multiplicity       :   1
Irrep              :   0
Energy             :  -312.2132796908888395 Eh
Relativity type    :
Basis              : AO
                                X                 Y                 Z
Electronic contribution:      2.912772166      -1.336357904       2.938940328
Nuclear contribution   :     -3.225819309       1.801591229      -3.188109413
                        -----------------------------------------
Total Dipole Moment    :     -0.313047143       0.465233325      -0.249169084
                        -----------------------------------------
Magnitude (a.u.)       :      0.613616976
Magnitude (Debye)      :      1.559690402

Rotational constants in cm-1:             0.142196             0.047691             0.046727
Rotational constants in MHz :          4262.940988          1429.755107          1400.847184

                             ****ORCA TERMINATED NORMALLY****
TOTAL RUN TIME: 0 days 0 hours 0 minutes 27 seconds 32 msec
