                         Program Version 6.0.0  -   RELEASE  -
|  1> ! r2scan-3c def2/J RI DEFGRID2 scfconv6 printgap
|  2> %output
|  3>     printlevel normal
|  4> end
|  5> %cpcm
|  6>     smd true
|  7>     smdsolvent "water"
|  8> end
|  9> * xyz 0 1
| 10> C -3.0097769125 0.2964671601 -0.1318562995
| 11> C -1.5717035854 0.6044771924 0.271387471
| 12> C -0.5942953486 -0.3428929862 -0.4234962719
| 13> C 0.8902597639 -0.163908351 -0.0408589794
| 14> C 1.3859624441 1.2529105001 -0.3481899838
| 15> C 1.7290639442 -1.1819726738 -0.8200150096
| 16> O 1.0964059074 -0.4705862584 1.3362481219
| 17> H -3.2737324832 -0.7223302928 0.1428632868
| 18> H -3.1345468298 0.4037876308 -1.2069295186
| 19> H -3.698602827 0.9759213264 0.3642085943
| 20> H -1.3448801154 1.6380394014 0.0055492338
| 21> H -1.4800404856 0.50045057 1.3546179186
| 22> H -0.8739164948 -1.370826877 -0.1796980529
| 23> H -0.6841344881 -0.2193476794 -1.5039493289
| 24> H 1.2196743236 1.4884021871 -1.3951085004
| 25> H 2.4506929642 1.3201106603 -0.1373233609
| 26> H 0.8692294345 1.9882478305 0.2635192939
| 27> H 1.6419098104 -1.0079121023 -1.8876429722
| 28> H 1.391441073 -2.1890825379 -0.5907104704
| 29> H 2.7715353098 -1.0968386405 -0.5251774664
| 30> H 0.6895865466 0.219160837 1.8763984665
| 31> *
| 32>
| 33>                          ****END OF INPUT****

CARTESIAN COORDINATES (ANGSTROEM)
---------------------------------
  C     -3.009777    0.296467   -0.131856
  C     -1.571704    0.604477    0.271387
  C     -0.594295   -0.342893   -0.423496
  C      0.890260   -0.163908   -0.040859
  C      1.385962    1.252911   -0.348190
  C      1.729064   -1.181973   -0.820015
  O      1.096406   -0.470586    1.336248
  H     -3.273732   -0.722330    0.142863
  H     -3.134547    0.403788   -1.206930
  H     -3.698603    0.975921    0.364209
  H     -1.344880    1.638039    0.005549
  H     -1.480040    0.500451    1.354618
  H     -0.873916   -1.370827   -0.179698
  H     -0.684134   -0.219348   -1.503949
  H      1.219674    1.488402   -1.395109
  H      2.450693    1.320111   -0.137323
  H      0.869229    1.988248    0.263519
  H      1.641910   -1.007912   -1.887643
  H      1.391441   -2.189083   -0.590710
  H      2.771535   -1.096839   -0.525177
  H      0.689587    0.219161    1.876398

 Total Charge           Charge          ....    0
 Multiplicity           Mult            ....    1
 Number of Electrons    NEL             ....   58
 Basis Dimension        Dim             ....  208

ORBITAL ENERGIES
----------------

  NO   OCC          E(Eh)            E(eV)
   0   2.0000     -18.946745      -515.5671
   1   2.0000     -10.082880      -274.3691
   2   2.0000     -10.016633      -272.5664
   3   2.0000     -10.013071      -272.4695
   4   2.0000     -10.008268      -272.3388
   5   2.0000     -10.008259      -272.3386
   6   2.0000     -10.008098      -272.3342
   7   2.0000      -0.984915       -26.8009
   8   2.0000      -0.761929       -20.7331
   9   2.0000      -0.721895       -19.6438
  10   2.0000      -0.650703       -17.7065
  11   2.0000      -0.638159       -17.3652
  12   2.0000      -0.556481       -15.1426
  13   2.0000      -0.526898       -14.3376
  14   2.0000      -0.456463       -12.4210
  15   2.0000      -0.428294       -11.6545
  16   2.0000      -0.413074       -11.2403
  17   2.0000      -0.404985       -11.0202
  18   2.0000      -0.369760       -10.0617
  19   2.0000      -0.355288        -9.6679
  20   2.0000      -0.350656        -9.5418
  21   2.0000      -0.346585        -9.4310
  22   2.0000      -0.329479        -8.9656
  23   2.0000      -0.323408        -8.8004
  24   2.0000      -0.305618        -8.3163
  25   2.0000      -0.299335        -8.1453
  26   2.0000      -0.288946        -7.8626
  27   2.0000      -0.271795        -7.3959
  28   2.0000      -0.235960        -6.4208
  29   0.0000       0.075366         2.0508
  30   0.0000       0.110313         3.0018
  31   0.0000       0.115999         3.1565
  32   0.0000       0.123901         3.3715
  33   0.0000       0.138221         3.7612

MULLIKEN ATOMIC CHARGES
-----------------------
   0 C :   -0.521927
   1 C :   -0.265921
   2 C :   -0.300725
   3 C :    0.216600
   4 C :   -0.537636
   5 C :   -0.529230
   6 O :   -0.503946
   7 H :    0.155759
   8 H :    0.154010
   9 H :    0.157156
  10 H :    0.156830
  11 H :    0.151857
  12 H :    0.160154
  13 H :    0.159067
  14 H :    0.172862
  15 H :    0.164072
  16 H :    0.168843
  17 H :    0.170634
  18 H :    0.162326
  19 H :    0.166732
  20 H :    0.342482
Sum of atomic charges:    0.0000000

LOEWDIN ATOMIC CHARGES
----------------------
   0 C :   -0.430300
   1 C :   -0.313694
   2 C :   -0.282819
   3 C :    0.058532
   4 C :   -0.393285
   5 C :   -0.382424
   6 O :   -0.638639
   7 H :    0.152515
   8 H :    0.152585
   9 H :    0.152111
  10 H :    0.156874
  11 H :    0.155807
  12 H :    0.167624
  13 H :    0.168387
  14 H :    0.167481
  15 H :    0.163724
  16 H :    0.163391
  17 H :    0.167080
  18 H :    0.164642
  19 H :    0.163956
  20 H :    0.286452

  Mayer bond orders larger than 0.100000
B(  0-C ,  1-C ) :   0.8901 B(  0-C ,  7-H ) :   0.9839 B(  0-C ,  8-H ) :   0.9813
B(  0-C ,  9-H ) :   0.9724 B(  1-C ,  2-C ) :   0.8862 B(  1-C , 10-H ) :   0.9651
B(  1-C , 11-H ) :   0.9704 B(  2-C ,  3-C ) :   0.9134 B(  2-C , 12-H ) :   0.9817
B(  2-C , 13-H ) :   0.9753 B(  3-C ,  4-C ) :   0.9368 B(  3-C ,  5-C ) :   0.9309
B(  3-C ,  6-O ) :   0.8291 B(  4-C , 14-H ) :   0.9705 B(  4-C , 15-H ) :   0.9665
B(  4-C , 16-H ) :   0.9624 B(  5-C , 17-H ) :   0.9764 B(  5-C , 18-H ) :   0.9728
B(  5-C , 19-H ) :   0.9738 B(  6-O , 20-H ) :   0.8748

Dispersion correction           -0.005561381
FINAL SINGLE POINT ENERGY      -312.213901558596

DIPOLE MOMENT
-------------

Method             : SCF
Type of density    : Electron Density
Multiplicity       :   1
Irrep              :   0
Energy             :  -312.2192758807196924 Eh
Relativity type    :
Basis              : AO
                                X                 Y                 Z
Electronic contribution:      2.780188658      -1.074006182       2.824535304
Nuclear contribution   :     -3.225819309       1.801591229      -3.188109413
                        -----------------------------------------
Total Dipole Moment    :     -0.445630651       0.727585048      -0.363574108
                        -----------------------------------------
Magnitude (a.u.)       :      0.927444236
Magnitude (Debye)      :      2.357375904

Rotational constants in cm-1:             0.142196             0.047691             0.046727
Rotational constants in MHz :          4262.940988          1429.755107          1400.847184

                             ****ORCA TERMINATED NORMALLY****
TOTAL RUN TIME: 0 days 0 hours 0 minutes 31 seconds 742 msec
