                         Program Version 6.0.0  -   RELEASE  -
|  1> ! r2scan-3c def2/J RI DEFGRID2 scfconv6 printgap
|  2> %output
|  3>     printlevel normal
|  4> end
|  5> * xyz 0 1
|  6> C -2.5944123946 0.9587535147 -0.4674045289
|  7> C -2.1786497025 -0.0476721489 0.599167419
|  8> C -0.8691825558 -0.7381763675 0.2466006101
|  9> O 0.1857513956 0.2339114963 0.295129543
| 10> C 1.3928180314 -0.1418599399 -0.1043830252
| 11> O 1.6412517012 -1.2649188373 -0.4963676557
| 12> C 2.3824107605 0.9810656684 -0.0231340501
| 13> H -3.5192719198 1.4508129201 -0.1805346213
| 14> H -1.8224031397 1.7137009255 -0.5909954605
| 15> H -2.74799381 0.4607586789 -1.4218734131
| 16> H -2.9447350481 -0.8149798093 0.709637969
| 17> H -2.0548546778 0.4592605092 1.5565471964
| 18> H -0.6324972551 -1.5382676649 0.9558806342
| 19> H -0.8984835411 -1.1715717753 -0.7588475757
| 20> H 2.0107479551 1.7547698014 0.6397310533
| 21> H 2.5170667961 1.3932616358 -1.0209571695
| 22> H 3.3395465372 0.597281976 0.3165633368
| 23> *
| 24>
| 25>                          ****END OF INPUT****

CARTESIAN COORDINATES (ANGSTROEM)
---------------------------------
  C     -2.594412    0.958754   -0.467405
  C     -2.178650   -0.047672    0.599167
  C     -0.869183   -0.738176    0.246601
  O      0.185751    0.233911    0.295130
  C      1.392818   -0.141860   -0.104383
  O      1.641252   -1.264919   -0.496368
  C      2.382411    0.981066   -0.023134
  H     -3.519272    1.450813   -0.180535
  H     -1.822403    1.713701   -0.590995
  H     -2.747994    0.460759   -1.421873
  H     -2.944735   -0.814980    0.709638
  H     -2.054855    0.459261    1.556547
  H     -0.632497   -1.538268    0.955881
  H     -0.898484   -1.171572   -0.758848
  H      2.010748    1.754770    0.639731
  H      2.517067    1.393262   -1.020957
  H      3.339547    0.597282    0.316563

 Total Charge           Charge          ....    0
 Multiplicity           Mult            ....    1
 Number of Electrons    NEL             ....   56
 Basis Dimension        Dim             ....  193

ORBITAL ENERGIES
----------------

  NO   OCC          E(Eh)            E(eV)
   0   2.0000     -18.997843      -516.9576
   1   2.0000     -18.926829      -515.0252
   2   2.0000     -10.154842      -276.3273
   3   2.0000     -10.088912      -274.5333
   4   2.0000     -10.039108      -273.1780
   5   2.0000     -10.039065      -273.1769
   6   2.0000     -10.022941      -272.7381
   7   2.0000      -1.073172       -29.2025
   8   2.0000      -0.974075       -26.5059
   9   2.0000      -0.770523       -20.9670
  10   2.0000      -0.721432       -19.6312
  11   2.0000      -0.660648       -17.9771
  12   2.0000      -0.580400       -15.7935
  13   2.0000      -0.533169       -14.5083
  14   2.0000      -0.464417       -12.6374
  15   2.0000      -0.458110       -12.4658
  16   2.0000      -0.438370       -11.9286
  17   2.0000      -0.418622       -11.3913
  18   2.0000      -0.407987       -11.1019
  19   2.0000      -0.386866       -10.5272
  20   2.0000      -0.376303       -10.2397
  21   2.0000      -0.354889        -9.6570
  22   2.0000      -0.337373        -9.1804
  23   2.0000      -0.323915        -8.8142
  24   2.0000      -0.317452        -8.6383
  25   2.0000      -0.307204        -8.3594
  26   2.0000      -0.271500        -7.3879
  27   2.0000      -0.235059        -6.3963
  28   0.0000      -0.013998        -0.3809
  29   0.0000       0.070192         1.9100
  30   0.0000       0.096628         2.6294
  31   0.0000       0.113225         3.0810
  32   0.0000       0.122231         3.3261

MULLIKEN ATOMIC CHARGES
-----------------------
   0 C :   -0.470058
   1 C :   -0.216034
   2 C :   -0.174279
   3 O :   -0.172258
   4 C :    0.407809
   5 O :   -0.420709
   6 C :   -0.519935
   7 H :    0.148612
   8 H :    0.158789
   9 H :    0.141623
  10 H :    0.139073
  11 H :    0.142124
  12 H :    0.154444
  13 H :    0.163760
  14 H :    0.169284
  15 H :    0.173897
  16 H :    0.173858
Sum of atomic charges:    0.0000000

LOEWDIN ATOMIC CHARGES
----------------------
   0 C :   -0.418265
   1 C :   -0.285610
   2 C :    0.039532
   3 O :   -0.605553
   4 C :    0.351411
   5 O :   -0.428727
   6 C :   -0.336840
   7 H :    0.151802
   8 H :    0.158791
   9 H :    0.151926
  10 H :    0.160347
  11 H :    0.162690
  12 H :    0.181602
  13 H :    0.184334
  14 H :    0.173842
  15 H :    0.181212
  16 H :    0.177506

  Mayer bond orders larger than 0.100000
B(  0-C ,  1-C ) :   0.9162 B(  0-C ,  7-H ) :   0.9730 B(  0-C ,  8-H ) :   0.9792
B(  0-C ,  9-H ) :   0.9757 B(  1-C ,  2-C ) :   0.9515 B(  1-C , 10-H ) :   0.9600
B(  1-C , 11-H ) :   0.9675 B(  2-C ,  3-O ) :   0.8032 B(  2-C , 12-H ) :   0.9467
B(  2-C , 13-H ) :   0.9620 B(  3-O ,  4-C ) :   1.0744 B(  4-C ,  5-O ) :   1.8191
B(  4-C ,  6-C ) :   0.9420 B(  6-C , 14-H ) :   0.9841 B(  6-C , 15-H ) :   0.9379
B(  6-C , 16-H ) :   0.9698

Dispersion correction           -0.003916409
FINAL SINGLE POINT ENERGY      -346.936945553399

DIPOLE MOMENT
-------------

Method             : SCF
Type of density    : Electron Density
Multiplicity       :   1
Irrep              :   0
Energy             :  -346.9434132135514801 Eh
Relativity type    :
Basis              : AO
                                X                 Y                 Z
Electronic contribution:      5.783150283      -3.346722274       0.096496491
Nuclear contribution   :     -6.308241318       4.023549442       0.189483243
                        -----------------------------------------
Total Dipole Moment    :     -0.525091034       0.676827168       0.285979733
                        -----------------------------------------
Magnitude (a.u.)       :      0.903105762
Magnitude (Debye)      :      2.295512420

Rotational constants in cm-1:             0.188175             0.046159             0.040749
Rotational constants in MHz :          5641.352270          1383.801745          1221.610874

                             ****ORCA TERMINATED NORMALLY****
TOTAL RUN TIME: 0 days 0 hours 0 minutes 22 seconds 38 msec
