                         Program Version 6.0.0  -   RELEASE  -
|  1> ! r2scan-3c def2/J RI DEFGRID2 scfconv6 printgap
|  2> %output
|  3>     printlevel normal
|  4> end
|  5> %cpcm
|  6>     smd true
|  7>     smdsolvent "water"
|  8> end
|  9> * xyz 0 1
| 10> C -2.5944123946 0.9587535147 -0.4674045289
| 11> C -2.1786497025 -0.0476721489 0.599167419
| 12> C -0.8691825558 -0.7381763675 0.2466006101
| 13> O 0.1857513956 0.2339114963 0.295129543
| 14> C 1.3928180314 -0.1418599399 -0.1043830252
| 15> O 1.6412517012 -1.2649188373 -0.4963676557
| 16> C 2.3824107605 0.9810656684 -0.0231340501
| 17> H -3.5192719198 1.4508129201 -0.1805346213
| 18> H -1.8224031397 1.7137009255 -0.5909954605
| 19> H -2.74799381 0.4607586789 -1.4218734131
| 20> H -2.9447350481 -0.8149798093 0.709637969
| 21> H -2.0548546778 0.4592605092 1.5565471964
| 22> H -0.6324972551 -1.5382676649 0.9558806342
| 23> H -0.8984835411 -1.1715717753 -0.7588475757
| 24> H 2.0107479551 1.7547698014 0.6397310533
| 25> H 2.5170667961 1.3932616358 -1.0209571695
| 26> H 3.3395465372 0.597281976 0.3165633368
| 27> *
| 28>
| 29>                          ****END OF INPUT****

CARTESIAN COORDINATES (ANGSTROEM)
---------------------------------
  C     -2.594412    0.958754   -0.467405
  C     -2.178650   -0.047672    0.599167
  C     -0.869183   -0.738176    0.246601
  O      0.185751    0.233911    0.295130
  C      1.392818   -0.141860   -0.104383
  O      1.641252   -1.264919   -0.496368
  C      2.382411    0.981066   -0.023134
  H     -3.519272    1.450813   -0.180535
  H     -1.822403    1.713701   -0.590995
  H     -2.747994    0.460759   -1.421873
  H     -2.944735   -0.814980    0.709638
  H     -2.054855    0.459261    1.556547
  H     -0.632497   -1.538268    0.955881
  H     -0.898484   -1.171572   -0.758848
  H      2.010748    1.754770    0.639731
  H      2.517067    1.393262   -1.020957
  H      3.339547    0.597282    0.316563

 Total Charge           Charge          ....    0
 Multiplicity           Mult            ....    1
 Number of Electrons    NEL             ....   56
 Basis Dimension        Dim             ....  193

ORBITAL ENERGIES
----------------

  NO   OCC          E(Eh)            E(eV)
   0   2.0000     -19.003123      -517.1013
   1   2.0000     -18.942977      -515.4646
   2   2.0000     -10.165164      -276.6082
   3   2.0000     -10.081265      -274.3252
   4   2.0000     -10.030407      -272.9412
   5   2.0000     -10.026630      -272.8385
   6   2.0000     -10.011120      -272.4164
   7   2.0000      -1.080120       -29.3916
   8   2.0000      -0.988147       -26.8888
   9   2.0000      -0.762959       -20.7612
  10   2.0000      -0.714911       -19.4537
  11   2.0000      -0.652847       -17.7649
  12   2.0000      -0.572363       -15.5748
  13   2.0000      -0.530164       -14.4265
  14   2.0000      -0.464064       -12.6278
  15   2.0000      -0.462790       -12.5931
  16   2.0000      -0.445366       -12.1190
  17   2.0000      -0.411500       -11.1975
  18   2.0000      -0.399729       -10.8772
  19   2.0000      -0.382013       -10.3951
  20   2.0000      -0.369092       -10.0435
  21   2.0000      -0.350988        -9.5509
  22   2.0000      -0.335790        -9.1373
  23   2.0000      -0.316773        -8.6198
  24   2.0000      -0.310578        -8.4512
  25   2.0000      -0.300616        -8.1802
  26   2.0000      -0.276909        -7.5351
  27   2.0000      -0.252723        -6.8769
  28   0.0000      -0.021555        -0.5865
  29   0.0000       0.075391         2.0515
  30   0.0000       0.107049         2.9130
  31   0.0000       0.121099         3.2953
  32   0.0000       0.132546         3.6068

MULLIKEN ATOMIC CHARGES
-----------------------
   0 C :   -0.505494
   1 C :   -0.239007
   2 C :   -0.182871
   3 O :   -0.186075
   4 C :    0.459737
   5 O :   -0.511667
   6 C :   -0.555416
   7 H :    0.161814
   8 H :    0.158992
   9 H :    0.156317
  10 H :    0.158829
  11 H :    0.154629
  12 H :    0.172496
  13 H :    0.174241
  14 H :    0.188299
  15 H :    0.204561
  16 H :    0.190615
Sum of atomic charges:    0.0000000

LOEWDIN ATOMIC CHARGES
----------------------
   0 C :   -0.425242
   1 C :   -0.283367
   2 C :    0.040586
   3 O :   -0.605237
   4 C :    0.363100
   5 O :   -0.493980
   6 C :   -0.334849
   7 H :    0.155591
   8 H :    0.157326
   9 H :    0.155896
  10 H :    0.168261
  11 H :    0.165786
  12 H :    0.187567
  13 H :    0.188209
  14 H :    0.182915
  15 H :    0.193227
  16 H :    0.184212

  Mayer bond orders larger than 0.100000
B(  0-C ,  1-C ) :   0.9086 B(  0-C ,  7-H ) :   0.9705 B(  0-C ,  8-H ) :   0.9776
B(  0-C ,  9-H ) :   0.9733 B(  1-C ,  2-C ) :   0.9579 B(  1-C , 10-H ) :   0.9557
B(  1-C , 11-H ) :   0.9698 B(  2-C ,  3-O ) :   0.7886 B(  2-C , 12-H ) :   0.9384
B(  2-C , 13-H ) :   0.9548 B(  3-O ,  4-C ) :   1.1046 B(  4-C ,  5-O ) :   1.7441
B(  4-C ,  6-C ) :   0.9431 B(  6-C , 14-H ) :   0.9731 B(  6-C , 15-H ) :   0.9253
B(  6-C , 16-H ) :   0.9614

Dispersion correction           -0.003916409
FINAL SINGLE POINT ENERGY      -346.942794071096

DIPOLE MOMENT
-------------

Method             : SCF
Type of density    : Electron Density
Multiplicity       :   1
Irrep              :   0
Energy             :  -346.9492617312484981 Eh
Relativity type    :
Basis              : AO
                                X                 Y                 Z
Electronic contribution:      5.612006093      -3.096747253       0.205065395
Nuclear contribution   :     -6.308241318       4.023549442       0.189483243
                        -----------------------------------------
Total Dipole Moment    :     -0.696235224       0.926802189       0.394548637
                        -----------------------------------------
Magnitude (a.u.)       :      1.224489450
Magnitude (Debye)      :      3.112404834

Rotational constants in cm-1:             0.188175             0.046159             0.040749
Rotational constants in MHz :          5641.352270          1383.801745          1221.610874

                             ****ORCA TERMINATED NORMALLY****
TOTAL RUN TIME: 0 days 0 hours 0 minutes 28 seconds 201 msec
