                         Program Version 6.0.0  -   RELEASE  -
|  1> ! r2scan-3c def2/J RI DEFGRID2 scfconv6 printgap
|  2> %output
|  3>     printlevel normal
|  4> end
|  5> * xyz 0 1
|  6> C -2.2943945525 -0.9600028615 0.1128437363
|  7> C -2.4566563283 0.5488245477 0.2570519866
|  8> C -1.2746896919 1.3564330646 -0.2831828412
|  9> C 0.0187566795 1.1768816246 0.4945483125
| 10> Br 1.0903879332 -0.3720072586 -0.1075790605
| 11> H -1.5025832535 -1.3387467711 0.7534642961
| 12> H -3.2176753054 -1.4618741759 0.3915183875
| 13> H -2.057912374 -1.2242048397 -0.9156156854
| 14> H -2.6102285423 0.7987720499 1.3093746273
| 15> H -3.348718701 0.8606104637 -0.2896260245
| 16> H -1.1114603712 1.1125409168 -1.3349452766
| 17> H -1.5329332411 2.4169889136 -0.2274387852
| 18> H -0.1627404475 1.011806274 1.5550225844
| 19> H 0.6847027875 2.0270057749 0.3600977301
| 20> *
| 21>
| 22>                          ****END OF INPUT****

CARTESIAN COORDINATES (ANGSTROEM)
---------------------------------
  C     -2.294395   -0.960003    0.112844
  C     -2.456656    0.548825    0.257052
  C     -1.274690    1.356433   -0.283183
  C      0.018757    1.176882    0.494548
  Br     1.090388   -0.372007   -0.107579
  H     -1.502583   -1.338747    0.753464
  H     -3.217675   -1.461874    0.391518
  H     -2.057912   -1.224205   -0.915616
  H     -2.610229    0.798772    1.309375
  H     -3.348719    0.860610   -0.289626
  H     -1.111460    1.112541   -1.334945
  H     -1.532933    2.416989   -0.227439
  H     -0.162740    1.011806    1.555023
  H      0.684703    2.027006    0.360098

 Total Charge           Charge          ....    0
 Multiplicity           Mult            ....    1
 Number of Electrons    NEL             ....   68
 Basis Dimension        Dim             ....  157

ORBITAL ENERGIES
----------------

  NO   OCC          E(Eh)            E(eV)
   0   2.0000    -482.209420    -13121.5854
   1   2.0000     -62.281419     -1694.7636
   2   2.0000     -56.061888     -1525.5215
   3   2.0000     -56.059212     -1525.4487
   4   2.0000     -56.059059     -1525.4446
   5   2.0000     -10.092833      -274.6400
   6   2.0000     -10.044927      -273.3364
   7   2.0000     -10.034602      -273.0554
   8   2.0000     -10.015385      -272.5325
   9   2.0000      -8.613628      -234.3887
  10   2.0000      -6.421065      -174.7261
  11   2.0000      -6.407551      -174.3583
  12   2.0000      -6.407290      -174.3512
  13   2.0000      -2.518628       -68.5354
  14   2.0000      -2.515325       -68.4455
  15   2.0000      -2.515119       -68.4399
  16   2.0000      -2.505099       -68.1672
  17   2.0000      -2.505076       -68.1666
  18   2.0000      -0.794515       -21.6199
  19   2.0000      -0.738455       -20.0944
  20   2.0000      -0.679780       -18.4978
  21   2.0000      -0.604179       -16.4405
  22   2.0000      -0.547546       -14.8995
  23   2.0000      -0.449400       -12.2288
  24   2.0000      -0.433524       -11.7968
  25   2.0000      -0.409728       -11.1493
  26   2.0000      -0.374442       -10.1891
  27   2.0000      -0.364612        -9.9216
  28   2.0000      -0.344192        -9.3659
  29   2.0000      -0.313978        -8.5438
  30   2.0000      -0.308027        -8.3818
  31   2.0000      -0.307137        -8.3576
  32   2.0000      -0.249070        -6.7775
  33   2.0000      -0.243520        -6.6265
  34   0.0000      -0.027914        -0.7596
  35   0.0000       0.082861         2.2548
  36   0.0000       0.107470         2.9244
  37   0.0000       0.114643         3.1196
  38   0.0000       0.125196         3.4068

MULLIKEN ATOMIC CHARGES
-----------------------
   0 C :   -0.473811
   1 C :   -0.248999
   2 C :   -0.256867
   3 C :   -0.225228
   4 Br:   -0.175219
   5 H :    0.162564
   6 H :    0.142897
   7 H :    0.151534
   8 H :    0.137079
   9 H :    0.141113
  10 H :    0.164134
  11 H :    0.146573
  12 H :    0.164685
  13 H :    0.169545
Sum of atomic charges:   -0.0000000

LOEWDIN ATOMIC CHARGES
----------------------
   0 C :   -0.432377
   1 C :   -0.317319
   2 C :   -0.333914
   3 C :   -0.383615
   4 Br:    0.058525
   5 H :    0.154028
   6 H :    0.149182
   7 H :    0.153513
   8 H :    0.150587
   9 H :    0.153894
  10 H :    0.165220
  11 H :    0.163252
  12 H :    0.159896
  13 H :    0.159128

  Mayer bond orders larger than 0.100000
B(  0-C ,  1-C ) :   0.9073 B(  0-C ,  5-H ) :   0.9726 B(  0-C ,  6-H ) :   0.9677
B(  0-C ,  7-H ) :   0.9767 B(  1-C ,  2-C ) :   0.9190 B(  1-C ,  8-H ) :   0.9798
B(  1-C ,  9-H ) :   0.9707 B(  2-C ,  3-C ) :   0.8970 B(  2-C , 10-H ) :   0.9717
B(  2-C , 11-H ) :   0.9511 B(  3-C ,  4-Br) :   0.9780 B(  3-C , 12-H ) :   0.9651
B(  3-C , 13-H ) :   0.9546

Dispersion correction           -0.003540211
FINAL SINGLE POINT ENERGY     -2731.927945160820

DIPOLE MOMENT
-------------

Method             : SCF
Type of density    : Electron Density
Multiplicity       :   1
Irrep              :   0
Energy             : -2731.9312774323516351 Eh
Relativity type    :
Basis              : AO
                                X                 Y                 Z
Electronic contribution:     23.454237818      -6.746985596      -2.313512118
Nuclear contribution   :    -24.065174374       7.397162414       2.501695537
                        -----------------------------------------
Total Dipole Moment    :     -0.610936556       0.650176818       0.188183419
                        -----------------------------------------
Magnitude (a.u.)       :      0.911803910
Magnitude (Debye)      :      2.317621354

Rotational constants in cm-1:             0.191896             0.054172             0.045024
Rotational constants in MHz :          5752.907213          1624.046408          1349.789040

                             ****ORCA TERMINATED NORMALLY****
TOTAL RUN TIME: 0 days 0 hours 0 minutes 15 seconds 29 msec
