                         Program Version 6.0.0  -   RELEASE  -
|  1> ! r2scan-3c def2/J RI DEFGRID2 scfconv6 printgap
|  2> %output
|  3>     printlevel normal
|  4> end
|  5> %cpcm
|  6>     smd true
|  7>     smdsolvent "water"
|  8> end
|  9> * xyz 0 1
| 10> C -2.2943945525 -0.9600028615 0.1128437363
| 11> C -2.4566563283 0.5488245477 0.2570519866
| 12> C -1.2746896919 1.3564330646 -0.2831828412
| 13> C 0.0187566795 1.1768816246 0.4945483125
| 14> Br 1.0903879332 -0.3720072586 -0.1075790605
| 15> H -1.5025832535 -1.3387467711 0.7534642961
| 16> H -3.2176753054 -1.4618741759 0.3915183875
| 17> H -2.057912374 -1.2242048397 -0.9156156854
| 18> H -2.6102285423 0.7987720499 1.3093746273
| 19> H -3.348718701 0.8606104637 -0.2896260245
| 20> H -1.1114603712 1.1125409168 -1.3349452766
| 21> H -1.5329332411 2.4169889136 -0.2274387852
| 22> H -0.1627404475 1.011806274 1.5550225844
| 23> H 0.6847027875 2.0270057749 0.3600977301
| 24> *
| 25>
| 26>                          ****END OF INPUT****

CARTESIAN COORDINATES (ANGSTROEM)
---------------------------------
  C     -2.294395   -0.960003    0.112844
  C     -2.456656    0.548825    0.257052
  C     -1.274690    1.356433   -0.283183
  C      0.018757    1.176882    0.494548
  Br     1.090388   -0.372007   -0.107579
  H     -1.502583   -1.338747    0.753464
  H     -3.217675   -1.461874    0.391518
  H     -2.057912   -1.224205   -0.915616
  H     -2.610229    0.798772    1.309375
  H     -3.348719    0.860610   -0.289626
  H     -1.111460    1.112541   -1.334945
  H     -1.532933    2.416989   -0.227439
  H     -0.162740    1.011806    1.555023
  H      0.684703    2.027006    0.360098

 Total Charge           Charge          ....    0
 Multiplicity           Mult            ....    1
 Number of Electrons    NEL             ....   68
 Basis Dimension        Dim             ....  157

ORBITAL ENERGIES
----------------

  NO   OCC          E(Eh)            E(eV)
   0   2.0000    -482.206837    -13121.5151
   1   2.0000     -62.278819     -1694.6928
   2   2.0000     -56.059214     -1525.4488
   3   2.0000     -56.056676     -1525.3797
   4   2.0000     -56.056522     -1525.3755
   5   2.0000     -10.078234      -274.2427
   6   2.0000     -10.028787      -272.8972
   7   2.0000     -10.019876      -272.6547
   8   2.0000     -10.006316      -272.2857
   9   2.0000      -8.610792      -234.3116
  10   2.0000      -6.417756      -174.6360
  11   2.0000      -6.404967      -174.2880
  12   2.0000      -6.404690      -174.2805
  13   2.0000      -2.515463       -68.4492
  14   2.0000      -2.512333       -68.3641
  15   2.0000      -2.512114       -68.3581
  16   2.0000      -2.502620       -68.0997
  17   2.0000      -2.502598       -68.0991
  18   2.0000      -0.782445       -21.2914
  19   2.0000      -0.729257       -19.8441
  20   2.0000      -0.669498       -18.2180
  21   2.0000      -0.592334       -16.1182
  22   2.0000      -0.533643       -14.5212
  23   2.0000      -0.435054       -11.8384
  24   2.0000      -0.419794       -11.4232
  25   2.0000      -0.396025       -10.7764
  26   2.0000      -0.362740        -9.8707
  27   2.0000      -0.353978        -9.6322
  28   2.0000      -0.333634        -9.0787
  29   2.0000      -0.303075        -8.2471
  30   2.0000      -0.294892        -8.0244
  31   2.0000      -0.293788        -7.9944
  32   2.0000      -0.246146        -6.6980
  33   2.0000      -0.239684        -6.5221
  34   0.0000      -0.020057        -0.5458
  35   0.0000       0.098540         2.6814
  36   0.0000       0.121613         3.3093
  37   0.0000       0.124999         3.4014
  38   0.0000       0.135622         3.6905

MULLIKEN ATOMIC CHARGES
-----------------------
   0 C :   -0.508156
   1 C :   -0.255528
   2 C :   -0.263439
   3 C :   -0.235977
   4 Br:   -0.223977
   5 H :    0.159800
   6 H :    0.152676
   7 H :    0.156705
   8 H :    0.151236
   9 H :    0.151214
  10 H :    0.167125
  11 H :    0.168435
  12 H :    0.188169
  13 H :    0.191718
Sum of atomic charges:    0.0000000

LOEWDIN ATOMIC CHARGES
----------------------
   0 C :   -0.441167
   1 C :   -0.317711
   2 C :   -0.331876
   3 C :   -0.375897
   4 Br:    0.026945
   5 H :    0.151421
   6 H :    0.151098
   7 H :    0.153108
   8 H :    0.155485
   9 H :    0.156657
  10 H :    0.165111
  11 H :    0.172248
  12 H :    0.167989
  13 H :    0.166589

  Mayer bond orders larger than 0.100000
B(  0-C ,  1-C ) :   0.8953 B(  0-C ,  5-H ) :   0.9732 B(  0-C ,  6-H ) :   0.9659
B(  0-C ,  7-H ) :   0.9766 B(  1-C ,  2-C ) :   0.9076 B(  1-C ,  8-H ) :   0.9784
B(  1-C ,  9-H ) :   0.9716 B(  2-C ,  3-C ) :   0.8931 B(  2-C , 10-H ) :   0.9749
B(  2-C , 11-H ) :   0.9468 B(  3-C ,  4-Br) :   0.9381 B(  3-C , 12-H ) :   0.9589
B(  3-C , 13-H ) :   0.9491

Dispersion correction           -0.003540211
FINAL SINGLE POINT ENERGY     -2731.929691211196

DIPOLE MOMENT
-------------

Method             : SCF
Type of density    : Electron Density
Multiplicity       :   1
Irrep              :   0
Energy             : -2731.9330234827275490 Eh
Relativity type    :
Basis              : AO
                                X                 Y                 Z
Electronic contribution:     23.298275162      -6.481635506      -2.226109007
Nuclear contribution   :    -24.065174374       7.397162414       2.501695537
                        -----------------------------------------
Total Dipole Moment    :     -0.766899212       0.915526908       0.275586531
                        -----------------------------------------
Magnitude (a.u.)       :      1.225672002
Magnitude (Debye)      :      3.115410642

Rotational constants in cm-1:             0.191896             0.054172             0.045024
Rotational constants in MHz :          5752.907213          1624.046408          1349.789040

                             ****ORCA TERMINATED NORMALLY****
TOTAL RUN TIME: 0 days 0 hours 0 minutes 19 seconds 381 msec
