                         Program Version 6.0.0  -   RELEASE  -
|  1> ! pbe def2-sv(p) def2/J RI DEFGRID1 loosescf d4 GCP(DFT/SV(P)) printgap
|  2> %output
|  3>     printlevel normal
|  4> end
|  5> * xyz 0 1
|  6> C 1.7115149251 1.1869244533 -0.6257792025
|  7> C 1.4427142274 -0.2504280287 -0.1926787798
|  8> H 2.1667987756 -0.9056872519 -0.7076510461
|  9> C 0.0310371917 -0.7468701235 -0.5495205273
| 10> C -1.103739315 0.0193205532 0.1529236785
| 11> C -1.7257702014 1.0715606315 -0.7639091166
| 12> C -2.1938471949 -0.9436937968 0.6246290561
| 13> O 1.6812721224 -0.3127691486 1.2052831233
| 14> H 1.0795313494 1.8678639106 -0.0639222384
| 15> H 2.7481889631 1.4376388338 -0.4162748052
| 16> H 1.5241122524 1.3002198796 -1.6888421926
| 17> H -0.0893648312 -0.689926642 -1.6318079652
| 18> H -0.0253888243 -1.8021775985 -0.2706874133
| 19> H -0.6822468793 0.5170942143 1.0334073335
| 20> H -2.4845488503 1.6373089689 -0.2275550731
| 21> H -2.1995330525 0.5896970432 -1.6171379525
| 22> H -0.9789996149 1.7672766977 -1.1337530537
| 23> H -1.7973498794 -1.6674229374 1.3327336662
| 24> H -2.9963093899 -0.3957274123 1.1131214175
| 25> H -2.6136280648 -1.4823245146 -0.2227071752
| 26> H 1.5644917945 -1.2226976631 1.5078327045
| 27> *
| 28>
| 29>                          ****END OF INPUT****

CARTESIAN COORDINATES (ANGSTROEM)
---------------------------------
  C      1.711515    1.186924   -0.625779
  C      1.442714   -0.250428   -0.192679
  H      2.166799   -0.905687   -0.707651
  C      0.031037   -0.746870   -0.549521
  C     -1.103739    0.019321    0.152924
  C     -1.725770    1.071561   -0.763909
  C     -2.193847   -0.943694    0.624629
  O      1.681272   -0.312769    1.205283
  H      1.079531    1.867864   -0.063922
  H      2.748189    1.437639   -0.416275
  H      1.524112    1.300220   -1.688842
  H     -0.089365   -0.689927   -1.631808
  H     -0.025389   -1.802178   -0.270687
  H     -0.682247    0.517094    1.033407
  H     -2.484549    1.637309   -0.227555
  H     -2.199533    0.589697   -1.617138
  H     -0.979000    1.767277   -1.133753
  H     -1.797350   -1.667423    1.332734
  H     -2.996309   -0.395727    1.113121
  H     -2.613628   -1.482325   -0.222707
  H      1.564492   -1.222698    1.507833

 Total Charge           Charge          ....    0
 Multiplicity           Mult            ....    1
 Number of Electrons    NEL             ....   58
 Basis Dimension        Dim             ....  126

ORBITAL ENERGIES
----------------

  NO   OCC          E(Eh)            E(eV)
   0   2.0000     -18.738983      -509.9136
   1   2.0000      -9.935972      -270.3715
   2   2.0000      -9.889151      -269.0975
   3   2.0000      -9.879848      -268.8443
   4   2.0000      -9.870536      -268.5909
   5   2.0000      -9.870224      -268.5824
   6   2.0000      -9.869042      -268.5503
   7   2.0000      -0.916501       -24.9393
   8   2.0000      -0.728257       -19.8169
   9   2.0000      -0.675317       -18.3763
  10   2.0000      -0.612593       -16.6695
  11   2.0000      -0.605163       -16.4673
  12   2.0000      -0.527509       -14.3543
  13   2.0000      -0.500724       -13.6254
  14   2.0000      -0.447564       -12.1788
  15   2.0000      -0.420464       -11.4414
  16   2.0000      -0.404187       -10.9985
  17   2.0000      -0.378974       -10.3124
  18   2.0000      -0.368784       -10.0351
  19   2.0000      -0.351056        -9.5527
  20   2.0000      -0.339450        -9.2369
  21   2.0000      -0.336407        -9.1541
  22   2.0000      -0.325924        -8.8688
  23   2.0000      -0.307937        -8.3794
  24   2.0000      -0.289066        -7.8659
  25   2.0000      -0.280914        -7.6441
  26   2.0000      -0.278166        -7.5693
  27   2.0000      -0.260924        -7.1001
  28   2.0000      -0.211657        -5.7595
  29   0.0000       0.019694         0.5359
  30   0.0000       0.051196         1.3931
  31   0.0000       0.064682         1.7601
  32   0.0000       0.075521         2.0550
  33   0.0000       0.085194         2.3183

MULLIKEN ATOMIC CHARGES
-----------------------
   0 C :   -0.252206
   1 C :    0.010019
   2 H :    0.057397
   3 C :   -0.129345
   4 C :   -0.180846
   5 C :   -0.253154
   6 C :   -0.250918
   7 O :   -0.423877
   8 H :    0.117654
   9 H :    0.106943
  10 H :    0.100075
  11 H :    0.075580
  12 H :    0.065719
  13 H :    0.090526
  14 H :    0.096737
  15 H :    0.091421
  16 H :    0.101243
  17 H :    0.093002
  18 H :    0.096413
  19 H :    0.093509
  20 H :    0.294109
Sum of atomic charges:   -0.0000000

LOEWDIN ATOMIC CHARGES
----------------------
   0 C :   -0.341575
   1 C :   -0.054049
   2 H :    0.094519
   3 C :   -0.231299
   4 C :   -0.162498
   5 C :   -0.330542
   6 C :   -0.328643
   7 O :   -0.332121
   8 H :    0.124701
   9 H :    0.124564
  10 H :    0.121749
  11 H :    0.119219
  12 H :    0.108862
  13 H :    0.116034
  14 H :    0.116840
  15 H :    0.114110
  16 H :    0.115594
  17 H :    0.112288
  18 H :    0.116214
  19 H :    0.114668
  20 H :    0.281366

  Mayer bond orders larger than 0.100000
B(  0-C ,  1-C ) :   1.1243 B(  0-C ,  8-H ) :   0.9345 B(  0-C ,  9-H ) :   0.9413
B(  0-C , 10-H ) :   0.9445 B(  1-C ,  2-H ) :   0.9059 B(  1-C ,  3-C ) :   1.0796
B(  1-C ,  7-O ) :   1.0477 B(  3-C ,  4-C ) :   1.0367 B(  3-C , 11-H ) :   0.9042
B(  3-C , 12-H ) :   0.9185 B(  4-C ,  5-C ) :   1.1170 B(  4-C ,  6-C ) :   1.1124
B(  4-C , 13-H ) :   0.9002 B(  5-C , 14-H ) :   0.9514 B(  5-C , 15-H ) :   0.9464
B(  5-C , 16-H ) :   0.9425 B(  6-C , 17-H ) :   0.9491 B(  6-C , 18-H ) :   0.9526
B(  6-C , 19-H ) :   0.9496 B(  7-O , 20-H ) :   0.8520

Dispersion correction           -0.016675900
FINAL SINGLE POINT ENERGY      -311.515641727402

DIPOLE MOMENT
-------------

Method             : SCF
Type of density    : Electron Density
Multiplicity       :   1
Irrep              :   0
Energy             :  -311.5951668885492722 Eh
Relativity type    :
Basis              : AO
                                X                 Y                 Z
Electronic contribution:      4.381573423      -1.335653290       2.566167060
Nuclear contribution   :     -4.463454054       0.887678945      -2.790264880
                        -----------------------------------------
Total Dipole Moment    :     -0.081880631      -0.447974345      -0.224097821
                        -----------------------------------------
Magnitude (a.u.)       :      0.507548308
Magnitude (Debye)      :      1.290085274

Rotational constants in cm-1:             0.125628             0.056680             0.045780
Rotational constants in MHz :          3766.244233          1699.228064          1372.450761

                             ****ORCA TERMINATED NORMALLY****
TOTAL RUN TIME: 0 days 0 hours 0 minutes 10 seconds 648 msec
