                         Program Version 6.0.0  -   RELEASE  -
|  1> ! r2scan-3c def2/J RI DEFGRID2 scfconv6 printgap
|  2> %output
|  3>     printlevel normal
|  4> end
|  5> * xyz 0 1
|  6> C 1.8229002707 1.3257986564 0.0041614085
|  7> C 0.9925421918 0.3320895137 0.8100685243
|  8> C -6.55882e-05 -0.5225042377 1.47575e-05
|  9> C 0.7574306576 -1.4240179468 -0.9822618464
| 10> C -0.7586089176 -1.4230572938 0.9823557421
| 11> C -0.9916513634 0.3330987697 -0.8102091256
| 12> C -1.8225038029 1.3262573653 -0.0041444916
| 13> H 2.5004778938 1.8571419922 0.6692643192
| 14> H 1.191516113 2.0598409022 -0.488953328
| 15> H 2.4201570851 0.8194244372 -0.7490891564
| 16> H 1.6729451667 -0.3482653129 1.3287733869
| 17> H 0.4403417746 0.8777631166 1.5777031309
| 18> H 1.2444187938 -0.8383820966 -1.7574719684
| 19> H 0.0692324358 -2.1142371555 -1.4653942321
| 20> H 1.5146771808 -2.0054068856 -0.4610160504
| 21> H -1.2445104786 -0.8368367473 1.7577854131
| 22> H -1.5168527985 -2.0033121157 0.4613001387
| 23> H -0.0712822585 -2.1143028123 1.4652278887
| 24> H -0.4385299048 0.8793059688 -1.5767920034
| 25> H -1.6717882979 -0.3465365052 -1.3302023675
| 26> H -2.4981130935 1.8597096068 -0.6695471275
| 27> H -2.421904441 0.8191727162 0.7468789765
| 28> H -1.1913029338 2.0585916563 0.4917121032
| 29> *
| 30>
| 31>                          ****END OF INPUT****

CARTESIAN COORDINATES (ANGSTROEM)
---------------------------------
  C      1.822900    1.325799    0.004161
  C      0.992542    0.332090    0.810069
  C     -0.000066   -0.522504    0.000015
  C      0.757431   -1.424018   -0.982262
  C     -0.758609   -1.423057    0.982356
  C     -0.991651    0.333099   -0.810209
  C     -1.822504    1.326257   -0.004144
  H      2.500478    1.857142    0.669264
  H      1.191516    2.059841   -0.488953
  H      2.420157    0.819424   -0.749089
  H      1.672945   -0.348265    1.328773
  H      0.440342    0.877763    1.577703
  H      1.244419   -0.838382   -1.757472
  H      0.069232   -2.114237   -1.465394
  H      1.514677   -2.005407   -0.461016
  H     -1.244510   -0.836837    1.757785
  H     -1.516853   -2.003312    0.461300
  H     -0.071282   -2.114303    1.465228
  H     -0.438530    0.879306   -1.576792
  H     -1.671788   -0.346537   -1.330202
  H     -2.498113    1.859710   -0.669547
  H     -2.421904    0.819173    0.746879
  H     -1.191303    2.058592    0.491712

 Total Charge           Charge          ....    0
 Multiplicity           Mult            ....    1
 Number of Electrons    NEL             ....   58
 Basis Dimension        Dim             ....  213

ORBITAL ENERGIES
----------------

  NO   OCC          E(Eh)            E(eV)
   0   2.0000     -10.036433      -273.1052
   1   2.0000     -10.019793      -272.6524
   2   2.0000     -10.019785      -272.6522
   3   2.0000     -10.013809      -272.4896
   4   2.0000     -10.013797      -272.4893
   5   2.0000     -10.010737      -272.4060
   6   2.0000     -10.010732      -272.4059
   7   2.0000      -0.794046       -21.6071
   8   2.0000      -0.711759       -19.3680
   9   2.0000      -0.694383       -18.8951
  10   2.0000      -0.648608       -17.6495
  11   2.0000      -0.592457       -16.1216
  12   2.0000      -0.583211       -15.8700
  13   2.0000      -0.486433       -13.2365
  14   2.0000      -0.434276       -11.8172
  15   2.0000      -0.433566       -11.7979
  16   2.0000      -0.404380       -11.0037
  17   2.0000      -0.395455       -10.7609
  18   2.0000      -0.372756       -10.1432
  19   2.0000      -0.365859        -9.9555
  20   2.0000      -0.350475        -9.5369
  21   2.0000      -0.345851        -9.4111
  22   2.0000      -0.328357        -8.9351
  23   2.0000      -0.326560        -8.8861
  24   2.0000      -0.311354        -8.4724
  25   2.0000      -0.305132        -8.3031
  26   2.0000      -0.278287        -7.5726
  27   2.0000      -0.276501        -7.5240
  28   2.0000      -0.271493        -7.3877
  29   0.0000       0.077189         2.1004
  30   0.0000       0.105749         2.8776
  31   0.0000       0.110744         3.0135
  32   0.0000       0.117607         3.2002
  33   0.0000       0.129190         3.5154

MULLIKEN ATOMIC CHARGES
-----------------------
   0 C :   -0.511591
   1 C :   -0.269700
   2 C :    0.151632
   3 C :   -0.519746
   4 C :   -0.519806
   5 C :   -0.269622
   6 C :   -0.511611
   7 H :    0.148182
   8 H :    0.153298
   9 H :    0.153729
  10 H :    0.147470
  11 H :    0.156207
  12 H :    0.156926
  13 H :    0.152045
  14 H :    0.157313
  15 H :    0.156987
  16 H :    0.157335
  17 H :    0.152030
  18 H :    0.156226
  19 H :    0.147466
  20 H :    0.148179
  21 H :    0.153750
  22 H :    0.153301
Sum of atomic charges:    0.0000000

LOEWDIN ATOMIC CHARGES
----------------------
   0 C :   -0.421667
   1 C :   -0.304702
   2 C :   -0.209035
   3 C :   -0.408239
   4 C :   -0.408240
   5 C :   -0.304692
   6 C :   -0.421661
   7 H :    0.151997
   8 H :    0.150754
   9 H :    0.151798
  10 H :    0.158401
  11 H :    0.157324
  12 H :    0.155243
  13 H :    0.157380
  14 H :    0.156207
  15 H :    0.155249
  16 H :    0.156219
  17 H :    0.157380
  18 H :    0.157339
  19 H :    0.158396
  20 H :    0.151992
  21 H :    0.151800
  22 H :    0.150758

  Mayer bond orders larger than 0.100000
B(  0-C ,  1-C ) :   0.8815 B(  0-C ,  7-H ) :   0.9719 B(  0-C ,  8-H ) :   0.9809
B(  0-C ,  9-H ) :   0.9848 B(  1-C ,  2-C ) :   0.8875 B(  1-C , 10-H ) :   0.9708
B(  1-C , 11-H ) :   0.9765 B(  2-C ,  3-C ) :   0.9290 B(  2-C ,  4-C ) :   0.9289
B(  2-C ,  5-C ) :   0.8874 B(  3-C , 12-H ) :   0.9793 B(  3-C , 13-H ) :   0.9745
B(  3-C , 14-H ) :   0.9796 B(  4-C , 15-H ) :   0.9793 B(  4-C , 16-H ) :   0.9796
B(  4-C , 17-H ) :   0.9745 B(  5-C ,  6-C ) :   0.8816 B(  5-C , 18-H ) :   0.9765
B(  5-C , 19-H ) :   0.9708 B(  6-C , 20-H ) :   0.9719 B(  6-C , 21-H ) :   0.9847
B(  6-C , 22-H ) :   0.9809

Dispersion correction           -0.006816574
FINAL SINGLE POINT ENERGY      -276.288766163861

DIPOLE MOMENT
-------------

Method             : SCF
Type of density    : Electron Density
Multiplicity       :   1
Irrep              :   0
Energy             :  -276.2933800190243687 Eh
Relativity type    :
Basis              : AO
                                X                 Y                 Z
Electronic contribution:      0.000504259      -0.571889411      -0.000129620
Nuclear contribution   :     -0.000485745       0.585103861       0.000168047
                        -----------------------------------------
Total Dipole Moment    :      0.000018514       0.013214450       0.000038426
                        -----------------------------------------
Magnitude (a.u.)       :      0.013214519
Magnitude (Debye)      :      0.033588637

Rotational constants in cm-1:             0.086418             0.076855             0.057660
Rotational constants in MHz :          2590.752776          2304.065992          1728.615929

                             ****ORCA TERMINATED NORMALLY****
TOTAL RUN TIME: 0 days 0 hours 0 minutes 21 seconds 729 msec
