                         Program Version 6.0.0  -   RELEASE  -
|  1> ! r2scan-3c def2/J RI DEFGRID2 scfconv6 printgap
|  2> %output
|  3>     printlevel normal
|  4> end
|  5> %cpcm
|  6>     smd true
|  7>     smdsolvent "water"
|  8> end
|  9> * xyz 0 1
| 10> C 1.8229002707 1.3257986564 0.0041614085
| 11> C 0.9925421918 0.3320895137 0.8100685243
| 12> C -6.55882e-05 -0.5225042377 1.47575e-05
| 13> C 0.7574306576 -1.4240179468 -0.9822618464
| 14> C -0.7586089176 -1.4230572938 0.9823557421
| 15> C -0.9916513634 0.3330987697 -0.8102091256
| 16> C -1.8225038029 1.3262573653 -0.0041444916
| 17> H 2.5004778938 1.8571419922 0.6692643192
| 18> H 1.191516113 2.0598409022 -0.488953328
| 19> H 2.4201570851 0.8194244372 -0.7490891564
| 20> H 1.6729451667 -0.3482653129 1.3287733869
| 21> H 0.4403417746 0.8777631166 1.5777031309
| 22> H 1.2444187938 -0.8383820966 -1.7574719684
| 23> H 0.0692324358 -2.1142371555 -1.4653942321
| 24> H 1.5146771808 -2.0054068856 -0.4610160504
| 25> H -1.2445104786 -0.8368367473 1.7577854131
| 26> H -1.5168527985 -2.0033121157 0.4613001387
| 27> H -0.0712822585 -2.1143028123 1.4652278887
| 28> H -0.4385299048 0.8793059688 -1.5767920034
| 29> H -1.6717882979 -0.3465365052 -1.3302023675
| 30> H -2.4981130935 1.8597096068 -0.6695471275
| 31> H -2.421904441 0.8191727162 0.7468789765
| 32> H -1.1913029338 2.0585916563 0.4917121032
| 33> *
| 34>
| 35>                          ****END OF INPUT****

CARTESIAN COORDINATES (ANGSTROEM)
---------------------------------
  C      1.822900    1.325799    0.004161
  C      0.992542    0.332090    0.810069
  C     -0.000066   -0.522504    0.000015
  C      0.757431   -1.424018   -0.982262
  C     -0.758609   -1.423057    0.982356
  C     -0.991651    0.333099   -0.810209
  C     -1.822504    1.326257   -0.004144
  H      2.500478    1.857142    0.669264
  H      1.191516    2.059841   -0.488953
  H      2.420157    0.819424   -0.749089
  H      1.672945   -0.348265    1.328773
  H      0.440342    0.877763    1.577703
  H      1.244419   -0.838382   -1.757472
  H      0.069232   -2.114237   -1.465394
  H      1.514677   -2.005407   -0.461016
  H     -1.244510   -0.836837    1.757785
  H     -1.516853   -2.003312    0.461300
  H     -0.071282   -2.114303    1.465228
  H     -0.438530    0.879306   -1.576792
  H     -1.671788   -0.346537   -1.330202
  H     -2.498113    1.859710   -0.669547
  H     -2.421904    0.819173    0.746879
  H     -1.191303    2.058592    0.491712

 Total Charge           Charge          ....    0
 Multiplicity           Mult            ....    1
 Number of Electrons    NEL             ....   58
 Basis Dimension        Dim             ....  213

ORBITAL ENERGIES
----------------

  NO   OCC          E(Eh)            E(eV)
   0   2.0000     -10.028957      -272.9018
   1   2.0000     -10.011644      -272.4307
   2   2.0000     -10.011639      -272.4305
   3   2.0000     -10.005711      -272.2692
   4   2.0000     -10.005702      -272.2690
   5   2.0000     -10.002848      -272.1913
   6   2.0000     -10.002844      -272.1912
   7   2.0000      -0.786170       -21.3928
   8   2.0000      -0.704041       -19.1579
   9   2.0000      -0.686808       -18.6890
  10   2.0000      -0.641346       -17.4519
  11   2.0000      -0.585095       -15.9212
  12   2.0000      -0.575587       -15.6625
  13   2.0000      -0.479047       -13.0355
  14   2.0000      -0.426226       -11.5982
  15   2.0000      -0.425627       -11.5819
  16   2.0000      -0.396444       -10.7878
  17   2.0000      -0.387922       -10.5559
  18   2.0000      -0.364851        -9.9281
  19   2.0000      -0.358300        -9.7498
  20   2.0000      -0.342797        -9.3280
  21   2.0000      -0.338175        -9.2022
  22   2.0000      -0.320521        -8.7218
  23   2.0000      -0.318752        -8.6737
  24   2.0000      -0.303209        -8.2507
  25   2.0000      -0.297124        -8.0852
  26   2.0000      -0.270709        -7.3664
  27   2.0000      -0.268712        -7.3120
  28   2.0000      -0.263680        -7.1751
  29   0.0000       0.085996         2.3401
  30   0.0000       0.113513         3.0888
  31   0.0000       0.118097         3.2136
  32   0.0000       0.124675         3.3926
  33   0.0000       0.135300         3.6817

MULLIKEN ATOMIC CHARGES
-----------------------
   0 C :   -0.548049
   1 C :   -0.284550
   2 C :    0.194967
   3 C :   -0.568198
   4 C :   -0.568215
   5 C :   -0.284473
   6 C :   -0.548039
   7 H :    0.157016
   8 H :    0.163726
   9 H :    0.163138
  10 H :    0.156322
  11 H :    0.163589
  12 H :    0.168303
  13 H :    0.162891
  14 H :    0.168279
  15 H :    0.168335
  16 H :    0.168295
  17 H :    0.162874
  18 H :    0.163596
  19 H :    0.156312
  20 H :    0.157008
  21 H :    0.163137
  22 H :    0.163734
Sum of atomic charges:    0.0000000

LOEWDIN ATOMIC CHARGES
----------------------
   0 C :   -0.429373
   1 C :   -0.307065
   2 C :   -0.204968
   3 C :   -0.416932
   4 C :   -0.416924
   5 C :   -0.307055
   6 C :   -0.429363
   7 H :    0.153541
   8 H :    0.153569
   9 H :    0.153918
  10 H :    0.160119
  11 H :    0.159101
  12 H :    0.157794
  13 H :    0.159166
  14 H :    0.158625
  15 H :    0.157794
  16 H :    0.158636
  17 H :    0.159165
  18 H :    0.159111
  19 H :    0.160114
  20 H :    0.153535
  21 H :    0.153913
  22 H :    0.153576

  Mayer bond orders larger than 0.100000
B(  0-C ,  1-C ) :   0.8771 B(  0-C ,  7-H ) :   0.9702 B(  0-C ,  8-H ) :   0.9784
B(  0-C ,  9-H ) :   0.9817 B(  1-C ,  2-C ) :   0.8839 B(  1-C , 10-H ) :   0.9720
B(  1-C , 11-H ) :   0.9760 B(  2-C ,  3-C ) :   0.9155 B(  2-C ,  4-C ) :   0.9153
B(  2-C ,  5-C ) :   0.8838 B(  3-C , 12-H ) :   0.9764 B(  3-C , 13-H ) :   0.9743
B(  3-C , 14-H ) :   0.9780 B(  4-C , 15-H ) :   0.9764 B(  4-C , 16-H ) :   0.9780
B(  4-C , 17-H ) :   0.9743 B(  5-C ,  6-C ) :   0.8772 B(  5-C , 18-H ) :   0.9760
B(  5-C , 19-H ) :   0.9720 B(  6-C , 20-H ) :   0.9702 B(  6-C , 21-H ) :   0.9817
B(  6-C , 22-H ) :   0.9784

Dispersion correction           -0.006816574
FINAL SINGLE POINT ENERGY      -276.285059530512

DIPOLE MOMENT
-------------

Method             : SCF
Type of density    : Electron Density
Multiplicity       :   1
Irrep              :   0
Energy             :  -276.2896733856752007 Eh
Relativity type    :
Basis              : AO
                                X                 Y                 Z
Electronic contribution:      0.000521678      -0.562225849      -0.000113831
Nuclear contribution   :     -0.000485745       0.585103861       0.000168047
                        -----------------------------------------
Total Dipole Moment    :      0.000035932       0.022878012       0.000054216
                        -----------------------------------------
Magnitude (a.u.)       :      0.022878105
Magnitude (Debye)      :      0.058151520

Rotational constants in cm-1:             0.086418             0.076855             0.057660
Rotational constants in MHz :          2590.752776          2304.065992          1728.615929

                             ****ORCA TERMINATED NORMALLY****
TOTAL RUN TIME: 0 days 0 hours 0 minutes 27 seconds 368 msec
