                         Program Version 6.0.0  -   RELEASE  -
|  1> ! r2scan-3c def2/J RI DEFGRID2 scfconv6 printgap
|  2> %output
|  3>     printlevel normal
|  4> end
|  5> * xyz 0 1
|  6> C 3.3890447907 -0.7374238223 0.1022292521
|  7> C 2.031448645 -0.2183093498 0.4713663581
|  8> C 1.4768029321 -0.4920826549 1.6418158623
|  9> C 1.3699367709 0.623179566 -0.5969402401
| 10> H 2.1649467445 1.1580064968 -1.1271640235
| 11> C 0.6363959978 -0.2634776389 -1.6160021919
| 12> C -0.505045482 -1.0291572779 -0.9547132046
| 13> C -1.3935391238 -0.0965663382 -0.1843178824
| 14> C -0.9637558982 1.1080008341 0.2298930701
| 15> C 0.3860107292 1.6579767069 -0.0404518087
| 16> C -2.7384551381 -0.5332660299 0.1377991781
| 17> O -3.5651010354 0.0998624721 0.7731241049
| 18> H 3.768157143 -1.4142945645 0.8625547558
| 19> H 3.3516170095 -1.2642523601 -0.8493760015
| 20> H 4.088034783 0.0910865526 -0.0056061056
| 21> H 0.5055540713 -0.1271865601 1.928546045
| 22> H 1.9800272043 -1.1059028128 2.370569452
| 23> H 0.2314826022 0.3749692162 -2.4029889528
| 24> H 1.3319323315 -0.9665055716 -2.0747165036
| 25> H -1.0902131997 -1.5595321524 -1.7082674149
| 26> H -0.0971814069 -1.7749568697 -0.2659920508
| 27> H -1.6528818858 1.7361020352 0.7806046012
| 28> H 0.2663825311 2.4712521466 -0.7636489215
| 29> H 0.7849528786 2.109874559 0.8703750434
| 30> H -2.9998417259 -1.5387952372 -0.2428887152
| 31> *
| 32>
| 33>                          ****END OF INPUT****

CARTESIAN COORDINATES (ANGSTROEM)
---------------------------------
  C      3.389045   -0.737424    0.102229
  C      2.031449   -0.218309    0.471366
  C      1.476803   -0.492083    1.641816
  C      1.369937    0.623180   -0.596940
  H      2.164947    1.158006   -1.127164
  C      0.636396   -0.263478   -1.616002
  C     -0.505045   -1.029157   -0.954713
  C     -1.393539   -0.096566   -0.184318
  C     -0.963756    1.108001    0.229893
  C      0.386011    1.657977   -0.040452
  C     -2.738455   -0.533266    0.137799
  O     -3.565101    0.099862    0.773124
  H      3.768157   -1.414295    0.862555
  H      3.351617   -1.264252   -0.849376
  H      4.088035    0.091087   -0.005606
  H      0.505554   -0.127187    1.928546
  H      1.980027   -1.105903    2.370569
  H      0.231483    0.374969   -2.402989
  H      1.331932   -0.966506   -2.074717
  H     -1.090213   -1.559532   -1.708267
  H     -0.097181   -1.774957   -0.265992
  H     -1.652882    1.736102    0.780605
  H      0.266383    2.471252   -0.763649
  H      0.784953    2.109875    0.870375
  H     -2.999842   -1.538795   -0.242889

 Total Charge           Charge          ....    0
 Multiplicity           Mult            ....    1
 Number of Electrons    NEL             ....   82
 Basis Dimension        Dim             ....  284

ORBITAL ENERGIES
----------------

  NO   OCC          E(Eh)            E(eV)
   0   2.0000     -18.934525      -515.2346
   1   2.0000     -10.106624      -275.0152
   2   2.0000     -10.052687      -273.5475
   3   2.0000     -10.051330      -273.5106
   4   2.0000     -10.047019      -273.3933
   5   2.0000     -10.046568      -273.3810
   6   2.0000     -10.042694      -273.2756
   7   2.0000     -10.041404      -273.2405
   8   2.0000     -10.040628      -273.2194
   9   2.0000     -10.032003      -272.9847
  10   2.0000     -10.017792      -272.5980
  11   2.0000      -0.994878       -27.0720
  12   2.0000      -0.833304       -22.6754
  13   2.0000      -0.777952       -21.1692
  14   2.0000      -0.730523       -19.8785
  15   2.0000      -0.723493       -19.6872
  16   2.0000      -0.660935       -17.9850
  17   2.0000      -0.624732       -16.9998
  18   2.0000      -0.603977       -16.4350
  19   2.0000      -0.561067       -15.2674
  20   2.0000      -0.509562       -13.8659
  21   2.0000      -0.475758       -12.9460
  22   2.0000      -0.469154       -12.7663
  23   2.0000      -0.447163       -12.1679
  24   2.0000      -0.429706       -11.6929
  25   2.0000      -0.415453       -11.3050
  26   2.0000      -0.404447       -11.0056
  27   2.0000      -0.397223       -10.8090
  28   2.0000      -0.386490       -10.5169
  29   2.0000      -0.384051       -10.4506
  30   2.0000      -0.371858       -10.1188
  31   2.0000      -0.366343        -9.9687
  32   2.0000      -0.357542        -9.7292
  33   2.0000      -0.343821        -9.3559
  34   2.0000      -0.335778        -9.1370
  35   2.0000      -0.309320        -8.4170
  36   2.0000      -0.301166        -8.1952
  37   2.0000      -0.291423        -7.9300
  38   2.0000      -0.238583        -6.4922
  39   2.0000      -0.230464        -6.2713
  40   2.0000      -0.214721        -5.8429
  41   0.0000      -0.090294        -2.4570
  42   0.0000      -0.017307        -0.4709
  43   0.0000       0.035516         0.9664
  44   0.0000       0.064984         1.7683
  45   0.0000       0.090321         2.4578

MULLIKEN ATOMIC CHARGES
-----------------------
   0 C :   -0.519884
   1 C :   -0.002247
   2 C :   -0.335384
   3 C :    0.034452
   4 H :    0.165312
   5 C :   -0.347997
   6 C :   -0.326207
   7 C :    0.122100
   8 C :   -0.136074
   9 C :   -0.410511
  10 C :    0.011225
  11 O :   -0.352756
  12 H :    0.152975
  13 H :    0.150923
  14 H :    0.163494
  15 H :    0.151355
  16 H :    0.143201
  17 H :    0.169157
  18 H :    0.164914
  19 H :    0.154749
  20 H :    0.193244
  21 H :    0.191271
  22 H :    0.173969
  23 H :    0.184808
  24 H :    0.103912
Sum of atomic charges:    0.0000000

LOEWDIN ATOMIC CHARGES
----------------------
   0 C :   -0.390310
   1 C :   -0.123048
   2 C :   -0.313165
   3 C :   -0.202168
   4 H :    0.169384
   5 C :   -0.266000
   6 C :   -0.277119
   7 C :   -0.139260
   8 C :   -0.095640
   9 C :   -0.275306
  10 C :    0.205855
  11 O :   -0.475071
  12 H :    0.160079
  13 H :    0.160070
  14 H :    0.162903
  15 H :    0.170215
  16 H :    0.158301
  17 H :    0.165137
  18 H :    0.159915
  19 H :    0.166654
  20 H :    0.178270
  21 H :    0.186787
  22 H :    0.179257
  23 H :    0.179317
  24 H :    0.154943

  Mayer bond orders larger than 0.100000
B(  0-C ,  1-C ) :   0.8805 B(  0-C , 12-H ) :   0.9902 B(  0-C , 13-H ) :   0.9687
B(  0-C , 14-H ) :   0.9737 B(  1-C ,  2-C ) :   1.8567 B(  1-C ,  3-C ) :   0.9074
B(  2-C , 15-H ) :   0.9658 B(  2-C , 16-H ) :   0.9705 B(  3-C ,  4-H ) :   0.9746
B(  3-C ,  5-C ) :   0.8482 B(  3-C ,  9-C ) :   0.9165 B(  5-C ,  6-C ) :   0.8785
B(  5-C , 17-H ) :   0.9949 B(  5-C , 18-H ) :   0.9875 B(  6-C ,  7-C ) :   0.8835
B(  6-C , 19-H ) :   0.9499 B(  6-C , 20-H ) :   0.9733 B(  7-C ,  8-C ) :   1.7163
B(  7-C , 10-C ) :   0.9087 B(  7-C , 11-O ) :  -0.1344 B(  7-C , 24-H ) :  -0.1100
B(  8-C ,  9-C ) :   0.9012 B(  8-C , 11-O ) :   0.1372 B(  8-C , 21-H ) :   0.9502
B(  9-C , 22-H ) :   0.9473 B(  9-C , 23-H ) :   0.9855 B( 10-C , 11-O ) :   1.9480
B( 10-C , 24-H ) :   1.0363

Dispersion correction           -0.009413332
FINAL SINGLE POINT ENERGY      -464.550977259121

DIPOLE MOMENT
-------------

Method             : SCF
Type of density    : Electron Density
Multiplicity       :   1
Irrep              :   0
Energy             :  -464.5510953850298392 Eh
Relativity type    :
Basis              : AO
                                X                 Y                 Z
Electronic contribution:    -10.337761780       1.605350751       1.725657385
Nuclear contribution   :     11.798992914      -1.696729845      -2.454042453
                        -----------------------------------------
Total Dipole Moment    :      1.461231134      -0.091379094      -0.728385068
                        -----------------------------------------
Magnitude (a.u.)       :      1.635264924
Magnitude (Debye)      :      4.156513114

Rotational constants in cm-1:             0.074316             0.022511             0.022083
Rotational constants in MHz :          2227.938912           674.862888           662.025831

                             ****ORCA TERMINATED NORMALLY****
TOTAL RUN TIME: 0 days 0 hours 0 minutes 55 seconds 824 msec
