                         Program Version 6.0.0  -   RELEASE  -
|  1> ! r2scan-3c def2/J RI DEFGRID2 scfconv6 printgap
|  2> %output
|  3>     printlevel normal
|  4> end
|  5> %cpcm
|  6>     smd true
|  7>     smdsolvent "water"
|  8> end
|  9> * xyz 0 1
| 10> C 3.3890447907 -0.7374238223 0.1022292521
| 11> C 2.031448645 -0.2183093498 0.4713663581
| 12> C 1.4768029321 -0.4920826549 1.6418158623
| 13> C 1.3699367709 0.623179566 -0.5969402401
| 14> H 2.1649467445 1.1580064968 -1.1271640235
| 15> C 0.6363959978 -0.2634776389 -1.6160021919
| 16> C -0.505045482 -1.0291572779 -0.9547132046
| 17> C -1.3935391238 -0.0965663382 -0.1843178824
| 18> C -0.9637558982 1.1080008341 0.2298930701
| 19> C 0.3860107292 1.6579767069 -0.0404518087
| 20> C -2.7384551381 -0.5332660299 0.1377991781
| 21> O -3.5651010354 0.0998624721 0.7731241049
| 22> H 3.768157143 -1.4142945645 0.8625547558
| 23> H 3.3516170095 -1.2642523601 -0.8493760015
| 24> H 4.088034783 0.0910865526 -0.0056061056
| 25> H 0.5055540713 -0.1271865601 1.928546045
| 26> H 1.9800272043 -1.1059028128 2.370569452
| 27> H 0.2314826022 0.3749692162 -2.4029889528
| 28> H 1.3319323315 -0.9665055716 -2.0747165036
| 29> H -1.0902131997 -1.5595321524 -1.7082674149
| 30> H -0.0971814069 -1.7749568697 -0.2659920508
| 31> H -1.6528818858 1.7361020352 0.7806046012
| 32> H 0.2663825311 2.4712521466 -0.7636489215
| 33> H 0.7849528786 2.109874559 0.8703750434
| 34> H -2.9998417259 -1.5387952372 -0.2428887152
| 35> *
| 36>
| 37>                          ****END OF INPUT****

CARTESIAN COORDINATES (ANGSTROEM)
---------------------------------
  C      3.389045   -0.737424    0.102229
  C      2.031449   -0.218309    0.471366
  C      1.476803   -0.492083    1.641816
  C      1.369937    0.623180   -0.596940
  H      2.164947    1.158006   -1.127164
  C      0.636396   -0.263478   -1.616002
  C     -0.505045   -1.029157   -0.954713
  C     -1.393539   -0.096566   -0.184318
  C     -0.963756    1.108001    0.229893
  C      0.386011    1.657977   -0.040452
  C     -2.738455   -0.533266    0.137799
  O     -3.565101    0.099862    0.773124
  H      3.768157   -1.414295    0.862555
  H      3.351617   -1.264252   -0.849376
  H      4.088035    0.091087   -0.005606
  H      0.505554   -0.127187    1.928546
  H      1.980027   -1.105903    2.370569
  H      0.231483    0.374969   -2.402989
  H      1.331932   -0.966506   -2.074717
  H     -1.090213   -1.559532   -1.708267
  H     -0.097181   -1.774957   -0.265992
  H     -1.652882    1.736102    0.780605
  H      0.266383    2.471252   -0.763649
  H      0.784953    2.109875    0.870375
  H     -2.999842   -1.538795   -0.242889

 Total Charge           Charge          ....    0
 Multiplicity           Mult            ....    1
 Number of Electrons    NEL             ....   82
 Basis Dimension        Dim             ....  284

ORBITAL ENERGIES
----------------

  NO   OCC          E(Eh)            E(eV)
   0   2.0000     -18.947525      -515.5884
   1   2.0000     -10.114495      -275.2294
   2   2.0000     -10.049691      -273.4660
   3   2.0000     -10.036922      -273.1185
   4   2.0000     -10.036401      -273.1044
   5   2.0000     -10.034915      -273.0639
   6   2.0000     -10.031984      -272.9842
   7   2.0000     -10.026734      -272.8413
   8   2.0000     -10.025064      -272.7959
   9   2.0000     -10.015129      -272.5255
  10   2.0000     -10.006485      -272.2903
  11   2.0000      -1.010570       -27.4990
  12   2.0000      -0.821810       -22.3626
  13   2.0000      -0.768535       -20.9129
  14   2.0000      -0.717749       -19.5309
  15   2.0000      -0.712581       -19.3903
  16   2.0000      -0.647848       -17.6289
  17   2.0000      -0.617058       -16.7910
  18   2.0000      -0.593086       -16.1387
  19   2.0000      -0.551710       -15.0128
  20   2.0000      -0.499085       -13.5808
  21   2.0000      -0.469568       -12.7776
  22   2.0000      -0.459485       -12.5032
  23   2.0000      -0.437081       -11.8936
  24   2.0000      -0.422007       -11.4834
  25   2.0000      -0.415264       -11.2999
  26   2.0000      -0.397567       -10.8183
  27   2.0000      -0.389072       -10.5872
  28   2.0000      -0.375925       -10.2294
  29   2.0000      -0.371635       -10.1127
  30   2.0000      -0.368825       -10.0362
  31   2.0000      -0.355571        -9.6756
  32   2.0000      -0.353330        -9.6146
  33   2.0000      -0.332025        -9.0349
  34   2.0000      -0.324491        -8.8299
  35   2.0000      -0.294867        -8.0237
  36   2.0000      -0.286971        -7.8089
  37   2.0000      -0.278242        -7.5714
  38   2.0000      -0.234121        -6.3708
  39   2.0000      -0.228912        -6.2290
  40   2.0000      -0.223082        -6.0704
  41   0.0000      -0.092602        -2.5198
  42   0.0000      -0.008135        -0.2214
  43   0.0000       0.038837         1.0568
  44   0.0000       0.080306         2.1852
  45   0.0000       0.100568         2.7366

MULLIKEN ATOMIC CHARGES
-----------------------
   0 C :   -0.558303
   1 C :   -0.009088
   2 C :   -0.410820
   3 C :    0.056893
   4 H :    0.184376
   5 C :   -0.365585
   6 C :   -0.340108
   7 C :    0.090439
   8 C :   -0.122182
   9 C :   -0.435249
  10 C :    0.052607
  11 O :   -0.462094
  12 H :    0.166318
  13 H :    0.172249
  14 H :    0.179937
  15 H :    0.162775
  16 H :    0.166708
  17 H :    0.182820
  18 H :    0.182911
  19 H :    0.175250
  20 H :    0.198380
  21 H :    0.198134
  22 H :    0.200435
  23 H :    0.198363
  24 H :    0.134833
Sum of atomic charges:    0.0000000

LOEWDIN ATOMIC CHARGES
----------------------
   0 C :   -0.397715
   1 C :   -0.118566
   2 C :   -0.341998
   3 C :   -0.199769
   4 H :    0.177385
   5 C :   -0.265631
   6 C :   -0.275078
   7 C :   -0.145621
   8 C :   -0.079281
   9 C :   -0.272096
  10 C :    0.220834
  11 O :   -0.561484
  12 H :    0.162639
  13 H :    0.168055
  14 H :    0.168968
  15 H :    0.171140
  16 H :    0.163259
  17 H :    0.169531
  18 H :    0.166476
  19 H :    0.174292
  20 H :    0.178762
  21 H :    0.187291
  22 H :    0.191600
  23 H :    0.185111
  24 H :    0.171895

  Mayer bond orders larger than 0.100000
B(  0-C ,  1-C ) :   0.8826 B(  0-C , 12-H ) :   0.9879 B(  0-C , 13-H ) :   0.9621
B(  0-C , 14-H ) :   0.9662 B(  1-C ,  2-C ) :   1.8289 B(  1-C ,  3-C ) :   0.8941
B(  2-C , 15-H ) :   0.9686 B(  2-C , 16-H ) :   0.9696 B(  3-C ,  4-H ) :   0.9692
B(  3-C ,  5-C ) :   0.8353 B(  3-C ,  9-C ) :   0.9069 B(  5-C ,  6-C ) :   0.8647
B(  5-C , 17-H ) :   0.9960 B(  5-C , 18-H ) :   0.9816 B(  6-C ,  7-C ) :   0.8810
B(  6-C , 19-H ) :   0.9463 B(  6-C , 20-H ) :   0.9809 B(  7-C ,  8-C ) :   1.6534
B(  7-C , 10-C ) :   0.9718 B(  7-C , 11-O ) :  -0.1248 B(  8-C ,  9-C ) :   0.9190
B(  8-C , 11-O ) :   0.1370 B(  8-C , 21-H ) :   0.9471 B(  9-C , 22-H ) :   0.9363
B(  9-C , 23-H ) :   0.9851 B( 10-C , 11-O ) :   1.8652 B( 10-C , 24-H ) :   1.0101

Dispersion correction           -0.009413332
FINAL SINGLE POINT ENERGY      -464.557428052383

DIPOLE MOMENT
-------------

Method             : SCF
Type of density    : Electron Density
Multiplicity       :   1
Irrep              :   0
Energy             :  -464.5575461782917728 Eh
Relativity type    :
Basis              : AO
                                X                 Y                 Z
Electronic contribution:     -9.755989744       1.581160526       1.289067817
Nuclear contribution   :     11.798992914      -1.696729845      -2.454042453
                        -----------------------------------------
Total Dipole Moment    :      2.043003169      -0.115569319      -1.164974636
                        -----------------------------------------
Magnitude (a.u.)       :      2.354651592
Magnitude (Debye)      :      5.985048708

Rotational constants in cm-1:             0.074316             0.022511             0.022083
Rotational constants in MHz :          2227.938912           674.862888           662.025831

                             ****ORCA TERMINATED NORMALLY****
TOTAL RUN TIME: 0 days 0 hours 1 minutes 14 seconds 107 msec
