                         Program Version 6.0.0  -   RELEASE  -
|  1> ! pbe def2-sv(p) def2/J RI DEFGRID1 loosescf d4 GCP(DFT/SV(P)) printgap
|  2> %output
|  3>     printlevel normal
|  4> end
|  5> * xyz 0 1
|  6> C -1.0727226429 -0.6071149893 -0.0783877872
|  7> C 0.0204224795 0.2283763955 0.6034324887
|  8> C 1.3559136066 -0.5262883452 0.6345230071
|  9> O 1.8249983985 -0.8176009646 -0.6580023135
| 10> O 0.2238902961 1.4371468047 -0.1020162881
| 11> O -2.2511965983 0.1458868687 -0.2592276766
| 12> H -1.2579663827 -1.5179578498 0.4988072956
| 13> H -0.734355718 -0.8880429341 -1.0785458099
| 14> H -0.277586729 0.457822321 1.6394441488
| 15> H 1.2321729449 -1.4829025441 1.1440939471
| 16> H 2.0893774234 0.0814231526 1.1795741771
| 17> H 1.8769300101 0.0201189592 -1.1435879421
| 18> H -0.6315858889 1.713858049 -0.467975955
| 19> H -2.7035718737 0.250096314 0.5895118852
| 20> *
| 21>
| 22>                          ****END OF INPUT****

CARTESIAN COORDINATES (ANGSTROEM)
---------------------------------
  C     -1.072723   -0.607115   -0.078388
  C      0.020422    0.228376    0.603432
  C      1.355914   -0.526288    0.634523
  O      1.824998   -0.817601   -0.658002
  O      0.223890    1.437147   -0.102016
  O     -2.251197    0.145887   -0.259228
  H     -1.257966   -1.517958    0.498807
  H     -0.734356   -0.888043   -1.078546
  H     -0.277587    0.457822    1.639444
  H      1.232173   -1.482903    1.144094
  H      2.089377    0.081423    1.179574
  H      1.876930    0.020119   -1.143588
  H     -0.631586    1.713858   -0.467976
  H     -2.703572    0.250096    0.589512

 Total Charge           Charge          ....    0
 Multiplicity           Mult            ....    1
 Number of Electrons    NEL             ....   50
 Basis Dimension        Dim             ....  100

ORBITAL ENERGIES
----------------

  NO   OCC          E(Eh)            E(eV)
   0   2.0000     -18.764644      -510.6119
   1   2.0000     -18.750662      -510.2315
   2   2.0000     -18.741464      -509.9811
   3   2.0000      -9.938956      -270.4527
   4   2.0000      -9.935526      -270.3594
   5   2.0000      -9.930382      -270.2194
   6   2.0000      -0.947947       -25.7949
   7   2.0000      -0.926201       -25.2032
   8   2.0000      -0.907911       -24.7055
   9   2.0000      -0.681761       -18.5517
  10   2.0000      -0.609505       -16.5855
  11   2.0000      -0.544938       -14.8285
  12   2.0000      -0.485084       -13.1998
  13   2.0000      -0.451789       -12.2938
  14   2.0000      -0.448482       -12.2038
  15   2.0000      -0.423089       -11.5128
  16   2.0000      -0.383829       -10.4445
  17   2.0000      -0.367414        -9.9978
  18   2.0000      -0.360377        -9.8063
  19   2.0000      -0.299244        -8.1429
  20   2.0000      -0.292498        -7.9593
  21   2.0000      -0.277042        -7.5387
  22   2.0000      -0.249443        -6.7877
  23   2.0000      -0.218876        -5.9559
  24   2.0000      -0.210759        -5.7350
  25   0.0000       0.011521         0.3135
  26   0.0000       0.044774         1.2184
  27   0.0000       0.055716         1.5161
  28   0.0000       0.080484         2.1901
  29   0.0000       0.083556         2.2737

MULLIKEN ATOMIC CHARGES
-----------------------
   0 C :    0.011563
   1 C :   -0.032904
   2 C :    0.054491
   3 O :   -0.441636
   4 O :   -0.441534
   5 O :   -0.431516
   6 H :    0.077421
   7 H :    0.091518
   8 H :    0.045540
   9 H :    0.082738
  10 H :    0.084528
  11 H :    0.298501
  12 H :    0.300577
  13 H :    0.300712
Sum of atomic charges:    0.0000000

LOEWDIN ATOMIC CHARGES
----------------------
   0 C :   -0.143350
   1 C :   -0.102098
   2 C :   -0.124200
   3 O :   -0.337428
   4 O :   -0.336077
   5 O :   -0.332929
   6 H :    0.103022
   7 H :    0.117540
   8 H :    0.092363
   9 H :    0.113926
  10 H :    0.102616
  11 H :    0.281084
  12 H :    0.278757
  13 H :    0.286775

  Mayer bond orders larger than 0.100000
B(  0-C ,  1-C ) :   1.0478 B(  0-C ,  5-O ) :   1.0508 B(  0-C ,  6-H ) :   0.9223
B(  0-C ,  7-H ) :   0.9041 B(  1-C ,  2-C ) :   1.0366 B(  1-C ,  4-O ) :   1.0631
B(  1-C ,  8-H ) :   0.8851 B(  2-C ,  3-O ) :   1.0659 B(  2-C ,  9-H ) :   0.9249
B(  2-C , 10-H ) :   0.9160 B(  3-O , 11-H ) :   0.8374 B(  4-O , 12-H ) :   0.8251
B(  5-O , 13-H ) :   0.8515

Dispersion correction           -0.009264276
FINAL SINGLE POINT ENERGY      -344.014249528279

DIPOLE MOMENT
-------------

Method             : SCF
Type of density    : Electron Density
Multiplicity       :   1
Irrep              :   0
Energy             :  -344.0886124580985665 Eh
Relativity type    :
Basis              : AO
                                X                 Y                 Z
Electronic contribution:     -0.249675334       1.411840803      -1.531724658
Nuclear contribution   :     -0.384452903      -1.269787355       2.200192029
                        -----------------------------------------
Total Dipole Moment    :     -0.634128237       0.142053449       0.668467370
                        -----------------------------------------
Magnitude (a.u.)       :      0.932280230
Magnitude (Debye)      :      2.369668025

Rotational constants in cm-1:             0.204726             0.076149             0.066938
Rotational constants in MHz :          6137.530278          2282.891837          2006.764900

                             ****ORCA TERMINATED NORMALLY****
TOTAL RUN TIME: 0 days 0 hours 0 minutes 8 seconds 71 msec
