                         Program Version 6.0.0  -   RELEASE  -
|  1> ! pbe def2-sv(p) def2/J RI DEFGRID1 loosescf d4 GCP(DFT/SV(P)) printgap
|  2> %output
|  3>     printlevel normal
|  4> end
|  5> * xyz 0 1
|  6> C -1.3085432651 -0.3646661216 -0.4406290858
|  7> C 0.0401118424 0.030807935 0.1731780548
|  8> C 1.2195459292 -0.5019437044 -0.6455196032
|  9> O 2.2666941856 -0.8375932904 0.2364022572
| 10> O 0.1519986874 1.4354357639 0.2432593597
| 11> O -2.3199229024 0.1698169694 0.3870116234
| 12> H -1.3793312837 -1.4571153154 -0.4886688593
| 13> H -1.3747924196 0.0537717835 -1.4529555537
| 14> H 0.1060034355 -0.3976756207 1.1847081038
| 15> H 1.5259368057 0.2869226229 -1.3413218574
| 16> H 0.9041268839 -1.3869441175 -1.2135538154
| 17> H 3.0620594679 -1.0469514972 -0.2727773815
| 18> H -0.6422144291 1.773014333 0.6846760954
| 19> H -3.1870745521 -0.0508459689 0.021939445
| 20> *
| 21>
| 22>                          ****END OF INPUT****

CARTESIAN COORDINATES (ANGSTROEM)
---------------------------------
  C     -1.308543   -0.364666   -0.440629
  C      0.040112    0.030808    0.173178
  C      1.219546   -0.501944   -0.645520
  O      2.266694   -0.837593    0.236402
  O      0.151999    1.435436    0.243259
  O     -2.319923    0.169817    0.387012
  H     -1.379331   -1.457115   -0.488669
  H     -1.374792    0.053772   -1.452956
  H      0.106003   -0.397676    1.184708
  H      1.525937    0.286923   -1.341322
  H      0.904127   -1.386944   -1.213554
  H      3.062059   -1.046951   -0.272777
  H     -0.642214    1.773014    0.684676
  H     -3.187075   -0.050846    0.021939

 Total Charge           Charge          ....    0
 Multiplicity           Mult            ....    1
 Number of Electrons    NEL             ....   50
 Basis Dimension        Dim             ....  100

ORBITAL ENERGIES
----------------

  NO   OCC          E(Eh)            E(eV)
   0   2.0000     -18.756046      -510.3779
   1   2.0000     -18.739565      -509.9295
   2   2.0000     -18.732889      -509.7478
   3   2.0000      -9.932472      -270.2763
   4   2.0000      -9.930982      -270.2357
   5   2.0000      -9.927373      -270.1376
   6   2.0000      -0.936151       -25.4740
   7   2.0000      -0.918081       -24.9823
   8   2.0000      -0.902242       -24.5512
   9   2.0000      -0.680991       -18.5307
  10   2.0000      -0.602736       -16.4013
  11   2.0000      -0.520798       -14.1716
  12   2.0000      -0.481519       -13.1028
  13   2.0000      -0.464080       -12.6283
  14   2.0000      -0.449697       -12.2369
  15   2.0000      -0.406566       -11.0632
  16   2.0000      -0.371427       -10.1071
  17   2.0000      -0.359664        -9.7870
  18   2.0000      -0.353654        -9.6234
  19   2.0000      -0.300821        -8.1858
  20   2.0000      -0.288342        -7.8462
  21   2.0000      -0.262128        -7.1329
  22   2.0000      -0.226814        -6.1719
  23   2.0000      -0.214377        -5.8335
  24   2.0000      -0.202116        -5.4999
  25   0.0000       0.019530         0.5314
  26   0.0000       0.033274         0.9054
  27   0.0000       0.061238         1.6664
  28   0.0000       0.073180         1.9913
  29   0.0000       0.092241         2.5100

MULLIKEN ATOMIC CHARGES
-----------------------
   0 C :   -0.018788
   1 C :    0.028731
   2 C :    0.028031
   3 O :   -0.434279
   4 O :   -0.433616
   5 O :   -0.441632
   6 H :    0.073255
   7 H :    0.072024
   8 H :    0.078615
   9 H :    0.080333
  10 H :    0.064182
  11 H :    0.297176
  12 H :    0.299989
  13 H :    0.305978
Sum of atomic charges:    0.0000000

LOEWDIN ATOMIC CHARGES
----------------------
   0 C :   -0.143384
   1 C :   -0.073176
   2 C :   -0.122517
   3 O :   -0.342521
   4 O :   -0.329988
   5 O :   -0.347813
   6 H :    0.098308
   7 H :    0.097671
   8 H :    0.110151
   9 H :    0.105518
  10 H :    0.092299
  11 H :    0.284445
  12 H :    0.280917
  13 H :    0.290090

  Mayer bond orders larger than 0.100000
B(  0-C ,  1-C ) :   1.0589 B(  0-C ,  5-O ) :   1.0800 B(  0-C ,  6-H ) :   0.9097
B(  0-C ,  7-H ) :   0.9080 B(  1-C ,  2-C ) :   1.0458 B(  1-C ,  4-O ) :   1.0725
B(  1-C ,  8-H ) :   0.8978 B(  2-C ,  3-O ) :   1.0954 B(  2-C ,  9-H ) :   0.9031
B(  2-C , 10-H ) :   0.9258 B(  3-O , 11-H ) :   0.8524 B(  4-O , 12-H ) :   0.8383
B(  5-O , 13-H ) :   0.8494

Dispersion correction           -0.008866633
FINAL SINGLE POINT ENERGY      -344.004335252101

DIPOLE MOMENT
-------------

Method             : SCF
Type of density    : Electron Density
Multiplicity       :   1
Irrep              :   0
Energy             :  -344.0772834115693399 Eh
Relativity type    :
Basis              : AO
                                X                 Y                 Z
Electronic contribution:      0.348670347       1.523929899       1.876846747
Nuclear contribution   :     -0.922902313      -2.076807844      -2.687148401
                        -----------------------------------------
Total Dipole Moment    :     -0.574231966      -0.552877945      -0.810301653
                        -----------------------------------------
Magnitude (a.u.)       :      1.136664041
Magnitude (Debye)      :      2.889170386

Rotational constants in cm-1:             0.244202             0.065194             0.056996
Rotational constants in MHz :          7321.000168          1954.470543          1708.686379

                             ****ORCA TERMINATED NORMALLY****
TOTAL RUN TIME: 0 days 0 hours 0 minutes 6 seconds 660 msec
