                         Program Version 6.0.0  -   RELEASE  -
|  1> ! r2scan-3c def2/J RI DEFGRID2 scfconv6 printgap
|  2> %output
|  3>     printlevel normal
|  4> end
|  5> * xyz 0 1
|  6> C -2.1564581057 -0.2430703887 -0.7176533968
|  7> C -1.5438571686 -0.1066897347 0.6715651643
|  8> C -0.2623406049 0.7264477825 0.6457217832
|  9> C 0.8925348768 -0.0045565929 0.0044107544
| 10> O 0.9017439122 -1.1863028651 -0.249997798
| 11> O 1.9710671822 0.7351255979 -0.2644870184
| 12> H -1.4567732315 -0.7368980159 -1.388424684
| 13> H -2.4044455868 0.7334219252 -1.1277468052
| 14> H -3.0640788675 -0.8387779241 -0.6739909617
| 15> H -2.2622861723 0.3660600885 1.3422993406
| 16> H -1.3106674166 -1.0992938241 1.0606770892
| 17> H -0.4382719753 1.661606136 0.1105156498
| 18> H 0.0420888634 0.9667908487 1.6678228985
| 19> H 1.8771827116 1.6744334518 -0.0224107819
| 20> *
| 21>
| 22>                          ****END OF INPUT****

CARTESIAN COORDINATES (ANGSTROEM)
---------------------------------
  C     -2.156458   -0.243070   -0.717653
  C     -1.543857   -0.106690    0.671565
  C     -0.262341    0.726448    0.645722
  C      0.892535   -0.004557    0.004411
  O      0.901744   -1.186303   -0.249998
  O      1.971067    0.735126   -0.264487
  H     -1.456773   -0.736898   -1.388425
  H     -2.404446    0.733422   -1.127747
  H     -3.064079   -0.838778   -0.673991
  H     -2.262286    0.366060    1.342299
  H     -1.310667   -1.099294    1.060677
  H     -0.438272    1.661606    0.110516
  H      0.042089    0.966791    1.667823
  H      1.877183    1.674433   -0.022411

 Total Charge           Charge          ....    0
 Multiplicity           Mult            ....    1
 Number of Electrons    NEL             ....   48
 Basis Dimension        Dim             ....  164

ORBITAL ENERGIES
----------------

  NO   OCC          E(Eh)            E(eV)
   0   2.0000     -19.006066      -517.1813
   1   2.0000     -18.935032      -515.2484
   2   2.0000     -10.164028      -276.5773
   3   2.0000     -10.057327      -273.6738
   4   2.0000     -10.037170      -273.1253
   5   2.0000     -10.018805      -272.6256
   6   2.0000      -1.074796       -29.2467
   7   2.0000      -0.984783       -26.7973
   8   2.0000      -0.774206       -21.0672
   9   2.0000      -0.684834       -18.6353
  10   2.0000      -0.603165       -16.4129
  11   2.0000      -0.571124       -15.5411
  12   2.0000      -0.488254       -13.2861
  13   2.0000      -0.456103       -12.4112
  14   2.0000      -0.426349       -11.6016
  15   2.0000      -0.413305       -11.2466
  16   2.0000      -0.395011       -10.7488
  17   2.0000      -0.372984       -10.1494
  18   2.0000      -0.353120        -9.6089
  19   2.0000      -0.321556        -8.7500
  20   2.0000      -0.315182        -8.5765
  21   2.0000      -0.312912        -8.5148
  22   2.0000      -0.292272        -7.9531
  23   2.0000      -0.242909        -6.6099
  24   0.0000      -0.022183        -0.6036
  25   0.0000       0.039227         1.0674
  26   0.0000       0.080037         2.1779
  27   0.0000       0.124257         3.3812
  28   0.0000       0.127819         3.4781

MULLIKEN ATOMIC CHARGES
-----------------------
   0 C :   -0.511554
   1 C :   -0.188485
   2 C :   -0.313312
   3 C :    0.339452
   4 O :   -0.386204
   5 O :   -0.336847
   6 H :    0.175465
   7 H :    0.134582
   8 H :    0.149110
   9 H :    0.139535
  10 H :    0.155131
  11 H :    0.146390
  12 H :    0.170314
  13 H :    0.326423
Sum of atomic charges:    0.0000000

LOEWDIN ATOMIC CHARGES
----------------------
   0 C :   -0.417543
   1 C :   -0.297475
   2 C :   -0.263087
   3 C :    0.343923
   4 O :   -0.400215
   5 O :   -0.402578
   6 H :    0.164635
   7 H :    0.146480
   8 H :    0.153831
   9 H :    0.152584
  10 H :    0.171893
  11 H :    0.171622
  12 H :    0.182250
  13 H :    0.293680

  Mayer bond orders larger than 0.100000
B(  0-C ,  1-C ) :   0.9107 B(  0-C ,  6-H ) :   0.9764 B(  0-C ,  7-H ) :   0.9805
B(  0-C ,  8-H ) :   0.9704 B(  1-C ,  2-C ) :   0.9308 B(  1-C ,  9-H ) :   0.9573
B(  1-C , 10-H ) :   0.9639 B(  2-C ,  3-C ) :   0.9570 B(  2-C , 11-H ) :   0.9660
B(  2-C , 12-H ) :   0.9175 B(  3-C ,  4-O ) :   1.9865 B(  3-C ,  5-O ) :   1.0675
B(  5-O , 13-H ) :   0.8697

Dispersion correction           -0.003177588
FINAL SINGLE POINT ENERGY      -307.642604165004

DIPOLE MOMENT
-------------

Method             : SCF
Type of density    : Electron Density
Multiplicity       :   1
Irrep              :   0
Energy             :  -307.6470817478647177 Eh
Relativity type    :
Basis              : AO
                                X                 Y                 Z
Electronic contribution:      7.912372935      -1.091183885      -0.372765067
Nuclear contribution   :     -8.417071484       2.552018143       0.901205422
                        -----------------------------------------
Total Dipole Moment    :     -0.504698549       1.460834259       0.528440355
                        -----------------------------------------
Magnitude (a.u.)       :      1.633403368
Magnitude (Debye)      :      4.151781415

Rotational constants in cm-1:             0.227115             0.075570             0.067058
Rotational constants in MHz :          6808.731667          2265.530038          2010.347940

                             ****ORCA TERMINATED NORMALLY****
TOTAL RUN TIME: 0 days 0 hours 0 minutes 19 seconds 583 msec
