                         Program Version 6.0.0  -   RELEASE  -
|  1> ! r2scan-3c def2/J RI DEFGRID2 scfconv6 printgap
|  2> %output
|  3>     printlevel normal
|  4> end
|  5> %cpcm
|  6>     smd true
|  7>     smdsolvent "water"
|  8> end
|  9> * xyz 0 1
| 10> C -2.1564581057 -0.2430703887 -0.7176533968
| 11> C -1.5438571686 -0.1066897347 0.6715651643
| 12> C -0.2623406049 0.7264477825 0.6457217832
| 13> C 0.8925348768 -0.0045565929 0.0044107544
| 14> O 0.9017439122 -1.1863028651 -0.249997798
| 15> O 1.9710671822 0.7351255979 -0.2644870184
| 16> H -1.4567732315 -0.7368980159 -1.388424684
| 17> H -2.4044455868 0.7334219252 -1.1277468052
| 18> H -3.0640788675 -0.8387779241 -0.6739909617
| 19> H -2.2622861723 0.3660600885 1.3422993406
| 20> H -1.3106674166 -1.0992938241 1.0606770892
| 21> H -0.4382719753 1.661606136 0.1105156498
| 22> H 0.0420888634 0.9667908487 1.6678228985
| 23> H 1.8771827116 1.6744334518 -0.0224107819
| 24> *
| 25>
| 26>                          ****END OF INPUT****

CARTESIAN COORDINATES (ANGSTROEM)
---------------------------------
  C     -2.156458   -0.243070   -0.717653
  C     -1.543857   -0.106690    0.671565
  C     -0.262341    0.726448    0.645722
  C      0.892535   -0.004557    0.004411
  O      0.901744   -1.186303   -0.249998
  O      1.971067    0.735126   -0.264487
  H     -1.456773   -0.736898   -1.388425
  H     -2.404446    0.733422   -1.127747
  H     -3.064079   -0.838778   -0.673991
  H     -2.262286    0.366060    1.342299
  H     -1.310667   -1.099294    1.060677
  H     -0.438272    1.661606    0.110516
  H      0.042089    0.966791    1.667823
  H      1.877183    1.674433   -0.022411

 Total Charge           Charge          ....    0
 Multiplicity           Mult            ....    1
 Number of Electrons    NEL             ....   48
 Basis Dimension        Dim             ....  164

ORBITAL ENERGIES
----------------

  NO   OCC          E(Eh)            E(eV)
   0   2.0000     -19.000998      -517.0435
   1   2.0000     -18.946031      -515.5477
   2   2.0000     -10.169128      -276.7160
   3   2.0000     -10.038762      -273.1686
   4   2.0000     -10.024849      -272.7900
   5   2.0000     -10.009514      -272.3727
   6   2.0000      -1.074706       -29.2442
   7   2.0000      -0.991809       -26.9885
   8   2.0000      -0.761145       -20.7118
   9   2.0000      -0.673410       -18.3244
  10   2.0000      -0.595618       -16.2076
  11   2.0000      -0.560663       -15.2564
  12   2.0000      -0.479967       -13.0606
  13   2.0000      -0.447005       -12.1636
  14   2.0000      -0.432902       -11.7799
  15   2.0000      -0.410652       -11.1744
  16   2.0000      -0.390165       -10.6169
  17   2.0000      -0.361545        -9.8381
  18   2.0000      -0.350946        -9.5497
  19   2.0000      -0.308478        -8.3941
  20   2.0000      -0.306958        -8.3527
  21   2.0000      -0.303055        -8.2465
  22   2.0000      -0.296990        -8.0815
  23   2.0000      -0.255719        -6.9585
  24   0.0000      -0.023978        -0.6525
  25   0.0000       0.073957         2.0125
  26   0.0000       0.097952         2.6654
  27   0.0000       0.132733         3.6118
  28   0.0000       0.139345         3.7918

MULLIKEN ATOMIC CHARGES
-----------------------
   0 C :   -0.537938
   1 C :   -0.217022
   2 C :   -0.294125
   3 C :    0.347097
   4 O :   -0.485827
   5 O :   -0.374675
   6 H :    0.162283
   7 H :    0.155455
   8 H :    0.159979
   9 H :    0.158870
  10 H :    0.148157
  11 H :    0.185286
  12 H :    0.201955
  13 H :    0.390504
Sum of atomic charges:    0.0000000

LOEWDIN ATOMIC CHARGES
----------------------
   0 C :   -0.425770
   1 C :   -0.300193
   2 C :   -0.249706
   3 C :    0.356212
   4 O :   -0.481461
   5 O :   -0.400429
   6 H :    0.157808
   7 H :    0.154081
   8 H :    0.155012
   9 H :    0.160035
  10 H :    0.165213
  11 H :    0.190142
  12 H :    0.197611
  13 H :    0.321445

  Mayer bond orders larger than 0.100000
B(  0-C ,  1-C ) :   0.9095 B(  0-C ,  6-H ) :   0.9779 B(  0-C ,  7-H ) :   0.9752
B(  0-C ,  8-H ) :   0.9698 B(  1-C ,  2-C ) :   0.8983 B(  1-C ,  9-H ) :   0.9539
B(  1-C , 10-H ) :   0.9746 B(  2-C ,  3-C ) :   0.9804 B(  2-C , 11-H ) :   0.9510
B(  2-C , 12-H ) :   0.9050 B(  3-C ,  4-O ) :   1.9127 B(  3-C ,  5-O ) :   1.1118
B(  5-O , 13-H ) :   0.8374

Dispersion correction           -0.003177588
FINAL SINGLE POINT ENERGY      -307.657588422135

DIPOLE MOMENT
-------------

Method             : SCF
Type of density    : Electron Density
Multiplicity       :   1
Irrep              :   0
Energy             :  -307.6620660049954949 Eh
Relativity type    :
Basis              : AO
                                X                 Y                 Z
Electronic contribution:      7.786294703      -0.351062389      -0.140624500
Nuclear contribution   :     -8.417071484       2.552018143       0.901205422
                        -----------------------------------------
Total Dipole Moment    :     -0.630776781       2.200955754       0.760580921
                        -----------------------------------------
Magnitude (a.u.)       :      2.412585525
Magnitude (Debye)      :      6.132305063

Rotational constants in cm-1:             0.227115             0.075570             0.067058
Rotational constants in MHz :          6808.731667          2265.530038          2010.347940

                             ****ORCA TERMINATED NORMALLY****
TOTAL RUN TIME: 0 days 0 hours 0 minutes 20 seconds 925 msec
