                         Program Version 6.0.0  -   RELEASE  -
|  1> ! r2scan-3c def2/J RI DEFGRID2 scfconv6 printgap
|  2> %output
|  3>     printlevel normal
|  4> end
|  5> * xyz 0 1
|  6> C 2.5387736448 -0.1164293526 -0.7606782251
|  7> C 1.3249098134 -0.1774693606 0.1627130095
|  8> H 1.4118534144 -1.0683898433 0.8059705043
|  9> C 0.0281247654 -0.2882157727 -0.6540304922
| 10> C -1.2498788293 -0.3436465132 0.1997356658
| 11> C -1.8442125535 1.0521054173 0.3932532367
| 12> C -2.2893067363 -1.2589823783 -0.4469368231
| 13> O 1.3660555647 0.9839797844 0.9792524855
| 14> H 2.4711837758 0.7651377909 -1.3924069529
| 15> H 3.4464265142 -0.0450513414 -0.167671007
| 16> H 2.584371656 -1.0044691085 -1.382901132
| 17> H -0.0282885664 0.5598013062 -1.3384651791
| 18> H 0.107412465 -1.1972098879 -1.2518297577
| 19> H -0.9983374289 -0.7638420388 1.1813805643
| 20> H -2.2460182202 1.4161909114 -0.5503129884
| 21> H -1.0910353593 1.7583813569 0.7319103276
| 22> H -2.6524824391 1.0275750968 1.1208919016
| 23> H -1.9148695599 -2.277334246 -0.5204733884
| 24> H -3.202687903 -1.2709230147 0.1433392391
| 25> H -2.5314622121 -0.9066159271 -1.4471044192
| 26> H 0.734237299 0.8845427497 1.7023946853
| 27> *
| 28>
| 29>                          ****END OF INPUT****

CARTESIAN COORDINATES (ANGSTROEM)
---------------------------------
  C      2.538774   -0.116429   -0.760678
  C      1.324910   -0.177469    0.162713
  H      1.411853   -1.068390    0.805971
  C      0.028125   -0.288216   -0.654030
  C     -1.249879   -0.343647    0.199736
  C     -1.844213    1.052105    0.393253
  C     -2.289307   -1.258982   -0.446937
  O      1.366056    0.983980    0.979252
  H      2.471184    0.765138   -1.392407
  H      3.446427   -0.045051   -0.167671
  H      2.584372   -1.004469   -1.382901
  H     -0.028289    0.559801   -1.338465
  H      0.107412   -1.197210   -1.251830
  H     -0.998337   -0.763842    1.181381
  H     -2.246018    1.416191   -0.550313
  H     -1.091035    1.758381    0.731910
  H     -2.652482    1.027575    1.120892
  H     -1.914870   -2.277334   -0.520473
  H     -3.202688   -1.270923    0.143339
  H     -2.531462   -0.906616   -1.447104
  H      0.734237    0.884543    1.702395

 Total Charge           Charge          ....    0
 Multiplicity           Mult            ....    1
 Number of Electrons    NEL             ....   58
 Basis Dimension        Dim             ....  208

ORBITAL ENERGIES
----------------

  NO   OCC          E(Eh)            E(eV)
   0   2.0000     -18.945016      -515.5201
   1   2.0000     -10.080513      -274.3047
   2   2.0000     -10.037748      -273.1410
   3   2.0000     -10.021078      -272.6874
   4   2.0000     -10.017766      -272.5973
   5   2.0000     -10.015549      -272.5369
   6   2.0000     -10.014488      -272.5081
   7   2.0000      -0.982785       -26.7429
   8   2.0000      -0.778136       -21.1742
   9   2.0000      -0.724884       -19.7251
  10   2.0000      -0.651138       -17.7184
  11   2.0000      -0.646994       -17.6056
  12   2.0000      -0.556672       -15.1478
  13   2.0000      -0.531601       -14.4656
  14   2.0000      -0.487355       -13.2616
  15   2.0000      -0.434160       -11.8141
  16   2.0000      -0.412381       -11.2214
  17   2.0000      -0.410630       -11.1738
  18   2.0000      -0.373344       -10.1592
  19   2.0000      -0.367796       -10.0082
  20   2.0000      -0.356079        -9.6894
  21   2.0000      -0.353056        -9.6072
  22   2.0000      -0.338851        -9.2206
  23   2.0000      -0.329939        -8.9781
  24   2.0000      -0.310402        -8.4465
  25   2.0000      -0.298288        -8.1168
  26   2.0000      -0.294737        -8.0202
  27   2.0000      -0.277347        -7.5470
  28   2.0000      -0.231325        -6.2947
  29   0.0000       0.052794         1.4366
  30   0.0000       0.096516         2.6263
  31   0.0000       0.103012         2.8031
  32   0.0000       0.116791         3.1780
  33   0.0000       0.130207         3.5431

MULLIKEN ATOMIC CHARGES
-----------------------
   0 C :   -0.488162
   1 C :   -0.027173
   2 H :    0.137025
   3 C :   -0.247123
   4 C :   -0.018609
   5 C :   -0.535857
   6 C :   -0.489740
   7 O :   -0.423878
   8 H :    0.153453
   9 H :    0.156741
  10 H :    0.139509
  11 H :    0.154340
  12 H :    0.144557
  13 H :    0.143470
  14 H :    0.151521
  15 H :    0.158411
  16 H :    0.148498
  17 H :    0.146330
  18 H :    0.145372
  19 H :    0.152263
  20 H :    0.299050
Sum of atomic charges:   -0.0000000

LOEWDIN ATOMIC CHARGES
----------------------
   0 C :   -0.384529
   1 C :    0.048564
   2 H :    0.160235
   3 C :   -0.281940
   4 C :   -0.248818
   5 C :   -0.419881
   6 C :   -0.416190
   7 O :   -0.614823
   8 H :    0.161439
   9 H :    0.161398
  10 H :    0.156416
  11 H :    0.168885
  12 H :    0.164172
  13 H :    0.152096
  14 H :    0.154981
  15 H :    0.158882
  16 H :    0.151415
  17 H :    0.151911
  18 H :    0.152744
  19 H :    0.155180
  20 H :    0.267860

  Mayer bond orders larger than 0.100000
B(  0-C ,  1-C ) :   0.9366 B(  0-C ,  8-H ) :   0.9851 B(  0-C ,  9-H ) :   0.9706
B(  0-C , 10-H ) :   0.9747 B(  1-C ,  2-H ) :   0.9755 B(  1-C ,  3-C ) :   0.9038
B(  1-C ,  7-O ) :   0.8888 B(  3-C ,  4-C ) :   0.8144 B(  3-C , 11-H ) :   0.9647
B(  3-C , 12-H ) :   0.9787 B(  4-C ,  5-C ) :   0.9199 B(  4-C ,  6-C ) :   0.9004
B(  4-C , 13-H ) :   0.9724 B(  5-C , 14-H ) :   0.9836 B(  5-C , 15-H ) :   0.9689
B(  5-C , 16-H ) :   0.9772 B(  6-C , 17-H ) :   0.9779 B(  6-C , 18-H ) :   0.9782
B(  6-C , 19-H ) :   0.9840 B(  7-O , 20-H ) :   0.8915

Dispersion correction           -0.005499348
FINAL SINGLE POINT ENERGY      -312.201469492505

DIPOLE MOMENT
-------------

Method             : SCF
Type of density    : Electron Density
Multiplicity       :   1
Irrep              :   0
Energy             :  -312.2070700944682926 Eh
Relativity type    :
Basis              : AO
                                X                 Y                 Z
Electronic contribution:      3.294651861       1.508014098       2.266745215
Nuclear contribution   :     -3.647661475      -1.976373471      -2.204484361
                        -----------------------------------------
Total Dipole Moment    :     -0.353009614      -0.468359373       0.062260855
                        -----------------------------------------
Magnitude (a.u.)       :      0.589790389
Magnitude (Debye)      :      1.499128032

Rotational constants in cm-1:             0.146145             0.049572             0.041042
Rotational constants in MHz :          4381.313164          1486.136891          1230.421933

                             ****ORCA TERMINATED NORMALLY****
TOTAL RUN TIME: 0 days 0 hours 0 minutes 30 seconds 132 msec
