                         Program Version 6.0.0  -   RELEASE  -
|  1> ! r2scan-3c def2/J RI DEFGRID2 scfconv6 printgap
|  2> %output
|  3>     printlevel normal
|  4> end
|  5> %cpcm
|  6>     smd true
|  7>     smdsolvent "water"
|  8> end
|  9> * xyz 0 1
| 10> C 2.5387736448 -0.1164293526 -0.7606782251
| 11> C 1.3249098134 -0.1774693606 0.1627130095
| 12> H 1.4118534144 -1.0683898433 0.8059705043
| 13> C 0.0281247654 -0.2882157727 -0.6540304922
| 14> C -1.2498788293 -0.3436465132 0.1997356658
| 15> C -1.8442125535 1.0521054173 0.3932532367
| 16> C -2.2893067363 -1.2589823783 -0.4469368231
| 17> O 1.3660555647 0.9839797844 0.9792524855
| 18> H 2.4711837758 0.7651377909 -1.3924069529
| 19> H 3.4464265142 -0.0450513414 -0.167671007
| 20> H 2.584371656 -1.0044691085 -1.382901132
| 21> H -0.0282885664 0.5598013062 -1.3384651791
| 22> H 0.107412465 -1.1972098879 -1.2518297577
| 23> H -0.9983374289 -0.7638420388 1.1813805643
| 24> H -2.2460182202 1.4161909114 -0.5503129884
| 25> H -1.0910353593 1.7583813569 0.7319103276
| 26> H -2.6524824391 1.0275750968 1.1208919016
| 27> H -1.9148695599 -2.277334246 -0.5204733884
| 28> H -3.202687903 -1.2709230147 0.1433392391
| 29> H -2.5314622121 -0.9066159271 -1.4471044192
| 30> H 0.734237299 0.8845427497 1.7023946853
| 31> *
| 32>
| 33>                          ****END OF INPUT****

CARTESIAN COORDINATES (ANGSTROEM)
---------------------------------
  C      2.538774   -0.116429   -0.760678
  C      1.324910   -0.177469    0.162713
  H      1.411853   -1.068390    0.805971
  C      0.028125   -0.288216   -0.654030
  C     -1.249879   -0.343647    0.199736
  C     -1.844213    1.052105    0.393253
  C     -2.289307   -1.258982   -0.446937
  O      1.366056    0.983980    0.979252
  H      2.471184    0.765138   -1.392407
  H      3.446427   -0.045051   -0.167671
  H      2.584372   -1.004469   -1.382901
  H     -0.028289    0.559801   -1.338465
  H      0.107412   -1.197210   -1.251830
  H     -0.998337   -0.763842    1.181381
  H     -2.246018    1.416191   -0.550313
  H     -1.091035    1.758381    0.731910
  H     -2.652482    1.027575    1.120892
  H     -1.914870   -2.277334   -0.520473
  H     -3.202688   -1.270923    0.143339
  H     -2.531462   -0.906616   -1.447104
  H      0.734237    0.884543    1.702395

 Total Charge           Charge          ....    0
 Multiplicity           Mult            ....    1
 Number of Electrons    NEL             ....   58
 Basis Dimension        Dim             ....  208

ORBITAL ENERGIES
----------------

  NO   OCC          E(Eh)            E(eV)
   0   2.0000     -18.948396      -515.6121
   1   2.0000     -10.075008      -274.1549
   2   2.0000     -10.025710      -272.8134
   3   2.0000     -10.012004      -272.4405
   4   2.0000     -10.009560      -272.3740
   5   2.0000     -10.006299      -272.2852
   6   2.0000     -10.005560      -272.2651
   7   2.0000      -0.984998       -26.8032
   8   2.0000      -0.768075       -20.9004
   9   2.0000      -0.718932       -19.5631
  10   2.0000      -0.640994       -17.4423
  11   2.0000      -0.639745       -17.4083
  12   2.0000      -0.551813       -15.0156
  13   2.0000      -0.521178       -14.1820
  14   2.0000      -0.483292       -13.1510
  15   2.0000      -0.426282       -11.5997
  16   2.0000      -0.405275       -11.0281
  17   2.0000      -0.401267       -10.9190
  18   2.0000      -0.366326        -9.9682
  19   2.0000      -0.364340        -9.9142
  20   2.0000      -0.348121        -9.4728
  21   2.0000      -0.345524        -9.4022
  22   2.0000      -0.333614        -9.0781
  23   2.0000      -0.323960        -8.8154
  24   2.0000      -0.306025        -8.3274
  25   2.0000      -0.287105        -7.8125
  26   2.0000      -0.285680        -7.7738
  27   2.0000      -0.271944        -7.4000
  28   2.0000      -0.233642        -6.3577
  29   0.0000       0.070565         1.9202
  30   0.0000       0.107176         2.9164
  31   0.0000       0.112491         3.0610
  32   0.0000       0.127767         3.4767
  33   0.0000       0.136421         3.7122

MULLIKEN ATOMIC CHARGES
-----------------------
   0 C :   -0.535092
   1 C :    0.005767
   2 H :    0.151002
   3 C :   -0.305974
   4 C :    0.022087
   5 C :   -0.575828
   6 C :   -0.530901
   7 O :   -0.509975
   8 H :    0.163369
   9 H :    0.162739
  10 H :    0.162938
  11 H :    0.163076
  12 H :    0.159751
  13 H :    0.160633
  14 H :    0.161795
  15 H :    0.158415
  16 H :    0.158965
  17 H :    0.157915
  18 H :    0.155455
  19 H :    0.160755
  20 H :    0.353108
Sum of atomic charges:   -0.0000000

LOEWDIN ATOMIC CHARGES
----------------------
   0 C :   -0.394996
   1 C :    0.049985
   2 H :    0.168951
   3 C :   -0.283140
   4 C :   -0.244403
   5 C :   -0.426437
   6 C :   -0.424647
   7 O :   -0.651053
   8 H :    0.161830
   9 H :    0.160689
  10 H :    0.164956
  11 H :    0.168734
  12 H :    0.170154
  13 H :    0.159661
  14 H :    0.155814
  15 H :    0.157504
  16 H :    0.154682
  17 H :    0.154796
  18 H :    0.154712
  19 H :    0.156534
  20 H :    0.285674

  Mayer bond orders larger than 0.100000
B(  0-C ,  1-C ) :   0.9221 B(  0-C ,  8-H ) :   0.9807 B(  0-C ,  9-H ) :   0.9706
B(  0-C , 10-H ) :   0.9695 B(  1-C ,  2-H ) :   0.9676 B(  1-C ,  3-C ) :   0.9206
B(  1-C ,  7-O ) :   0.8696 B(  3-C ,  4-C ) :   0.8144 B(  3-C , 11-H ) :   0.9719
B(  3-C , 12-H ) :   0.9737 B(  4-C ,  5-C ) :   0.9002 B(  4-C ,  6-C ) :   0.8874
B(  4-C , 13-H ) :   0.9684 B(  5-C , 14-H ) :   0.9834 B(  5-C , 15-H ) :   0.9704
B(  5-C , 16-H ) :   0.9741 B(  6-C , 17-H ) :   0.9750 B(  6-C , 18-H ) :   0.9773
B(  6-C , 19-H ) :   0.9818 B(  7-O , 20-H ) :   0.8655

Dispersion correction           -0.005499348
FINAL SINGLE POINT ENERGY      -312.207088830336

DIPOLE MOMENT
-------------

Method             : SCF
Type of density    : Electron Density
Multiplicity       :   1
Irrep              :   0
Energy             :  -312.2126894323001807 Eh
Relativity type    :
Basis              : AO
                                X                 Y                 Z
Electronic contribution:      3.147141101       1.246733905       2.339153377
Nuclear contribution   :     -3.647661475      -1.976373471      -2.204484361
                        -----------------------------------------
Total Dipole Moment    :     -0.500520374      -0.729639565       0.134669016
                        -----------------------------------------
Magnitude (a.u.)       :      0.895002952
Magnitude (Debye)      :      2.274916713

Rotational constants in cm-1:             0.146145             0.049572             0.041042
Rotational constants in MHz :          4381.313164          1486.136891          1230.421933

                             ****ORCA TERMINATED NORMALLY****
TOTAL RUN TIME: 0 days 0 hours 0 minutes 34 seconds 522 msec
