                         Program Version 6.0.0  -   RELEASE  -
|  1> ! r2scan-3c def2/J RI DEFGRID2 scfconv6 printgap
|  2> %output
|  3>     printlevel normal
|  4> end
|  5> * xyz 0 1
|  6> C -2.7473519572 -0.0060691479 0.0160054251
|  7> C -1.3152883194 -0.0703743394 -0.5003073648
|  8> C -0.2989493255 0.140314536 0.628679094
|  9> C 1.1142296862 0.1015804378 0.1142144718
| 10> C 1.7804930461 1.2074896692 -0.1777765537
| 11> C 1.7075490999 -1.2625929387 -0.0620144102
| 12> H -2.9460009197 0.9623794301 0.4696824757
| 13> H -2.9173143588 -0.7762418835 0.7651476578
| 14> H -3.4528255139 -0.1557070606 -0.7977395588
| 15> H -1.1440615794 -1.0406762197 -0.9703405484
| 16> H -1.1635536672 0.6982616284 -1.2612971347
| 17> H -0.4934741818 1.1069056097 1.0973330682
| 18> H -0.4386591207 -0.6388275001 1.3811131552
| 19> H 2.7854963765 1.1836975223 -0.5645473667
| 20> H 1.348241129 2.1845706028 -0.0404689635
| 21> H 1.0731611482 -1.8723086262 -0.7029164866
| 22> H 2.6987960596 -1.2042529462 -0.5029268167
| 23> H 1.7820189499 -1.762804461 0.9029157186
| 24> *
| 25>
| 26>                          ****END OF INPUT****

CARTESIAN COORDINATES (ANGSTROEM)
---------------------------------
  C     -2.747352   -0.006069    0.016005
  C     -1.315288   -0.070374   -0.500307
  C     -0.298949    0.140315    0.628679
  C      1.114230    0.101580    0.114214
  C      1.780493    1.207490   -0.177777
  C      1.707549   -1.262593   -0.062014
  H     -2.946001    0.962379    0.469682
  H     -2.917314   -0.776242    0.765148
  H     -3.452826   -0.155707   -0.797740
  H     -1.144062   -1.040676   -0.970341
  H     -1.163554    0.698262   -1.261297
  H     -0.493474    1.106906    1.097333
  H     -0.438659   -0.638828    1.381113
  H      2.785496    1.183698   -0.564547
  H      1.348241    2.184571   -0.040469
  H      1.073161   -1.872309   -0.702916
  H      2.698796   -1.204253   -0.502927
  H      1.782019   -1.762804    0.902916

 Total Charge           Charge          ....    0
 Multiplicity           Mult            ....    1
 Number of Electrons    NEL             ....   48
 Basis Dimension        Dim             ....  174

ORBITAL ENERGIES
----------------

  NO   OCC          E(Eh)            E(eV)
   0   2.0000     -10.036460      -273.1060
   1   2.0000     -10.027507      -272.8623
   2   2.0000     -10.026927      -272.8466
   3   2.0000     -10.022662      -272.7305
   4   2.0000     -10.017194      -272.5817
   5   2.0000     -10.007691      -272.3231
   6   2.0000      -0.786362       -21.3980
   7   2.0000      -0.732256       -19.9257
   8   2.0000      -0.654834       -17.8189
   9   2.0000      -0.642763       -17.4905
  10   2.0000      -0.558959       -15.2100
  11   2.0000      -0.491286       -13.3686
  12   2.0000      -0.440729       -11.9928
  13   2.0000      -0.426450       -11.6043
  14   2.0000      -0.395747       -10.7688
  15   2.0000      -0.394479       -10.7343
  16   2.0000      -0.375878       -10.2282
  17   2.0000      -0.351270        -9.5585
  18   2.0000      -0.337741        -9.1904
  19   2.0000      -0.328834        -8.9480
  20   2.0000      -0.312210        -8.4957
  21   2.0000      -0.297700        -8.1008
  22   2.0000      -0.290498        -7.9049
  23   2.0000      -0.221226        -6.0199
  24   0.0000      -0.004788        -0.1303
  25   0.0000       0.086073         2.3422
  26   0.0000       0.104793         2.8516
  27   0.0000       0.117622         3.2006
  28   0.0000       0.124678         3.3927

MULLIKEN ATOMIC CHARGES
-----------------------
   0 C :   -0.473053
   1 C :   -0.234469
   2 C :   -0.281240
   3 C :    0.154015
   4 C :   -0.404617
   5 C :   -0.511235
   6 H :    0.143408
   7 H :    0.142535
   8 H :    0.147360
   9 H :    0.135880
  10 H :    0.151275
  11 H :    0.150167
  12 H :    0.140664
  13 H :    0.139411
  14 H :    0.141113
  15 H :    0.150405
  16 H :    0.149486
  17 H :    0.158896
Sum of atomic charges:   -0.0000000

LOEWDIN ATOMIC CHARGES
----------------------
   0 C :   -0.424421
   1 C :   -0.301957
   2 C :   -0.289304
   3 C :   -0.132302
   4 C :   -0.331512
   5 C :   -0.395405
   6 H :    0.149915
   7 H :    0.149498
   8 H :    0.151114
   9 H :    0.150485
  10 H :    0.156249
  11 H :    0.163576
  12 H :    0.160841
  13 H :    0.156055
  14 H :    0.157069
  15 H :    0.159386
  16 H :    0.159081
  17 H :    0.161633

  Mayer bond orders larger than 0.100000
B(  0-C ,  1-C ) :   0.8954 B(  0-C ,  6-H ) :   0.9830 B(  0-C ,  7-H ) :   0.9845
B(  0-C ,  8-H ) :   0.9742 B(  1-C ,  2-C ) :   0.9220 B(  1-C ,  9-H ) :   0.9739
B(  1-C , 10-H ) :   0.9705 B(  2-C ,  3-C ) :   0.8700 B(  2-C , 11-H ) :   0.9893
B(  2-C , 12-H ) :   0.9868 B(  3-C ,  4-C ) :   1.8693 B(  3-C ,  5-C ) :   0.8814
B(  4-C , 13-H ) :   0.9769 B(  4-C , 14-H ) :   0.9846 B(  5-C , 15-H ) :   0.9730
B(  5-C , 16-H ) :   0.9897 B(  5-C , 17-H ) :   0.9722

Dispersion correction           -0.004432249
FINAL SINGLE POINT ENERGY      -235.762145835993

DIPOLE MOMENT
-------------

Method             : SCF
Type of density    : Electron Density
Multiplicity       :   1
Irrep              :   0
Energy             :  -235.7652809584414513 Eh
Relativity type    :
Basis              : AO
                                X                 Y                 Z
Electronic contribution:      2.536155074       1.037160002       0.220431371
Nuclear contribution   :     -2.690816412      -1.233688060      -0.210190550
                        -----------------------------------------
Total Dipole Moment    :     -0.154661338      -0.196528058       0.010240820
                        -----------------------------------------
Magnitude (a.u.)       :      0.250296387
Magnitude (Debye)      :      0.636202857

Rotational constants in cm-1:             0.229027             0.062039             0.054280
Rotational constants in MHz :          6866.045236          1859.893672          1627.262156

                             ****ORCA TERMINATED NORMALLY****
TOTAL RUN TIME: 0 days 0 hours 0 minutes 18 seconds 779 msec
