                         Program Version 6.0.0  -   RELEASE  -
|  1> ! r2scan-3c def2/J RI DEFGRID2 scfconv6 printgap
|  2> %output
|  3>     printlevel normal
|  4> end
|  5> %cpcm
|  6>     smd true
|  7>     smdsolvent "water"
|  8> end
|  9> * xyz 0 1
| 10> C -2.7473519572 -0.0060691479 0.0160054251
| 11> C -1.3152883194 -0.0703743394 -0.5003073648
| 12> C -0.2989493255 0.140314536 0.628679094
| 13> C 1.1142296862 0.1015804378 0.1142144718
| 14> C 1.7804930461 1.2074896692 -0.1777765537
| 15> C 1.7075490999 -1.2625929387 -0.0620144102
| 16> H -2.9460009197 0.9623794301 0.4696824757
| 17> H -2.9173143588 -0.7762418835 0.7651476578
| 18> H -3.4528255139 -0.1557070606 -0.7977395588
| 19> H -1.1440615794 -1.0406762197 -0.9703405484
| 20> H -1.1635536672 0.6982616284 -1.2612971347
| 21> H -0.4934741818 1.1069056097 1.0973330682
| 22> H -0.4386591207 -0.6388275001 1.3811131552
| 23> H 2.7854963765 1.1836975223 -0.5645473667
| 24> H 1.348241129 2.1845706028 -0.0404689635
| 25> H 1.0731611482 -1.8723086262 -0.7029164866
| 26> H 2.6987960596 -1.2042529462 -0.5029268167
| 27> H 1.7820189499 -1.762804461 0.9029157186
| 28> *
| 29>
| 30>                          ****END OF INPUT****

CARTESIAN COORDINATES (ANGSTROEM)
---------------------------------
  C     -2.747352   -0.006069    0.016005
  C     -1.315288   -0.070374   -0.500307
  C     -0.298949    0.140315    0.628679
  C      1.114230    0.101580    0.114214
  C      1.780493    1.207490   -0.177777
  C      1.707549   -1.262593   -0.062014
  H     -2.946001    0.962379    0.469682
  H     -2.917314   -0.776242    0.765148
  H     -3.452826   -0.155707   -0.797740
  H     -1.144062   -1.040676   -0.970341
  H     -1.163554    0.698262   -1.261297
  H     -0.493474    1.106906    1.097333
  H     -0.438659   -0.638828    1.381113
  H      2.785496    1.183698   -0.564547
  H      1.348241    2.184571   -0.040469
  H      1.073161   -1.872309   -0.702916
  H      2.698796   -1.204253   -0.502927
  H      1.782019   -1.762804    0.902916

 Total Charge           Charge          ....    0
 Multiplicity           Mult            ....    1
 Number of Electrons    NEL             ....   48
 Basis Dimension        Dim             ....  174

ORBITAL ENERGIES
----------------

  NO   OCC          E(Eh)            E(eV)
   0   2.0000     -10.036043      -273.0946
   1   2.0000     -10.020022      -272.6587
   2   2.0000     -10.019393      -272.6415
   3   2.0000     -10.014549      -272.5097
   4   2.0000     -10.008563      -272.3469
   5   2.0000     -10.005230      -272.2561
   6   2.0000      -0.782078       -21.2814
   7   2.0000      -0.726120       -19.7587
   8   2.0000      -0.649022       -17.6608
   9   2.0000      -0.637753       -17.3541
  10   2.0000      -0.551996       -15.0206
  11   2.0000      -0.486770       -13.2457
  12   2.0000      -0.433311       -11.7910
  13   2.0000      -0.421545       -11.4708
  14   2.0000      -0.389108       -10.5882
  15   2.0000      -0.388796       -10.5797
  16   2.0000      -0.368263       -10.0209
  17   2.0000      -0.343987        -9.3604
  18   2.0000      -0.330226        -8.9859
  19   2.0000      -0.322938        -8.7876
  20   2.0000      -0.304776        -8.2934
  21   2.0000      -0.289715        -7.8835
  22   2.0000      -0.284603        -7.7444
  23   2.0000      -0.222517        -6.0550
  24   0.0000      -0.005498        -0.1496
  25   0.0000       0.093300         2.5388
  26   0.0000       0.111207         3.0261
  27   0.0000       0.124642         3.3917
  28   0.0000       0.131347         3.5741

MULLIKEN ATOMIC CHARGES
-----------------------
   0 C :   -0.515065
   1 C :   -0.249427
   2 C :   -0.263345
   3 C :    0.121158
   4 C :   -0.483853
   5 C :   -0.541825
   6 H :    0.155093
   7 H :    0.155620
   8 H :    0.157397
   9 H :    0.153722
  10 H :    0.152976
  11 H :    0.159870
  12 H :    0.156991
  13 H :    0.163803
  14 H :    0.164600
  15 H :    0.171206
  16 H :    0.164166
  17 H :    0.176910
Sum of atomic charges:   -0.0000000

LOEWDIN ATOMIC CHARGES
----------------------
   0 C :   -0.431660
   1 C :   -0.303082
   2 C :   -0.291867
   3 C :   -0.133083
   4 C :   -0.363253
   5 C :   -0.402821
   6 H :    0.152575
   7 H :    0.152881
   8 H :    0.153604
   9 H :    0.155428
  10 H :    0.155459
  11 H :    0.166607
  12 H :    0.166908
  13 H :    0.161554
  14 H :    0.162784
  15 H :    0.167163
  16 H :    0.162337
  17 H :    0.168466

  Mayer bond orders larger than 0.100000
B(  0-C ,  1-C ) :   0.8888 B(  0-C ,  6-H ) :   0.9808 B(  0-C ,  7-H ) :   0.9823
B(  0-C ,  8-H ) :   0.9713 B(  1-C ,  2-C ) :   0.9142 B(  1-C ,  9-H ) :   0.9733
B(  1-C , 10-H ) :   0.9710 B(  2-C ,  3-C ) :   0.8643 B(  2-C , 11-H ) :   0.9850
B(  2-C , 12-H ) :   0.9794 B(  3-C ,  4-C ) :   1.8471 B(  3-C ,  5-C ) :   0.8835
B(  4-C , 13-H ) :   0.9763 B(  4-C , 14-H ) :   0.9822 B(  5-C , 15-H ) :   0.9655
B(  5-C , 16-H ) :   0.9860 B(  5-C , 17-H ) :   0.9651

Dispersion correction           -0.004432249
FINAL SINGLE POINT ENERGY      -235.760215534483

DIPOLE MOMENT
-------------

Method             : SCF
Type of density    : Electron Density
Multiplicity       :   1
Irrep              :   0
Energy             :  -235.7633506569316637 Eh
Relativity type    :
Basis              : AO
                                X                 Y                 Z
Electronic contribution:      2.452322938       0.908604457       0.250586669
Nuclear contribution   :     -2.690816412      -1.233688060      -0.210190550
                        -----------------------------------------
Total Dipole Moment    :     -0.238493475      -0.325083602       0.040396119
                        -----------------------------------------
Magnitude (a.u.)       :      0.405204063
Magnitude (Debye)      :      1.029946876

Rotational constants in cm-1:             0.229027             0.062039             0.054280
Rotational constants in MHz :          6866.045236          1859.893672          1627.262156

                             ****ORCA TERMINATED NORMALLY****
TOTAL RUN TIME: 0 days 0 hours 0 minutes 22 seconds 633 msec
