                         Program Version 6.0.0  -   RELEASE  -
|  1> ! r2scan-3c def2/J RI DEFGRID2 scfconv6 printgap
|  2> %output
|  3>     printlevel normal
|  4> end
|  5> * xyz 0 1
|  6> C -3.267254212 0.9198849908 -0.1175823183
|  7> C -2.2904392482 1.2320755827 0.8135787623
|  8> C -1.1401376094 0.468349025 0.8944476952
|  9> C -0.9519835682 -0.612363915 0.0414394184
| 10> C -1.9321724347 -0.9167604171 -0.8924536434
| 11> C -3.086788856 -0.156547692 -0.9689467866
| 12> C 0.3115476673 -1.4365314665 0.1316404987
| 13> N 1.48668247 -0.6016066415 0.0807318048
| 14> C 2.2842637127 -0.238986725 1.1263279222
| 15> C 3.2205508033 0.6107750822 0.6122962263
| 16> N 3.0099466327 0.7827436223 -0.7215463019
| 17> C 1.9641672369 0.0478711243 -1.0018856649
| 18> H -4.1651939644 1.5154070454 -0.1797107788
| 19> H -2.42493279 2.0712859145 1.4790700743
| 20> H -0.3789241545 0.7172505586 1.6198739854
| 21> H -1.7943235832 -1.7531805912 -1.5617050884
| 22> H -3.8438506906 -0.4028457777 -1.6978016269
| 23> H 0.3308941242 -1.987775333 1.0758850098
| 24> H 0.3479911904 -2.1522132462 -0.6938535675
| 25> H 2.1340165573 -0.6123406586 2.117928579
| 26> H 4.0296424634 1.1076037964 1.108852511
| 27> H 1.5279450184 -0.0404611235 -1.976423199
| 28> *
| 29>
| 30>                          ****END OF INPUT****

CARTESIAN COORDINATES (ANGSTROEM)
---------------------------------
  C     -3.267254    0.919885   -0.117582
  C     -2.290439    1.232076    0.813579
  C     -1.140138    0.468349    0.894448
  C     -0.951984   -0.612364    0.041439
  C     -1.932172   -0.916760   -0.892454
  C     -3.086789   -0.156548   -0.968947
  C      0.311548   -1.436531    0.131640
  N      1.486682   -0.601607    0.080732
  C      2.284264   -0.238987    1.126328
  C      3.220551    0.610775    0.612296
  N      3.009947    0.782744   -0.721546
  C      1.964167    0.047871   -1.001886
  H     -4.165194    1.515407   -0.179711
  H     -2.424933    2.071286    1.479070
  H     -0.378924    0.717251    1.619874
  H     -1.794324   -1.753181   -1.561705
  H     -3.843851   -0.402846   -1.697802
  H      0.330894   -1.987775    1.075885
  H      0.347991   -2.152213   -0.693854
  H      2.134017   -0.612341    2.117929
  H      4.029642    1.107604    1.108853
  H      1.527945   -0.040461   -1.976423

 Total Charge           Charge          ....    0
 Multiplicity           Mult            ....    1
 Number of Electrons    NEL             ....   84
 Basis Dimension        Dim             ....  288

ORBITAL ENERGIES
----------------

  NO   OCC          E(Eh)            E(eV)
   0   2.0000     -14.222799      -387.0220
   1   2.0000     -14.132209      -384.5570
   2   2.0000     -10.097022      -274.7539
   3   2.0000     -10.072533      -274.0876
   4   2.0000     -10.057993      -273.6919
   5   2.0000     -10.054046      -273.5845
   6   2.0000     -10.047425      -273.4043
   7   2.0000     -10.045922      -273.3634
   8   2.0000     -10.045441      -273.3503
   9   2.0000     -10.044676      -273.3295
  10   2.0000     -10.044084      -273.3134
  11   2.0000     -10.036754      -273.1140
  12   2.0000      -0.993341       -27.0302
  13   2.0000      -0.865212       -23.5436
  14   2.0000      -0.835832       -22.7442
  15   2.0000      -0.753624       -20.5071
  16   2.0000      -0.728385       -19.8204
  17   2.0000      -0.712036       -19.3755
  18   2.0000      -0.676830       -18.4175
  19   2.0000      -0.591388       -16.0925
  20   2.0000      -0.578661       -15.7462
  21   2.0000      -0.567149       -15.4329
  22   2.0000      -0.543247       -14.7825
  23   2.0000      -0.512826       -13.9547
  24   2.0000      -0.493907       -13.4399
  25   2.0000      -0.451723       -12.2920
  26   2.0000      -0.439671       -11.9641
  27   2.0000      -0.424098       -11.5403
  28   2.0000      -0.417074       -11.3492
  29   2.0000      -0.402186       -10.9440
  30   2.0000      -0.401096       -10.9144
  31   2.0000      -0.382982       -10.4215
  32   2.0000      -0.376582       -10.2473
  33   2.0000      -0.368499       -10.0274
  34   2.0000      -0.351734        -9.5712
  35   2.0000      -0.327800        -8.9199
  36   2.0000      -0.321765        -8.7557
  37   2.0000      -0.255132        -6.9425
  38   2.0000      -0.249568        -6.7911
  39   2.0000      -0.242349        -6.5947
  40   2.0000      -0.231801        -6.3076
  41   2.0000      -0.206709        -5.6248
  42   0.0000      -0.047564        -1.2943
  43   0.0000      -0.042828        -1.1654
  44   0.0000      -0.002882        -0.0784
  45   0.0000       0.035003         0.9525
  46   0.0000       0.066675         1.8143

MULLIKEN ATOMIC CHARGES
-----------------------
   0 C :   -0.136377
   1 C :   -0.174532
   2 C :   -0.158866
   3 C :    0.210165
   4 C :   -0.221847
   5 C :   -0.152375
   6 C :   -0.390855
   7 N :    0.219441
   8 C :   -0.206634
   9 C :   -0.126757
  10 N :   -0.189523
  11 C :   -0.153402
  12 H :    0.148056
  13 H :    0.147394
  14 H :    0.153652
  15 H :    0.144701
  16 H :    0.147153
  17 H :    0.172943
  18 H :    0.166507
  19 H :    0.133791
  20 H :    0.132950
  21 H :    0.134414
Sum of atomic charges:    0.0000000

LOEWDIN ATOMIC CHARGES
----------------------
   0 C :   -0.161423
   1 C :   -0.152986
   2 C :   -0.138926
   3 C :   -0.067237
   4 C :   -0.160324
   5 C :   -0.156946
   6 C :    0.019452
   7 N :   -0.775018
   8 C :    0.056526
   9 C :    0.051085
  10 N :   -0.562299
  11 C :    0.227776
  12 H :    0.168447
  13 H :    0.169306
  14 H :    0.178881
  15 H :    0.169291
  16 H :    0.168661
  17 H :    0.200935
  18 H :    0.194387
  19 H :    0.186928
  20 H :    0.181636
  21 H :    0.201848

  Mayer bond orders larger than 0.100000
B(  0-C ,  1-C ) :   1.4064 B(  0-C ,  5-C ) :   1.4351 B(  0-C , 12-H ) :   0.9484
B(  1-C ,  2-C ) :   1.4512 B(  1-C , 13-H ) :   0.9508 B(  2-C ,  3-C ) :   1.4086
B(  2-C , 14-H ) :   0.9391 B(  3-C ,  4-C ) :   1.4018 B(  3-C ,  6-C ) :   0.8306
B(  4-C ,  5-C ) :   1.4264 B(  4-C , 15-H ) :   0.9422 B(  5-C , 16-H ) :   0.9466
B(  6-C ,  7-N ) :   0.9215 B(  6-C , 17-H ) :   0.9582 B(  6-C , 18-H ) :   0.9913
B(  7-N ,  8-C ) :   1.2097 B(  7-N , 11-C ) :   1.2568 B(  8-C ,  9-C ) :   1.4704
B(  8-C , 11-C ) :   0.1026 B(  8-C , 19-H ) :   0.9522 B(  9-C , 10-N ) :   1.3130
B(  9-C , 20-H ) :   0.9754 B( 10-N , 11-C ) :   1.6067 B( 11-C , 21-H ) :   0.9552

Dispersion correction           -0.008588645
FINAL SINGLE POINT ENERGY      -496.440774489081

DIPOLE MOMENT
-------------

Method             : SCF
Type of density    : Electron Density
Multiplicity       :   1
Irrep              :   0
Energy             :  -496.4451176249921218 Eh
Relativity type    :
Basis              : AO
                                X                 Y                 Z
Electronic contribution:      2.719211709       0.609044123      -0.705484178
Nuclear contribution   :     -3.950099196      -1.441226552       1.208707662
                        -----------------------------------------
Total Dipole Moment    :     -1.230887487      -0.832182428       0.503223485
                        -----------------------------------------
Magnitude (a.u.)       :      1.568708219
Magnitude (Debye)      :      3.987339413

Rotational constants in cm-1:             0.081313             0.018409             0.017445
Rotational constants in MHz :          2437.691069           551.886348           522.995018

                             ****ORCA TERMINATED NORMALLY****
TOTAL RUN TIME: 0 days 0 hours 0 minutes 43 seconds 816 msec
