                         Program Version 6.0.0  -   RELEASE  -
|  1> ! r2scan-3c def2/J RI DEFGRID2 scfconv6 printgap
|  2> %output
|  3>     printlevel normal
|  4> end
|  5> %cpcm
|  6>     smd true
|  7>     smdsolvent "water"
|  8> end
|  9> * xyz 0 1
| 10> C -3.267254212 0.9198849908 -0.1175823183
| 11> C -2.2904392482 1.2320755827 0.8135787623
| 12> C -1.1401376094 0.468349025 0.8944476952
| 13> C -0.9519835682 -0.612363915 0.0414394184
| 14> C -1.9321724347 -0.9167604171 -0.8924536434
| 15> C -3.086788856 -0.156547692 -0.9689467866
| 16> C 0.3115476673 -1.4365314665 0.1316404987
| 17> N 1.48668247 -0.6016066415 0.0807318048
| 18> C 2.2842637127 -0.238986725 1.1263279222
| 19> C 3.2205508033 0.6107750822 0.6122962263
| 20> N 3.0099466327 0.7827436223 -0.7215463019
| 21> C 1.9641672369 0.0478711243 -1.0018856649
| 22> H -4.1651939644 1.5154070454 -0.1797107788
| 23> H -2.42493279 2.0712859145 1.4790700743
| 24> H -0.3789241545 0.7172505586 1.6198739854
| 25> H -1.7943235832 -1.7531805912 -1.5617050884
| 26> H -3.8438506906 -0.4028457777 -1.6978016269
| 27> H 0.3308941242 -1.987775333 1.0758850098
| 28> H 0.3479911904 -2.1522132462 -0.6938535675
| 29> H 2.1340165573 -0.6123406586 2.117928579
| 30> H 4.0296424634 1.1076037964 1.108852511
| 31> H 1.5279450184 -0.0404611235 -1.976423199
| 32> *
| 33>
| 34>                          ****END OF INPUT****

CARTESIAN COORDINATES (ANGSTROEM)
---------------------------------
  C     -3.267254    0.919885   -0.117582
  C     -2.290439    1.232076    0.813579
  C     -1.140138    0.468349    0.894448
  C     -0.951984   -0.612364    0.041439
  C     -1.932172   -0.916760   -0.892454
  C     -3.086789   -0.156548   -0.968947
  C      0.311548   -1.436531    0.131640
  N      1.486682   -0.601607    0.080732
  C      2.284264   -0.238987    1.126328
  C      3.220551    0.610775    0.612296
  N      3.009947    0.782744   -0.721546
  C      1.964167    0.047871   -1.001886
  H     -4.165194    1.515407   -0.179711
  H     -2.424933    2.071286    1.479070
  H     -0.378924    0.717251    1.619874
  H     -1.794324   -1.753181   -1.561705
  H     -3.843851   -0.402846   -1.697802
  H      0.330894   -1.987775    1.075885
  H      0.347991   -2.152213   -0.693854
  H      2.134017   -0.612341    2.117929
  H      4.029642    1.107604    1.108853
  H      1.527945   -0.040461   -1.976423

 Total Charge           Charge          ....    0
 Multiplicity           Mult            ....    1
 Number of Electrons    NEL             ....   84
 Basis Dimension        Dim             ....  288

ORBITAL ENERGIES
----------------

  NO   OCC          E(Eh)            E(eV)
   0   2.0000     -14.220505      -386.9596
   1   2.0000     -14.142932      -384.8487
   2   2.0000     -10.077577      -274.2248
   3   2.0000     -10.074773      -274.1485
   4   2.0000     -10.052564      -273.5442
   5   2.0000     -10.047779      -273.4140
   6   2.0000     -10.039458      -273.1875
   7   2.0000     -10.035040      -273.0673
   8   2.0000     -10.035020      -273.0668
   9   2.0000     -10.034530      -273.0534
  10   2.0000     -10.034170      -273.0437
  11   2.0000     -10.033278      -273.0194
  12   2.0000      -0.994188       -27.0532
  13   2.0000      -0.865046       -23.5391
  14   2.0000      -0.828657       -22.5489
  15   2.0000      -0.744694       -20.2642
  16   2.0000      -0.718090       -19.5402
  17   2.0000      -0.711101       -19.3500
  18   2.0000      -0.667724       -18.1697
  19   2.0000      -0.580123       -15.7860
  20   2.0000      -0.568730       -15.4759
  21   2.0000      -0.566682       -15.4202
  22   2.0000      -0.539505       -14.6807
  23   2.0000      -0.504294       -13.7225
  24   2.0000      -0.481290       -13.0966
  25   2.0000      -0.440475       -11.9859
  26   2.0000      -0.426833       -11.6147
  27   2.0000      -0.416095       -11.3225
  28   2.0000      -0.410419       -11.1681
  29   2.0000      -0.396836       -10.7985
  30   2.0000      -0.388649       -10.5757
  31   2.0000      -0.376193       -10.2367
  32   2.0000      -0.372947       -10.1484
  33   2.0000      -0.362183        -9.8555
  34   2.0000      -0.343811        -9.3556
  35   2.0000      -0.316196        -8.6041
  36   2.0000      -0.308299        -8.3892
  37   2.0000      -0.257750        -7.0137
  38   2.0000      -0.251154        -6.8342
  39   2.0000      -0.241908        -6.5826
  40   2.0000      -0.235202        -6.4002
  41   2.0000      -0.210344        -5.7238
  42   0.0000      -0.039166        -1.0658
  43   0.0000      -0.034525        -0.9395
  44   0.0000      -0.004163        -0.1133
  45   0.0000       0.029795         0.8108
  46   0.0000       0.083937         2.2840

MULLIKEN ATOMIC CHARGES
-----------------------
   0 C :   -0.171418
   1 C :   -0.217230
   2 C :   -0.197122
   3 C :    0.161578
   4 C :   -0.239265
   5 C :   -0.189709
   6 C :   -0.338810
   7 N :    0.214423
   8 C :   -0.208801
   9 C :   -0.186563
  10 N :   -0.274239
  11 C :   -0.162377
  12 H :    0.179937
  13 H :    0.178378
  14 H :    0.180615
  15 H :    0.180452
  16 H :    0.178997
  17 H :    0.202812
  18 H :    0.195908
  19 H :    0.177218
  20 H :    0.162024
  21 H :    0.173191
Sum of atomic charges:    0.0000000

LOEWDIN ATOMIC CHARGES
----------------------
   0 C :   -0.175510
   1 C :   -0.167319
   2 C :   -0.151717
   3 C :   -0.068917
   4 C :   -0.162355
   5 C :   -0.168782
   6 C :    0.028164
   7 N :   -0.755807
   8 C :    0.070778
   9 C :    0.023617
  10 N :   -0.633275
  11 C :    0.223495
  12 H :    0.177886
  13 H :    0.178644
  14 H :    0.186353
  15 H :    0.182472
  16 H :    0.178654
  17 H :    0.215309
  18 H :    0.208421
  19 H :    0.204883
  20 H :    0.189724
  21 H :    0.215281

  Mayer bond orders larger than 0.100000
B(  0-C ,  1-C ) :   1.3737 B(  0-C ,  5-C ) :   1.3951 B(  0-C , 12-H ) :   0.9545
B(  1-C ,  2-C ) :   1.4113 B(  1-C , 13-H ) :   0.9603 B(  2-C ,  3-C ) :   1.3805
B(  2-C , 14-H ) :   0.9466 B(  3-C ,  4-C ) :   1.3923 B(  3-C ,  6-C ) :   0.8314
B(  4-C ,  5-C ) :   1.3875 B(  4-C , 15-H ) :   0.9503 B(  5-C , 16-H ) :   0.9560
B(  6-C ,  7-N ) :   0.9326 B(  6-C , 17-H ) :   0.9409 B(  6-C , 18-H ) :   0.9764
B(  7-N ,  8-C ) :   1.2047 B(  7-N , 11-C ) :   1.2699 B(  8-C ,  9-C ) :   1.4683
B(  8-C , 19-H ) :   0.9584 B(  9-C , 10-N ) :   1.2978 B(  9-C , 20-H ) :   0.9721
B( 10-N , 11-C ) :   1.6001 B( 11-C , 21-H ) :   0.9488

Dispersion correction           -0.008588645
FINAL SINGLE POINT ENERGY      -496.455748049450

DIPOLE MOMENT
-------------

Method             : SCF
Type of density    : Electron Density
Multiplicity       :   1
Irrep              :   0
Energy             :  -496.4600911853605680 Eh
Relativity type    :
Basis              : AO
                                X                 Y                 Z
Electronic contribution:      2.357350731       0.087472078      -0.486275226
Nuclear contribution   :     -3.950099196      -1.441226552       1.208707662
                        -----------------------------------------
Total Dipole Moment    :     -1.592748465      -1.353754474       0.722432437
                        -----------------------------------------
Magnitude (a.u.)       :      2.211652657
Magnitude (Debye)      :      5.621574300

Rotational constants in cm-1:             0.081313             0.018409             0.017445
Rotational constants in MHz :          2437.691069           551.886348           522.995018

                             ****ORCA TERMINATED NORMALLY****
TOTAL RUN TIME: 0 days 0 hours 1 minutes 2 seconds 368 msec
