                         Program Version 6.0.0  -   RELEASE  -
|  1> ! pbe def2-sv(p) def2/J RI DEFGRID1 loosescf d4 GCP(DFT/SV(P)) printgap
|  2> %output
|  3>     printlevel normal
|  4> end
|  5> * xyz 0 1
|  6> C -1.780235126 -0.4518993621 -0.5635127016
|  7> O -1.0668250031 -0.059421955 0.5919231918
|  8> C -0.0706732886 0.9178339014 0.374177917
|  9> C 1.1289995805 0.4353257199 -0.4548488468
| 10> O 1.7076214125 -0.750958578 0.0348757838
| 11> H -2.6032894514 -1.0672019551 -0.2082253963
| 12> H -1.154380058 -1.0394526224 -1.2407870897
| 13> H -2.1721518477 0.4229633621 -1.0930303662
| 14> H -0.502549769 1.7997423702 -0.1204979189
| 15> H 0.2577224368 1.1955197071 1.3787684838
| 16> H 1.8690492312 1.2467125413 -0.4852228022
| 17> H 0.8236665678 0.2087636602 -1.4785180703
| 18> H 1.9126889906 -0.6431054167 0.9742732461
| 19> *
| 20>
| 21>                          ****END OF INPUT****

CARTESIAN COORDINATES (ANGSTROEM)
---------------------------------
  C     -1.780235   -0.451899   -0.563513
  O     -1.066825   -0.059422    0.591923
  C     -0.070673    0.917834    0.374178
  C      1.129000    0.435326   -0.454849
  O      1.707621   -0.750959    0.034876
  H     -2.603289   -1.067202   -0.208225
  H     -1.154380   -1.039453   -1.240787
  H     -2.172152    0.422963   -1.093030
  H     -0.502550    1.799742   -0.120498
  H      0.257722    1.195520    1.378768
  H      1.869049    1.246713   -0.485223
  H      0.823667    0.208764   -1.478518
  H      1.912689   -0.643105    0.974273

 Total Charge           Charge          ....    0
 Multiplicity           Mult            ....    1
 Number of Electrons    NEL             ....   42
 Basis Dimension        Dim             ....   86

ORBITAL ENERGIES
----------------

  NO   OCC          E(Eh)            E(eV)
   0   2.0000     -18.750815      -510.2356
   1   2.0000     -18.742987      -510.0226
   2   2.0000      -9.932926      -270.2887
   3   2.0000      -9.930977      -270.2356
   4   2.0000      -9.923181      -270.0235
   5   2.0000      -0.935337       -25.4518
   6   2.0000      -0.913814       -24.8662
   7   2.0000      -0.672790       -18.3076
   8   2.0000      -0.613223       -16.6866
   9   2.0000      -0.541880       -14.7453
  10   2.0000      -0.459638       -12.5074
  11   2.0000      -0.436518       -11.8783
  12   2.0000      -0.423355       -11.5201
  13   2.0000      -0.401503       -10.9255
  14   2.0000      -0.378127       -10.2893
  15   2.0000      -0.363624        -9.8947
  16   2.0000      -0.327924        -8.9233
  17   2.0000      -0.281938        -7.6719
  18   2.0000      -0.263789        -7.1781
  19   2.0000      -0.220725        -6.0062
  20   2.0000      -0.199184        -5.4201
  21   0.0000       0.025153         0.6844
  22   0.0000       0.052562         1.4303
  23   0.0000       0.078111         2.1255
  24   0.0000       0.083139         2.2623
  25   0.0000       0.091648         2.4939

MULLIKEN ATOMIC CHARGES
-----------------------
   0 C :   -0.112639
   1 O :   -0.333469
   2 C :   -0.025286
   3 C :   -0.008487
   4 O :   -0.433756
   5 H :    0.115295
   6 H :    0.105295
   7 H :    0.080955
   8 H :    0.067432
   9 H :    0.084025
  10 H :    0.073823
  11 H :    0.093242
  12 H :    0.293572
Sum of atomic charges:    0.0000000

LOEWDIN ATOMIC CHARGES
----------------------
   0 C :   -0.207939
   1 O :   -0.180142
   2 C :   -0.139741
   3 C :   -0.146338
   4 O :   -0.338527
   5 H :    0.117038
   6 H :    0.101981
   7 H :    0.095460
   8 H :    0.097444
   9 H :    0.108436
  10 H :    0.097645
  11 H :    0.112477
  12 H :    0.282206

  Mayer bond orders larger than 0.100000
B(  0-C ,  1-O ) :   1.0172 B(  0-C ,  5-H ) :   0.9639 B(  0-C ,  6-H ) :   0.9407
B(  0-C ,  7-H ) :   0.9383 B(  1-O ,  2-C ) :   1.0608 B(  2-C ,  3-C ) :   1.0715
B(  2-C ,  8-H ) :   0.9057 B(  2-C ,  9-H ) :   0.9284 B(  3-C ,  4-O ) :   1.0704
B(  3-C , 10-H ) :   0.9158 B(  3-C , 11-H ) :   0.9209 B(  4-O , 12-H ) :   0.8543

Dispersion correction           -0.007663912
FINAL SINGLE POINT ENERGY      -268.931985144163

DIPOLE MOMENT
-------------

Method             : SCF
Type of density    : Electron Density
Multiplicity       :   1
Irrep              :   0
Energy             :  -268.9921559933358139 Eh
Relativity type    :
Basis              : AO
                                X                 Y                 Z
Electronic contribution:      1.442457572      -1.424358257       2.088301083
Nuclear contribution   :     -1.462696911       1.980578481      -2.123374844
                        -----------------------------------------
Total Dipole Moment    :     -0.020239339       0.556220223      -0.035073761
                        -----------------------------------------
Magnitude (a.u.)       :      0.557692331
Magnitude (Debye)      :      1.417541253

Rotational constants in cm-1:             0.307647             0.105732             0.096732
Rotational constants in MHz :          9223.023158          3169.752444          2899.953086

                             ****ORCA TERMINATED NORMALLY****
TOTAL RUN TIME: 0 days 0 hours 0 minutes 6 seconds 258 msec
