                         Program Version 6.0.0  -   RELEASE  -
|  1> ! pbe def2-sv(p) def2/J RI DEFGRID1 loosescf d4 GCP(DFT/SV(P)) printgap
|  2> %output
|  3>     printlevel normal
|  4> end
|  5> * xyz 0 1
|  6> C -2.3971700813 1.1169670054 -0.1556186496
|  7> C -1.8213281579 -0.1321024712 0.5067421158
|  8> C -0.4450356366 -0.4828651352 0.0001121192
|  9> O -0.0828349814 -1.6131017632 -0.2603820957
| 10> O 0.3337091824 0.5822282144 -0.1214259398
| 11> C 1.687562995 0.3958963557 -0.5636570923
| 12> C 2.6120533077 0.1120838374 0.610352984
| 13> H -3.3825484871 1.3245511793 0.2506804157
| 14> H -1.7527215659 1.9720696852 0.0248983737
| 15> H -2.4875691201 0.970590665 -1.2288958018
| 16> H -2.4635186981 -0.9983423597 0.3459775514
| 17> H -1.7307838826 0.0329349543 1.582810467
| 18> H 1.71084394 -0.4301887402 -1.2808583156
| 19> H 1.9479086532 1.3334309367 -1.0559346417
| 20> H 2.5412147436 0.9105400257 1.3441479075
| 21> H 2.3370192337 -0.8289111317 1.0818381351
| 22> H 3.634532878 0.0416245919 0.25406248
| 23> *
| 24>
| 25>                          ****END OF INPUT****

CARTESIAN COORDINATES (ANGSTROEM)
---------------------------------
  C     -2.397170    1.116967   -0.155619
  C     -1.821328   -0.132102    0.506742
  C     -0.445036   -0.482865    0.000112
  O     -0.082835   -1.613102   -0.260382
  O      0.333709    0.582228   -0.121426
  C      1.687563    0.395896   -0.563657
  C      2.612053    0.112084    0.610353
  H     -3.382548    1.324551    0.250680
  H     -1.752722    1.972070    0.024898
  H     -2.487569    0.970591   -1.228896
  H     -2.463519   -0.998342    0.345978
  H     -1.730784    0.032935    1.582810
  H      1.710844   -0.430189   -1.280858
  H      1.947909    1.333431   -1.055935
  H      2.541215    0.910540    1.344148
  H      2.337019   -0.828911    1.081838
  H      3.634533    0.041625    0.254062

 Total Charge           Charge          ....    0
 Multiplicity           Mult            ....    1
 Number of Electrons    NEL             ....   56
 Basis Dimension        Dim             ....  118

ORBITAL ENERGIES
----------------

  NO   OCC          E(Eh)            E(eV)
   0   2.0000     -18.797937      -511.5179
   1   2.0000     -18.729041      -509.6431
   2   2.0000     -10.004548      -272.2376
   3   2.0000      -9.946832      -270.6671
   4   2.0000      -9.899176      -269.3703
   5   2.0000      -9.887159      -269.0433
   6   2.0000      -9.883596      -268.9463
   7   2.0000      -1.004778       -27.3414
   8   2.0000      -0.906453       -24.6658
   9   2.0000      -0.721767       -19.6403
  10   2.0000      -0.684895       -18.6370
  11   2.0000      -0.604304       -16.4439
  12   2.0000      -0.567314       -15.4374
  13   2.0000      -0.497357       -13.5338
  14   2.0000      -0.453146       -12.3307
  15   2.0000      -0.428426       -11.6581
  16   2.0000      -0.415092       -11.2952
  17   2.0000      -0.394533       -10.7358
  18   2.0000      -0.384468       -10.4619
  19   2.0000      -0.368146       -10.0178
  20   2.0000      -0.346878        -9.4390
  21   2.0000      -0.340678        -9.2703
  22   2.0000      -0.329355        -8.9622
  23   2.0000      -0.317860        -8.6494
  24   2.0000      -0.306653        -8.3444
  25   2.0000      -0.289933        -7.8895
  26   2.0000      -0.255393        -6.9496
  27   2.0000      -0.213376        -5.8063
  28   0.0000      -0.018803        -0.5116
  29   0.0000       0.043902         1.1946
  30   0.0000       0.054656         1.4873
  31   0.0000       0.078562         2.1378
  32   0.0000       0.089337         2.4310

MULLIKEN ATOMIC CHARGES
-----------------------
   0 C :   -0.291057
   1 C :   -0.160339
   2 C :    0.102894
   3 O :   -0.208721
   4 O :   -0.240643
   5 C :   -0.012886
   6 C :   -0.303388
   7 H :    0.106998
   8 H :    0.117833
   9 H :    0.109153
  10 H :    0.105915
  11 H :    0.115278
  12 H :    0.107984
  13 H :    0.100640
  14 H :    0.111998
  15 H :    0.126211
  16 H :    0.112130
Sum of atomic charges:   -0.0000000

LOEWDIN ATOMIC CHARGES
----------------------
   0 C :   -0.339312
   1 C :   -0.251616
   2 C :    0.034745
   3 O :   -0.173002
   4 O :   -0.065749
   5 C :   -0.112775
   6 C :   -0.356000
   7 H :    0.121729
   8 H :    0.123611
   9 H :    0.122180
  10 H :    0.134698
  11 H :    0.141328
  12 H :    0.119560
  13 H :    0.116241
  14 H :    0.123734
  15 H :    0.130445
  16 H :    0.130186

  Mayer bond orders larger than 0.100000
B(  0-C ,  1-C ) :   1.1359 B(  0-C ,  7-H ) :   0.9498 B(  0-C ,  8-H ) :   0.9482
B(  0-C ,  9-H ) :   0.9595 B(  1-C ,  2-C ) :   1.0357 B(  1-C , 10-H ) :   0.9169
B(  1-C , 11-H ) :   0.8983 B(  2-C ,  3-O ) :   2.0543 B(  2-C ,  4-O ) :   1.1986
B(  4-O ,  5-C ) :   0.9227 B(  5-C ,  6-C ) :   1.1745 B(  5-C , 12-H ) :   0.9125
B(  5-C , 13-H ) :   0.9368 B(  6-C , 14-H ) :   0.9494 B(  6-C , 15-H ) :   0.9463
B(  6-C , 16-H ) :   0.9446

Dispersion correction           -0.012047543
FINAL SINGLE POINT ENERGY      -346.244312829986

DIPOLE MOMENT
-------------

Method             : SCF
Type of density    : Electron Density
Multiplicity       :   1
Irrep              :   0
Energy             :  -346.3090862466635258 Eh
Relativity type    :
Basis              : AO
                                X                 Y                 Z
Electronic contribution:     -0.183939784      -3.309697719      -1.099074110
Nuclear contribution   :      0.336185030       4.045385024       1.231525271
                        -----------------------------------------
Total Dipole Moment    :      0.152245247       0.735687305       0.132451161
                        -----------------------------------------
Magnitude (a.u.)       :      0.762861544
Magnitude (Debye)      :      1.939039947

Rotational constants in cm-1:             0.168307             0.053419             0.045603
Rotational constants in MHz :          5045.718622          1601.458058          1367.154186

                             ****ORCA TERMINATED NORMALLY****
TOTAL RUN TIME: 0 days 0 hours 0 minutes 8 seconds 640 msec
