                         Program Version 6.0.0  -   RELEASE  -
|  1> ! r2scan-3c def2/J RI DEFGRID2 scfconv6 printgap
|  2> %output
|  3>     printlevel normal
|  4> end
|  5> * xyz 0 1
|  6> C 2.2079966824 -1.1551159373 0.5321655544
|  7> C 1.5212722439 -0.2499834674 -0.4846051524
|  8> C 0.3000303208 0.5018755975 0.0806655161
|  9> H 0.3871360873 0.567520516 1.1711508275
| 10> C -1.051360674 -0.1496972395 -0.2772646483
| 11> C -1.137127274 -1.6080652046 0.1633420136
| 12> C -2.1916323826 0.6477946874 0.3568644923
| 13> O 0.3163786025 1.8575463985 -0.3450559512
| 14> H 1.5368936704 -1.9286423438 0.8924208399
| 15> H 2.5479870269 -0.571792497 1.3847355846
| 16> H 3.0724743745 -1.6337207042 0.0780916531
| 17> H 2.2425923549 0.5037096355 -0.8101435879
| 18> H 1.2263513409 -0.8292014788 -1.3619814589
| 19> H -1.1597399122 -0.1061032338 -1.3685741516
| 20> H -0.9590354175 -1.6902671891 1.2330435484
| 21> H -2.1319854376 -1.9934689442 -0.0475757837
| 22> H -0.4166691841 -2.2270206457 -0.3628347567
| 23> H -2.0904070964 1.7059029498 0.1285245596
| 24> H -2.1720187908 0.5306358689 1.4382493687
| 25> H -3.152429155 0.2987633633 -0.0127815595
| 26> H 0.2273422714 1.8779172923 -1.3080617331
| 27> *
| 28>
| 29>                          ****END OF INPUT****

CARTESIAN COORDINATES (ANGSTROEM)
---------------------------------
  C      2.207997   -1.155116    0.532166
  C      1.521272   -0.249983   -0.484605
  C      0.300030    0.501876    0.080666
  H      0.387136    0.567521    1.171151
  C     -1.051361   -0.149697   -0.277265
  C     -1.137127   -1.608065    0.163342
  C     -2.191632    0.647795    0.356864
  O      0.316379    1.857546   -0.345056
  H      1.536894   -1.928642    0.892421
  H      2.547987   -0.571792    1.384736
  H      3.072474   -1.633721    0.078092
  H      2.242592    0.503710   -0.810144
  H      1.226351   -0.829201   -1.361981
  H     -1.159740   -0.106103   -1.368574
  H     -0.959035   -1.690267    1.233044
  H     -2.131985   -1.993469   -0.047576
  H     -0.416669   -2.227021   -0.362835
  H     -2.090407    1.705903    0.128525
  H     -2.172019    0.530636    1.438249
  H     -3.152429    0.298763   -0.012782
  H      0.227342    1.877917   -1.308062

 Total Charge           Charge          ....    0
 Multiplicity           Mult            ....    1
 Number of Electrons    NEL             ....   58
 Basis Dimension        Dim             ....  208

ORBITAL ENERGIES
----------------

  NO   OCC          E(Eh)            E(eV)
   0   2.0000     -18.941878      -515.4347
   1   2.0000     -10.075770      -274.1756
   2   2.0000     -10.034814      -273.0612
   3   2.0000     -10.024920      -272.7920
   4   2.0000     -10.019693      -272.6497
   5   2.0000     -10.019241      -272.6374
   6   2.0000     -10.009860      -272.3821
   7   2.0000      -0.981347       -26.7038
   8   2.0000      -0.772797       -21.0289
   9   2.0000      -0.730852       -19.8875
  10   2.0000      -0.649102       -17.6630
  11   2.0000      -0.637054       -17.3351
  12   2.0000      -0.568171       -15.4607
  13   2.0000      -0.543766       -14.7966
  14   2.0000      -0.458335       -12.4719
  15   2.0000      -0.431876       -11.7519
  16   2.0000      -0.423673       -11.5287
  17   2.0000      -0.399087       -10.8597
  18   2.0000      -0.388040       -10.5591
  19   2.0000      -0.368934       -10.0392
  20   2.0000      -0.359311        -9.7773
  21   2.0000      -0.350153        -9.5281
  22   2.0000      -0.330358        -8.9895
  23   2.0000      -0.325358        -8.8534
  24   2.0000      -0.316112        -8.6019
  25   2.0000      -0.301621        -8.2075
  26   2.0000      -0.290667        -7.9095
  27   2.0000      -0.274800        -7.4777
  28   2.0000      -0.228681        -6.2227
  29   0.0000       0.062599         1.7034
  30   0.0000       0.085095         2.3156
  31   0.0000       0.106571         2.8999
  32   0.0000       0.112922         3.0728
  33   0.0000       0.120868         3.2890

MULLIKEN ATOMIC CHARGES
-----------------------
   0 C :   -0.500657
   1 C :   -0.271131
   2 C :   -0.002182
   3 H :    0.148879
   4 C :   -0.022962
   5 C :   -0.536958
   6 C :   -0.516607
   7 O :   -0.427466
   8 H :    0.154086
   9 H :    0.151499
  10 H :    0.146747
  11 H :    0.162799
  12 H :    0.143909
  13 H :    0.145885
  14 H :    0.164460
  15 H :    0.148553
  16 H :    0.154775
  17 H :    0.174518
  18 H :    0.145409
  19 H :    0.146982
  20 H :    0.289461
Sum of atomic charges:    0.0000000

LOEWDIN ATOMIC CHARGES
----------------------
   0 C :   -0.419758
   1 C :   -0.294222
   2 C :    0.057874
   3 H :    0.184283
   4 C :   -0.223859
   5 C :   -0.413841
   6 C :   -0.411502
   7 O :   -0.620097
   8 H :    0.151191
   9 H :    0.151733
  10 H :    0.151254
  11 H :    0.169311
  12 H :    0.155372
  13 H :    0.156832
  14 H :    0.155805
  15 H :    0.155888
  16 H :    0.153981
  17 H :    0.168050
  18 H :    0.154669
  19 H :    0.150980
  20 H :    0.266056

  Mayer bond orders larger than 0.100000
B(  0-C ,  1-C ) :   0.8972 B(  0-C ,  8-H ) :   0.9716 B(  0-C ,  9-H ) :   0.9876
B(  0-C , 10-H ) :   0.9720 B(  1-C ,  2-C ) :   0.8606 B(  1-C , 11-H ) :   0.9794
B(  1-C , 12-H ) :   0.9643 B(  2-C ,  3-H ) :   0.9731 B(  2-C ,  4-C ) :   0.9130
B(  2-C ,  7-O ) :   0.9153 B(  4-C ,  5-C ) :   0.8678 B(  4-C ,  6-C ) :   0.9130
B(  4-C , 13-H ) :   0.9618 B(  5-C , 14-H ) :   0.9909 B(  5-C , 15-H ) :   0.9657
B(  5-C , 16-H ) :   0.9653 B(  6-C , 17-H ) :   0.9694 B(  6-C , 18-H ) :   0.9826
B(  6-C , 19-H ) :   0.9769 B(  7-O , 20-H ) :   0.8970

Dispersion correction           -0.005697464
FINAL SINGLE POINT ENERGY      -312.199462153780

DIPOLE MOMENT
-------------

Method             : SCF
Type of density    : Electron Density
Multiplicity       :   1
Irrep              :   0
Energy             :  -312.2050448324052923 Eh
Relativity type    :
Basis              : AO
                                X                 Y                 Z
Electronic contribution:      0.759842604       4.642439482      -1.362781461
Nuclear contribution   :     -0.784776702      -5.128361222       0.983950547
                        -----------------------------------------
Total Dipole Moment    :     -0.024934098      -0.485921740      -0.378830914
                        -----------------------------------------
Magnitude (a.u.)       :      0.616647799
Magnitude (Debye)      :      1.567394142

Rotational constants in cm-1:             0.107511             0.066175             0.045709
Rotational constants in MHz :          3223.087129          1983.866355          1370.322482

                             ****ORCA TERMINATED NORMALLY****
TOTAL RUN TIME: 0 days 0 hours 0 minutes 27 seconds 662 msec
