                         Program Version 6.0.0  -   RELEASE  -
|  1> ! r2scan-3c def2/J RI DEFGRID2 scfconv6 printgap
|  2> %output
|  3>     printlevel normal
|  4> end
|  5> %cpcm
|  6>     smd true
|  7>     smdsolvent "water"
|  8> end
|  9> * xyz 0 1
| 10> C 2.2079966824 -1.1551159373 0.5321655544
| 11> C 1.5212722439 -0.2499834674 -0.4846051524
| 12> C 0.3000303208 0.5018755975 0.0806655161
| 13> H 0.3871360873 0.567520516 1.1711508275
| 14> C -1.051360674 -0.1496972395 -0.2772646483
| 15> C -1.137127274 -1.6080652046 0.1633420136
| 16> C -2.1916323826 0.6477946874 0.3568644923
| 17> O 0.3163786025 1.8575463985 -0.3450559512
| 18> H 1.5368936704 -1.9286423438 0.8924208399
| 19> H 2.5479870269 -0.571792497 1.3847355846
| 20> H 3.0724743745 -1.6337207042 0.0780916531
| 21> H 2.2425923549 0.5037096355 -0.8101435879
| 22> H 1.2263513409 -0.8292014788 -1.3619814589
| 23> H -1.1597399122 -0.1061032338 -1.3685741516
| 24> H -0.9590354175 -1.6902671891 1.2330435484
| 25> H -2.1319854376 -1.9934689442 -0.0475757837
| 26> H -0.4166691841 -2.2270206457 -0.3628347567
| 27> H -2.0904070964 1.7059029498 0.1285245596
| 28> H -2.1720187908 0.5306358689 1.4382493687
| 29> H -3.152429155 0.2987633633 -0.0127815595
| 30> H 0.2273422714 1.8779172923 -1.3080617331
| 31> *
| 32>
| 33>                          ****END OF INPUT****

CARTESIAN COORDINATES (ANGSTROEM)
---------------------------------
  C      2.207997   -1.155116    0.532166
  C      1.521272   -0.249983   -0.484605
  C      0.300030    0.501876    0.080666
  H      0.387136    0.567521    1.171151
  C     -1.051361   -0.149697   -0.277265
  C     -1.137127   -1.608065    0.163342
  C     -2.191632    0.647795    0.356864
  O      0.316379    1.857546   -0.345056
  H      1.536894   -1.928642    0.892421
  H      2.547987   -0.571792    1.384736
  H      3.072474   -1.633721    0.078092
  H      2.242592    0.503710   -0.810144
  H      1.226351   -0.829201   -1.361981
  H     -1.159740   -0.106103   -1.368574
  H     -0.959035   -1.690267    1.233044
  H     -2.131985   -1.993469   -0.047576
  H     -0.416669   -2.227021   -0.362835
  H     -2.090407    1.705903    0.128525
  H     -2.172019    0.530636    1.438249
  H     -3.152429    0.298763   -0.012782
  H      0.227342    1.877917   -1.308062

 Total Charge           Charge          ....    0
 Multiplicity           Mult            ....    1
 Number of Electrons    NEL             ....   58
 Basis Dimension        Dim             ....  208

ORBITAL ENERGIES
----------------

  NO   OCC          E(Eh)            E(eV)
   0   2.0000     -18.944623      -515.5094
   1   2.0000     -10.070005      -274.0188
   2   2.0000     -10.025388      -272.8047
   3   2.0000     -10.015681      -272.5405
   4   2.0000     -10.009153      -272.3629
   5   2.0000     -10.008075      -272.3336
   6   2.0000     -10.004773      -272.2437
   7   2.0000      -0.982799       -26.7433
   8   2.0000      -0.764470       -20.8023
   9   2.0000      -0.722033       -19.6475
  10   2.0000      -0.641105       -17.4453
  11   2.0000      -0.630499       -17.1567
  12   2.0000      -0.560186       -15.2434
  13   2.0000      -0.536326       -14.5942
  14   2.0000      -0.452170       -12.3042
  15   2.0000      -0.424214       -11.5435
  16   2.0000      -0.416205       -11.3255
  17   2.0000      -0.394488       -10.7346
  18   2.0000      -0.383060       -10.4236
  19   2.0000      -0.360238        -9.8026
  20   2.0000      -0.350107        -9.5269
  21   2.0000      -0.342016        -9.3067
  22   2.0000      -0.324632        -8.8337
  23   2.0000      -0.319018        -8.6809
  24   2.0000      -0.308292        -8.3890
  25   2.0000      -0.292990        -7.9727
  26   2.0000      -0.283756        -7.7214
  27   2.0000      -0.270924        -7.3722
  28   2.0000      -0.230541        -6.2733
  29   0.0000       0.078588         2.1385
  30   0.0000       0.095987         2.6119
  31   0.0000       0.115776         3.1504
  32   0.0000       0.121251         3.2994
  33   0.0000       0.128705         3.5022

MULLIKEN ATOMIC CHARGES
-----------------------
   0 C :   -0.529503
   1 C :   -0.284935
   2 C :    0.012614
   3 H :    0.158874
   4 C :   -0.000766
   5 C :   -0.574763
   6 C :   -0.568351
   7 O :   -0.516252
   8 H :    0.163877
   9 H :    0.158854
  10 H :    0.157275
  11 H :    0.161480
  12 H :    0.160222
  13 H :    0.166162
  14 H :    0.175043
  15 H :    0.158950
  16 H :    0.167542
  17 H :    0.165517
  18 H :    0.160927
  19 H :    0.161954
  20 H :    0.345277
Sum of atomic charges:    0.0000000

LOEWDIN ATOMIC CHARGES
----------------------
   0 C :   -0.426501
   1 C :   -0.291891
   2 C :    0.058263
   3 H :    0.186815
   4 C :   -0.218779
   5 C :   -0.419234
   6 C :   -0.421067
   7 O :   -0.657577
   8 H :    0.154286
   9 H :    0.153072
  10 H :    0.153774
  11 H :    0.168329
  12 H :    0.161805
  13 H :    0.164532
  14 H :    0.158707
  15 H :    0.158028
  16 H :    0.158331
  17 H :    0.162009
  18 H :    0.157305
  19 H :    0.155569
  20 H :    0.284223

  Mayer bond orders larger than 0.100000
B(  0-C ,  1-C ) :   0.8885 B(  0-C ,  8-H ) :   0.9694 B(  0-C ,  9-H ) :   0.9843
B(  0-C , 10-H ) :   0.9702 B(  1-C ,  2-C ) :   0.8607 B(  1-C , 11-H ) :   0.9826
B(  1-C , 12-H ) :   0.9636 B(  2-C ,  3-H ) :   0.9764 B(  2-C ,  4-C ) :   0.9076
B(  2-C ,  7-O ) :   0.8958 B(  4-C ,  5-C ) :   0.8618 B(  4-C ,  6-C ) :   0.8875
B(  4-C , 13-H ) :   0.9615 B(  5-C , 14-H ) :   0.9865 B(  5-C , 15-H ) :   0.9644
B(  5-C , 16-H ) :   0.9626 B(  6-C , 17-H ) :   0.9741 B(  6-C , 18-H ) :   0.9827
B(  6-C , 19-H ) :   0.9729 B(  7-O , 20-H ) :   0.8697

Dispersion correction           -0.005697464
FINAL SINGLE POINT ENERGY      -312.204602491547

DIPOLE MOMENT
-------------

Method             : SCF
Type of density    : Electron Density
Multiplicity       :   1
Irrep              :   0
Energy             :  -312.2101851701730197 Eh
Relativity type    :
Basis              : AO
                                X                 Y                 Z
Electronic contribution:      0.731906272       4.395276000      -1.559173731
Nuclear contribution   :     -0.784776702      -5.128361222       0.983950547
                        -----------------------------------------
Total Dipole Moment    :     -0.052870431      -0.733085222      -0.575223184
                        -----------------------------------------
Magnitude (a.u.)       :      0.933322526
Magnitude (Debye)      :      2.372317329

Rotational constants in cm-1:             0.107511             0.066175             0.045709
Rotational constants in MHz :          3223.087129          1983.866355          1370.322482

                             ****ORCA TERMINATED NORMALLY****
TOTAL RUN TIME: 0 days 0 hours 0 minutes 32 seconds 738 msec
