                         Program Version 6.0.0  -   RELEASE  -
|  1> ! r2scan-3c def2/J RI DEFGRID2 scfconv6 printgap
|  2> %output
|  3>     printlevel normal
|  4> end
|  5> * xyz 0 1
|  6> C -1.442141998 0.3742490479 -0.2525172003
|  7> C -0.0058126296 0.3137940873 0.2891032857
|  8> C 0.8379127956 -0.7625929326 -0.4042070267
|  9> O 2.1332707266 -0.7104231068 0.1585120143
| 10> O 0.5615077345 1.5894086638 0.0872057676
| 11> O -2.2433443561 -0.7090203229 0.1464990388
| 12> H -1.4131774638 0.4740561656 -1.3435918415
| 13> H -1.9099648956 1.2704665802 0.1610868154
| 14> H -0.0429909025 0.08567928 1.366170132
| 15> H 0.8759656692 -0.5485734296 -1.4802653943
| 16> H 0.3855846706 -1.7467360567 -0.2377891293
| 17> H 2.698846805 -1.3684169415 -0.266709895
| 18> H 1.5050155823 1.5267332784 0.3022510102
| 19> H -1.9957274563 -1.5027841661 -0.3463372345
| 20> *
| 21>
| 22>                          ****END OF INPUT****

CARTESIAN COORDINATES (ANGSTROEM)
---------------------------------
  C     -1.442142    0.374249   -0.252517
  C     -0.005813    0.313794    0.289103
  C      0.837913   -0.762593   -0.404207
  O      2.133271   -0.710423    0.158512
  O      0.561508    1.589409    0.087206
  O     -2.243344   -0.709020    0.146499
  H     -1.413177    0.474056   -1.343592
  H     -1.909965    1.270467    0.161087
  H     -0.042991    0.085679    1.366170
  H      0.875966   -0.548573   -1.480265
  H      0.385585   -1.746736   -0.237789
  H      2.698847   -1.368417   -0.266710
  H      1.505016    1.526733    0.302251
  H     -1.995727   -1.502784   -0.346337

 Total Charge           Charge          ....    0
 Multiplicity           Mult            ....    1
 Number of Electrons    NEL             ....   50
 Basis Dimension        Dim             ....  169

ORBITAL ENERGIES
----------------

  NO   OCC          E(Eh)            E(eV)
   0   2.0000     -18.968011      -516.1458
   1   2.0000     -18.957547      -515.8611
   2   2.0000     -18.948265      -515.6085
   3   2.0000     -10.087962      -274.5074
   4   2.0000     -10.082901      -274.3697
   5   2.0000     -10.078803      -274.2582
   6   2.0000      -1.010274       -27.4909
   7   2.0000      -0.995205       -27.0809
   8   2.0000      -0.980704       -26.6863
   9   2.0000      -0.726904       -19.7801
  10   2.0000      -0.652940       -17.7674
  11   2.0000      -0.563176       -15.3248
  12   2.0000      -0.514077       -13.9887
  13   2.0000      -0.485797       -13.2192
  14   2.0000      -0.466256       -12.6875
  15   2.0000      -0.442185       -12.0325
  16   2.0000      -0.401298       -10.9199
  17   2.0000      -0.391729       -10.6595
  18   2.0000      -0.376280       -10.2391
  19   2.0000      -0.333419        -9.0728
  20   2.0000      -0.315441        -8.5836
  21   2.0000      -0.294791        -8.0217
  22   2.0000      -0.257022        -6.9939
  23   2.0000      -0.245100        -6.6695
  24   2.0000      -0.238046        -6.4776
  25   0.0000       0.027687         0.7534
  26   0.0000       0.055071         1.4986
  27   0.0000       0.088259         2.4017
  28   0.0000       0.123111         3.3500
  29   0.0000       0.135038         3.6746

MULLIKEN ATOMIC CHARGES
-----------------------
   0 C :   -0.221955
   1 C :    0.105469
   2 C :   -0.176544
   3 O :   -0.442566
   4 O :   -0.440018
   5 O :   -0.416464
   6 H :    0.138501
   7 H :    0.154938
   8 H :    0.144169
   9 H :    0.133007
  10 H :    0.112880
  11 H :    0.298706
  12 H :    0.313313
  13 H :    0.296565
Sum of atomic charges:   -0.0000000

LOEWDIN ATOMIC CHARGES
----------------------
   0 C :    0.040254
   1 C :    0.083205
   2 C :    0.019046
   3 O :   -0.621420
   4 O :   -0.589824
   5 O :   -0.604216
   6 H :    0.164074
   7 H :    0.191713
   8 H :    0.175524
   9 H :    0.164595
  10 H :    0.159650
  11 H :    0.270958
  12 H :    0.281553
  13 H :    0.264889

  Mayer bond orders larger than 0.100000
B(  0-C ,  1-C ) :   0.9005 B(  0-C ,  5-O ) :   0.9715 B(  0-C ,  6-H ) :   0.9865
B(  0-C ,  7-H ) :   0.9647 B(  1-C ,  2-C ) :   0.9354 B(  1-C ,  4-O ) :   0.8834
B(  1-C ,  8-H ) :   0.9378 B(  2-C ,  3-O ) :   0.9500 B(  2-C ,  9-H ) :   0.9670
B(  2-C , 10-H ) :   0.9567 B(  3-O , 11-H ) :   0.8973 B(  4-O , 12-H ) :   0.8734
B(  5-O , 13-H ) :   0.8939

Dispersion correction           -0.002983443
FINAL SINGLE POINT ENERGY      -344.722559589845

DIPOLE MOMENT
-------------

Method             : SCF
Type of density    : Electron Density
Multiplicity       :   1
Irrep              :   0
Energy             :  -344.7300504277618529 Eh
Relativity type    :
Basis              : AO
                                X                 Y                 Z
Electronic contribution:      0.553037153       0.755735808       1.077417345
Nuclear contribution   :      0.103854136      -1.695171148      -1.725279002
                        -----------------------------------------
Total Dipole Moment    :      0.656891289      -0.939435340      -0.647861657
                        -----------------------------------------
Magnitude (a.u.)       :      1.316726870
Magnitude (Debye)      :      3.346853725

Rotational constants in cm-1:             0.189443             0.075730             0.058026
Rotational constants in MHz :          5679.356203          2270.329418          1739.572936

                             ****ORCA TERMINATED NORMALLY****
TOTAL RUN TIME: 0 days 0 hours 0 minutes 20 seconds 443 msec
