                         Program Version 6.0.0  -   RELEASE  -
|  1> ! r2scan-3c def2/J RI DEFGRID2 scfconv6 printgap
|  2> %output
|  3>     printlevel normal
|  4> end
|  5> %cpcm
|  6>     smd true
|  7>     smdsolvent "water"
|  8> end
|  9> * xyz 0 1
| 10> C -1.442141998 0.3742490479 -0.2525172003
| 11> C -0.0058126296 0.3137940873 0.2891032857
| 12> C 0.8379127956 -0.7625929326 -0.4042070267
| 13> O 2.1332707266 -0.7104231068 0.1585120143
| 14> O 0.5615077345 1.5894086638 0.0872057676
| 15> O -2.2433443561 -0.7090203229 0.1464990388
| 16> H -1.4131774638 0.4740561656 -1.3435918415
| 17> H -1.9099648956 1.2704665802 0.1610868154
| 18> H -0.0429909025 0.08567928 1.366170132
| 19> H 0.8759656692 -0.5485734296 -1.4802653943
| 20> H 0.3855846706 -1.7467360567 -0.2377891293
| 21> H 2.698846805 -1.3684169415 -0.266709895
| 22> H 1.5050155823 1.5267332784 0.3022510102
| 23> H -1.9957274563 -1.5027841661 -0.3463372345
| 24> *
| 25>
| 26>                          ****END OF INPUT****

CARTESIAN COORDINATES (ANGSTROEM)
---------------------------------
  C     -1.442142    0.374249   -0.252517
  C     -0.005813    0.313794    0.289103
  C      0.837913   -0.762593   -0.404207
  O      2.133271   -0.710423    0.158512
  O      0.561508    1.589409    0.087206
  O     -2.243344   -0.709020    0.146499
  H     -1.413177    0.474056   -1.343592
  H     -1.909965    1.270467    0.161087
  H     -0.042991    0.085679    1.366170
  H      0.875966   -0.548573   -1.480265
  H      0.385585   -1.746736   -0.237789
  H      2.698847   -1.368417   -0.266710
  H      1.505016    1.526733    0.302251
  H     -1.995727   -1.502784   -0.346337

 Total Charge           Charge          ....    0
 Multiplicity           Mult            ....    1
 Number of Electrons    NEL             ....   50
 Basis Dimension        Dim             ....  169

ORBITAL ENERGIES
----------------

  NO   OCC          E(Eh)            E(eV)
   0   2.0000     -18.957629      -515.8633
   1   2.0000     -18.956229      -515.8252
   2   2.0000     -18.955710      -515.8111
   3   2.0000     -10.079664      -274.2816
   4   2.0000     -10.074761      -274.1482
   5   2.0000     -10.072391      -274.0837
   6   2.0000      -1.005986       -27.3743
   7   2.0000      -0.992411       -27.0049
   8   2.0000      -0.980701       -26.6862
   9   2.0000      -0.721098       -19.6221
  10   2.0000      -0.644465       -17.5368
  11   2.0000      -0.559267       -15.2184
  12   2.0000      -0.505402       -13.7527
  13   2.0000      -0.477371       -12.9899
  14   2.0000      -0.462846       -12.5947
  15   2.0000      -0.434247       -11.8165
  16   2.0000      -0.396366       -10.7857
  17   2.0000      -0.391778       -10.6608
  18   2.0000      -0.374460       -10.1896
  19   2.0000      -0.329922        -8.9776
  20   2.0000      -0.318962        -8.6794
  21   2.0000      -0.295119        -8.0306
  22   2.0000      -0.248395        -6.7592
  23   2.0000      -0.246335        -6.7031
  24   2.0000      -0.243561        -6.6276
  25   0.0000       0.045513         1.2385
  26   0.0000       0.084884         2.3098
  27   0.0000       0.098970         2.6931
  28   0.0000       0.136315         3.7093
  29   0.0000       0.140810         3.8316

MULLIKEN ATOMIC CHARGES
-----------------------
   0 C :   -0.217748
   1 C :    0.083590
   2 C :   -0.171628
   3 O :   -0.508644
   4 O :   -0.510499
   5 O :   -0.495952
   6 H :    0.158840
   7 H :    0.161030
   8 H :    0.147063
   9 H :    0.149925
  10 H :    0.146597
  11 H :    0.349496
  12 H :    0.350584
  13 H :    0.357346
Sum of atomic charges:   -0.0000000

LOEWDIN ATOMIC CHARGES
----------------------
   0 C :    0.036303
   1 C :    0.079585
   2 C :    0.028084
   3 O :   -0.645241
   4 O :   -0.624514
   5 O :   -0.632406
   6 H :    0.174089
   7 H :    0.190616
   8 H :    0.177043
   9 H :    0.172553
  10 H :    0.175329
  11 H :    0.289085
  12 H :    0.292853
  13 H :    0.286621

  Mayer bond orders larger than 0.100000
B(  0-C ,  1-C ) :   0.9113 B(  0-C ,  5-O ) :   0.9691 B(  0-C ,  6-H ) :   0.9733
B(  0-C ,  7-H ) :   0.9649 B(  1-C ,  2-C ) :   0.9539 B(  1-C ,  4-O ) :   0.8633
B(  1-C ,  8-H ) :   0.9355 B(  2-C ,  3-O ) :   0.9325 B(  2-C ,  9-H ) :   0.9654
B(  2-C , 10-H ) :   0.9504 B(  3-O , 11-H ) :   0.8714 B(  4-O , 12-H ) :   0.8554
B(  5-O , 13-H ) :   0.8629

Dispersion correction           -0.002983443
FINAL SINGLE POINT ENERGY      -344.744050181157

DIPOLE MOMENT
-------------

Method             : SCF
Type of density    : Electron Density
Multiplicity       :   1
Irrep              :   0
Energy             :  -344.7515410190739544 Eh
Relativity type    :
Basis              : AO
                                X                 Y                 Z
Electronic contribution:      0.726676472       0.342756450       0.785610856
Nuclear contribution   :      0.103854136      -1.695171148      -1.725279002
                        -----------------------------------------
Total Dipole Moment    :      0.830530608      -1.352414698      -0.939668146
                        -----------------------------------------
Magnitude (a.u.)       :      1.844392266
Magnitude (Debye)      :      4.688072573

Rotational constants in cm-1:             0.189443             0.075730             0.058026
Rotational constants in MHz :          5679.356203          2270.329418          1739.572936

                             ****ORCA TERMINATED NORMALLY****
TOTAL RUN TIME: 0 days 0 hours 0 minutes 23 seconds 537 msec
