                         Program Version 6.0.0  -   RELEASE  -
|  1> ! pbe def2-sv(p) def2/J RI DEFGRID1 loosescf d4 GCP(DFT/SV(P)) printgap
|  2> %output
|  3>     printlevel normal
|  4> end
|  5> * xyz 0 1
|  6> C -1.0272372551 -0.4538158718 -0.3347967805
|  7> C 0.1313899665 0.3488203249 0.2708489306
|  8> C 1.4723375487 -0.0916451347 -0.334349414
|  9> O 1.8111153654 -1.4144164542 -0.0023730214
| 10> O -0.0184137596 1.7309319732 0.0280929514
| 11> O -2.2660892234 -0.1080456884 0.2438407776
| 12> H -0.8168529878 -1.5238878911 -0.2371940701
| 13> H -1.113310514 -0.2077789735 -1.3959663045
| 14> H 0.1562652525 0.1754243547 1.361590158
| 15> H 2.2447774271 0.617565784 -0.0161583717
| 16> H 1.401304358 -0.0552494404 -1.4236072932
| 17> H 2.0464343404 -1.4621532306 0.9351170011
| 18> H -0.961121056 1.9480117508 0.0990286741
| 19> H -2.3127685316 -0.4578561346 1.1445116589
| 20> *
| 21>
| 22>                          ****END OF INPUT****

CARTESIAN COORDINATES (ANGSTROEM)
---------------------------------
  C     -1.027237   -0.453816   -0.334797
  C      0.131390    0.348820    0.270849
  C      1.472338   -0.091645   -0.334349
  O      1.811115   -1.414416   -0.002373
  O     -0.018414    1.730932    0.028093
  O     -2.266089   -0.108046    0.243841
  H     -0.816853   -1.523888   -0.237194
  H     -1.113311   -0.207779   -1.395966
  H      0.156265    0.175424    1.361590
  H      2.244777    0.617566   -0.016158
  H      1.401304   -0.055249   -1.423607
  H      2.046434   -1.462153    0.935117
  H     -0.961121    1.948012    0.099029
  H     -2.312769   -0.457856    1.144512

 Total Charge           Charge          ....    0
 Multiplicity           Mult            ....    1
 Number of Electrons    NEL             ....   50
 Basis Dimension        Dim             ....  100

ORBITAL ENERGIES
----------------

  NO   OCC          E(Eh)            E(eV)
   0   2.0000     -18.757553      -510.4190
   1   2.0000     -18.753641      -510.3125
   2   2.0000     -18.745135      -510.0811
   3   2.0000      -9.937030      -270.4003
   4   2.0000      -9.931468      -270.2490
   5   2.0000      -9.931010      -270.2365
   6   2.0000      -0.940482       -25.5918
   7   2.0000      -0.928462       -25.2647
   8   2.0000      -0.913315       -24.8526
   9   2.0000      -0.679475       -18.4894
  10   2.0000      -0.608238       -16.5510
  11   2.0000      -0.547899       -14.9091
  12   2.0000      -0.484756       -13.1909
  13   2.0000      -0.453282       -12.3344
  14   2.0000      -0.442822       -12.0498
  15   2.0000      -0.418515       -11.3884
  16   2.0000      -0.390914       -10.6373
  17   2.0000      -0.372368       -10.1327
  18   2.0000      -0.348912        -9.4944
  19   2.0000      -0.296530        -8.0690
  20   2.0000      -0.286289        -7.7903
  21   2.0000      -0.278943        -7.5904
  22   2.0000      -0.249228        -6.7818
  23   2.0000      -0.217139        -5.9087
  24   2.0000      -0.210030        -5.7152
  25   0.0000       0.016235         0.4418
  26   0.0000       0.019451         0.5293
  27   0.0000       0.062627         1.7042
  28   0.0000       0.070426         1.9164
  29   0.0000       0.092778         2.5246

MULLIKEN ATOMIC CHARGES
-----------------------
   0 C :    0.001885
   1 C :   -0.013180
   2 C :    0.032390
   3 O :   -0.432203
   4 O :   -0.429538
   5 O :   -0.433312
   6 H :    0.083788
   7 H :    0.089251
   8 H :    0.028805
   9 H :    0.089971
  10 H :    0.086688
  11 H :    0.297235
  12 H :    0.299570
  13 H :    0.298648
Sum of atomic charges:   -0.0000000

LOEWDIN ATOMIC CHARGES
----------------------
   0 C :   -0.144876
   1 C :   -0.099585
   2 C :   -0.127087
   3 O :   -0.332661
   4 O :   -0.331819
   5 O :   -0.337316
   6 H :    0.103859
   7 H :    0.116476
   8 H :    0.081926
   9 H :    0.103643
  10 H :    0.116523
  11 H :    0.284258
  12 H :    0.281538
  13 H :    0.285120

  Mayer bond orders larger than 0.100000
B(  0-C ,  1-C ) :   1.0475 B(  0-C ,  5-O ) :   1.0547 B(  0-C ,  6-H ) :   0.9127
B(  0-C ,  7-H ) :   0.9131 B(  1-C ,  2-C ) :   1.0185 B(  1-C ,  4-O ) :   1.0698
B(  1-C ,  8-H ) :   0.8898 B(  2-C ,  3-O ) :   1.0612 B(  2-C ,  9-H ) :   0.9231
B(  2-C , 10-H ) :   0.9174 B(  3-O , 11-H ) :   0.8522 B(  4-O , 12-H ) :   0.8345
B(  5-O , 13-H ) :   0.8528

Dispersion correction           -0.009016077
FINAL SINGLE POINT ENERGY      -344.009072816808

DIPOLE MOMENT
-------------

Method             : SCF
Type of density    : Electron Density
Multiplicity       :   1
Irrep              :   0
Energy             :  -344.0824399031117764 Eh
Relativity type    :
Basis              : AO
                                X                 Y                 Z
Electronic contribution:     -0.695357515       0.627465831       0.444348693
Nuclear contribution   :      0.597836478      -0.903107919       0.442431881
                        -----------------------------------------
Total Dipole Moment    :     -0.097521038      -0.275642089       0.886780574
                        -----------------------------------------
Magnitude (a.u.)       :      0.933739096
Magnitude (Debye)      :      2.373376168

Rotational constants in cm-1:             0.178117             0.077943             0.058744
Rotational constants in MHz :          5339.825048          2336.660454          1761.089867

                             ****ORCA TERMINATED NORMALLY****
TOTAL RUN TIME: 0 days 0 hours 0 minutes 6 seconds 638 msec
