                         Program Version 6.0.0  -   RELEASE  -
|  1> ! r2scan-3c def2/J RI DEFGRID2 scfconv6 printgap
|  2> %output
|  3>     printlevel normal
|  4> end
|  5> * xyz 0 1
|  6> C -4.3793609669 0.4687097208 0.0006024663
|  7> O -3.4257668916 -0.5813242127 -0.0001337424
|  8> C -2.1103453861 -0.2771189228 -3.72774e-05
|  9> C -1.2334845866 -1.3700970241 -0.0011505021
| 10> C 0.1265621091 -1.176878531 -0.0011673994
| 11> C 0.6498977644 0.1196263423 -0.0002448855
| 12> C -0.2237595976 1.2054143899 0.0008546263
| 13> C -1.5902491251 1.0177279618 0.0010681325
| 14> C 2.0964380161 0.373769827 -0.0006146259
| 15> O 2.6025969314 1.4841719309 -0.0021700364
| 16> O 2.8288936631 -0.7436541112 0.0014652469
| 17> C 4.2474128617 -0.5879491041 0.0013363387
| 18> H -5.34725769 -0.0267920059 -0.0003131816
| 19> H -4.2815812933 1.0886011485 -0.8932974481
| 20> H -4.2822807368 1.0866734316 0.8959162886
| 21> H -1.6578315015 -2.3610026338 -0.0021079534
| 22> H 0.798691686 -2.0194455511 -0.002247897
| 23> H 0.1941931898 2.200827308 0.0017388191
| 24> H -2.2395675669 1.8773585178 0.0020735791
| 25> H 4.651590823 -1.5951914353 0.015700962
| 26> H 4.562291115 -0.0252979246 0.881445519
| 27> H 4.5646221989 -0.0500818461 -0.8933065352
| 28> *
| 29>
| 30>                          ****END OF INPUT****

CARTESIAN COORDINATES (ANGSTROEM)
---------------------------------
  C     -4.379361    0.468710    0.000602
  O     -3.425767   -0.581324   -0.000134
  C     -2.110345   -0.277119   -0.000037
  C     -1.233485   -1.370097   -0.001151
  C      0.126562   -1.176879   -0.001167
  C      0.649898    0.119626   -0.000245
  C     -0.223760    1.205414    0.000855
  C     -1.590249    1.017728    0.001068
  C      2.096438    0.373770   -0.000615
  O      2.602597    1.484172   -0.002170
  O      2.828894   -0.743654    0.001465
  C      4.247413   -0.587949    0.001336
  H     -5.347258   -0.026792   -0.000313
  H     -4.281581    1.088601   -0.893297
  H     -4.282281    1.086673    0.895916
  H     -1.657832   -2.361003   -0.002108
  H      0.798692   -2.019446   -0.002248
  H      0.194193    2.200827    0.001739
  H     -2.239568    1.877359    0.002074
  H      4.651591   -1.595191    0.015701
  H      4.562291   -0.025298    0.881446
  H      4.564622   -0.050082   -0.893307

 Total Charge           Charge          ....    0
 Multiplicity           Mult            ....    1
 Number of Electrons    NEL             ....   88
 Basis Dimension        Dim             ....  293

ORBITAL ENERGIES
----------------

  NO   OCC          E(Eh)            E(eV)
   0   2.0000     -18.999834      -517.0118
   1   2.0000     -18.994701      -516.8721
   2   2.0000     -18.922561      -514.9091
   3   2.0000     -10.149182      -276.1733
   4   2.0000     -10.109458      -275.0923
   5   2.0000     -10.097152      -274.7575
   6   2.0000     -10.083490      -274.3857
   7   2.0000     -10.046353      -273.3752
   8   2.0000     -10.046016      -273.3660
   9   2.0000     -10.044977      -273.3377
  10   2.0000     -10.043181      -273.2889
  11   2.0000     -10.038976      -273.1744
  12   2.0000      -1.067407       -29.0456
  13   2.0000      -1.049559       -28.5600
  14   2.0000      -0.968699       -26.3596
  15   2.0000      -0.835243       -22.7281
  16   2.0000      -0.749449       -20.3935
  17   2.0000      -0.731627       -19.9086
  18   2.0000      -0.701163       -19.0796
  19   2.0000      -0.673036       -18.3142
  20   2.0000      -0.591742       -16.1021
  21   2.0000      -0.586262       -15.9530
  22   2.0000      -0.536294       -14.5933
  23   2.0000      -0.517453       -14.0806
  24   2.0000      -0.491786       -13.3822
  25   2.0000      -0.464023       -12.6267
  26   2.0000      -0.450594       -12.2613
  27   2.0000      -0.447463       -12.1761
  28   2.0000      -0.432772       -11.7763
  29   2.0000      -0.421617       -11.4728
  30   2.0000      -0.404891       -11.0177
  31   2.0000      -0.400344       -10.8939
  32   2.0000      -0.390790       -10.6339
  33   2.0000      -0.376557       -10.2466
  34   2.0000      -0.359792        -9.7904
  35   2.0000      -0.354319        -9.6415
  36   2.0000      -0.338716        -9.2169
  37   2.0000      -0.319902        -8.7050
  38   2.0000      -0.302752        -8.2383
  39   2.0000      -0.302454        -8.2302
  40   2.0000      -0.270101        -7.3498
  41   2.0000      -0.247797        -6.7429
  42   2.0000      -0.234738        -6.3876
  43   2.0000      -0.214118        -5.8265
  44   0.0000      -0.063897        -1.7387
  45   0.0000      -0.039161        -1.0656
  46   0.0000       0.036570         0.9951
  47   0.0000       0.056204         1.5294
  48   0.0000       0.068160         1.8547

MULLIKEN ATOMIC CHARGES
-----------------------
   0 C :   -0.329147
   1 O :   -0.176979
   2 C :    0.367899
   3 C :   -0.306001
   4 C :   -0.185968
   5 C :    0.112169
   6 C :   -0.251304
   7 C :   -0.268416
   8 C :    0.333279
   9 O :   -0.432945
  10 O :   -0.169919
  11 C :   -0.293707
  12 H :    0.158033
  13 H :    0.156648
  14 H :    0.156662
  15 H :    0.157431
  16 H :    0.172013
  17 H :    0.179218
  18 H :    0.148575
  19 H :    0.148944
  20 H :    0.162137
  21 H :    0.161377
Sum of atomic charges:   -0.0000000

LOEWDIN ATOMIC CHARGES
----------------------
   0 C :   -0.051340
   1 O :   -0.671353
   2 C :    0.205065
   3 C :   -0.129772
   4 C :   -0.103839
   5 C :   -0.054151
   6 C :   -0.092156
   7 C :   -0.169041
   8 C :    0.380042
   9 O :   -0.441482
  10 O :   -0.614772
  11 C :   -0.041954
  12 H :    0.182081
  13 H :    0.167367
  14 H :    0.167360
  15 H :    0.182211
  16 H :    0.188823
  17 H :    0.190868
  18 H :    0.176721
  19 H :    0.175205
  20 H :    0.177277
  21 H :    0.176842

  Mayer bond orders larger than 0.100000
B(  0-C ,  1-O ) :   0.8499 B(  0-C , 12-H ) :   0.9674 B(  0-C , 13-H ) :   0.9624
B(  0-C , 14-H ) :   0.9624 B(  1-O ,  2-C ) :   1.0708 B(  2-C ,  3-C ) :   1.3694
B(  2-C ,  7-C ) :   1.3247 B(  3-C ,  4-C ) :   1.3416 B(  3-C , 15-H ) :   0.9547
B(  4-C ,  5-C ) :   1.3351 B(  4-C , 16-H ) :   0.9522 B(  5-C ,  6-C ) :   1.4828
B(  5-C ,  8-C ) :   1.0384 B(  5-C , 10-O ) :  -0.1247 B(  6-C ,  7-C ) :   1.3352
B(  6-C , 17-H ) :   0.9542 B(  7-C , 18-H ) :   0.9258 B(  8-C ,  9-O ) :   1.8416
B(  8-C , 10-O ) :   1.1584 B( 10-O , 11-C ) :   0.8411 B( 11-C , 19-H ) :   0.9714
B( 11-C , 20-H ) :   0.9627 B( 11-C , 21-H ) :   0.9623

Dispersion correction           -0.007435919
FINAL SINGLE POINT ENERGY      -574.531511563938

DIPOLE MOMENT
-------------

Method             : SCF
Type of density    : Electron Density
Multiplicity       :   1
Irrep              :   0
Energy             :  -574.5368765419635793 Eh
Relativity type    :
Basis              : AO
                                X                 Y                 Z
Electronic contribution:      1.982201019      -0.521339790      -0.003582421
Nuclear contribution   :     -2.819637547       0.167146735       0.005243355
                        -----------------------------------------
Total Dipole Moment    :     -0.837436528      -0.354193055       0.001660934
                        -----------------------------------------
Magnitude (a.u.)       :      0.909260919
Magnitude (Debye)      :      2.311157584

Rotational constants in cm-1:             0.109143             0.014368             0.012758
Rotational constants in MHz :          3272.023639           430.736543           382.474045

                             ****ORCA TERMINATED NORMALLY****
TOTAL RUN TIME: 0 days 0 hours 0 minutes 41 seconds 649 msec
