                         Program Version 6.0.0  -   RELEASE  -
|  1> ! r2scan-3c def2/J RI DEFGRID2 scfconv6 printgap
|  2> %output
|  3>     printlevel normal
|  4> end
|  5> %cpcm
|  6>     smd true
|  7>     smdsolvent "water"
|  8> end
|  9> * xyz 0 1
| 10> C -4.3793609669 0.4687097208 0.0006024663
| 11> O -3.4257668916 -0.5813242127 -0.0001337424
| 12> C -2.1103453861 -0.2771189228 -3.72774e-05
| 13> C -1.2334845866 -1.3700970241 -0.0011505021
| 14> C 0.1265621091 -1.176878531 -0.0011673994
| 15> C 0.6498977644 0.1196263423 -0.0002448855
| 16> C -0.2237595976 1.2054143899 0.0008546263
| 17> C -1.5902491251 1.0177279618 0.0010681325
| 18> C 2.0964380161 0.373769827 -0.0006146259
| 19> O 2.6025969314 1.4841719309 -0.0021700364
| 20> O 2.8288936631 -0.7436541112 0.0014652469
| 21> C 4.2474128617 -0.5879491041 0.0013363387
| 22> H -5.34725769 -0.0267920059 -0.0003131816
| 23> H -4.2815812933 1.0886011485 -0.8932974481
| 24> H -4.2822807368 1.0866734316 0.8959162886
| 25> H -1.6578315015 -2.3610026338 -0.0021079534
| 26> H 0.798691686 -2.0194455511 -0.002247897
| 27> H 0.1941931898 2.200827308 0.0017388191
| 28> H -2.2395675669 1.8773585178 0.0020735791
| 29> H 4.651590823 -1.5951914353 0.015700962
| 30> H 4.562291115 -0.0252979246 0.881445519
| 31> H 4.5646221989 -0.0500818461 -0.8933065352
| 32> *
| 33>
| 34>                          ****END OF INPUT****

CARTESIAN COORDINATES (ANGSTROEM)
---------------------------------
  C     -4.379361    0.468710    0.000602
  O     -3.425767   -0.581324   -0.000134
  C     -2.110345   -0.277119   -0.000037
  C     -1.233485   -1.370097   -0.001151
  C      0.126562   -1.176879   -0.001167
  C      0.649898    0.119626   -0.000245
  C     -0.223760    1.205414    0.000855
  C     -1.590249    1.017728    0.001068
  C      2.096438    0.373770   -0.000615
  O      2.602597    1.484172   -0.002170
  O      2.828894   -0.743654    0.001465
  C      4.247413   -0.587949    0.001336
  H     -5.347258   -0.026792   -0.000313
  H     -4.281581    1.088601   -0.893297
  H     -4.282281    1.086673    0.895916
  H     -1.657832   -2.361003   -0.002108
  H      0.798692   -2.019446   -0.002248
  H      0.194193    2.200827    0.001739
  H     -2.239568    1.877359    0.002074
  H      4.651591   -1.595191    0.015701
  H      4.562291   -0.025298    0.881446
  H      4.564622   -0.050082   -0.893307

 Total Charge           Charge          ....    0
 Multiplicity           Mult            ....    1
 Number of Electrons    NEL             ....   88
 Basis Dimension        Dim             ....  293

ORBITAL ENERGIES
----------------

  NO   OCC          E(Eh)            E(eV)
   0   2.0000     -19.002688      -517.0894
   1   2.0000     -18.998099      -516.9646
   2   2.0000     -18.941677      -515.4292
   3   2.0000     -10.164631      -276.5937
   4   2.0000     -10.110565      -275.1224
   5   2.0000     -10.076953      -274.2078
   6   2.0000     -10.076078      -274.1840
   7   2.0000     -10.049086      -273.4495
   8   2.0000     -10.048567      -273.4354
   9   2.0000     -10.047647      -273.4104
  10   2.0000     -10.041333      -273.2386
  11   2.0000     -10.039157      -273.1794
  12   2.0000      -1.078094       -29.3364
  13   2.0000      -1.046463       -28.4757
  14   2.0000      -0.986041       -26.8315
  15   2.0000      -0.837787       -22.7973
  16   2.0000      -0.750339       -20.4178
  17   2.0000      -0.731765       -19.9124
  18   2.0000      -0.697724       -18.9860
  19   2.0000      -0.666805       -18.1447
  20   2.0000      -0.591518       -16.0960
  21   2.0000      -0.584022       -15.8920
  22   2.0000      -0.536866       -14.6089
  23   2.0000      -0.514875       -14.0105
  24   2.0000      -0.491665       -13.3789
  25   2.0000      -0.465842       -12.6762
  26   2.0000      -0.452985       -12.3264
  27   2.0000      -0.441859       -12.0236
  28   2.0000      -0.438761       -11.9393
  29   2.0000      -0.421885       -11.4801
  30   2.0000      -0.404438       -11.0053
  31   2.0000      -0.399519       -10.8715
  32   2.0000      -0.384456       -10.4616
  33   2.0000      -0.379150       -10.3172
  34   2.0000      -0.361111        -9.8263
  35   2.0000      -0.353882        -9.6296
  36   2.0000      -0.334873        -9.1123
  37   2.0000      -0.323433        -8.8011
  38   2.0000      -0.302014        -8.2182
  39   2.0000      -0.300589        -8.1794
  40   2.0000      -0.281264        -7.6536
  41   2.0000      -0.255899        -6.9634
  42   2.0000      -0.250536        -6.8174
  43   2.0000      -0.216843        -5.9006
  44   0.0000      -0.072005        -1.9594
  45   0.0000      -0.041434        -1.1275
  46   0.0000       0.028991         0.7889
  47   0.0000       0.063542         1.7291
  48   0.0000       0.072224         1.9653

MULLIKEN ATOMIC CHARGES
-----------------------
   0 C :   -0.338986
   1 O :   -0.208751
   2 C :    0.366009
   3 C :   -0.345984
   4 C :   -0.211778
   5 C :    0.109901
   6 C :   -0.273193
   7 C :   -0.288662
   8 C :    0.376500
   9 O :   -0.511154
  10 O :   -0.179927
  11 C :   -0.325453
  12 H :    0.176828
  13 H :    0.176723
  14 H :    0.176738
  15 H :    0.187799
  16 H :    0.195797
  17 H :    0.194041
  18 H :    0.189597
  19 H :    0.178585
  20 H :    0.177617
  21 H :    0.177751
Sum of atomic charges:   -0.0000000

LOEWDIN ATOMIC CHARGES
----------------------
   0 C :   -0.045626
   1 O :   -0.687027
   2 C :    0.202208
   3 C :   -0.134101
   4 C :   -0.107881
   5 C :   -0.068447
   6 C :   -0.102442
   7 C :   -0.160256
   8 C :    0.384675
   9 O :   -0.502697
  10 O :   -0.614447
  11 C :   -0.038872
  12 H :    0.189324
  13 H :    0.177695
  14 H :    0.177689
  15 H :    0.192674
  16 H :    0.196941
  17 H :    0.194307
  18 H :    0.193401
  19 H :    0.188238
  20 H :    0.182405
  21 H :    0.182237

  Mayer bond orders larger than 0.100000
B(  0-C ,  1-O ) :   0.8410 B(  0-C , 12-H ) :   0.9593 B(  0-C , 13-H ) :   0.9541
B(  0-C , 14-H ) :   0.9541 B(  1-O ,  2-C ) :   1.0626 B(  2-C ,  3-C ) :   1.3181
B(  2-C ,  7-C ) :   1.3152 B(  3-C ,  4-C ) :   1.3657 B(  3-C , 15-H ) :   0.9597
B(  4-C ,  5-C ) :   1.2849 B(  4-C , 16-H ) :   0.9602 B(  5-C ,  6-C ) :   1.3967
B(  5-C ,  8-C ) :   1.0498 B(  5-C , 10-O ) :  -0.1087 B(  6-C ,  7-C ) :   1.3623
B(  6-C , 17-H ) :   0.9621 B(  7-C , 18-H ) :   0.9301 B(  8-C ,  9-O ) :   1.7849
B(  8-C , 10-O ) :   1.1713 B( 10-O , 11-C ) :   0.8219 B( 11-C , 19-H ) :   0.9606
B( 11-C , 20-H ) :   0.9572 B( 11-C , 21-H ) :   0.9568

Dispersion correction           -0.007435919
FINAL SINGLE POINT ENERGY      -574.539217134221

DIPOLE MOMENT
-------------

Method             : SCF
Type of density    : Electron Density
Multiplicity       :   1
Irrep              :   0
Energy             :  -574.5445821122463030 Eh
Relativity type    :
Basis              : AO
                                X                 Y                 Z
Electronic contribution:      1.607557785      -0.671934328      -0.003017736
Nuclear contribution   :     -2.819637547       0.167146735       0.005243355
                        -----------------------------------------
Total Dipole Moment    :     -1.212079762      -0.504787593       0.002225619
                        -----------------------------------------
Magnitude (a.u.)       :      1.312993838
Magnitude (Debye)      :      3.337365111

Rotational constants in cm-1:             0.109143             0.014368             0.012758
Rotational constants in MHz :          3272.023639           430.736543           382.474045

                             ****ORCA TERMINATED NORMALLY****
TOTAL RUN TIME: 0 days 0 hours 0 minutes 54 seconds 850 msec
