                         Program Version 6.0.0  -   RELEASE  -
|  1> ! r2scan-3c def2/J RI DEFGRID2 scfconv6 printgap
|  2> %output
|  3>     printlevel normal
|  4> end
|  5> * xyz 0 1
|  6> C 1.8163924088 -1.2721569169 -0.0126558464
|  7> O 1.1940583931 -0.2606108313 -0.8194304718
|  8> S -0.0280319004 0.4503037549 -0.155829514
|  9> O -0.4552119698 1.4433988311 -1.0893399716
| 10> O 0.2998987126 0.8772834002 1.1743495189
| 11> O -1.0947391222 -0.7007822052 -0.106432354
| 12> C -1.6986887901 -1.0694588319 1.1439832082
| 13> H 1.2134056537 -2.1786265945 -0.0496510822
| 14> H 1.8957552203 -0.9024709311 1.0090631676
| 15> H 2.7990154325 -1.4407244463 -0.4458077575
| 16> H -2.7488403433 -0.7833478493 1.1131530262
| 17> H -1.1852509048 -0.5453035221 1.9477694503
| 18> H -1.5960863431 -2.1481952942 1.2488898133
| 19> *
| 20>
| 21>                          ****END OF INPUT****

CARTESIAN COORDINATES (ANGSTROEM)
---------------------------------
  C      1.816392   -1.272157   -0.012656
  O      1.194058   -0.260611   -0.819430
  S     -0.028032    0.450304   -0.155830
  O     -0.455212    1.443399   -1.089340
  O      0.299899    0.877283    1.174350
  O     -1.094739   -0.700782   -0.106432
  C     -1.698689   -1.069459    1.143983
  H      1.213406   -2.178627   -0.049651
  H      1.895755   -0.902471    1.009063
  H      2.799015   -1.440724   -0.445808
  H     -2.748840   -0.783348    1.113153
  H     -1.185251   -0.545304    1.947769
  H     -1.596086   -2.148195    1.248890

 Total Charge           Charge          ....    0
 Multiplicity           Mult            ....    1
 Number of Electrons    NEL             ....   66
 Basis Dimension        Dim             ....  191

ORBITAL ENERGIES
----------------

  NO   OCC          E(Eh)            E(eV)
   0   2.0000     -88.822224     -2416.9756
   1   2.0000     -19.026501      -517.7374
   2   2.0000     -19.024737      -517.6894
   3   2.0000     -18.961069      -515.9569
   4   2.0000     -18.952278      -515.7177
   5   2.0000     -10.111344      -275.1437
   6   2.0000     -10.110699      -275.1261
   7   2.0000      -8.086124      -220.0346
   8   2.0000      -6.032966      -164.1653
   9   2.0000      -6.032042      -164.1402
  10   2.0000      -6.029004      -164.0575
  11   2.0000      -1.164148       -31.6781
  12   2.0000      -1.052758       -28.6470
  13   2.0000      -1.024404       -27.8755
  14   2.0000      -0.993961       -27.0471
  15   2.0000      -0.741226       -20.1698
  16   2.0000      -0.705652       -19.2018
  17   2.0000      -0.591352       -16.0915
  18   2.0000      -0.549172       -14.9437
  19   2.0000      -0.498825       -13.5737
  20   2.0000      -0.487928       -13.2772
  21   2.0000      -0.460934       -12.5426
  22   2.0000      -0.457584       -12.4515
  23   2.0000      -0.445236       -12.1155
  24   2.0000      -0.415581       -11.3085
  25   2.0000      -0.374106       -10.1799
  26   2.0000      -0.366228        -9.9656
  27   2.0000      -0.338117        -9.2006
  28   2.0000      -0.332663        -9.0522
  29   2.0000      -0.331334        -9.0161
  30   2.0000      -0.298244        -8.1156
  31   2.0000      -0.289395        -7.8748
  32   2.0000      -0.273283        -7.4364
  33   0.0000       0.008983         0.2445
  34   0.0000       0.051057         1.3893
  35   0.0000       0.059962         1.6316
  36   0.0000       0.079072         2.1517
  37   0.0000       0.085401         2.3239

MULLIKEN ATOMIC CHARGES
-----------------------
   0 C :   -0.286760
   1 O :   -0.223754
   2 S :    1.135149
   3 O :   -0.508501
   4 O :   -0.623131
   5 O :   -0.242080
   6 C :   -0.267554
   7 H :    0.159532
   8 H :    0.184662
   9 H :    0.165106
  10 H :    0.161322
  11 H :    0.193271
  12 H :    0.152738
Sum of atomic charges:   -0.0000000

LOEWDIN ATOMIC CHARGES
----------------------
   0 C :   -0.043338
   1 O :   -0.547141
   2 S :    0.894576
   3 O :   -0.360996
   4 O :   -0.434424
   5 O :   -0.561615
   6 C :   -0.035597
   7 H :    0.171536
   8 H :    0.186914
   9 H :    0.185050
  10 H :    0.175897
  11 H :    0.196324
  12 H :    0.172815

  Mayer bond orders larger than 0.100000
B(  0-C ,  1-O ) :   0.7953 B(  0-C ,  7-H ) :   0.9609 B(  0-C ,  8-H ) :   0.9602
B(  0-C ,  9-H ) :   0.9620 B(  1-O ,  2-S ) :   1.0322 B(  2-S ,  3-O ) :   1.8660
B(  2-S ,  4-O ) :   1.5917 B(  2-S ,  5-O ) :   0.9105 B(  5-O ,  6-C ) :   0.7865
B(  6-C , 10-H ) :   0.9647 B(  6-C , 11-H ) :   0.9607 B(  6-C , 12-H ) :   0.9650

Dispersion correction           -0.003614967
FINAL SINGLE POINT ENERGY      -778.748421618401

DIPOLE MOMENT
-------------

Method             : SCF
Type of density    : Electron Density
Multiplicity       :   1
Irrep              :   0
Energy             :  -778.7689456627822437 Eh
Relativity type    :
Basis              : AO
                                X                 Y                 Z
Electronic contribution:     -0.224002420       5.729832861      -3.716889862
Nuclear contribution   :      0.354603433      -7.496924867       4.517216256
                        -----------------------------------------
Total Dipole Moment    :      0.130601012      -1.767092006       0.800326394
                        -----------------------------------------
Magnitude (a.u.)       :      1.944271874
Magnitude (Debye)      :      4.941946360

Rotational constants in cm-1:             0.097857             0.080541             0.060749
Rotational constants in MHz :          2933.684899          2414.544972          1821.203973

                             ****ORCA TERMINATED NORMALLY****
TOTAL RUN TIME: 0 days 0 hours 0 minutes 21 seconds 867 msec
