                         Program Version 6.0.0  -   RELEASE  -
|  1> ! r2scan-3c def2/J RI DEFGRID2 scfconv6 printgap
|  2> %output
|  3>     printlevel normal
|  4> end
|  5> %cpcm
|  6>     smd true
|  7>     smdsolvent "water"
|  8> end
|  9> * xyz 0 1
| 10> C 1.8163924088 -1.2721569169 -0.0126558464
| 11> O 1.1940583931 -0.2606108313 -0.8194304718
| 12> S -0.0280319004 0.4503037549 -0.155829514
| 13> O -0.4552119698 1.4433988311 -1.0893399716
| 14> O 0.2998987126 0.8772834002 1.1743495189
| 15> O -1.0947391222 -0.7007822052 -0.106432354
| 16> C -1.6986887901 -1.0694588319 1.1439832082
| 17> H 1.2134056537 -2.1786265945 -0.0496510822
| 18> H 1.8957552203 -0.9024709311 1.0090631676
| 19> H 2.7990154325 -1.4407244463 -0.4458077575
| 20> H -2.7488403433 -0.7833478493 1.1131530262
| 21> H -1.1852509048 -0.5453035221 1.9477694503
| 22> H -1.5960863431 -2.1481952942 1.2488898133
| 23> *
| 24>
| 25>                          ****END OF INPUT****

CARTESIAN COORDINATES (ANGSTROEM)
---------------------------------
  C      1.816392   -1.272157   -0.012656
  O      1.194058   -0.260611   -0.819430
  S     -0.028032    0.450304   -0.155830
  O     -0.455212    1.443399   -1.089340
  O      0.299899    0.877283    1.174350
  O     -1.094739   -0.700782   -0.106432
  C     -1.698689   -1.069459    1.143983
  H      1.213406   -2.178627   -0.049651
  H      1.895755   -0.902471    1.009063
  H      2.799015   -1.440724   -0.445808
  H     -2.748840   -0.783348    1.113153
  H     -1.185251   -0.545304    1.947769
  H     -1.596086   -2.148195    1.248890

 Total Charge           Charge          ....    0
 Multiplicity           Mult            ....    1
 Number of Electrons    NEL             ....   66
 Basis Dimension        Dim             ....  191

ORBITAL ENERGIES
----------------

  NO   OCC          E(Eh)            E(eV)
   0   2.0000     -88.834681     -2417.3146
   1   2.0000     -19.027614      -517.7677
   2   2.0000     -19.023900      -517.6666
   3   2.0000     -18.973495      -516.2950
   4   2.0000     -18.972120      -516.2576
   5   2.0000     -10.089851      -274.5588
   6   2.0000     -10.088852      -274.5316
   7   2.0000      -8.098297      -220.3659
   8   2.0000      -6.044826      -164.4881
   9   2.0000      -6.044113      -164.4687
  10   2.0000      -6.041731      -164.4038
  11   2.0000      -1.171991       -31.8915
  12   2.0000      -1.051305       -28.6075
  13   2.0000      -1.032321       -28.0909
  14   2.0000      -1.010873       -27.5073
  15   2.0000      -0.732812       -19.9408
  16   2.0000      -0.691852       -18.8263
  17   2.0000      -0.583162       -15.8686
  18   2.0000      -0.543012       -14.7761
  19   2.0000      -0.509263       -13.8578
  20   2.0000      -0.490980       -13.3602
  21   2.0000      -0.451398       -12.2832
  22   2.0000      -0.446925       -12.1615
  23   2.0000      -0.428347       -11.6559
  24   2.0000      -0.421034       -11.4569
  25   2.0000      -0.371146       -10.0994
  26   2.0000      -0.366609        -9.9759
  27   2.0000      -0.345313        -9.3964
  28   2.0000      -0.332035        -9.0351
  29   2.0000      -0.328137        -8.9291
  30   2.0000      -0.304487        -8.2855
  31   2.0000      -0.302279        -8.2254
  32   2.0000      -0.281239        -7.6529
  33   0.0000       0.012163         0.3310
  34   0.0000       0.054224         1.4755
  35   0.0000       0.062440         1.6991
  36   0.0000       0.077611         2.1119
  37   0.0000       0.100797         2.7428

MULLIKEN ATOMIC CHARGES
-----------------------
   0 C :   -0.289509
   1 O :   -0.250357
   2 S :    1.150371
   3 O :   -0.570164
   4 O :   -0.648536
   5 O :   -0.251472
   6 C :   -0.277376
   7 H :    0.188646
   8 H :    0.190934
   9 H :    0.192668
  10 H :    0.183415
  11 H :    0.195319
  12 H :    0.186061
Sum of atomic charges:   -0.0000000

LOEWDIN ATOMIC CHARGES
----------------------
   0 C :   -0.030310
   1 O :   -0.558284
   2 S :    0.895256
   3 O :   -0.413458
   4 O :   -0.455286
   5 O :   -0.560933
   6 C :   -0.023683
   7 H :    0.185376
   8 H :    0.191868
   9 H :    0.197357
  10 H :    0.185051
  11 H :    0.198754
  12 H :    0.188291

  Mayer bond orders larger than 0.100000
B(  0-C ,  1-O ) :   0.7856 B(  0-C ,  7-H ) :   0.9486 B(  0-C ,  8-H ) :   0.9508
B(  0-C ,  9-H ) :   0.9498 B(  1-O ,  2-S ) :   1.0601 B(  2-S ,  3-O ) :   1.8011
B(  2-S ,  4-O ) :   1.5815 B(  2-S ,  5-O ) :   0.9512 B(  5-O ,  6-C ) :   0.7738
B(  6-C , 10-H ) :   0.9550 B(  6-C , 11-H ) :   0.9544 B(  6-C , 12-H ) :   0.9538

Dispersion correction           -0.003614967
FINAL SINGLE POINT ENERGY      -778.761056587379

DIPOLE MOMENT
-------------

Method             : SCF
Type of density    : Electron Density
Multiplicity       :   1
Irrep              :   0
Energy             :  -778.7815806317595388 Eh
Relativity type    :
Basis              : AO
                                X                 Y                 Z
Electronic contribution:     -0.180854632       5.116717903      -3.436510351
Nuclear contribution   :      0.354603433      -7.496924867       4.517216256
                        -----------------------------------------
Total Dipole Moment    :      0.173748801      -2.380206964       1.080705905
                        -----------------------------------------
Magnitude (a.u.)       :      2.619828065
Magnitude (Debye)      :      6.659073737

Rotational constants in cm-1:             0.097857             0.080541             0.060749
Rotational constants in MHz :          2933.684899          2414.544972          1821.203973

                             ****ORCA TERMINATED NORMALLY****
TOTAL RUN TIME: 0 days 0 hours 0 minutes 25 seconds 30 msec
