                         Program Version 6.0.0  -   RELEASE  -
|  1> ! pbe def2-sv(p) def2/J RI DEFGRID1 loosescf d4 GCP(DFT/SV(P)) printgap
|  2> %output
|  3>     printlevel normal
|  4> end
|  5> * xyz 0 1
|  6> C -1.4452898116 0.3775550261 -0.267927112
|  7> C -0.0164042503 0.3281201576 0.2967260769
|  8> C 0.8330779584 -0.7736128391 -0.3545681416
|  9> O 2.165661739 -0.7275181431 0.1059058883
| 10> O 0.5682582906 1.5929473244 0.0697876295
| 11> O -2.2361232566 -0.7198591039 0.1160706856
| 12> H -1.3988084976 0.4820238786 -1.3573206144
| 13> H -1.9311906418 1.2667651239 0.1409269706
| 14> H -0.0811460915 0.1425170827 1.3826299491
| 15> H 0.8882347229 -0.5979150444 -1.4321132585
| 16> H 0.3872076346 -1.7556906896 -0.1682446629
| 17> H 2.201552768 -1.0241511078 1.0261575678
| 18> H 1.532688492 1.4781462377 0.0766095416
| 19> H -2.0095845095 -1.4928287333 -0.418020976
| 20> *
| 21>
| 22>                          ****END OF INPUT****

CARTESIAN COORDINATES (ANGSTROEM)
---------------------------------
  C     -1.445290    0.377555   -0.267927
  C     -0.016404    0.328120    0.296726
  C      0.833078   -0.773613   -0.354568
  O      2.165662   -0.727518    0.105906
  O      0.568258    1.592947    0.069788
  O     -2.236123   -0.719859    0.116071
  H     -1.398808    0.482024   -1.357321
  H     -1.931191    1.266765    0.140927
  H     -0.081146    0.142517    1.382630
  H      0.888235   -0.597915   -1.432113
  H      0.387208   -1.755691   -0.168245
  H      2.201553   -1.024151    1.026158
  H      1.532688    1.478146    0.076610
  H     -2.009585   -1.492829   -0.418021

 Total Charge           Charge          ....    0
 Multiplicity           Mult            ....    1
 Number of Electrons    NEL             ....   50
 Basis Dimension        Dim             ....  100

ORBITAL ENERGIES
----------------

  NO   OCC          E(Eh)            E(eV)
   0   2.0000     -18.766289      -510.6567
   1   2.0000     -18.752183      -510.2729
   2   2.0000     -18.743553      -510.0380
   3   2.0000      -9.941932      -270.5337
   4   2.0000      -9.935660      -270.3631
   5   2.0000      -9.930485      -270.2222
   6   2.0000      -0.947013       -25.7695
   7   2.0000      -0.928054       -25.2536
   8   2.0000      -0.912669       -24.8350
   9   2.0000      -0.679932       -18.5019
  10   2.0000      -0.616070       -16.7641
  11   2.0000      -0.543102       -14.7786
  12   2.0000      -0.483046       -13.1444
  13   2.0000      -0.474579       -12.9140
  14   2.0000      -0.437893       -11.9157
  15   2.0000      -0.415531       -11.3072
  16   2.0000      -0.396652       -10.7934
  17   2.0000      -0.372175       -10.1274
  18   2.0000      -0.352387        -9.5889
  19   2.0000      -0.297748        -8.1021
  20   2.0000      -0.291747        -7.9388
  21   2.0000      -0.281086        -7.6487
  22   2.0000      -0.248426        -6.7600
  23   2.0000      -0.218418        -5.9434
  24   2.0000      -0.212579        -5.7846
  25   0.0000       0.009944         0.2706
  26   0.0000       0.016488         0.4487
  27   0.0000       0.062791         1.7086
  28   0.0000       0.074664         2.0317
  29   0.0000       0.084963         2.3120

MULLIKEN ATOMIC CHARGES
-----------------------
   0 C :    0.023027
   1 C :    0.000712
   2 C :   -0.009285
   3 O :   -0.431127
   4 O :   -0.429883
   5 O :   -0.432475
   6 H :    0.073440
   7 H :    0.101387
   8 H :    0.051579
   9 H :    0.089052
  10 H :    0.064788
  11 H :    0.302510
  12 H :    0.296802
  13 H :    0.299472
Sum of atomic charges:   -0.0000000

LOEWDIN ATOMIC CHARGES
----------------------
   0 C :   -0.126805
   1 C :   -0.099228
   2 C :   -0.147287
   3 O :   -0.331941
   4 O :   -0.331718
   5 O :   -0.334035
   6 H :    0.099516
   7 H :    0.120626
   8 H :    0.093068
   9 H :    0.115310
  10 H :    0.094616
  11 H :    0.288199
  12 H :    0.277593
  13 H :    0.282086

  Mayer bond orders larger than 0.100000
B(  0-C ,  1-C ) :   1.0156 B(  0-C ,  5-O ) :   1.0762 B(  0-C ,  6-H ) :   0.9195
B(  0-C ,  7-H ) :   0.9221 B(  1-C ,  2-C ) :   1.0473 B(  1-C ,  4-O ) :   1.0662
B(  1-C ,  8-H ) :   0.8868 B(  2-C ,  3-O ) :   1.0537 B(  2-C ,  9-H ) :   0.9120
B(  2-C , 10-H ) :   0.9131 B(  3-O , 11-H ) :   0.8499 B(  4-O , 12-H ) :   0.8282
B(  5-O , 13-H ) :   0.8505

Dispersion correction           -0.009031581
FINAL SINGLE POINT ENERGY      -344.008623036863

DIPOLE MOMENT
-------------

Method             : SCF
Type of density    : Electron Density
Multiplicity       :   1
Irrep              :   0
Energy             :  -344.0822179902085054 Eh
Relativity type    :
Basis              : AO
                                X                 Y                 Z
Electronic contribution:      0.761550649       0.606807657       0.717022249
Nuclear contribution   :     -0.378239583      -1.406161341      -0.698711039
                        -----------------------------------------
Total Dipole Moment    :      0.383311066      -0.799353684       0.018311210
                        -----------------------------------------
Magnitude (a.u.)       :      0.886695543
Magnitude (Debye)      :      2.253800957

Rotational constants in cm-1:             0.188707             0.075747             0.058074
Rotational constants in MHz :          5657.304928          2270.839458          1741.023720

                             ****ORCA TERMINATED NORMALLY****
TOTAL RUN TIME: 0 days 0 hours 0 minutes 6 seconds 506 msec
