                         Program Version 6.0.0  -   RELEASE  -
|  1> ! pbe def2-sv(p) def2/J RI DEFGRID1 loosescf d4 GCP(DFT/SV(P)) printgap
|  2> %output
|  3>     printlevel normal
|  4> end
|  5> * xyz 0 1
|  6> C 3.3890447907 -0.7374238223 0.1022292521
|  7> C 2.031448645 -0.2183093498 0.4713663581
|  8> C 1.4768029321 -0.4920826549 1.6418158623
|  9> C 1.3699367709 0.623179566 -0.5969402401
| 10> H 2.1649467445 1.1580064968 -1.1271640235
| 11> C 0.6363959978 -0.2634776389 -1.6160021919
| 12> C -0.505045482 -1.0291572779 -0.9547132046
| 13> C -1.3935391238 -0.0965663382 -0.1843178824
| 14> C -0.9637558982 1.1080008341 0.2298930701
| 15> C 0.3860107292 1.6579767069 -0.0404518087
| 16> C -2.7384551381 -0.5332660299 0.1377991781
| 17> O -3.5651010354 0.0998624721 0.7731241049
| 18> H 3.768157143 -1.4142945645 0.8625547558
| 19> H 3.3516170095 -1.2642523601 -0.8493760015
| 20> H 4.088034783 0.0910865526 -0.0056061056
| 21> H 0.5055540713 -0.1271865601 1.928546045
| 22> H 1.9800272043 -1.1059028128 2.370569452
| 23> H 0.2314826022 0.3749692162 -2.4029889528
| 24> H 1.3319323315 -0.9665055716 -2.0747165036
| 25> H -1.0902131997 -1.5595321524 -1.7082674149
| 26> H -0.0971814069 -1.7749568697 -0.2659920508
| 27> H -1.6528818858 1.7361020352 0.7806046012
| 28> H 0.2663825311 2.4712521466 -0.7636489215
| 29> H 0.7849528786 2.109874559 0.8703750434
| 30> H -2.9998417259 -1.5387952372 -0.2428887152
| 31> *
| 32>
| 33>                          ****END OF INPUT****

CARTESIAN COORDINATES (ANGSTROEM)
---------------------------------
  C      3.389045   -0.737424    0.102229
  C      2.031449   -0.218309    0.471366
  C      1.476803   -0.492083    1.641816
  C      1.369937    0.623180   -0.596940
  H      2.164947    1.158006   -1.127164
  C      0.636396   -0.263478   -1.616002
  C     -0.505045   -1.029157   -0.954713
  C     -1.393539   -0.096566   -0.184318
  C     -0.963756    1.108001    0.229893
  C      0.386011    1.657977   -0.040452
  C     -2.738455   -0.533266    0.137799
  O     -3.565101    0.099862    0.773124
  H      3.768157   -1.414295    0.862555
  H      3.351617   -1.264252   -0.849376
  H      4.088035    0.091087   -0.005606
  H      0.505554   -0.127187    1.928546
  H      1.980027   -1.105903    2.370569
  H      0.231483    0.374969   -2.402989
  H      1.331932   -0.966506   -2.074717
  H     -1.090213   -1.559532   -1.708267
  H     -0.097181   -1.774957   -0.265992
  H     -1.652882    1.736102    0.780605
  H      0.266383    2.471252   -0.763649
  H      0.784953    2.109875    0.870375
  H     -2.999842   -1.538795   -0.242889

 Total Charge           Charge          ....    0
 Multiplicity           Mult            ....    1
 Number of Electrons    NEL             ....   82
 Basis Dimension        Dim             ....  182

ORBITAL ENERGIES
----------------

  NO   OCC          E(Eh)            E(eV)
   0   2.0000     -18.734062      -509.7797
   1   2.0000      -9.959165      -271.0026
   2   2.0000      -9.909605      -269.6541
   3   2.0000      -9.908346      -269.6198
   4   2.0000      -9.905996      -269.5558
   5   2.0000      -9.902408      -269.4582
   6   2.0000      -9.900837      -269.4155
   7   2.0000      -9.899912      -269.3903
   8   2.0000      -9.897528      -269.3254
   9   2.0000      -9.887188      -269.0441
  10   2.0000      -9.875763      -268.7332
  11   2.0000      -0.925984       -25.1973
  12   2.0000      -0.783859       -21.3299
  13   2.0000      -0.728880       -19.8338
  14   2.0000      -0.685750       -18.6602
  15   2.0000      -0.677832       -18.4448
  16   2.0000      -0.619449       -16.8561
  17   2.0000      -0.586370       -15.9559
  18   2.0000      -0.568686       -15.4747
  19   2.0000      -0.527108       -14.3433
  20   2.0000      -0.483185       -13.1481
  21   2.0000      -0.453887       -12.3509
  22   2.0000      -0.446118       -12.1395
  23   2.0000      -0.426343       -11.6014
  24   2.0000      -0.412718       -11.2306
  25   2.0000      -0.395391       -10.7591
  26   2.0000      -0.384349       -10.4587
  27   2.0000      -0.378763       -10.3067
  28   2.0000      -0.370811       -10.0903
  29   2.0000      -0.367643       -10.0041
  30   2.0000      -0.354580        -9.6486
  31   2.0000      -0.351719        -9.5708
  32   2.0000      -0.341848        -9.3022
  33   2.0000      -0.329865        -8.9761
  34   2.0000      -0.322119        -8.7653
  35   2.0000      -0.297684        -8.1004
  36   2.0000      -0.289883        -7.8881
  37   2.0000      -0.280582        -7.6350
  38   2.0000      -0.230089        -6.2611
  39   2.0000      -0.222065        -6.0427
  40   2.0000      -0.196101        -5.3362
  41   0.0000      -0.089198        -2.4272
  42   0.0000      -0.020130        -0.5478
  43   0.0000       0.020709         0.5635
  44   0.0000       0.030265         0.8235
  45   0.0000       0.055295         1.5047

MULLIKEN ATOMIC CHARGES
-----------------------
   0 C :   -0.213034
   1 C :   -0.074366
   2 C :   -0.234492
   3 C :   -0.127472
   4 H :    0.062588
   5 C :   -0.124038
   6 C :   -0.091561
   7 C :   -0.046275
   8 C :   -0.193436
   9 C :   -0.043934
  10 C :    0.041326
  11 O :   -0.171754
  12 H :    0.100768
  13 H :    0.107844
  14 H :    0.111242
  15 H :    0.107644
  16 H :    0.083991
  17 H :    0.093103
  18 H :    0.086816
  19 H :    0.091781
  20 H :    0.110734
  21 H :    0.077530
  22 H :    0.107581
  23 H :    0.108716
  24 H :    0.028698
Sum of atomic charges:   -0.0000000

LOEWDIN ATOMIC CHARGES
----------------------
   0 C :   -0.321764
   1 C :   -0.050702
   2 C :   -0.266033
   3 C :   -0.131121
   4 H :    0.121829
   5 C :   -0.201770
   6 C :   -0.216519
   7 C :   -0.119878
   8 C :   -0.072451
   9 C :   -0.212490
  10 C :   -0.001918
  11 O :   -0.137114
  12 H :    0.125031
  13 H :    0.126099
  14 H :    0.130453
  15 H :    0.124351
  16 H :    0.119504
  17 H :    0.121895
  18 H :    0.117879
  19 H :    0.126450
  20 H :    0.134176
  21 H :    0.131121
  22 H :    0.140965
  23 H :    0.135932
  24 H :    0.076076

  Mayer bond orders larger than 0.100000
B(  0-C ,  1-C ) :   1.1219 B(  0-C , 12-H ) :   0.9403 B(  0-C , 13-H ) :   0.9297
B(  0-C , 14-H ) :   0.9268 B(  1-C ,  2-C ) :   2.0468 B(  1-C ,  3-C ) :   1.0090
B(  2-C , 15-H ) :   0.8940 B(  2-C , 16-H ) :   0.9006 B(  3-C ,  4-H ) :   0.8779
B(  3-C ,  5-C ) :   1.0537 B(  3-C ,  9-C ) :   1.0851 B(  5-C ,  6-C ) :   1.1324
B(  5-C , 17-H ) :   0.9205 B(  5-C , 18-H ) :   0.9105 B(  6-C ,  7-C ) :   1.0570
B(  6-C , 19-H ) :   0.8960 B(  6-C , 20-H ) :   0.8716 B(  7-C ,  8-C ) :   1.7954
B(  7-C , 10-C ) :   1.0154 B(  8-C ,  9-C ) :   1.0604 B(  8-C , 11-O ) :   0.1082
B(  8-C , 21-H ) :   0.9179 B(  9-C , 22-H ) :   0.8755 B(  9-C , 23-H ) :   0.8951
B( 10-C , 11-O ) :   2.1347 B( 10-C , 24-H ) :   0.9166

Dispersion correction           -0.027885501
FINAL SINGLE POINT ENERGY      -463.625169157131

DIPOLE MOMENT
-------------

Method             : SCF
Type of density    : Electron Density
Multiplicity       :   1
Irrep              :   0
Energy             :  -463.7001248812414360 Eh
Relativity type    :
Basis              : AO
                                X                 Y                 Z
Electronic contribution:    -10.490270911       1.646888519       1.818741902
Nuclear contribution   :     11.798992914      -1.696729845      -2.454042453
                        -----------------------------------------
Total Dipole Moment    :      1.308722003      -0.049841326      -0.635300551
                        -----------------------------------------
Magnitude (a.u.)       :      1.455625030
Magnitude (Debye)      :      3.699904791

Rotational constants in cm-1:             0.074316             0.022511             0.022083
Rotational constants in MHz :          2227.938912           674.862888           662.025831

                             ****ORCA TERMINATED NORMALLY****
TOTAL RUN TIME: 0 days 0 hours 0 minutes 17 seconds 439 msec
