                         Program Version 6.0.0  -   RELEASE  -
|  1> ! r2scan-3c def2/J RI DEFGRID2 scfconv6 printgap
|  2> %output
|  3>     printlevel normal
|  4> end
|  5> * xyz 0 1
|  6> C -0.4866047529 1.2271883121 -1.9571491371
|  7> N -0.1565856213 0.2619874657 -0.9292777394
|  8> C -1.1532849923 -0.7253043623 -0.6405323439
|  9> C -2.1311463728 -0.2850566567 0.4556576695
| 10> F -1.5404548587 0.026994606 1.6188019028
| 11> F -2.8607377095 0.7906646684 0.1092029202
| 12> F -3.0225573958 -1.2587835746 0.7383180756
| 13> C 1.1437237555 0.1279475491 -0.4731446399
| 14> C 2.2039534355 0.7613353306 -1.1309012586
| 15> C 3.4993894787 0.6397205284 -0.6669944068
| 16> C 3.7828772647 -0.11809519 0.4559989458
| 17> C 2.7423022719 -0.7490353099 1.1156547343
| 18> C 1.4417488152 -0.628167982 0.6659580679
| 19> H -1.5599064797 1.4022582511 -1.9508622231
| 20> H -0.189049411 0.8806004929 -2.9521942837
| 21> H 0.0060987356 2.1734295414 -1.7430154985
| 22> H -1.7634590622 -0.9283446587 -1.5276906234
| 23> H -0.7006684131 -1.6623838678 -0.3061159064
| 24> H 2.0258309357 1.343532542 -2.0189800603
| 25> H 4.297832249 1.1384580655 -1.1964501739
| 26> H 4.7963088549 -0.2128532825 0.8139513468
| 27> H 2.9404269108 -1.3377208499 1.9993526573
| 28> H 0.6591759672 -1.1083825413 1.2317259267
| 29> *
| 30>
| 31>                          ****END OF INPUT****

CARTESIAN COORDINATES (ANGSTROEM)
---------------------------------
  C     -0.486605    1.227188   -1.957149
  N     -0.156586    0.261987   -0.929278
  C     -1.153285   -0.725304   -0.640532
  C     -2.131146   -0.285057    0.455658
  F     -1.540455    0.026995    1.618802
  F     -2.860738    0.790665    0.109203
  F     -3.022557   -1.258784    0.738318
  C      1.143724    0.127948   -0.473145
  C      2.203953    0.761335   -1.130901
  C      3.499389    0.639721   -0.666994
  C      3.782877   -0.118095    0.455999
  C      2.742302   -0.749035    1.115655
  C      1.441749   -0.628168    0.665958
  H     -1.559906    1.402258   -1.950862
  H     -0.189049    0.880600   -2.952194
  H      0.006099    2.173430   -1.743015
  H     -1.763459   -0.928345   -1.527691
  H     -0.700668   -1.662384   -0.306116
  H      2.025831    1.343533   -2.018980
  H      4.297832    1.138458   -1.196450
  H      4.796309   -0.212853    0.813951
  H      2.940427   -1.337721    1.999353
  H      0.659176   -1.108383    1.231726

 Total Charge           Charge          ....    0
 Multiplicity           Mult            ....    1
 Number of Electrons    NEL             ....   98
 Basis Dimension        Dim             ....  317

ORBITAL ENERGIES
----------------

  NO   OCC          E(Eh)            E(eV)
   0   2.0000     -24.520447      -667.2353
   1   2.0000     -24.519408      -667.2070
   2   2.0000     -24.518205      -667.1743
   3   2.0000     -14.197792      -386.3416
   4   2.0000     -10.280928      -279.7583
   5   2.0000     -10.104024      -274.9445
   6   2.0000     -10.080192      -274.2960
   7   2.0000     -10.072595      -274.0892
   8   2.0000     -10.033263      -273.0190
   9   2.0000     -10.032954      -273.0105
  10   2.0000     -10.030213      -272.9360
  11   2.0000     -10.030048      -272.9315
  12   2.0000     -10.023068      -272.7415
  13   2.0000      -1.277282       -34.7566
  14   2.0000      -1.187768       -32.3208
  15   2.0000      -1.185721       -32.2651
  16   2.0000      -0.938582       -25.5401
  17   2.0000      -0.820225       -22.3195
  18   2.0000      -0.755748       -20.5650
  19   2.0000      -0.723273       -19.6813
  20   2.0000      -0.711910       -19.3721
  21   2.0000      -0.663894       -18.0655
  22   2.0000      -0.633157       -17.2291
  23   2.0000      -0.577392       -15.7116
  24   2.0000      -0.567553       -15.4439
  25   2.0000      -0.558808       -15.2059
  26   2.0000      -0.552657       -15.0386
  27   2.0000      -0.525298       -14.2941
  28   2.0000      -0.505978       -13.7683
  29   2.0000      -0.465646       -12.6709
  30   2.0000      -0.453963       -12.3530
  31   2.0000      -0.432088       -11.7577
  32   2.0000      -0.429980       -11.7003
  33   2.0000      -0.425645       -11.5824
  34   2.0000      -0.422762       -11.5039
  35   2.0000      -0.404086       -10.9957
  36   2.0000      -0.399155       -10.8615
  37   2.0000      -0.389936       -10.6107
  38   2.0000      -0.384917       -10.4741
  39   2.0000      -0.373991       -10.1768
  40   2.0000      -0.371670       -10.1137
  41   2.0000      -0.368260       -10.0209
  42   2.0000      -0.360792        -9.8177
  43   2.0000      -0.345888        -9.4121
  44   2.0000      -0.327147        -8.9021
  45   2.0000      -0.309353        -8.4179
  46   2.0000      -0.271609        -7.3909
  47   2.0000      -0.236063        -6.4236
  48   2.0000      -0.184623        -5.0238
  49   0.0000      -0.031276        -0.8511
  50   0.0000      -0.015828        -0.4307
  51   0.0000       0.058226         1.5844
  52   0.0000       0.070430         1.9165
  53   0.0000       0.080532         2.1914

MULLIKEN ATOMIC CHARGES
-----------------------
   0 C :   -0.459014
   1 N :    0.208479
   2 C :   -0.429177
   3 C :    0.585085
   4 F :   -0.198276
   5 F :   -0.214933
   6 F :   -0.207710
   7 C :    0.203109
   8 C :   -0.302907
   9 C :   -0.150030
  10 C :   -0.185768
  11 C :   -0.163988
  12 C :   -0.290281
  13 H :    0.161915
  14 H :    0.164896
  15 H :    0.163864
  16 H :    0.185168
  17 H :    0.203894
  18 H :    0.139401
  19 H :    0.144525
  20 H :    0.145755
  21 H :    0.145291
  22 H :    0.150702
Sum of atomic charges:    0.0000000

LOEWDIN ATOMIC CHARGES
----------------------
   0 C :   -0.118518
   1 N :   -0.887981
   2 C :    0.001680
   3 C :    0.518200
   4 F :   -0.202936
   5 F :   -0.213106
   6 F :   -0.220614
   7 C :    0.155294
   8 C :   -0.163298
   9 C :   -0.152905
  10 C :   -0.197278
  11 C :   -0.152279
  12 C :   -0.162565
  13 H :    0.185389
  14 H :    0.164822
  15 H :    0.184760
  16 H :    0.203651
  17 H :    0.210004
  18 H :    0.172625
  19 H :    0.167061
  20 H :    0.165744
  21 H :    0.167676
  22 H :    0.174574

  Mayer bond orders larger than 0.100000
B(  0-C ,  1-N ) :   0.8799 B(  0-C , 13-H ) :   0.9471 B(  0-C , 14-H ) :   0.9577
B(  0-C , 15-H ) :   0.9588 B(  1-N ,  2-C ) :   0.8544 B(  1-N ,  7-C ) :   1.1706
B(  2-C ,  3-C ) :   1.0134 B(  2-C , 16-H ) :   0.9294 B(  2-C , 17-H ) :   0.9462
B(  3-C ,  4-F ) :   1.0406 B(  3-C ,  5-F ) :   1.0184 B(  3-C ,  6-F ) :   1.0173
B(  7-C ,  8-C ) :   1.3015 B(  7-C , 12-C ) :   1.3292 B(  8-C ,  9-C ) :   1.4118
B(  8-C , 18-H ) :   0.9496 B(  9-C , 10-C ) :   1.4160 B(  9-C , 19-H ) :   0.9506
B( 10-C , 11-C ) :   1.4076 B( 10-C , 20-H ) :   0.9498 B( 11-C , 12-C ) :   1.4276
B( 11-C , 21-H ) :   0.9489 B( 12-C , 22-H ) :   0.9283

Dispersion correction           -0.008474884
FINAL SINGLE POINT ENERGY      -703.154044711458

DIPOLE MOMENT
-------------

Method             : SCF
Type of density    : Electron Density
Multiplicity       :   1
Irrep              :   0
Energy             :  -703.1641046782847297 Eh
Relativity type    :
Basis              : AO
                                X                 Y                 Z
Electronic contribution:    -16.622154050      -2.071575441       8.588876856
Nuclear contribution   :     16.740018321       1.994343212      -9.467488952
                        -----------------------------------------
Total Dipole Moment    :      0.117864271      -0.077232230      -0.878612096
                        -----------------------------------------
Magnitude (a.u.)       :      0.889840446
Magnitude (Debye)      :      2.261794665

Rotational constants in cm-1:             0.055906             0.015596             0.013221
Rotational constants in MHz :          1676.027385           467.545284           396.342844

                             ****ORCA TERMINATED NORMALLY****
TOTAL RUN TIME: 0 days 0 hours 0 minutes 45 seconds 352 msec
