                         Program Version 6.0.0  -   RELEASE  -
|  1> ! r2scan-3c def2/J RI DEFGRID2 scfconv6 printgap
|  2> %output
|  3>     printlevel normal
|  4> end
|  5> %cpcm
|  6>     smd true
|  7>     smdsolvent "water"
|  8> end
|  9> * xyz 0 1
| 10> C -0.4866047529 1.2271883121 -1.9571491371
| 11> N -0.1565856213 0.2619874657 -0.9292777394
| 12> C -1.1532849923 -0.7253043623 -0.6405323439
| 13> C -2.1311463728 -0.2850566567 0.4556576695
| 14> F -1.5404548587 0.026994606 1.6188019028
| 15> F -2.8607377095 0.7906646684 0.1092029202
| 16> F -3.0225573958 -1.2587835746 0.7383180756
| 17> C 1.1437237555 0.1279475491 -0.4731446399
| 18> C 2.2039534355 0.7613353306 -1.1309012586
| 19> C 3.4993894787 0.6397205284 -0.6669944068
| 20> C 3.7828772647 -0.11809519 0.4559989458
| 21> C 2.7423022719 -0.7490353099 1.1156547343
| 22> C 1.4417488152 -0.628167982 0.6659580679
| 23> H -1.5599064797 1.4022582511 -1.9508622231
| 24> H -0.189049411 0.8806004929 -2.9521942837
| 25> H 0.0060987356 2.1734295414 -1.7430154985
| 26> H -1.7634590622 -0.9283446587 -1.5276906234
| 27> H -0.7006684131 -1.6623838678 -0.3061159064
| 28> H 2.0258309357 1.343532542 -2.0189800603
| 29> H 4.297832249 1.1384580655 -1.1964501739
| 30> H 4.7963088549 -0.2128532825 0.8139513468
| 31> H 2.9404269108 -1.3377208499 1.9993526573
| 32> H 0.6591759672 -1.1083825413 1.2317259267
| 33> *
| 34>
| 35>                          ****END OF INPUT****

CARTESIAN COORDINATES (ANGSTROEM)
---------------------------------
  C     -0.486605    1.227188   -1.957149
  N     -0.156586    0.261987   -0.929278
  C     -1.153285   -0.725304   -0.640532
  C     -2.131146   -0.285057    0.455658
  F     -1.540455    0.026995    1.618802
  F     -2.860738    0.790665    0.109203
  F     -3.022557   -1.258784    0.738318
  C      1.143724    0.127948   -0.473145
  C      2.203953    0.761335   -1.130901
  C      3.499389    0.639721   -0.666994
  C      3.782877   -0.118095    0.455999
  C      2.742302   -0.749035    1.115655
  C      1.441749   -0.628168    0.665958
  H     -1.559906    1.402258   -1.950862
  H     -0.189049    0.880600   -2.952194
  H      0.006099    2.173430   -1.743015
  H     -1.763459   -0.928345   -1.527691
  H     -0.700668   -1.662384   -0.306116
  H      2.025831    1.343533   -2.018980
  H      4.297832    1.138458   -1.196450
  H      4.796309   -0.212853    0.813951
  H      2.940427   -1.337721    1.999353
  H      0.659176   -1.108383    1.231726

 Total Charge           Charge          ....    0
 Multiplicity           Mult            ....    1
 Number of Electrons    NEL             ....   98
 Basis Dimension        Dim             ....  317

ORBITAL ENERGIES
----------------

  NO   OCC          E(Eh)            E(eV)
   0   2.0000     -24.519986      -667.2227
   1   2.0000     -24.518648      -667.1863
   2   2.0000     -24.517283      -667.1492
   3   2.0000     -14.187699      -386.0669
   4   2.0000     -10.277912      -279.6762
   5   2.0000     -10.085713      -274.4462
   6   2.0000     -10.077078      -274.2112
   7   2.0000     -10.051538      -273.5163
   8   2.0000     -10.030684      -272.9488
   9   2.0000     -10.030666      -272.9483
  10   2.0000     -10.026580      -272.8371
  11   2.0000     -10.025852      -272.8173
  12   2.0000     -10.020304      -272.6663
  13   2.0000      -1.277213       -34.7547
  14   2.0000      -1.188222       -32.3332
  15   2.0000      -1.185561       -32.2607
  16   2.0000      -0.927570       -25.2405
  17   2.0000      -0.818268       -22.2662
  18   2.0000      -0.745472       -20.2853
  19   2.0000      -0.717799       -19.5323
  20   2.0000      -0.706875       -19.2351
  21   2.0000      -0.656099       -17.8534
  22   2.0000      -0.626853       -17.0575
  23   2.0000      -0.572942       -15.5905
  24   2.0000      -0.562774       -15.3139
  25   2.0000      -0.558491       -15.1973
  26   2.0000      -0.550113       -14.9693
  27   2.0000      -0.518432       -14.1072
  28   2.0000      -0.494476       -13.4554
  29   2.0000      -0.454133       -12.3576
  30   2.0000      -0.446535       -12.1508
  31   2.0000      -0.431048       -11.7294
  32   2.0000      -0.429817       -11.6959
  33   2.0000      -0.417109       -11.3501
  34   2.0000      -0.410882       -11.1807
  35   2.0000      -0.398740       -10.8503
  36   2.0000      -0.393517       -10.7081
  37   2.0000      -0.384490       -10.4625
  38   2.0000      -0.382984       -10.4215
  39   2.0000      -0.369496       -10.0545
  40   2.0000      -0.362616        -9.8673
  41   2.0000      -0.359692        -9.7877
  42   2.0000      -0.346151        -9.4192
  43   2.0000      -0.345063        -9.3897
  44   2.0000      -0.322410        -8.7732
  45   2.0000      -0.303257        -8.2521
  46   2.0000      -0.268148        -7.2967
  47   2.0000      -0.237657        -6.4670
  48   2.0000      -0.179425        -4.8824
  49   0.0000      -0.031430        -0.8552
  50   0.0000      -0.015326        -0.4171
  51   0.0000       0.069139         1.8814
  52   0.0000       0.084512         2.2997
  53   0.0000       0.096134         2.6159

MULLIKEN ATOMIC CHARGES
-----------------------
   0 C :   -0.463469
   1 N :    0.196963
   2 C :   -0.409094
   3 C :    0.562929
   4 F :   -0.209132
   5 F :   -0.219726
   6 F :   -0.215865
   7 C :    0.165615
   8 C :   -0.319514
   9 C :   -0.195685
  10 C :   -0.234055
  11 C :   -0.211073
  12 C :   -0.311991
  13 H :    0.174807
  14 H :    0.178437
  15 H :    0.175643
  16 H :    0.222105
  17 H :    0.230528
  18 H :    0.174816
  19 H :    0.176013
  20 H :    0.175430
  21 H :    0.176122
  22 H :    0.180195
Sum of atomic charges:    0.0000000

LOEWDIN ATOMIC CHARGES
----------------------
   0 C :   -0.114962
   1 N :   -0.887385
   2 C :    0.009103
   3 C :    0.517903
   4 F :   -0.212614
   5 F :   -0.218134
   6 F :   -0.225848
   7 C :    0.145809
   8 C :   -0.172129
   9 C :   -0.168291
  10 C :   -0.220869
  11 C :   -0.168799
  12 C :   -0.174195
  13 H :    0.190788
  14 H :    0.173270
  15 H :    0.188122
  16 H :    0.219447
  17 H :    0.220568
  18 H :    0.185238
  19 H :    0.177107
  20 H :    0.174078
  21 H :    0.177303
  22 H :    0.184491

  Mayer bond orders larger than 0.100000
B(  0-C ,  1-N ) :   0.8851 B(  0-C , 13-H ) :   0.9433 B(  0-C , 14-H ) :   0.9503
B(  0-C , 15-H ) :   0.9540 B(  1-N ,  2-C ) :   0.8588 B(  1-N ,  7-C ) :   1.1826
B(  2-C ,  3-C ) :   1.0104 B(  2-C , 16-H ) :   0.9134 B(  2-C , 17-H ) :   0.9369
B(  3-C ,  4-F ) :   1.0353 B(  3-C ,  5-F ) :   1.0207 B(  3-C ,  6-F ) :   1.0176
B(  7-C ,  8-C ) :   1.2665 B(  7-C , 12-C ) :   1.2896 B(  8-C ,  9-C ) :   1.3814
B(  8-C , 18-H ) :   0.9594 B(  9-C , 10-C ) :   1.3672 B(  9-C , 19-H ) :   0.9637
B( 10-C , 11-C ) :   1.3612 B( 10-C , 20-H ) :   0.9613 B( 11-C , 12-C ) :   1.3982
B( 11-C , 21-H ) :   0.9623 B( 12-C , 22-H ) :   0.9388

Dispersion correction           -0.008474884
FINAL SINGLE POINT ENERGY      -703.158953579268

DIPOLE MOMENT
-------------

Method             : SCF
Type of density    : Electron Density
Multiplicity       :   1
Irrep              :   0
Energy             :  -703.1690135460946749 Eh
Relativity type    :
Basis              : AO
                                X                 Y                 Z
Electronic contribution:    -16.815183990      -2.172706910       8.224571380
Nuclear contribution   :     16.740018321       1.994343212      -9.467488952
                        -----------------------------------------
Total Dipole Moment    :     -0.075165669      -0.178363699      -1.242917572
                        -----------------------------------------
Magnitude (a.u.)       :      1.257898079
Magnitude (Debye)      :      3.197322822

Rotational constants in cm-1:             0.055906             0.015596             0.013221
Rotational constants in MHz :          1676.027385           467.545284           396.342844

                             ****ORCA TERMINATED NORMALLY****
TOTAL RUN TIME: 0 days 0 hours 1 minutes 0 seconds 660 msec
