                         Program Version 6.0.0  -   RELEASE  -
|  1> ! r2scan-3c def2/J RI DEFGRID2 scfconv6 printgap
|  2> %output
|  3>     printlevel normal
|  4> end
|  5> * xyz 0 1
|  6> C -3.5607262841 1.3039434566 -0.0230496698
|  7> C -2.9295110291 0.080309707 0.6342463155
|  8> C -2.0229530535 -0.7129773546 -0.3201894572
|  9> C -0.5500659367 -0.4277497486 -0.1835371293
| 10> C 0.3669376957 -1.4573348295 -0.3577736886
| 11> C 1.7286545241 -1.2382868497 -0.2593341547
| 12> C 2.2078803954 0.0341536928 0.0234102399
| 13> C 1.3021247389 1.0741146866 0.2011748984
| 14> C -0.055047039 0.8409765857 0.0953433132
| 15> O 3.5387363459 0.3094405382 0.1366031987
| 16> H -2.8039092577 1.9752707611 -0.4203902233
| 17> H -4.2062040341 0.9996269777 -0.8442414829
| 18> H -4.1618568936 1.8531386175 0.69817426
| 19> H -3.7332231936 -0.5709333468 0.9834617964
| 20> H -2.355251051 0.3849280795 1.511226831
| 21> H -2.3239927993 -0.502412478 -1.3507947843
| 22> H -2.1729876994 -1.782149672 -0.1580169582
| 23> H 0.0122311137 -2.4545806784 -0.5754409498
| 24> H 2.4179773636 -2.0589066992 -0.3991093831
| 25> H 1.6822032097 2.0597606224 0.4208238294
| 26> H -0.7310360619 1.6685200519 0.2379220599
| 27> H 4.062579051 -0.4919206784 -0.0113145916
| 28> *
| 29>
| 30>                          ****END OF INPUT****

CARTESIAN COORDINATES (ANGSTROEM)
---------------------------------
  C     -3.560726    1.303943   -0.023050
  C     -2.929511    0.080310    0.634246
  C     -2.022953   -0.712977   -0.320189
  C     -0.550066   -0.427750   -0.183537
  C      0.366938   -1.457335   -0.357774
  C      1.728655   -1.238287   -0.259334
  C      2.207880    0.034154    0.023410
  C      1.302125    1.074115    0.201175
  C     -0.055047    0.840977    0.095343
  O      3.538736    0.309441    0.136603
  H     -2.803909    1.975271   -0.420390
  H     -4.206204    0.999627   -0.844241
  H     -4.161857    1.853139    0.698174
  H     -3.733223   -0.570933    0.983462
  H     -2.355251    0.384928    1.511227
  H     -2.323993   -0.502412   -1.350795
  H     -2.172988   -1.782150   -0.158017
  H      0.012231   -2.454581   -0.575441
  H      2.417977   -2.058907   -0.399109
  H      1.682203    2.059761    0.420824
  H     -0.731036    1.668520    0.237922
  H      4.062579   -0.491921   -0.011315

 Total Charge           Charge          ....    0
 Multiplicity           Mult            ....    1
 Number of Electrons    NEL             ....   74
 Basis Dimension        Dim             ....  255

ORBITAL ENERGIES
----------------

  NO   OCC          E(Eh)            E(eV)
   0   2.0000     -18.982683      -516.5451
   1   2.0000     -10.092315      -274.6259
   2   2.0000     -10.033018      -273.0123
   3   2.0000     -10.032422      -272.9961
   4   2.0000     -10.031482      -272.9705
   5   2.0000     -10.030611      -272.9468
   6   2.0000     -10.029324      -272.9118
   7   2.0000     -10.027571      -272.8641
   8   2.0000     -10.026941      -272.8469
   9   2.0000     -10.018071      -272.6056
  10   2.0000      -1.025521       -27.9059
  11   2.0000      -0.824586       -22.4381
  12   2.0000      -0.761736       -20.7279
  13   2.0000      -0.717911       -19.5353
  14   2.0000      -0.708676       -19.2841
  15   2.0000      -0.645951       -17.5772
  16   2.0000      -0.592526       -16.1234
  17   2.0000      -0.569425       -15.4948
  18   2.0000      -0.545394       -14.8409
  19   2.0000      -0.515746       -14.0342
  20   2.0000      -0.453426       -12.3383
  21   2.0000      -0.443927       -12.0799
  22   2.0000      -0.419766       -11.4224
  23   2.0000      -0.404559       -11.0086
  24   2.0000      -0.392349       -10.6763
  25   2.0000      -0.385033       -10.4773
  26   2.0000      -0.383253       -10.4288
  27   2.0000      -0.372955       -10.1486
  28   2.0000      -0.351492        -9.5646
  29   2.0000      -0.341081        -9.2813
  30   2.0000      -0.319632        -8.6976
  31   2.0000      -0.308736        -8.4011
  32   2.0000      -0.298552        -8.1240
  33   2.0000      -0.294046        -8.0014
  34   2.0000      -0.290587        -7.9073
  35   2.0000      -0.235871        -6.4184
  36   2.0000      -0.196755        -5.3540
  37   0.0000      -0.032066        -0.8726
  38   0.0000      -0.011763        -0.3201
  39   0.0000       0.058207         1.5839
  40   0.0000       0.076159         2.0724
  41   0.0000       0.094219         2.5638

MULLIKEN ATOMIC CHARGES
-----------------------
   0 C :   -0.486764
   1 C :   -0.253111
   2 C :   -0.291000
   3 C :    0.123680
   4 C :   -0.211965
   5 C :   -0.341747
   6 C :    0.427753
   7 C :   -0.335824
   8 C :   -0.158650
   9 O :   -0.416872
  10 H :    0.140785
  11 H :    0.149028
  12 H :    0.147012
  13 H :    0.146119
  14 H :    0.161151
  15 H :    0.165357
  16 H :    0.144269
  17 H :    0.145283
  18 H :    0.136293
  19 H :    0.154570
  20 H :    0.145026
  21 H :    0.309606
Sum of atomic charges:    0.0000000

LOEWDIN ATOMIC CHARGES
----------------------
   0 C :   -0.425839
   1 C :   -0.312405
   2 C :   -0.278775
   3 C :   -0.106978
   4 C :   -0.151647
   5 C :   -0.170951
   6 C :    0.176851
   7 C :   -0.140095
   8 C :   -0.151048
   9 O :   -0.500095
  10 H :    0.146846
  11 H :    0.149459
  12 H :    0.150990
  13 H :    0.153674
  14 H :    0.159102
  15 H :    0.168347
  16 H :    0.162322
  17 H :    0.168739
  18 H :    0.167857
  19 H :    0.179101
  20 H :    0.171329
  21 H :    0.283214

  Mayer bond orders larger than 0.100000
B(  0-C ,  1-C ) :   0.8922 B(  0-C , 10-H ) :   0.9815 B(  0-C , 11-H ) :   0.9838
B(  0-C , 12-H ) :   0.9727 B(  1-C ,  2-C ) :   0.8290 B(  1-C , 13-H ) :   0.9668
B(  1-C , 14-H ) :   0.9886 B(  2-C ,  3-C ) :   0.8106 B(  2-C , 15-H ) :   0.9731
B(  2-C , 16-H ) :   1.0022 B(  3-C ,  4-C ) :   1.4303 B(  3-C ,  8-C ) :   1.4088
B(  4-C ,  5-C ) :   1.4304 B(  4-C , 17-H ) :   0.9352 B(  5-C ,  6-C ) :   1.3517
B(  5-C , 18-H ) :   0.9319 B(  6-C ,  7-C ) :   1.4247 B(  6-C ,  9-O ) :   0.9185
B(  7-C ,  8-C ) :   1.4285 B(  7-C , 19-H ) :   0.9490 B(  8-C , 20-H ) :   0.9399
B(  9-O , 21-H ) :   0.8839

Dispersion correction           -0.007258355
FINAL SINGLE POINT ENERGY      -425.294864385622

DIPOLE MOMENT
-------------

Method             : SCF
Type of density    : Electron Density
Multiplicity       :   1
Irrep              :   0
Energy             :  -425.2957993918328725 Eh
Relativity type    :
Basis              : AO
                                X                 Y                 Z
Electronic contribution:     13.315108900      -1.525880064      -0.180161365
Nuclear contribution   :    -13.375989165       1.018128682       0.088618086
                        -----------------------------------------
Total Dipole Moment    :     -0.060880265      -0.507751382      -0.091543279
                        -----------------------------------------
Magnitude (a.u.)       :      0.519517126
Magnitude (Debye)      :      1.320507592

Rotational constants in cm-1:             0.121352             0.022743             0.019717
Rotational constants in MHz :          3638.056242           681.829515           591.091756

                             ****ORCA TERMINATED NORMALLY****
TOTAL RUN TIME: 0 days 0 hours 0 minutes 35 seconds 916 msec
