                         Program Version 6.0.0  -   RELEASE  -
|  1> ! pbe def2-sv(p) def2/J RI DEFGRID1 loosescf d4 GCP(DFT/SV(P)) printgap
|  2> %output
|  3>     printlevel normal
|  4> end
|  5> * xyz 0 1
|  6> C 2.1161056454 -1.0201207069 -0.4150325653
|  7> C 1.7540147991 0.3774623165 0.0735684589
|  8> C 0.3731446989 0.4671194839 0.7250086164
|  9> C -0.8024288409 0.2106794172 -0.238938255
| 10> H -0.4761106421 0.4006839411 -1.26772963
| 11> C -1.3489490804 -1.2115859386 -0.1261303998
| 12> O -1.8427226077 1.1582177527 -0.0378976796
| 13> H 3.1436757949 -1.0362042879 -0.7705297606
| 14> H 1.4708750668 -1.3246434547 -1.2346929094
| 15> H 2.0218943649 -1.7427142607 0.3923066399
| 16> H 2.4958393643 0.695979498 0.8095358575
| 17> H 1.7996759969 1.0771379569 -0.7639248681
| 18> H 0.3213443737 -0.2312899807 1.5628671843
| 19> H 0.2552862536 1.478920001 1.1208202089
| 20> H -1.6997904206 -1.3984704958 0.8872217882
| 21> H -2.1821255186 -1.3421074307 -0.8130573971
| 22> H -0.5785884749 -1.9364232754 -0.3657601048
| 23> H -2.2493264261 0.9931202029 0.8243564636
| 24> *
| 25>
| 26>                          ****END OF INPUT****

CARTESIAN COORDINATES (ANGSTROEM)
---------------------------------
  C      2.116106   -1.020121   -0.415033
  C      1.754015    0.377462    0.073568
  C      0.373145    0.467119    0.725009
  C     -0.802429    0.210679   -0.238938
  H     -0.476111    0.400684   -1.267730
  C     -1.348949   -1.211586   -0.126130
  O     -1.842723    1.158218   -0.037898
  H      3.143676   -1.036204   -0.770530
  H      1.470875   -1.324643   -1.234693
  H      2.021894   -1.742714    0.392307
  H      2.495839    0.695979    0.809536
  H      1.799676    1.077138   -0.763925
  H      0.321344   -0.231290    1.562867
  H      0.255286    1.478920    1.120820
  H     -1.699790   -1.398470    0.887222
  H     -2.182126   -1.342107   -0.813057
  H     -0.578588   -1.936423   -0.365760
  H     -2.249326    0.993120    0.824356

 Total Charge           Charge          ....    0
 Multiplicity           Mult            ....    1
 Number of Electrons    NEL             ....   50
 Basis Dimension        Dim             ....  108

ORBITAL ENERGIES
----------------

  NO   OCC          E(Eh)            E(eV)
   0   2.0000     -18.733926      -509.7761
   1   2.0000      -9.933792      -270.3122
   2   2.0000      -9.885363      -268.9944
   3   2.0000      -9.878423      -268.8056
   4   2.0000      -9.875354      -268.7220
   5   2.0000      -9.875106      -268.7153
   6   2.0000      -0.912258       -24.8238
   7   2.0000      -0.718063       -19.5395
   8   2.0000      -0.664180       -18.0732
   9   2.0000      -0.612941       -16.6790
  10   2.0000      -0.548104       -14.9147
  11   2.0000      -0.516662       -14.0591
  12   2.0000      -0.435222       -11.8430
  13   2.0000      -0.411036       -11.1849
  14   2.0000      -0.406348       -11.0573
  15   2.0000      -0.378603       -10.3023
  16   2.0000      -0.367214        -9.9924
  17   2.0000      -0.350822        -9.5463
  18   2.0000      -0.335840        -9.1387
  19   2.0000      -0.326459        -8.8834
  20   2.0000      -0.298800        -8.1308
  21   2.0000      -0.289795        -7.8857
  22   2.0000      -0.282636        -7.6909
  23   2.0000      -0.263025        -7.1573
  24   2.0000      -0.207050        -5.6341
  25   0.0000       0.032800         0.8925
  26   0.0000       0.044884         1.2214
  27   0.0000       0.062466         1.6998
  28   0.0000       0.072929         1.9845
  29   0.0000       0.089565         2.4372

MULLIKEN ATOMIC CHARGES
-----------------------
   0 C :   -0.293110
   1 C :   -0.194647
   2 C :   -0.142518
   3 C :    0.021712
   4 H :    0.073132
   5 C :   -0.270759
   6 O :   -0.432618
   7 H :    0.104430
   8 H :    0.115012
   9 H :    0.099271
  10 H :    0.085615
  11 H :    0.092654
  12 H :    0.071221
  13 H :    0.083065
  14 H :    0.087008
  15 H :    0.109716
  16 H :    0.102989
  17 H :    0.287828
Sum of atomic charges:   -0.0000000

LOEWDIN ATOMIC CHARGES
----------------------
   0 C :   -0.345195
   1 C :   -0.231188
   2 C :   -0.244671
   3 C :   -0.055657
   4 H :    0.110467
   5 C :   -0.353546
   6 O :   -0.332165
   7 H :    0.120636
   8 H :    0.116512
   9 H :    0.116624
  10 H :    0.116228
  11 H :    0.116318
  12 H :    0.110359
  13 H :    0.119974
  14 H :    0.113235
  15 H :    0.122341
  16 H :    0.122622
  17 H :    0.277104

  Mayer bond orders larger than 0.100000
B(  0-C ,  1-C ) :   1.1549 B(  0-C ,  7-H ) :   0.9493 B(  0-C ,  8-H ) :   0.9451
B(  0-C ,  9-H ) :   0.9522 B(  1-C ,  2-C ) :   1.1278 B(  1-C , 10-H ) :   0.9241
B(  1-C , 11-H ) :   0.9261 B(  2-C ,  3-C ) :   1.0322 B(  2-C , 12-H ) :   0.9154
B(  2-C , 13-H ) :   0.9129 B(  3-C ,  4-H ) :   0.9104 B(  3-C ,  5-C ) :   1.1202
B(  3-C ,  6-O ) :   1.0380 B(  5-C , 14-H ) :   0.9392 B(  5-C , 15-H ) :   0.9453
B(  5-C , 16-H ) :   0.9301 B(  6-O , 17-H ) :   0.8569

Dispersion correction           -0.012839634
FINAL SINGLE POINT ENERGY      -272.301299359579

DIPOLE MOMENT
-------------

Method             : SCF
Type of density    : Electron Density
Multiplicity       :   1
Irrep              :   0
Energy             :  -272.3709596725598772 Eh
Relativity type    :
Basis              : AO
                                X                 Y                 Z
Electronic contribution:     -3.857133615       3.686149911       0.044592608
Nuclear contribution   :      4.028005921      -4.078844796       0.357265828
                        -----------------------------------------
Total Dipole Moment    :      0.170872306      -0.392694885       0.401858437
                        -----------------------------------------
Magnitude (a.u.)       :      0.587279168
Magnitude (Debye)      :      1.492745014

Rotational constants in cm-1:             0.191761             0.070112             0.057327
Rotational constants in MHz :          5748.848549          2101.907529          1718.624717

                             ****ORCA TERMINATED NORMALLY****
TOTAL RUN TIME: 0 days 0 hours 0 minutes 7 seconds 810 msec
