                         Program Version 6.0.0  -   RELEASE  -
|  1> ! pbe def2-sv(p) def2/J RI DEFGRID1 loosescf d4 GCP(DFT/SV(P)) printgap
|  2> %output
|  3>     printlevel normal
|  4> end
|  5> * xyz 0 1
|  6> C 2.7644493786 0.326261399 -1.4479388386
|  7> C 2.2127281754 0.9914244929 -0.188443362
|  8> C 1.3282113608 0.1052158543 0.7064893434
|  9> H 1.3735132156 0.5341382926 1.7157775119
| 10> C 1.8554100002 -1.3319605223 0.7990944193
| 11> C -0.1362885273 0.0721572124 0.3266129775
| 12> C -1.0557603725 -0.3055357521 1.3024894004
| 13> C -2.407213045 -0.3839188782 1.0252971194
| 14> C -2.8727915892 -0.0806401743 -0.2433861703
| 15> C -1.9730612469 0.3046119772 -1.2200982959
| 16> C -0.6185721478 0.3805946677 -0.9379106163
| 17> H 1.9814660087 -0.1430717395 -2.0366079843
| 18> H 3.2563792288 1.07364172 -2.067091831
| 19> H 3.4978681424 -0.4338028282 -1.1932728442
| 20> H 3.0641719137 1.3280273861 0.4082052127
| 21> H 1.6427589587 1.8819175357 -0.4628045241
| 22> H 1.2914440854 -1.8905475174 1.5422403118
| 23> H 1.7525397822 -1.841504011 -0.1550258692
| 24> H 2.9031056787 -1.3313168271 1.0898322706
| 25> H -0.7045808005 -0.5356999231 2.2988352763
| 26> H -3.0997365045 -0.6777920736 1.8005587152
| 27> H -3.927876355 -0.139596714 -0.4655446839
| 28> H -2.3250365674 0.549606108 -2.2117173627
| 29> H 0.053570407 0.6939799226 -1.7196953279
| 30> *
| 31>
| 32>                          ****END OF INPUT****

CARTESIAN COORDINATES (ANGSTROEM)
---------------------------------
  C      2.764449    0.326261   -1.447939
  C      2.212728    0.991424   -0.188443
  C      1.328211    0.105216    0.706489
  H      1.373513    0.534138    1.715778
  C      1.855410   -1.331961    0.799094
  C     -0.136289    0.072157    0.326613
  C     -1.055760   -0.305536    1.302489
  C     -2.407213   -0.383919    1.025297
  C     -2.872792   -0.080640   -0.243386
  C     -1.973061    0.304612   -1.220098
  C     -0.618572    0.380595   -0.937911
  H      1.981466   -0.143072   -2.036608
  H      3.256379    1.073642   -2.067092
  H      3.497868   -0.433803   -1.193273
  H      3.064172    1.328027    0.408205
  H      1.642759    1.881918   -0.462805
  H      1.291444   -1.890548    1.542240
  H      1.752540   -1.841504   -0.155026
  H      2.903106   -1.331317    1.089832
  H     -0.704581   -0.535700    2.298835
  H     -3.099737   -0.677792    1.800559
  H     -3.927876   -0.139597   -0.465545
  H     -2.325037    0.549606   -2.211717
  H      0.053570    0.693980   -1.719695

 Total Charge           Charge          ....    0
 Multiplicity           Mult            ....    1
 Number of Electrons    NEL             ....   74
 Basis Dimension        Dim             ....  168

ORBITAL ENERGIES
----------------

  NO   OCC          E(Eh)            E(eV)
   0   2.0000      -9.898478      -269.3513
   1   2.0000      -9.897758      -269.3317
   2   2.0000      -9.886849      -269.0348
   3   2.0000      -9.886510      -269.0256
   4   2.0000      -9.885718      -269.0041
   5   2.0000      -9.885513      -268.9985
   6   2.0000      -9.884709      -268.9766
   7   2.0000      -9.884511      -268.9712
   8   2.0000      -9.875820      -268.7347
   9   2.0000      -9.874365      -268.6951
  10   2.0000      -0.776788       -21.1375
  11   2.0000      -0.728930       -19.8352
  12   2.0000      -0.670693       -18.2505
  13   2.0000      -0.663420       -18.0526
  14   2.0000      -0.638767       -17.3817
  15   2.0000      -0.580270       -15.7899
  16   2.0000      -0.541094       -14.7239
  17   2.0000      -0.534145       -14.5348
  18   2.0000      -0.493745       -13.4355
  19   2.0000      -0.456159       -12.4127
  20   2.0000      -0.423242       -11.5170
  21   2.0000      -0.407312       -11.0835
  22   2.0000      -0.398620       -10.8470
  23   2.0000      -0.388188       -10.5631
  24   2.0000      -0.374140       -10.1809
  25   2.0000      -0.364573        -9.9205
  26   2.0000      -0.353449        -9.6178
  27   2.0000      -0.336899        -9.1675
  28   2.0000      -0.334780        -9.1098
  29   2.0000      -0.322302        -8.7703
  30   2.0000      -0.311454        -8.4751
  31   2.0000      -0.299898        -8.1606
  32   2.0000      -0.289850        -7.8872
  33   2.0000      -0.276270        -7.5177
  34   2.0000      -0.272845        -7.4245
  35   2.0000      -0.224659        -6.1133
  36   2.0000      -0.215330        -5.8594
  37   0.0000      -0.031340        -0.8528
  38   0.0000      -0.028368        -0.7719
  39   0.0000       0.033321         0.9067
  40   0.0000       0.053661         1.4602
  41   0.0000       0.062011         1.6874

MULLIKEN ATOMIC CHARGES
-----------------------
   0 C :   -0.295125
   1 C :   -0.150771
   2 C :   -0.133568
   3 H :    0.071804
   4 C :   -0.239550
   5 C :    0.110903
   6 C :   -0.127230
   7 C :   -0.043901
   8 C :   -0.048664
   9 C :   -0.045148
  10 C :   -0.138567
  11 H :    0.116237
  12 H :    0.104094
  13 H :    0.102788
  14 H :    0.083185
  15 H :    0.091816
  16 H :    0.101036
  17 H :    0.106900
  18 H :    0.101739
  19 H :    0.040562
  20 H :    0.048474
  21 H :    0.049895
  22 H :    0.046828
  23 H :    0.046265
Sum of atomic charges:    0.0000000

LOEWDIN ATOMIC CHARGES
----------------------
   0 C :   -0.345839
   1 C :   -0.227029
   2 C :   -0.137995
   3 H :    0.123284
   4 C :   -0.322129
   5 C :   -0.026422
   6 C :   -0.122004
   7 C :   -0.122237
   8 C :   -0.130122
   9 C :   -0.121463
  10 C :   -0.129588
  11 H :    0.116161
  12 H :    0.121672
  13 H :    0.119120
  14 H :    0.118975
  15 H :    0.117942
  16 H :    0.119189
  17 H :    0.121900
  18 H :    0.117306
  19 H :    0.119736
  20 H :    0.122187
  21 H :    0.121966
  22 H :    0.121934
  23 H :    0.123458

  Mayer bond orders larger than 0.100000
B(  0-C ,  1-C ) :   1.1546 B(  0-C , 11-H ) :   0.9472 B(  0-C , 12-H ) :   0.9489
B(  0-C , 13-H ) :   0.9406 B(  1-C ,  2-C ) :   1.0918 B(  1-C , 14-H ) :   0.9169
B(  1-C , 15-H ) :   0.9224 B(  2-C ,  3-H ) :   0.8834 B(  2-C ,  4-C ) :   1.1057
B(  2-C ,  5-C ) :   1.0050 B(  4-C , 16-H ) :   0.9454 B(  4-C , 17-H ) :   0.9361
B(  4-C , 18-H ) :   0.9467 B(  5-C ,  6-C ) :   1.3765 B(  5-C , 10-C ) :   1.4173
B(  6-C ,  7-C ) :   1.3845 B(  6-C , 19-H ) :   0.9583 B(  7-C ,  8-C ) :   1.3677
B(  7-C , 20-H ) :   0.9631 B(  8-C ,  9-C ) :   1.3891 B(  8-C , 21-H ) :   0.9656
B(  9-C , 10-C ) :   1.3624 B(  9-C , 22-H ) :   0.9615 B( 10-C , 23-H ) :   0.9456

Dispersion correction           -0.025281531
FINAL SINGLE POINT ENERGY      -388.576234096006

DIPOLE MOMENT
-------------

Method             : SCF
Type of density    : Electron Density
Multiplicity       :   1
Irrep              :   0
Energy             :  -388.6458335629332055 Eh
Relativity type    :
Basis              : AO
                                X                 Y                 Z
Electronic contribution:     -9.919000887       0.875605766       1.407017707
Nuclear contribution   :     10.094285665      -0.874390691      -1.366262505
                        -----------------------------------------
Total Dipole Moment    :      0.175284779       0.001215075       0.040755202
                        -----------------------------------------
Magnitude (a.u.)       :      0.179964487
Magnitude (Debye)      :      0.457433372

Rotational constants in cm-1:             0.088657             0.029477             0.024399
Rotational constants in MHz :          2657.855705           883.713015           731.452498

                             ****ORCA TERMINATED NORMALLY****
TOTAL RUN TIME: 0 days 0 hours 0 minutes 12 seconds 675 msec
