                         Program Version 6.0.0  -   RELEASE  -
|  1> ! pbe def2-sv(p) def2/J RI DEFGRID1 loosescf d4 GCP(DFT/SV(P)) printgap
|  2> %output
|  3>     printlevel normal
|  4> end
|  5> * xyz 0 1
|  6> C -2.4347705133 0.8146543648 0.5386893387
|  7> C -1.2795420378 -0.1396955486 0.2347881402
|  8> C -1.6320782128 -1.0115768396 -0.9683778419
|  9> C -3.34063e-05 0.6720645043 4.85899e-05
| 10> C 1.2794760081 -0.1396494386 -0.2347505426
| 11> C 2.4346871924 0.8146785363 -0.5387820421
| 12> C 1.6322467945 -1.0114845582 0.9683970359
| 13> H -2.6149906276 1.4727022012 -0.3088641998
| 14> H -3.3471109562 0.2582362116 0.7406923511
| 15> H -2.208518756 1.4285474638 1.4074932713
| 16> H -1.1374763331 -0.7862482309 1.1064372545
| 17> H -2.5850585927 -1.5099389547 -0.8049174854
| 18> H -1.7133894214 -0.4020360139 -1.8659786475
| 19> H -0.8772282946 -1.7750610606 -1.1357357584
| 20> H 0.1611121373 1.3195913229 0.8662180663
| 21> H -0.1611945925 1.3196278435 -0.8660962595
| 22> H 1.1373271407 -0.7862466627 -1.1063515356
| 23> H 2.2082551717 1.428713558 -1.4074373594
| 24> H 2.6151290489 1.4725945897 0.3088269202
| 25> H 3.3469602471 0.2582581981 -0.7410830893
| 26> H 1.7147475229 -0.4017496771 1.8657528173
| 27> H 0.8769142863 -1.7743025432 1.1365617592
| 28> H 2.5846909444 -1.5106643794 0.8043308125
| 29> *
| 30>
| 31>                          ****END OF INPUT****

CARTESIAN COORDINATES (ANGSTROEM)
---------------------------------
  C     -2.434771    0.814654    0.538689
  C     -1.279542   -0.139696    0.234788
  C     -1.632078   -1.011577   -0.968378
  C     -0.000033    0.672065    0.000049
  C      1.279476   -0.139649   -0.234751
  C      2.434687    0.814679   -0.538782
  C      1.632247   -1.011485    0.968397
  H     -2.614991    1.472702   -0.308864
  H     -3.347111    0.258236    0.740692
  H     -2.208519    1.428547    1.407493
  H     -1.137476   -0.786248    1.106437
  H     -2.585059   -1.509939   -0.804917
  H     -1.713389   -0.402036   -1.865979
  H     -0.877228   -1.775061   -1.135736
  H      0.161112    1.319591    0.866218
  H     -0.161195    1.319628   -0.866096
  H      1.137327   -0.786247   -1.106352
  H      2.208255    1.428714   -1.407437
  H      2.615129    1.472595    0.308827
  H      3.346960    0.258258   -0.741083
  H      1.714748   -0.401750    1.865753
  H      0.876914   -1.774303    1.136562
  H      2.584691   -1.510664    0.804331

 Total Charge           Charge          ....    0
 Multiplicity           Mult            ....    1
 Number of Electrons    NEL             ....   58
 Basis Dimension        Dim             ....  130

ORBITAL ENERGIES
----------------

  NO   OCC          E(Eh)            E(eV)
   0   2.0000      -9.889291      -269.1013
   1   2.0000      -9.889276      -269.1009
   2   2.0000      -9.875594      -268.7286
   3   2.0000      -9.868751      -268.5424
   4   2.0000      -9.868743      -268.5421
   5   2.0000      -9.867841      -268.5176
   6   2.0000      -9.867828      -268.5172
   7   2.0000      -0.739158       -20.1135
   8   2.0000      -0.697652       -18.9841
   9   2.0000      -0.608971       -16.5709
  10   2.0000      -0.605543       -16.4777
  11   2.0000      -0.599572       -16.3152
  12   2.0000      -0.509912       -13.8754
  13   2.0000      -0.483150       -13.1472
  14   2.0000      -0.427800       -11.6410
  15   2.0000      -0.399800       -10.8791
  16   2.0000      -0.391582       -10.6555
  17   2.0000      -0.379987       -10.3400
  18   2.0000      -0.356280        -9.6949
  19   2.0000      -0.349610        -9.5134
  20   2.0000      -0.336299        -9.1512
  21   2.0000      -0.336248        -9.1498
  22   2.0000      -0.318366        -8.6632
  23   2.0000      -0.305640        -8.3169
  24   2.0000      -0.297125        -8.0852
  25   2.0000      -0.289523        -7.8783
  26   2.0000      -0.274657        -7.4738
  27   2.0000      -0.267812        -7.2875
  28   2.0000      -0.261553        -7.1172
  29   0.0000       0.031694         0.8624
  30   0.0000       0.056460         1.5363
  31   0.0000       0.064259         1.7486
  32   0.0000       0.065602         1.7851
  33   0.0000       0.090827         2.4715

MULLIKEN ATOMIC CHARGES
-----------------------
   0 C :   -0.234266
   1 C :   -0.170417
   2 C :   -0.254784
   3 C :   -0.123091
   4 C :   -0.170396
   5 C :   -0.234261
   6 C :   -0.254783
   7 H :    0.090203
   8 H :    0.095679
   9 H :    0.095163
  10 H :    0.074819
  11 H :    0.096201
  12 H :    0.090829
  13 H :    0.108567
  14 H :    0.069547
  15 H :    0.069557
  16 H :    0.074810
  17 H :    0.095159
  18 H :    0.090201
  19 H :    0.095677
  20 H :    0.090821
  21 H :    0.108561
  22 H :    0.096203
Sum of atomic charges:   -0.0000000

LOEWDIN ATOMIC CHARGES
----------------------
   0 C :   -0.327188
   1 C :   -0.159468
   2 C :   -0.330316
   3 C :   -0.208565
   4 C :   -0.159468
   5 C :   -0.327186
   6 C :   -0.330314
   7 H :    0.115150
   8 H :    0.115409
   9 H :    0.115603
  10 H :    0.113578
  11 H :    0.117238
  12 H :    0.116320
  13 H :    0.116265
  14 H :    0.111691
  15 H :    0.111692
  16 H :    0.113580
  17 H :    0.115600
  18 H :    0.115149
  19 H :    0.115412
  20 H :    0.116318
  21 H :    0.116258
  22 H :    0.117242

  Mayer bond orders larger than 0.100000
B(  0-C ,  1-C ) :   1.1154 B(  0-C ,  7-H ) :   0.9496 B(  0-C ,  8-H ) :   0.9507
B(  0-C ,  9-H ) :   0.9501 B(  1-C ,  2-C ) :   1.1065 B(  1-C ,  3-C ) :   1.0876
B(  1-C , 10-H ) :   0.8932 B(  2-C , 11-H ) :   0.9500 B(  2-C , 12-H ) :   0.9495
B(  2-C , 13-H ) :   0.9441 B(  3-C ,  4-C ) :   1.0876 B(  3-C , 14-H ) :   0.9135
B(  3-C , 15-H ) :   0.9135 B(  4-C ,  5-C ) :   1.1154 B(  4-C ,  6-C ) :   1.1065
B(  4-C , 16-H ) :   0.8932 B(  5-C , 17-H ) :   0.9501 B(  5-C , 18-H ) :   0.9496
B(  5-C , 19-H ) :   0.9507 B(  6-C , 20-H ) :   0.9495 B(  6-C , 21-H ) :   0.9441
B(  6-C , 22-H ) :   0.9500

Dispersion correction           -0.018483306
FINAL SINGLE POINT ENERGY      -275.663770726351

DIPOLE MOMENT
-------------

Method             : SCF
Type of density    : Electron Density
Multiplicity       :   1
Irrep              :   0
Energy             :  -275.7414417006207827 Eh
Relativity type    :
Basis              : AO
                                X                 Y                 Z
Electronic contribution:     -0.000181467      -0.062126189       0.000145457
Nuclear contribution   :      0.000158479       0.011280328      -0.000141740
                        -----------------------------------------
Total Dipole Moment    :     -0.000022988      -0.050845862       0.000003717
                        -----------------------------------------
Magnitude (a.u.)       :      0.050845867
Magnitude (Debye)      :      0.129239924

Rotational constants in cm-1:             0.138076             0.045990             0.043605
Rotational constants in MHz :          4139.417384          1378.743857          1307.255504

                             ****ORCA TERMINATED NORMALLY****
TOTAL RUN TIME: 0 days 0 hours 0 minutes 10 seconds 578 msec
