                         Program Version 6.0.0  -   RELEASE  -
|  1> ! pbe def2-sv(p) def2/J RI DEFGRID1 loosescf d4 GCP(DFT/SV(P)) printgap
|  2> %output
|  3>     printlevel normal
|  4> end
|  5> * xyz 0 1
|  6> C -1.215416127 0.2087268848 -0.3004809785
|  7> C 0.1312321764 0.6494076268 0.2932771113
|  8> C 1.2878108016 -0.1865630826 -0.2786099755
|  9> O 1.0770420581 -1.5432910083 0.0481759028
| 10> O 0.2993847465 2.0137936293 -0.0163516459
| 11> O -1.6837556778 -0.9977291951 0.2443673087
| 12> H -1.1232135247 0.1370831137 -1.393258121
| 13> H -1.9629860366 0.9707119721 -0.0675355983
| 14> H 0.0821442349 0.4929764804 1.3812781827
| 15> H 2.2350759198 0.1690967781 0.1484006602
| 16> H 1.314052515 -0.0422724361 -1.3666151135
| 17> H 1.7917513784 -2.0788161591 -0.3232118714
| 18> H 1.0754977571 2.3630713952 0.4445313981
| 19> H -0.9604214182 -1.6455157467 0.1981127685
| 20> *
| 21>
| 22>                          ****END OF INPUT****

CARTESIAN COORDINATES (ANGSTROEM)
---------------------------------
  C     -1.215416    0.208727   -0.300481
  C      0.131232    0.649408    0.293277
  C      1.287811   -0.186563   -0.278610
  O      1.077042   -1.543291    0.048176
  O      0.299385    2.013794   -0.016352
  O     -1.683756   -0.997729    0.244367
  H     -1.123214    0.137083   -1.393258
  H     -1.962986    0.970712   -0.067536
  H      0.082144    0.492976    1.381278
  H      2.235076    0.169097    0.148401
  H      1.314053   -0.042272   -1.366615
  H      1.791751   -2.078816   -0.323212
  H      1.075498    2.363071    0.444531
  H     -0.960421   -1.645516    0.198113

 Total Charge           Charge          ....    0
 Multiplicity           Mult            ....    1
 Number of Electrons    NEL             ....   50
 Basis Dimension        Dim             ....  100

ORBITAL ENERGIES
----------------

  NO   OCC          E(Eh)            E(eV)
   0   2.0000     -18.773576      -510.8550
   1   2.0000     -18.754069      -510.3242
   2   2.0000     -18.722618      -509.4683
   3   2.0000      -9.942620      -270.5524
   4   2.0000      -9.938374      -270.4369
   5   2.0000      -9.917257      -269.8623
   6   2.0000      -0.948431       -25.8081
   7   2.0000      -0.929004       -25.2795
   8   2.0000      -0.899790       -24.4845
   9   2.0000      -0.680011       -18.5040
  10   2.0000      -0.606386       -16.5006
  11   2.0000      -0.532210       -14.4822
  12   2.0000      -0.493254       -13.4221
  13   2.0000      -0.469860       -12.7855
  14   2.0000      -0.441471       -12.0130
  15   2.0000      -0.400559       -10.8998
  16   2.0000      -0.397624       -10.8199
  17   2.0000      -0.354931        -9.6582
  18   2.0000      -0.351248        -9.5580
  19   2.0000      -0.317147        -8.6300
  20   2.0000      -0.293989        -7.9998
  21   2.0000      -0.258204        -7.0261
  22   2.0000      -0.235813        -6.4168
  23   2.0000      -0.225527        -6.1369
  24   2.0000      -0.197870        -5.3843
  25   0.0000       0.004944         0.1345
  26   0.0000       0.018557         0.5050
  27   0.0000       0.073789         2.0079
  28   0.0000       0.082689         2.2501
  29   0.0000       0.096958         2.6384

MULLIKEN ATOMIC CHARGES
-----------------------
   0 C :    0.058135
   1 C :   -0.042879
   2 C :    0.013000
   3 O :   -0.441912
   4 O :   -0.419687
   5 O :   -0.449938
   6 H :    0.061294
   7 H :    0.092296
   8 H :    0.074514
   9 H :    0.066240
  10 H :    0.078761
  11 H :    0.312854
  12 H :    0.299956
  13 H :    0.297366
Sum of atomic charges:   -0.0000000

LOEWDIN ATOMIC CHARGES
----------------------
   0 C :   -0.121013
   1 C :   -0.090142
   2 C :   -0.138653
   3 O :   -0.335500
   4 O :   -0.319808
   5 O :   -0.346281
   6 H :    0.093198
   7 H :    0.115372
   8 H :    0.102229
   9 H :    0.091622
  10 H :    0.100031
  11 H :    0.293713
  12 H :    0.285922
  13 H :    0.269310

  Mayer bond orders larger than 0.100000
B(  0-C ,  1-C ) :   1.0385 B(  0-C ,  5-O ) :   1.0878 B(  0-C ,  6-H ) :   0.9118
B(  0-C ,  7-H ) :   0.9248 B(  1-C ,  2-C ) :   1.0455 B(  1-C ,  4-O ) :   1.0550
B(  1-C ,  8-H ) :   0.9046 B(  2-C ,  3-O ) :   1.0478 B(  2-C ,  9-H ) :   0.9210
B(  2-C , 10-H ) :   0.9092 B(  3-O , 11-H ) :   0.8425 B(  4-O , 12-H ) :   0.8487
B(  5-O , 13-H ) :   0.8210

Dispersion correction           -0.009275641
FINAL SINGLE POINT ENERGY      -344.007898615337

DIPOLE MOMENT
-------------

Method             : SCF
Type of density    : Electron Density
Multiplicity       :   1
Irrep              :   0
Energy             :  -344.0822155134853233 Eh
Relativity type    :
Basis              : AO
                                X                 Y                 Z
Electronic contribution:     -0.667220117      -0.460237143       0.772849680
Nuclear contribution   :      2.295743832       0.335856099      -0.913711038
                        -----------------------------------------
Total Dipole Moment    :      1.628523715      -0.124381044      -0.140861358
                        -----------------------------------------
Magnitude (a.u.)       :      1.639329758
Magnitude (Debye)      :      4.166845100

Rotational constants in cm-1:             0.129773             0.112710             0.064929
Rotational constants in MHz :          3890.485741          3378.964922          1946.518772

                             ****ORCA TERMINATED NORMALLY****
TOTAL RUN TIME: 0 days 0 hours 0 minutes 6 seconds 565 msec
