                         Program Version 6.0.0  -   RELEASE  -
|  1> ! r2scan-3c def2/J RI DEFGRID2 scfconv6 printgap
|  2> %output
|  3>     printlevel normal
|  4> end
|  5> * xyz 0 1
|  6> C -2.6604306854 -0.1325304394 -0.7347809768
|  7> C -1.7291087218 0.683709909 0.1588346702
|  8> C -0.412629533 -0.0236352773 0.3595769789
|  9> O -0.2920646812 -1.1956160404 0.6486848727
| 10> O 0.6137385372 0.8032259451 0.1978184063
| 11> C 1.9450824795 0.2830670781 0.3551819407
| 12> C 2.4449513932 -0.3437218469 -0.9374268894
| 13> H -2.7588229725 -1.1411500864 -0.3408076502
| 14> H -3.6413061616 0.3308484807 -0.7734855466
| 15> H -2.261999096 -0.1951603156 -1.7441941925
| 16> H -2.1829388152 0.8004309607 1.1452540139
| 17> H -1.5341937956 1.6702102077 -0.2589787762
| 18> H 2.545654349 1.1485217312 0.6363497465
| 19> H 1.9380601223 -0.4548405601 1.1632118459
| 20> H 3.4739122397 -0.66303599 -0.8085740477
| 21> H 1.8357758278 -1.2085953657 -1.190836551
| 22> H 2.390963575 0.3777151028 -1.748356034
| 23> *
| 24>
| 25>                          ****END OF INPUT****

CARTESIAN COORDINATES (ANGSTROEM)
---------------------------------
  C     -2.660431   -0.132530   -0.734781
  C     -1.729109    0.683710    0.158835
  C     -0.412630   -0.023635    0.359577
  O     -0.292065   -1.195616    0.648685
  O      0.613739    0.803226    0.197818
  C      1.945082    0.283067    0.355182
  C      2.444951   -0.343722   -0.937427
  H     -2.758823   -1.141150   -0.340808
  H     -3.641306    0.330848   -0.773486
  H     -2.261999   -0.195160   -1.744194
  H     -2.182939    0.800431    1.145254
  H     -1.534194    1.670210   -0.258979
  H      2.545654    1.148522    0.636350
  H      1.938060   -0.454841    1.163212
  H      3.473912   -0.663036   -0.808574
  H      1.835776   -1.208595   -1.190837
  H      2.390964    0.377715   -1.748356

 Total Charge           Charge          ....    0
 Multiplicity           Mult            ....    1
 Number of Electrons    NEL             ....   56
 Basis Dimension        Dim             ....  193

ORBITAL ENERGIES
----------------

  NO   OCC          E(Eh)            E(eV)
   0   2.0000     -18.996766      -516.9283
   1   2.0000     -18.927806      -515.0518
   2   2.0000     -10.151636      -276.2401
   3   2.0000     -10.090967      -274.5892
   4   2.0000     -10.043285      -273.2917
   5   2.0000     -10.028554      -272.8908
   6   2.0000     -10.025651      -272.8118
   7   2.0000      -1.071098       -29.1461
   8   2.0000      -0.975610       -26.5477
   9   2.0000      -0.762926       -20.7603
  10   2.0000      -0.730289       -19.8722
  11   2.0000      -0.644173       -17.5288
  12   2.0000      -0.594896       -16.1879
  13   2.0000      -0.519809       -14.1447
  14   2.0000      -0.472594       -12.8599
  15   2.0000      -0.450888       -12.2693
  16   2.0000      -0.445857       -12.1324
  17   2.0000      -0.411615       -11.2006
  18   2.0000      -0.405609       -11.0372
  19   2.0000      -0.377902       -10.2832
  20   2.0000      -0.367628       -10.0037
  21   2.0000      -0.353920        -9.6307
  22   2.0000      -0.336362        -9.1529
  23   2.0000      -0.328009        -8.9256
  24   2.0000      -0.319768        -8.7013
  25   2.0000      -0.305018        -8.3000
  26   2.0000      -0.271483        -7.3874
  27   2.0000      -0.236395        -6.4326
  28   0.0000      -0.014753        -0.4015
  29   0.0000       0.077598         2.1116
  30   0.0000       0.092605         2.5199
  31   0.0000       0.116867         3.1801
  32   0.0000       0.125356         3.4111

MULLIKEN ATOMIC CHARGES
-----------------------
   0 C :   -0.460491
   1 C :   -0.300178
   2 C :    0.403777
   3 O :   -0.437421
   4 O :   -0.179527
   5 C :   -0.134026
   6 C :   -0.470830
   7 H :    0.172097
   8 H :    0.148778
   9 H :    0.143916
  10 H :    0.164043
  11 H :    0.164299
  12 H :    0.147663
  13 H :    0.166211
  14 H :    0.146863
  15 H :    0.173512
  16 H :    0.151316
Sum of atomic charges:   -0.0000000

LOEWDIN ATOMIC CHARGES
----------------------
   0 C :   -0.397665
   1 C :   -0.237718
   2 C :    0.360533
   3 O :   -0.438465
   4 O :   -0.596821
   5 C :    0.026929
   6 C :   -0.390552
   7 H :    0.166702
   8 H :    0.151314
   9 H :    0.154546
  10 H :    0.179378
  11 H :    0.174786
  12 H :    0.177671
  13 H :    0.187461
  14 H :    0.159084
  15 H :    0.165854
  16 H :    0.156961

  Mayer bond orders larger than 0.100000
B(  0-C ,  1-C ) :   0.9052 B(  0-C ,  7-H ) :   0.9701 B(  0-C ,  8-H ) :   0.9741
B(  0-C ,  9-H ) :   0.9759 B(  1-C ,  2-C ) :   0.9596 B(  1-C , 10-H ) :   0.9410
B(  1-C , 11-H ) :   0.9846 B(  2-C ,  3-O ) :   1.8201 B(  2-C ,  4-O ) :   1.0684
B(  4-O ,  5-C ) :   0.8197 B(  5-C ,  6-C ) :   0.9379 B(  5-C , 12-H ) :   0.9607
B(  5-C , 13-H ) :   0.9661 B(  6-C , 14-H ) :   0.9651 B(  6-C , 15-H ) :   0.9715
B(  6-C , 16-H ) :   0.9737

Dispersion correction           -0.003971880
FINAL SINGLE POINT ENERGY      -346.936777734772

DIPOLE MOMENT
-------------

Method             : SCF
Type of density    : Electron Density
Multiplicity       :   1
Irrep              :   0
Energy             :  -346.9432554269943125 Eh
Relativity type    :
Basis              : AO
                                X                 Y                 Z
Electronic contribution:      0.416207423       0.034573871       3.429882185
Nuclear contribution   :     -0.178074654       0.618011170      -3.665456435
                        -----------------------------------------
Total Dipole Moment    :      0.238132769       0.652585041      -0.235574250
                        -----------------------------------------
Magnitude (a.u.)       :      0.733532330
Magnitude (Debye)      :      1.864491008

Rotational constants in cm-1:             0.187814             0.047817             0.046498
Rotational constants in MHz :          5630.518763          1433.521253          1393.971545

                             ****ORCA TERMINATED NORMALLY****
TOTAL RUN TIME: 0 days 0 hours 0 minutes 23 seconds 210 msec
