                         Program Version 6.0.0  -   RELEASE  -
|  1> ! r2scan-3c def2/J RI DEFGRID2 scfconv6 printgap
|  2> %output
|  3>     printlevel normal
|  4> end
|  5> %cpcm
|  6>     smd true
|  7>     smdsolvent "water"
|  8> end
|  9> * xyz 0 1
| 10> C -2.6604306854 -0.1325304394 -0.7347809768
| 11> C -1.7291087218 0.683709909 0.1588346702
| 12> C -0.412629533 -0.0236352773 0.3595769789
| 13> O -0.2920646812 -1.1956160404 0.6486848727
| 14> O 0.6137385372 0.8032259451 0.1978184063
| 15> C 1.9450824795 0.2830670781 0.3551819407
| 16> C 2.4449513932 -0.3437218469 -0.9374268894
| 17> H -2.7588229725 -1.1411500864 -0.3408076502
| 18> H -3.6413061616 0.3308484807 -0.7734855466
| 19> H -2.261999096 -0.1951603156 -1.7441941925
| 20> H -2.1829388152 0.8004309607 1.1452540139
| 21> H -1.5341937956 1.6702102077 -0.2589787762
| 22> H 2.545654349 1.1485217312 0.6363497465
| 23> H 1.9380601223 -0.4548405601 1.1632118459
| 24> H 3.4739122397 -0.66303599 -0.8085740477
| 25> H 1.8357758278 -1.2085953657 -1.190836551
| 26> H 2.390963575 0.3777151028 -1.748356034
| 27> *
| 28>
| 29>                          ****END OF INPUT****

CARTESIAN COORDINATES (ANGSTROEM)
---------------------------------
  C     -2.660431   -0.132530   -0.734781
  C     -1.729109    0.683710    0.158835
  C     -0.412630   -0.023635    0.359577
  O     -0.292065   -1.195616    0.648685
  O      0.613739    0.803226    0.197818
  C      1.945082    0.283067    0.355182
  C      2.444951   -0.343722   -0.937427
  H     -2.758823   -1.141150   -0.340808
  H     -3.641306    0.330848   -0.773486
  H     -2.261999   -0.195160   -1.744194
  H     -2.182939    0.800431    1.145254
  H     -1.534194    1.670210   -0.258979
  H      2.545654    1.148522    0.636350
  H      1.938060   -0.454841    1.163212
  H      3.473912   -0.663036   -0.808574
  H      1.835776   -1.208595   -1.190837
  H      2.390964    0.377715   -1.748356

 Total Charge           Charge          ....    0
 Multiplicity           Mult            ....    1
 Number of Electrons    NEL             ....   56
 Basis Dimension        Dim             ....  193

ORBITAL ENERGIES
----------------

  NO   OCC          E(Eh)            E(eV)
   0   2.0000     -19.002515      -517.0847
   1   2.0000     -18.943296      -515.4733
   2   2.0000     -10.162086      -276.5244
   3   2.0000     -10.083133      -274.3760
   4   2.0000     -10.037451      -273.1329
   5   2.0000     -10.019091      -272.6333
   6   2.0000     -10.018244      -272.6103
   7   2.0000      -1.078460       -29.3464
   8   2.0000      -0.988969       -26.9112
   9   2.0000      -0.759286       -20.6612
  10   2.0000      -0.723468       -19.6866
  11   2.0000      -0.639697       -17.4071
  12   2.0000      -0.589265       -16.0347
  13   2.0000      -0.518212       -14.1013
  14   2.0000      -0.473106       -12.8739
  15   2.0000      -0.457227       -12.4418
  16   2.0000      -0.447239       -12.1700
  17   2.0000      -0.413430       -11.2500
  18   2.0000      -0.401355       -10.9214
  19   2.0000      -0.373104       -10.1527
  20   2.0000      -0.364633        -9.9222
  21   2.0000      -0.347625        -9.4593
  22   2.0000      -0.333288        -9.0692
  23   2.0000      -0.324672        -8.8348
  24   2.0000      -0.315025        -8.5723
  25   2.0000      -0.302574        -8.2334
  26   2.0000      -0.278925        -7.5899
  27   2.0000      -0.252155        -6.8615
  28   0.0000      -0.022475        -0.6116
  29   0.0000       0.079918         2.1747
  30   0.0000       0.099636         2.7112
  31   0.0000       0.126884         3.4527
  32   0.0000       0.134372         3.6564

MULLIKEN ATOMIC CHARGES
-----------------------
   0 C :   -0.495981
   1 C :   -0.309928
   2 C :    0.443641
   3 O :   -0.519690
   4 O :   -0.199805
   5 C :   -0.140233
   6 C :   -0.495036
   7 H :    0.164092
   8 H :    0.168935
   9 H :    0.163463
  10 H :    0.193622
  11 H :    0.178576
  12 H :    0.173593
  13 H :    0.170620
  14 H :    0.170320
  15 H :    0.168308
  16 H :    0.165504
Sum of atomic charges:   -0.0000000

LOEWDIN ATOMIC CHARGES
----------------------
   0 C :   -0.401799
   1 C :   -0.233777
   2 C :    0.370919
   3 O :   -0.497366
   4 O :   -0.599643
   5 C :    0.031481
   6 C :   -0.393245
   7 H :    0.162019
   8 H :    0.159228
   9 H :    0.159689
  10 H :    0.190130
  11 H :    0.182153
  12 H :    0.188972
  13 H :    0.188887
  14 H :    0.167703
  15 H :    0.162655
  16 H :    0.161994

  Mayer bond orders larger than 0.100000
B(  0-C ,  1-C ) :   0.8861 B(  0-C ,  7-H ) :   0.9722 B(  0-C ,  8-H ) :   0.9681
B(  0-C ,  9-H ) :   0.9738 B(  1-C ,  2-C ) :   0.9634 B(  1-C , 10-H ) :   0.9323
B(  1-C , 11-H ) :   0.9756 B(  2-C ,  3-O ) :   1.7563 B(  2-C ,  4-O ) :   1.0912
B(  4-O ,  5-C ) :   0.8012 B(  5-C ,  6-C ) :   0.9369 B(  5-C , 12-H ) :   0.9514
B(  5-C , 13-H ) :   0.9623 B(  6-C , 14-H ) :   0.9602 B(  6-C , 15-H ) :   0.9696
B(  6-C , 16-H ) :   0.9697

Dispersion correction           -0.003971880
FINAL SINGLE POINT ENERGY      -346.941612008957

DIPOLE MOMENT
-------------

Method             : SCF
Type of density    : Electron Density
Multiplicity       :   1
Irrep              :   0
Energy             :  -346.9480897011791285 Eh
Relativity type    :
Basis              : AO
                                X                 Y                 Z
Electronic contribution:      0.490601827       0.378032712       3.354384377
Nuclear contribution   :     -0.178074654       0.618011170      -3.665456435
                        -----------------------------------------
Total Dipole Moment    :      0.312527173       0.996043882      -0.311072059
                        -----------------------------------------
Magnitude (a.u.)       :      1.089285304
Magnitude (Debye)      :      2.768743207

Rotational constants in cm-1:             0.187814             0.047817             0.046498
Rotational constants in MHz :          5630.518763          1433.521253          1393.971545

                             ****ORCA TERMINATED NORMALLY****
TOTAL RUN TIME: 0 days 0 hours 0 minutes 25 seconds 305 msec
