                         Program Version 6.0.0  -   RELEASE  -
|  1> ! pbe def2-sv(p) def2/J RI DEFGRID1 loosescf d4 GCP(DFT/SV(P)) printgap
|  2> %output
|  3>     printlevel normal
|  4> end
|  5> * xyz 0 1
|  6> C -1.3659058535 -0.0933865192 0.6602232083
|  7> C 0.1052881867 0.3039869407 0.4327853033
|  8> C 0.9029585561 -0.780490658 -0.3045802251
|  9> O 2.2241927394 -0.7749685971 0.1905428885
| 10> O 0.2128747862 1.4892860728 -0.3252368458
| 11> O -2.1294136696 -0.1463907777 -0.5203984764
| 12> H -1.853712672 0.6636851205 1.2791994328
| 13> H -1.3976510496 -1.0517221515 1.194658678
| 14> H 0.577134377 0.4362240131 1.4189947279
| 15> H 0.8885075389 -0.5455679128 -1.3746853999
| 16> H 0.4453668246 -1.763493288 -0.1301357532
| 17> H 2.7741538887 -1.3573879636 -0.3515616738
| 18> H -0.303424437 2.1908536011 0.0941558337
| 19> H -1.7519680462 -0.796619054 -1.1271093369
| 20> *
| 21>
| 22>                          ****END OF INPUT****

CARTESIAN COORDINATES (ANGSTROEM)
---------------------------------
  C     -1.365906   -0.093387    0.660223
  C      0.105288    0.303987    0.432785
  C      0.902959   -0.780491   -0.304580
  O      2.224193   -0.774969    0.190543
  O      0.212875    1.489286   -0.325237
  O     -2.129414   -0.146391   -0.520398
  H     -1.853713    0.663685    1.279199
  H     -1.397651   -1.051722    1.194659
  H      0.577134    0.436224    1.418995
  H      0.888508   -0.545568   -1.374685
  H      0.445367   -1.763493   -0.130136
  H      2.774154   -1.357388   -0.351562
  H     -0.303424    2.190854    0.094156
  H     -1.751968   -0.796619   -1.127109

 Total Charge           Charge          ....    0
 Multiplicity           Mult            ....    1
 Number of Electrons    NEL             ....   50
 Basis Dimension        Dim             ....  100

ORBITAL ENERGIES
----------------

  NO   OCC          E(Eh)            E(eV)
   0   2.0000     -18.746208      -510.1103
   1   2.0000     -18.745799      -510.0991
   2   2.0000     -18.741473      -509.9814
   3   2.0000      -9.936373      -270.3825
   4   2.0000      -9.934701      -270.3370
   5   2.0000      -9.931910      -270.2610
   6   2.0000      -0.934316       -25.4240
   7   2.0000      -0.920550       -25.0494
   8   2.0000      -0.908013       -24.7083
   9   2.0000      -0.681027       -18.5317
  10   2.0000      -0.611638       -16.6435
  11   2.0000      -0.531127       -14.4527
  12   2.0000      -0.483233       -13.1494
  13   2.0000      -0.477908       -13.0045
  14   2.0000      -0.420353       -11.4384
  15   2.0000      -0.406921       -11.0729
  16   2.0000      -0.390874       -10.6362
  17   2.0000      -0.378077       -10.2880
  18   2.0000      -0.348680        -9.4881
  19   2.0000      -0.298239        -8.1155
  20   2.0000      -0.286687        -7.8011
  21   2.0000      -0.267422        -7.2769
  22   2.0000      -0.227440        -6.1890
  23   2.0000      -0.216562        -5.8930
  24   2.0000      -0.204428        -5.5628
  25   0.0000       0.016837         0.4582
  26   0.0000       0.027283         0.7424
  27   0.0000       0.040460         1.1010
  28   0.0000       0.080625         2.1939
  29   0.0000       0.086156         2.3444

MULLIKEN ATOMIC CHARGES
-----------------------
   0 C :   -0.010835
   1 C :    0.018277
   2 C :    0.003923
   3 O :   -0.432905
   4 O :   -0.416818
   5 O :   -0.431626
   6 H :    0.081044
   7 H :    0.074976
   8 H :    0.073752
   9 H :    0.082115
  10 H :    0.065121
  11 H :    0.297943
  12 H :    0.296747
  13 H :    0.298287
Sum of atomic charges:    0.0000000

LOEWDIN ATOMIC CHARGES
----------------------
   0 C :   -0.139656
   1 C :   -0.087642
   2 C :   -0.130759
   3 O :   -0.341263
   4 O :   -0.324231
   5 O :   -0.335744
   6 H :    0.108740
   7 H :    0.096731
   8 H :    0.107764
   9 H :    0.104182
  10 H :    0.090111
  11 H :    0.285059
  12 H :    0.284592
  13 H :    0.282117

  Mayer bond orders larger than 0.100000
B(  0-C ,  1-C ) :   1.0181 B(  0-C ,  5-O ) :   1.0805 B(  0-C ,  6-H ) :   0.9239
B(  0-C ,  7-H ) :   0.9096 B(  1-C ,  2-C ) :   1.0367 B(  1-C ,  4-O ) :   1.0787
B(  1-C ,  8-H ) :   0.8942 B(  2-C ,  3-O ) :   1.0977 B(  2-C ,  9-H ) :   0.9033
B(  2-C , 10-H ) :   0.9253 B(  3-O , 11-H ) :   0.8515 B(  4-O , 12-H ) :   0.8517
B(  5-O , 13-H ) :   0.8522

Dispersion correction           -0.009087760
FINAL SINGLE POINT ENERGY      -343.998815873560

DIPOLE MOMENT
-------------

Method             : SCF
Type of density    : Electron Density
Multiplicity       :   1
Irrep              :   0
Energy             :  -344.0712267380862386 Eh
Relativity type    :
Basis              : AO
                                X                 Y                 Z
Electronic contribution:      0.678567511       1.444569531      -0.940529152
Nuclear contribution   :     -0.578593473      -2.078089046       0.931743474
                        -----------------------------------------
Total Dipole Moment    :      0.099974038      -0.633519515      -0.008785678
                        -----------------------------------------
Magnitude (a.u.)       :      0.641419498
Magnitude (Debye)      :      1.630358798

Rotational constants in cm-1:             0.199721             0.072790             0.062616
Rotational constants in MHz :          5987.477111          2182.196635          1877.183788

                             ****ORCA TERMINATED NORMALLY****
TOTAL RUN TIME: 0 days 0 hours 0 minutes 6 seconds 748 msec
