                         Program Version 6.0.0  -   RELEASE  -
|  1> ! wb97x-v def2-tzvp def2/J RIJCOSX DEFGRID2 scfconv7 GCP(DFT/TZ) printgap
|  2> %output
|  3>     printlevel normal
|  4> end
|  5> * xyz 0 1
|  6> C 2.3217024366006314 -0.8502894341642515 -0.5429563530544667
|  7> C 1.251756343461019 -0.11870739209422869 0.24573825272527472
|  8> C 1.5543103904901736 1.3692035669176983 0.3652700038308086
|  9> O 0.004667620677945081 -0.35382789484486676 -0.44225560034074407
| 10> C -1.182421707757633 0.005400737027571861 0.3084272970171184
| 11> C -1.8993357740599794 1.1433281822655557 -0.40054317424805674
| 12> C -2.055573938257741 -1.2328047177358978 0.4317381028369749
| 13> H 3.295114770775439 -0.7269694365762938 -0.059254604484521044
| 14> H 2.099177795779596 -1.9197470357908852 -0.6054698023257835
| 15> H 2.3899153752628886 -0.44603159097960515 -1.5588651342842856
| 16> H 1.1786703648175638 -0.5579854937157619 1.2536220507058167
| 17> H 1.634983110007059 1.8206509871037078 -0.6298351308963799
| 18> H 2.5043925405628493 1.5149876803077724 0.8898423205083356
| 19> H 0.7781763579470115 1.8964154361407357 0.9279731581054412
| 20> H -0.877956663780423 0.332508515629416 1.3116164642461856
| 21> H -1.2509452271731663 2.0193633285704977 -0.4938884429527236
| 22> H -2.206571558409126 0.829980784322655 -1.404467143813697
| 23> H -2.796111006812848 1.4348740313835924 0.15613365924952094
| 24> H -1.5186913030548226 -2.0367497594475226 0.9446668199487558
| 25> H -2.3525102712092125 -1.5883530432954336 -0.5611307860443367
| 26> H -2.9634942402098234 -1.0062485287082386 1.0001168922943202
| 27> *
| 28>
| 29>                          ****END OF INPUT****

CARTESIAN COORDINATES (ANGSTROEM)
---------------------------------
  C      2.321702   -0.850289   -0.542956
  C      1.251756   -0.118707    0.245738
  C      1.554310    1.369204    0.365270
  O      0.004668   -0.353828   -0.442256
  C     -1.182422    0.005401    0.308427
  C     -1.899336    1.143328   -0.400543
  C     -2.055574   -1.232805    0.431738
  H      3.295115   -0.726969   -0.059255
  H      2.099178   -1.919747   -0.605470
  H      2.389915   -0.446032   -1.558865
  H      1.178670   -0.557985    1.253622
  H      1.634983    1.820651   -0.629835
  H      2.504393    1.514988    0.889842
  H      0.778176    1.896415    0.927973
  H     -0.877957    0.332509    1.311616
  H     -1.250945    2.019363   -0.493888
  H     -2.206572    0.829981   -1.404467
  H     -2.796111    1.434874    0.156134
  H     -1.518691   -2.036750    0.944667
  H     -2.352510   -1.588353   -0.561131
  H     -2.963494   -1.006249    1.000117

 Total Charge           Charge          ....    0
 Multiplicity           Mult            ....    1
 Number of Electrons    NEL             ....   58
 Basis Dimension        Dim             ....  301

ORBITAL ENERGIES
----------------

  NO   OCC          E(Eh)            E(eV)
   0   2.0000     -21.659090      -589.3738
   1   2.0000     -12.094884      -329.1185
   2   2.0000     -12.093466      -329.0799
   3   2.0000     -12.034273      -327.4692
   4   2.0000     -12.031260      -327.3872
   5   2.0000     -12.030886      -327.3770
   6   2.0000     -12.030828      -327.3755
   7   2.0000      -1.660488       -45.1842
   8   2.0000      -1.315610       -35.7996
   9   2.0000      -1.267324       -34.4856
  10   2.0000      -1.183720       -32.2107
  11   2.0000      -1.179158       -32.0865
  12   2.0000      -1.112494       -30.2725
  13   2.0000      -1.058464       -28.8023
  14   2.0000      -0.973528       -26.4911
  15   2.0000      -0.942493       -25.6465
  16   2.0000      -0.934224       -25.4215
  17   2.0000      -0.869852       -23.6699
  18   2.0000      -0.866662       -23.5831
  19   2.0000      -0.842857       -22.9353
  20   2.0000      -0.825950       -22.4752
  21   2.0000      -0.817348       -22.2412
  22   2.0000      -0.811213       -22.0742
  23   2.0000      -0.807116       -21.9627
  24   2.0000      -0.805115       -21.9083
  25   2.0000      -0.785255       -21.3679
  26   2.0000      -0.780022       -21.2255
  27   2.0000      -0.764833       -20.8122
  28   2.0000      -0.757431       -20.6107
  29   0.0000      -0.167453        -4.5566
  30   0.0000      -0.103190        -2.8079
  31   0.0000      -0.033431        -0.9097
  32   0.0000      -0.012993        -0.3536
  33   0.0000      -0.002406        -0.0655

MULLIKEN ATOMIC CHARGES
-----------------------
   0 C :   -0.318182
   1 C :    0.075140
   2 C :   -0.335207
   3 O :   -0.305128
   4 C :    0.083929
   5 C :   -0.320401
   6 C :   -0.318082
   7 H :    0.100264
   8 H :    0.115509
   9 H :    0.109991
  10 H :    0.062974
  11 H :    0.113644
  12 H :    0.111204
  13 H :    0.110876
  14 H :    0.066367
  15 H :    0.111562
  16 H :    0.110440
  17 H :    0.102758
  18 H :    0.108976
  19 H :    0.111083
  20 H :    0.102284
Sum of atomic charges:    0.0000000

LOEWDIN ATOMIC CHARGES
----------------------
   0 C :   -0.280988
   1 C :   -0.373287
   2 C :   -0.286976
   3 O :    0.167933
   4 C :   -0.362538
   5 C :   -0.284964
   6 C :   -0.283891
   7 H :    0.120239
   8 H :    0.120585
   9 H :    0.122065
  10 H :    0.129676
  11 H :    0.122070
  12 H :    0.121636
  13 H :    0.116365
  14 H :    0.133021
  15 H :    0.117251
  16 H :    0.122352
  17 H :    0.119577
  18 H :    0.118572
  19 H :    0.122134
  20 H :    0.119169

  Mayer bond orders larger than 0.100000
B(  0-C ,  1-C ) :   0.9920 B(  0-C ,  7-H ) :   0.9733 B(  0-C ,  8-H ) :   0.9802
B(  0-C ,  9-H ) :   0.9776 B(  1-C ,  2-C ) :   0.9659 B(  1-C ,  3-O ) :   1.0160
B(  1-C , 10-H ) :   0.9765 B(  2-C , 11-H ) :   0.9759 B(  2-C , 12-H ) :   0.9727
B(  2-C , 13-H ) :   0.9745 B(  3-O ,  4-C ) :   0.9071 B(  4-C ,  5-C ) :   0.9871
B(  4-C ,  6-C ) :   0.9941 B(  4-C , 14-H ) :   0.9679 B(  5-C , 15-H ) :   0.9786
B(  5-C , 16-H ) :   0.9741 B(  5-C , 17-H ) :   0.9765 B(  6-C , 18-H ) :   0.9785
B(  6-C , 19-H ) :   0.9773 B(  6-C , 20-H ) :   0.9772

FINAL SINGLE POINT ENERGY      -312.304822804504

DIPOLE MOMENT
-------------

Method             : SCF
Type of density    : Electron Density
Multiplicity       :   1
Irrep              :   0
Energy             :  -312.3201217271040377 Eh
Relativity type    :
Basis              : AO
                                X                 Y                 Z
Electronic contribution:      0.102437222      -1.303081183      -0.746748243
Nuclear contribution   :     -0.064166723       1.501231551       1.220637083
                        -----------------------------------------
Total Dipole Moment    :      0.038270499       0.198150368       0.473888840
                        -----------------------------------------
Magnitude (a.u.)       :      0.515071677
Magnitude (Debye)      :      1.309208159

Rotational constants in cm-1:             0.137887             0.053580             0.043860
Rotational constants in MHz :          4133.740693          1606.289567          1314.881041

                             ****ORCA TERMINATED NORMALLY****
TOTAL RUN TIME: 0 days 0 hours 2 minutes 11 seconds 243 msec
