                         Program Version 6.0.0  -   RELEASE  -
|  1> ! wb97x-v def2-tzvp def2/J RIJCOSX DEFGRID2 scfconv7 GCP(DFT/TZ) printgap
|  2> %output
|  3>     printlevel normal
|  4> end
|  5> %cpcm
|  6>     smd true
|  7>     smdsolvent "water"
|  8> end
|  9> * xyz 0 1
| 10> C 2.3217024366006314 -0.8502894341642515 -0.5429563530544667
| 11> C 1.251756343461019 -0.11870739209422869 0.24573825272527472
| 12> C 1.5543103904901736 1.3692035669176983 0.3652700038308086
| 13> O 0.004667620677945081 -0.35382789484486676 -0.44225560034074407
| 14> C -1.182421707757633 0.005400737027571861 0.3084272970171184
| 15> C -1.8993357740599794 1.1433281822655557 -0.40054317424805674
| 16> C -2.055573938257741 -1.2328047177358978 0.4317381028369749
| 17> H 3.295114770775439 -0.7269694365762938 -0.059254604484521044
| 18> H 2.099177795779596 -1.9197470357908852 -0.6054698023257835
| 19> H 2.3899153752628886 -0.44603159097960515 -1.5588651342842856
| 20> H 1.1786703648175638 -0.5579854937157619 1.2536220507058167
| 21> H 1.634983110007059 1.8206509871037078 -0.6298351308963799
| 22> H 2.5043925405628493 1.5149876803077724 0.8898423205083356
| 23> H 0.7781763579470115 1.8964154361407357 0.9279731581054412
| 24> H -0.877956663780423 0.332508515629416 1.3116164642461856
| 25> H -1.2509452271731663 2.0193633285704977 -0.4938884429527236
| 26> H -2.206571558409126 0.829980784322655 -1.404467143813697
| 27> H -2.796111006812848 1.4348740313835924 0.15613365924952094
| 28> H -1.5186913030548226 -2.0367497594475226 0.9446668199487558
| 29> H -2.3525102712092125 -1.5883530432954336 -0.5611307860443367
| 30> H -2.9634942402098234 -1.0062485287082386 1.0001168922943202
| 31> *
| 32>
| 33>                          ****END OF INPUT****

CARTESIAN COORDINATES (ANGSTROEM)
---------------------------------
  C      2.321702   -0.850289   -0.542956
  C      1.251756   -0.118707    0.245738
  C      1.554310    1.369204    0.365270
  O      0.004668   -0.353828   -0.442256
  C     -1.182422    0.005401    0.308427
  C     -1.899336    1.143328   -0.400543
  C     -2.055574   -1.232805    0.431738
  H      3.295115   -0.726969   -0.059255
  H      2.099178   -1.919747   -0.605470
  H      2.389915   -0.446032   -1.558865
  H      1.178670   -0.557985    1.253622
  H      1.634983    1.820651   -0.629835
  H      2.504393    1.514988    0.889842
  H      0.778176    1.896415    0.927973
  H     -0.877957    0.332509    1.311616
  H     -1.250945    2.019363   -0.493888
  H     -2.206572    0.829981   -1.404467
  H     -2.796111    1.434874    0.156134
  H     -1.518691   -2.036750    0.944667
  H     -2.352510   -1.588353   -0.561131
  H     -2.963494   -1.006249    1.000117

 Total Charge           Charge          ....    0
 Multiplicity           Mult            ....    1
 Number of Electrons    NEL             ....   58
 Basis Dimension        Dim             ....  301

ORBITAL ENERGIES
----------------

  NO   OCC          E(Eh)            E(eV)
   0   2.0000     -21.665518      -589.5487
   1   2.0000     -12.090322      -328.9944
   2   2.0000     -12.088763      -328.9520
   3   2.0000     -12.026120      -327.2474
   4   2.0000     -12.025317      -327.2255
   5   2.0000     -12.024807      -327.2116
   6   2.0000     -12.024763      -327.2104
   7   2.0000      -1.667005       -45.3615
   8   2.0000      -1.312565       -35.7167
   9   2.0000      -1.262370       -34.3508
  10   2.0000      -1.178173       -32.0597
  11   2.0000      -1.173815       -31.9411
  12   2.0000      -1.111939       -30.2574
  13   2.0000      -1.056867       -28.7588
  14   2.0000      -0.970731       -26.4149
  15   2.0000      -0.945739       -25.7349
  16   2.0000      -0.935088       -25.4450
  17   2.0000      -0.864662       -23.5286
  18   2.0000      -0.863602       -23.4998
  19   2.0000      -0.837702       -22.7950
  20   2.0000      -0.820306       -22.3217
  21   2.0000      -0.814174       -22.1548
  22   2.0000      -0.804274       -21.8854
  23   2.0000      -0.802476       -21.8365
  24   2.0000      -0.799873       -21.7656
  25   2.0000      -0.779108       -21.2006
  26   2.0000      -0.774951       -21.0875
  27   2.0000      -0.759388       -20.6640
  28   2.0000      -0.753037       -20.4912
  29   0.0000      -0.165095        -4.4925
  30   0.0000      -0.101620        -2.7652
  31   0.0000      -0.021869        -0.5951
  32   0.0000      -0.007087        -0.1928
  33   0.0000       0.003541         0.0964

MULLIKEN ATOMIC CHARGES
-----------------------
   0 C :   -0.374768
   1 C :    0.090056
   2 C :   -0.387682
   3 O :   -0.396434
   4 C :    0.124953
   5 C :   -0.392012
   6 C :   -0.388010
   7 H :    0.128008
   8 H :    0.128263
   9 H :    0.122198
  10 H :    0.090093
  11 H :    0.121902
  12 H :    0.134590
  13 H :    0.136314
  14 H :    0.099350
  15 H :    0.133264
  16 H :    0.121922
  17 H :    0.128071
  18 H :    0.129533
  19 H :    0.122432
  20 H :    0.127958
Sum of atomic charges:    0.0000000

LOEWDIN ATOMIC CHARGES
----------------------
   0 C :   -0.290252
   1 C :   -0.371602
   2 C :   -0.289810
   3 O :    0.132083
   4 C :   -0.359123
   5 C :   -0.292232
   6 C :   -0.292056
   7 H :    0.127858
   8 H :    0.120659
   9 H :    0.122427
  10 H :    0.138316
  11 H :    0.122489
  12 H :    0.127427
  13 H :    0.122234
  14 H :    0.143555
  15 H :    0.120174
  16 H :    0.122174
  17 H :    0.126448
  18 H :    0.120982
  19 H :    0.122037
  20 H :    0.126212

  Mayer bond orders larger than 0.100000
B(  0-C ,  1-C ) :   0.9845 B(  0-C ,  7-H ) :   0.9713 B(  0-C ,  8-H ) :   0.9776
B(  0-C ,  9-H ) :   0.9718 B(  1-C ,  2-C ) :   0.9704 B(  1-C ,  3-O ) :   0.9817
B(  1-C , 10-H ) :   0.9794 B(  2-C , 11-H ) :   0.9700 B(  2-C , 12-H ) :   0.9694
B(  2-C , 13-H ) :   0.9712 B(  3-O ,  4-C ) :   0.8609 B(  4-C ,  5-C ) :   0.9801
B(  4-C ,  6-C ) :   0.9844 B(  4-C , 14-H ) :   0.9700 B(  5-C , 15-H ) :   0.9772
B(  5-C , 16-H ) :   0.9701 B(  5-C , 17-H ) :   0.9741 B(  6-C , 18-H ) :   0.9776
B(  6-C , 19-H ) :   0.9732 B(  6-C , 20-H ) :   0.9746

FINAL SINGLE POINT ENERGY      -312.307475717563

DIPOLE MOMENT
-------------

Method             : SCF
Type of density    : Electron Density
Multiplicity       :   1
Irrep              :   0
Energy             :  -312.3227746401627201 Eh
Relativity type    :
Basis              : AO
                                X                 Y                 Z
Electronic contribution:      0.111117612      -1.159271870      -0.394691203
Nuclear contribution   :     -0.064166723       1.501231551       1.220637083
                        -----------------------------------------
Total Dipole Moment    :      0.046950890       0.341959681       0.825945880
                        -----------------------------------------
Magnitude (a.u.)       :      0.895168926
Magnitude (Debye)      :      2.275338586

Rotational constants in cm-1:             0.137887             0.053580             0.043860
Rotational constants in MHz :          4133.740693          1606.289567          1314.881041

                             ****ORCA TERMINATED NORMALLY****
TOTAL RUN TIME: 0 days 0 hours 2 minutes 33 seconds 642 msec
