                         Program Version 6.0.0  -   RELEASE  -
|  1> ! wb97x-v def2-tzvp def2/J RIJCOSX DEFGRID2 scfconv7 GCP(DFT/TZ) printgap
|  2> %output
|  3>     printlevel normal
|  4> end
|  5> %cpcm
|  6>     smd true
|  7>     smdsolvent "water"
|  8> end
|  9> * xyz 0 1
| 10> C -2.1586488172015716 0.07087600600100237 0.7532358551514323
| 11> C -1.548763487648017 0.1422727345513168 -0.6452091397306184
| 12> C -0.22456589763564147 -0.6072754683874481 -0.7434858803043701
| 13> C 0.924308949126332 0.02279889618009172 0.0029918665941024865
| 14> O 0.9101289428389563 1.201980532672844 0.34508757676620955
| 15> C 2.0959022912681737 -0.8658315879467814 0.2974959485578409
| 16> H -3.104926135173131 0.6191832474483309 0.7999430027713903
| 17> H -1.4871747034491358 0.5000408219338807 1.5043290791635089
| 18> H -2.3585277865492174 -0.9682759933438905 1.0371628577354284
| 19> H -1.3986007078133882 1.1872658683680557 -0.938150102968174
| 20> H -2.245920958675948 -0.2907131326486812 -1.3707141001078071
| 21> H -0.3262136301957937 -1.6493600181358536 -0.41497945265296615
| 22> H 0.11658354381655424 -0.6652662233486571 -1.7888713918965395
| 23> H 2.9732205648119225 -0.28184939970029854 0.5808015903341299
| 24> H 2.3188221951262213 -1.513358790790952 -0.5562530147504637
| 25> H 1.8177507930457608 -1.5249149534490514 1.1301689385505305
| 26> *
| 27>
| 28>                          ****END OF INPUT****

CARTESIAN COORDINATES (ANGSTROEM)
---------------------------------
  C     -2.158649    0.070876    0.753236
  C     -1.548763    0.142273   -0.645209
  C     -0.224566   -0.607275   -0.743486
  C      0.924309    0.022799    0.002992
  O      0.910129    1.201981    0.345088
  C      2.095902   -0.865832    0.297496
  H     -3.104926    0.619183    0.799943
  H     -1.487175    0.500041    1.504329
  H     -2.358528   -0.968276    1.037163
  H     -1.398601    1.187266   -0.938150
  H     -2.245921   -0.290713   -1.370714
  H     -0.326214   -1.649360   -0.414979
  H      0.116584   -0.665266   -1.788871
  H      2.973221   -0.281849    0.580802
  H      2.318822   -1.513359   -0.556253
  H      1.817751   -1.524915    1.130169

 Total Charge           Charge          ....    0
 Multiplicity           Mult            ....    1
 Number of Electrons    NEL             ....   48
 Basis Dimension        Dim             ....  246

ORBITAL ENERGIES
----------------

  NO   OCC          E(Eh)            E(eV)
   0   2.0000     -21.666358      -589.5716
   1   2.0000     -12.143332      -330.4369
   2   2.0000     -12.043810      -327.7287
   3   2.0000     -12.039009      -327.5981
   4   2.0000     -12.037047      -327.5447
   5   2.0000     -12.025429      -327.2286
   6   2.0000      -1.713198       -46.6185
   7   2.0000      -1.307626       -35.5823
   8   2.0000      -1.254538       -34.1377
   9   2.0000      -1.187400       -32.3108
  10   2.0000      -1.100439       -29.9445
  11   2.0000      -1.066865       -29.0309
  12   2.0000      -0.969336       -26.3770
  13   2.0000      -0.946078       -25.7441
  14   2.0000      -0.925001       -25.1706
  15   2.0000      -0.864710       -23.5300
  16   2.0000      -0.863285       -23.4912
  17   2.0000      -0.830917       -22.6104
  18   2.0000      -0.822427       -22.3794
  19   2.0000      -0.820780       -22.3346
  20   2.0000      -0.800628       -21.7862
  21   2.0000      -0.781624       -21.2691
  22   2.0000      -0.765233       -20.8231
  23   2.0000      -0.751637       -20.4531
  24   0.0000      -0.299639        -8.1536
  25   0.0000      -0.041123        -1.1190
  26   0.0000      -0.033625        -0.9150
  27   0.0000      -0.008772        -0.2387
  28   0.0000       0.005207         0.1417

MULLIKEN ATOMIC CHARGES
-----------------------
   0 C :   -0.406757
   1 C :   -0.156062
   2 C :   -0.222246
   3 C :    0.292414
   4 O :   -0.467994
   5 C :   -0.394138
   6 H :    0.129380
   7 H :    0.123812
   8 H :    0.121184
   9 H :    0.102371
  10 H :    0.116190
  11 H :    0.143776
  12 H :    0.155236
  13 H :    0.141445
  14 H :    0.157467
  15 H :    0.163922
Sum of atomic charges:   -0.0000000

LOEWDIN ATOMIC CHARGES
----------------------
   0 C :   -0.311629
   1 C :   -0.286604
   2 C :   -0.227861
   3 C :   -0.317997
   4 O :    0.024116
   5 C :   -0.255487
   6 H :    0.118726
   7 H :    0.117721
   8 H :    0.119276
   9 H :    0.134633
  10 H :    0.137165
  11 H :    0.157754
  12 H :    0.167193
  13 H :    0.130438
  14 H :    0.142291
  15 H :    0.150265

  Mayer bond orders larger than 0.100000
B(  0-C ,  1-C ) :   0.9730 B(  0-C ,  6-H ) :   0.9793 B(  0-C ,  7-H ) :   0.9788
B(  0-C ,  8-H ) :   0.9754 B(  1-C ,  2-C ) :   0.9754 B(  1-C ,  9-H ) :   0.9712
B(  1-C , 10-H ) :   0.9770 B(  2-C ,  3-C ) :   0.9789 B(  2-C , 11-H ) :   0.9582
B(  2-C , 12-H ) :   0.9230 B(  3-C ,  4-O ) :   1.9367 B(  3-C ,  5-C ) :   1.0001
B(  5-C , 13-H ) :   0.9713 B(  5-C , 14-H ) :   0.9525 B(  5-C , 15-H ) :   0.9400

FINAL SINGLE POINT ENERGY      -271.801091800034

DIPOLE MOMENT
-------------

Method             : SCF
Type of density    : Electron Density
Multiplicity       :   1
Irrep              :   0
Energy             :  -271.8117280796336672 Eh
Relativity type    :
Basis              : AO
                                X                 Y                 Z
Electronic contribution:      3.416577671       2.567662979      -0.363186267
Nuclear contribution   :     -3.440584438      -4.258273620      -0.172002882
                        -----------------------------------------
Total Dipole Moment    :     -0.024006767      -1.690610641      -0.535189148
                        -----------------------------------------
Magnitude (a.u.)       :      1.773462176
Magnitude (Debye)      :      4.507782612

Rotational constants in cm-1:             0.211324             0.072023             0.065577
Rotational constants in MHz :          6335.336843          2159.208223          1965.942945

                             ****ORCA TERMINATED NORMALLY****
TOTAL RUN TIME: 0 days 0 hours 2 minutes 10 seconds 226 msec
