                         Program Version 6.0.0  -   RELEASE  -
|  1> ! r2scan-3c def2/J RI DEFGRID2 scfconv6 printgap
|  2> %output
|  3>     printlevel normal
|  4> end
|  5> * xyz 0 1
|  6> C -1.6841637078 0.9554641184 -1.0057039249
|  7> C -1.2787944578 0.1579481778 0.2320715067
|  8> C -2.4127941191 -0.7861179327 0.6322347222
|  9> C 0.0004476291 -0.6533850896 -0.0062261494
| 10> C 1.2787588855 0.1636266747 -0.2298025984
| 11> C 1.6818035523 0.9418631702 1.0209858845
| 12> C 2.4147569984 -0.7721683133 -0.6435747658
| 13> H -1.8183910498 0.2901271216 -1.856161453
| 14> H -2.6218979021 1.4768115995 -0.8272694291
| 15> H -0.9309170582 1.6955175897 -1.2617448812
| 16> H -1.1121691461 0.855783265 1.0585970257
| 17> H -3.3272051954 -0.227478641 0.8180599463
| 18> H -2.6050927154 -1.5044371566 -0.1620478331
| 19> H -2.156746562 -1.3341905203 1.5360528204
| 20> H -0.1604410126 -1.2931940484 -0.8780712129
| 21> H 0.1621885576 -1.3085960054 0.8539073776
| 22> H 1.1119335788 0.8743427637 -1.0452481388
| 23> H 0.9275074018 1.6772137441 1.2875107204
| 24> H 1.8153376901 0.2632915805 1.8610520796
| 25> H 2.6193617938 1.4668212803 0.8518782936
| 26> H 2.1584788423 -1.3100041531 -1.5534414328
| 27> H 3.3271931554 -0.208701452 -0.8244561672
| 28> H 2.6106834819 -1.4994754416 0.1415649118
| 29> *
| 30>
| 31>                          ****END OF INPUT****

CARTESIAN COORDINATES (ANGSTROEM)
---------------------------------
  C     -1.684164    0.955464   -1.005704
  C     -1.278794    0.157948    0.232072
  C     -2.412794   -0.786118    0.632235
  C      0.000448   -0.653385   -0.006226
  C      1.278759    0.163627   -0.229803
  C      1.681804    0.941863    1.020986
  C      2.414757   -0.772168   -0.643575
  H     -1.818391    0.290127   -1.856161
  H     -2.621898    1.476812   -0.827269
  H     -0.930917    1.695518   -1.261745
  H     -1.112169    0.855783    1.058597
  H     -3.327205   -0.227479    0.818060
  H     -2.605093   -1.504437   -0.162048
  H     -2.156747   -1.334191    1.536053
  H     -0.160441   -1.293194   -0.878071
  H      0.162189   -1.308596    0.853907
  H      1.111934    0.874343   -1.045248
  H      0.927507    1.677214    1.287511
  H      1.815338    0.263292    1.861052
  H      2.619362    1.466821    0.851878
  H      2.158479   -1.310004   -1.553441
  H      3.327193   -0.208701   -0.824456
  H      2.610683   -1.499475    0.141565

 Total Charge           Charge          ....    0
 Multiplicity           Mult            ....    1
 Number of Electrons    NEL             ....   58
 Basis Dimension        Dim             ....  213

ORBITAL ENERGIES
----------------

  NO   OCC          E(Eh)            E(eV)
   0   2.0000     -10.029410      -272.9141
   1   2.0000     -10.029401      -272.9139
   2   2.0000     -10.017364      -272.5863
   3   2.0000     -10.012547      -272.4552
   4   2.0000     -10.012521      -272.4545
   5   2.0000     -10.012054      -272.4419
   6   2.0000     -10.012052      -272.4418
   7   2.0000      -0.786270       -21.3955
   8   2.0000      -0.743381       -20.2284
   9   2.0000      -0.648373       -17.6431
  10   2.0000      -0.646468       -17.5913
  11   2.0000      -0.639361       -17.3979
  12   2.0000      -0.541108       -14.7243
  13   2.0000      -0.512981       -13.9589
  14   2.0000      -0.444972       -12.1083
  15   2.0000      -0.417020       -11.3477
  16   2.0000      -0.407768       -11.0959
  17   2.0000      -0.393497       -10.7076
  18   2.0000      -0.374292       -10.1850
  19   2.0000      -0.364731        -9.9248
  20   2.0000      -0.350614        -9.5407
  21   2.0000      -0.350273        -9.5314
  22   2.0000      -0.329706        -8.9718
  23   2.0000      -0.318064        -8.6550
  24   2.0000      -0.309060        -8.4100
  25   2.0000      -0.301289        -8.1985
  26   2.0000      -0.285114        -7.7584
  27   2.0000      -0.277933        -7.5629
  28   2.0000      -0.271449        -7.3865
  29   0.0000       0.082419         2.2427
  30   0.0000       0.100619         2.7380
  31   0.0000       0.119371         3.2482
  32   0.0000       0.122926         3.3450
  33   0.0000       0.131206         3.5703

MULLIKEN ATOMIC CHARGES
-----------------------
   0 C :   -0.506198
   1 C :   -0.019089
   2 C :   -0.484274
   3 C :   -0.319889
   4 C :   -0.019459
   5 C :   -0.506144
   6 C :   -0.484208
   7 H :    0.150005
   8 H :    0.145545
   9 H :    0.148871
  10 H :    0.143041
  11 H :    0.145917
  12 H :    0.146471
  13 H :    0.145303
  14 H :    0.144444
  15 H :    0.144475
  16 H :    0.143049
  17 H :    0.148860
  18 H :    0.150072
  19 H :    0.145535
  20 H :    0.145161
  21 H :    0.146032
  22 H :    0.146479
Sum of atomic charges:   -0.0000000

LOEWDIN ATOMIC CHARGES
----------------------
   0 C :   -0.417724
   1 C :   -0.246579
   2 C :   -0.416679
   3 C :   -0.300079
   4 C :   -0.246579
   5 C :   -0.417744
   6 C :   -0.416684
   7 H :    0.153983
   8 H :    0.152987
   9 H :    0.151502
  10 H :    0.154815
  11 H :    0.151525
  12 H :    0.153626
  13 H :    0.152315
  14 H :    0.160276
  15 H :    0.160288
  16 H :    0.154796
  17 H :    0.151490
  18 H :    0.153988
  19 H :    0.153029
  20 H :    0.152304
  21 H :    0.151532
  22 H :    0.153612

  Mayer bond orders larger than 0.100000
B(  0-C ,  1-C ) :   0.8948 B(  0-C ,  7-H ) :   0.9843 B(  0-C ,  8-H ) :   0.9734
B(  0-C ,  9-H ) :   0.9759 B(  1-C ,  2-C ) :   0.9070 B(  1-C ,  3-C ) :   0.9004
B(  1-C , 10-H ) :   0.9646 B(  2-C , 11-H ) :   0.9771 B(  2-C , 12-H ) :   0.9869
B(  2-C , 13-H ) :   0.9795 B(  3-C ,  4-C ) :   0.9006 B(  3-C , 14-H ) :   0.9843
B(  3-C , 15-H ) :   0.9844 B(  4-C ,  5-C ) :   0.8946 B(  4-C ,  6-C ) :   0.9071
B(  4-C , 16-H ) :   0.9646 B(  5-C , 17-H ) :   0.9759 B(  5-C , 18-H ) :   0.9843
B(  5-C , 19-H ) :   0.9734 B(  6-C , 20-H ) :   0.9795 B(  6-C , 21-H ) :   0.9771
B(  6-C , 22-H ) :   0.9869

Dispersion correction           -0.006305208
FINAL SINGLE POINT ENERGY      -276.289210350891

DIPOLE MOMENT
-------------

Method             : SCF
Type of density    : Electron Density
Multiplicity       :   1
Irrep              :   0
Energy             :  -276.2939287384717773 Eh
Relativity type    :
Basis              : AO
                                X                 Y                 Z
Electronic contribution:      0.000194160       0.117916424       0.000108002
Nuclear contribution   :     -0.000165247      -0.080839939       0.000171334
                        -----------------------------------------
Total Dipole Moment    :      0.000028912       0.037076485       0.000279336
                        -----------------------------------------
Magnitude (a.u.)       :      0.037077548
Magnitude (Debye)      :      0.094243638

Rotational constants in cm-1:             0.137490             0.044974             0.044036
Rotational constants in MHz :          4121.840286          1348.288316          1320.167344

                             ****ORCA TERMINATED NORMALLY****
TOTAL RUN TIME: 0 days 0 hours 0 minutes 23 seconds 436 msec
