                         Program Version 6.0.0  -   RELEASE  -
|  1> ! r2scan-3c def2/J RI DEFGRID2 scfconv6 printgap
|  2> %output
|  3>     printlevel normal
|  4> end
|  5> %cpcm
|  6>     smd true
|  7>     smdsolvent "water"
|  8> end
|  9> * xyz 0 1
| 10> C -1.6841637078 0.9554641184 -1.0057039249
| 11> C -1.2787944578 0.1579481778 0.2320715067
| 12> C -2.4127941191 -0.7861179327 0.6322347222
| 13> C 0.0004476291 -0.6533850896 -0.0062261494
| 14> C 1.2787588855 0.1636266747 -0.2298025984
| 15> C 1.6818035523 0.9418631702 1.0209858845
| 16> C 2.4147569984 -0.7721683133 -0.6435747658
| 17> H -1.8183910498 0.2901271216 -1.856161453
| 18> H -2.6218979021 1.4768115995 -0.8272694291
| 19> H -0.9309170582 1.6955175897 -1.2617448812
| 20> H -1.1121691461 0.855783265 1.0585970257
| 21> H -3.3272051954 -0.227478641 0.8180599463
| 22> H -2.6050927154 -1.5044371566 -0.1620478331
| 23> H -2.156746562 -1.3341905203 1.5360528204
| 24> H -0.1604410126 -1.2931940484 -0.8780712129
| 25> H 0.1621885576 -1.3085960054 0.8539073776
| 26> H 1.1119335788 0.8743427637 -1.0452481388
| 27> H 0.9275074018 1.6772137441 1.2875107204
| 28> H 1.8153376901 0.2632915805 1.8610520796
| 29> H 2.6193617938 1.4668212803 0.8518782936
| 30> H 2.1584788423 -1.3100041531 -1.5534414328
| 31> H 3.3271931554 -0.208701452 -0.8244561672
| 32> H 2.6106834819 -1.4994754416 0.1415649118
| 33> *
| 34>
| 35>                          ****END OF INPUT****

CARTESIAN COORDINATES (ANGSTROEM)
---------------------------------
  C     -1.684164    0.955464   -1.005704
  C     -1.278794    0.157948    0.232072
  C     -2.412794   -0.786118    0.632235
  C      0.000448   -0.653385   -0.006226
  C      1.278759    0.163627   -0.229803
  C      1.681804    0.941863    1.020986
  C      2.414757   -0.772168   -0.643575
  H     -1.818391    0.290127   -1.856161
  H     -2.621898    1.476812   -0.827269
  H     -0.930917    1.695518   -1.261745
  H     -1.112169    0.855783    1.058597
  H     -3.327205   -0.227479    0.818060
  H     -2.605093   -1.504437   -0.162048
  H     -2.156747   -1.334191    1.536053
  H     -0.160441   -1.293194   -0.878071
  H      0.162189   -1.308596    0.853907
  H      1.111934    0.874343   -1.045248
  H      0.927507    1.677214    1.287511
  H      1.815338    0.263292    1.861052
  H      2.619362    1.466821    0.851878
  H      2.158479   -1.310004   -1.553441
  H      3.327193   -0.208701   -0.824456
  H      2.610683   -1.499475    0.141565

 Total Charge           Charge          ....    0
 Multiplicity           Mult            ....    1
 Number of Electrons    NEL             ....   58
 Basis Dimension        Dim             ....  213

ORBITAL ENERGIES
----------------

  NO   OCC          E(Eh)            E(eV)
   0   2.0000     -10.021675      -272.7036
   1   2.0000     -10.021666      -272.7034
   2   2.0000     -10.009043      -272.3599
   3   2.0000     -10.004755      -272.2432
   4   2.0000     -10.004750      -272.2431
   5   2.0000     -10.004557      -272.2378
   6   2.0000     -10.004529      -272.2371
   7   2.0000      -0.778508       -21.1843
   8   2.0000      -0.735940       -20.0259
   9   2.0000      -0.641295       -17.4505
  10   2.0000      -0.639491       -17.4014
  11   2.0000      -0.632094       -17.2001
  12   2.0000      -0.533870       -14.5273
  13   2.0000      -0.505329       -13.7507
  14   2.0000      -0.437078       -11.8935
  15   2.0000      -0.409551       -11.1444
  16   2.0000      -0.400335       -10.8937
  17   2.0000      -0.386014       -10.5040
  18   2.0000      -0.366711        -9.9787
  19   2.0000      -0.357556        -9.7296
  20   2.0000      -0.343421        -9.3450
  21   2.0000      -0.343113        -9.3366
  22   2.0000      -0.322092        -8.7646
  23   2.0000      -0.310432        -8.4473
  24   2.0000      -0.301372        -8.2007
  25   2.0000      -0.293836        -7.9957
  26   2.0000      -0.277062        -7.5392
  27   2.0000      -0.270077        -7.3492
  28   2.0000      -0.263923        -7.1817
  29   0.0000       0.090961         2.4752
  30   0.0000       0.108305         2.9471
  31   0.0000       0.127625         3.4729
  32   0.0000       0.130479         3.5505
  33   0.0000       0.136674         3.7191

MULLIKEN ATOMIC CHARGES
-----------------------
   0 C :   -0.552479
   1 C :   -0.000321
   2 C :   -0.530394
   3 C :   -0.342866
   4 C :   -0.000751
   5 C :   -0.552420
   6 C :   -0.530318
   7 H :    0.161037
   8 H :    0.156332
   9 H :    0.160717
  10 H :    0.151759
  11 H :    0.156991
  12 H :    0.157443
  13 H :    0.156405
  14 H :    0.154082
  15 H :    0.154047
  16 H :    0.151782
  17 H :    0.160702
  18 H :    0.161127
  19 H :    0.156301
  20 H :    0.156264
  21 H :    0.157092
  22 H :    0.157467
Sum of atomic charges:   -0.0000000

LOEWDIN ATOMIC CHARGES
----------------------
   0 C :   -0.426545
   1 C :   -0.244749
   2 C :   -0.426131
   3 C :   -0.303483
   4 C :   -0.244750
   5 C :   -0.426572
   6 C :   -0.426133
   7 H :    0.156256
   8 H :    0.154972
   9 H :    0.154432
  10 H :    0.157335
  11 H :    0.153820
  12 H :    0.155651
  13 H :    0.154492
  14 H :    0.162223
  15 H :    0.162217
  16 H :    0.157319
  17 H :    0.154418
  18 H :    0.156272
  19 H :    0.155008
  20 H :    0.154480
  21 H :    0.153824
  22 H :    0.155643

  Mayer bond orders larger than 0.100000
B(  0-C ,  1-C ) :   0.8865 B(  0-C ,  7-H ) :   0.9827 B(  0-C ,  8-H ) :   0.9719
B(  0-C ,  9-H ) :   0.9727 B(  1-C ,  2-C ) :   0.8936 B(  1-C ,  3-C ) :   0.8996
B(  1-C , 10-H ) :   0.9654 B(  2-C , 11-H ) :   0.9750 B(  2-C , 12-H ) :   0.9858
B(  2-C , 13-H ) :   0.9773 B(  3-C ,  4-C ) :   0.8997 B(  3-C , 14-H ) :   0.9827
B(  3-C , 15-H ) :   0.9829 B(  4-C ,  5-C ) :   0.8864 B(  4-C ,  6-C ) :   0.8937
B(  4-C , 16-H ) :   0.9654 B(  5-C , 17-H ) :   0.9727 B(  5-C , 18-H ) :   0.9827
B(  5-C , 19-H ) :   0.9719 B(  6-C , 20-H ) :   0.9774 B(  6-C , 21-H ) :   0.9750
B(  6-C , 22-H ) :   0.9858

Dispersion correction           -0.006305208
FINAL SINGLE POINT ENERGY      -276.285346445058

DIPOLE MOMENT
-------------

Method             : SCF
Type of density    : Electron Density
Multiplicity       :   1
Irrep              :   0
Energy             :  -276.2900648326386772 Eh
Relativity type    :
Basis              : AO
                                X                 Y                 Z
Electronic contribution:      0.000175787       0.137886669       0.000215072
Nuclear contribution   :     -0.000165247      -0.080839939       0.000171334
                        -----------------------------------------
Total Dipole Moment    :      0.000010540       0.057046730       0.000386406
                        -----------------------------------------
Magnitude (a.u.)       :      0.057048040
Magnitude (Debye)      :      0.145004593

Rotational constants in cm-1:             0.137490             0.044974             0.044036
Rotational constants in MHz :          4121.840286          1348.288316          1320.167344

                             ****ORCA TERMINATED NORMALLY****
TOTAL RUN TIME: 0 days 0 hours 0 minutes 27 seconds 840 msec
