                         Program Version 6.0.0  -   RELEASE  -
|  1> ! r2scan-3c def2/J RI DEFGRID2 scfconv6 printgap
|  2> %output
|  3>     printlevel normal
|  4> end
|  5> * xyz 0 1
|  6> C -2.5438899139 0.6982348599 -0.6555689848
|  7> C -1.7496628392 0.3579893101 0.6074218199
|  8> C -0.5047730374 -0.4072251381 0.2363711217
|  9> O -0.4982824195 -1.524219196 -0.2401397671
| 10> O 0.5898139279 0.2985813908 0.4762238363
| 11> C 1.8750206889 -0.2551619621 0.142502079
| 12> C 2.7312187277 0.8292046273 -0.4875839276
| 13> H -3.4748657028 1.1869440882 -0.3855187201
| 14> H -1.9717331951 1.3633624469 -1.2973344487
| 15> H -2.7682616418 -0.2107859615 -1.2085235392
| 16> H -2.3544402006 -0.2769725027 1.2556837065
| 17> H -1.4603007535 1.2627958263 1.1392505308
| 18> H 2.3206670351 -0.6175640288 1.0731539393
| 19> H 1.7228439756 -1.1008579575 -0.5353704307
| 20> H 2.8266832098 1.6684227292 0.1949845511
| 21> H 3.7159613551 0.4275802446 -0.7025908602
| 22> H 2.2795409895 1.1780312398 -1.4120791268
| 23> *
| 24>
| 25>                          ****END OF INPUT****

CARTESIAN COORDINATES (ANGSTROEM)
---------------------------------
  C     -2.543890    0.698235   -0.655569
  C     -1.749663    0.357989    0.607422
  C     -0.504773   -0.407225    0.236371
  O     -0.498282   -1.524219   -0.240140
  O      0.589814    0.298581    0.476224
  C      1.875021   -0.255162    0.142502
  C      2.731219    0.829205   -0.487584
  H     -3.474866    1.186944   -0.385519
  H     -1.971733    1.363362   -1.297334
  H     -2.768262   -0.210786   -1.208524
  H     -2.354440   -0.276973    1.255684
  H     -1.460301    1.262796    1.139251
  H      2.320667   -0.617564    1.073154
  H      1.722844   -1.100858   -0.535370
  H      2.826683    1.668423    0.194985
  H      3.715961    0.427580   -0.702591
  H      2.279541    1.178031   -1.412079

 Total Charge           Charge          ....    0
 Multiplicity           Mult            ....    1
 Number of Electrons    NEL             ....   56
 Basis Dimension        Dim             ....  193

ORBITAL ENERGIES
----------------

  NO   OCC          E(Eh)            E(eV)
   0   2.0000     -18.997269      -516.9420
   1   2.0000     -18.925690      -514.9942
   2   2.0000     -10.151002      -276.2228
   3   2.0000     -10.090215      -274.5687
   4   2.0000     -10.042739      -273.2768
   5   2.0000     -10.032295      -272.9926
   6   2.0000     -10.029144      -272.9069
   7   2.0000      -1.071107       -29.1463
   8   2.0000      -0.974079       -26.5060
   9   2.0000      -0.765017       -20.8172
  10   2.0000      -0.733362       -19.9558
  11   2.0000      -0.641260       -17.4496
  12   2.0000      -0.593095       -16.1389
  13   2.0000      -0.530342       -14.4313
  14   2.0000      -0.467019       -12.7082
  15   2.0000      -0.460103       -12.5200
  16   2.0000      -0.442374       -12.0376
  17   2.0000      -0.411573       -11.1995
  18   2.0000      -0.394362       -10.7311
  19   2.0000      -0.386580       -10.5194
  20   2.0000      -0.374277       -10.1846
  21   2.0000      -0.349920        -9.5218
  22   2.0000      -0.337411        -9.1814
  23   2.0000      -0.331787        -9.0284
  24   2.0000      -0.320212        -8.7134
  25   2.0000      -0.306347        -8.3361
  26   2.0000      -0.269639        -7.3373
  27   2.0000      -0.234510        -6.3814
  28   0.0000      -0.013630        -0.3709
  29   0.0000       0.076130         2.0716
  30   0.0000       0.096447         2.6244
  31   0.0000       0.117063         3.1854
  32   0.0000       0.124719         3.3938

MULLIKEN ATOMIC CHARGES
-----------------------
   0 C :   -0.464596
   1 C :   -0.298147
   2 C :    0.411186
   3 O :   -0.440409
   4 O :   -0.169845
   5 C :   -0.159243
   6 C :   -0.443833
   7 H :    0.151399
   8 H :    0.145159
   9 H :    0.170979
  10 H :    0.160527
  11 H :    0.158908
  12 H :    0.142688
  13 H :    0.183840
  14 H :    0.153114
  15 H :    0.146991
  16 H :    0.151283
Sum of atomic charges:    0.0000000

LOEWDIN ATOMIC CHARGES
----------------------
   0 C :   -0.393587
   1 C :   -0.236937
   2 C :    0.359264
   3 O :   -0.441210
   4 O :   -0.597233
   5 C :    0.031460
   6 C :   -0.387126
   7 H :    0.152246
   8 H :    0.154462
   9 H :    0.163952
  10 H :    0.176573
  11 H :    0.173612
  12 H :    0.174933
  13 H :    0.193994
  14 H :    0.158259
  15 H :    0.159251
  16 H :    0.158088

  Mayer bond orders larger than 0.100000
B(  0-C ,  1-C ) :   0.8982 B(  0-C ,  7-H ) :   0.9723 B(  0-C ,  8-H ) :   0.9748
B(  0-C ,  9-H ) :   0.9740 B(  1-C ,  2-C ) :   0.9537 B(  1-C , 10-H ) :   0.9609
B(  1-C , 11-H ) :   0.9820 B(  2-C ,  3-O ) :   1.8235 B(  2-C ,  4-O ) :   1.0702
B(  4-O ,  5-C ) :   0.7807 B(  5-C ,  6-C ) :   0.9490 B(  5-C , 12-H ) :   0.9484
B(  5-C , 13-H ) :   0.9657 B(  6-C , 14-H ) :   0.9702 B(  6-C , 15-H ) :   0.9677
B(  6-C , 16-H ) :   0.9734

Dispersion correction           -0.003885650
FINAL SINGLE POINT ENERGY      -346.934912934633

DIPOLE MOMENT
-------------

Method             : SCF
Type of density    : Electron Density
Multiplicity       :   1
Irrep              :   0
Energy             :  -346.9414921945508468 Eh
Relativity type    :
Basis              : AO
                                X                 Y                 Z
Electronic contribution:     -0.455734751      -3.809043185       1.938597407
Nuclear contribution   :      0.785754034       4.560981450      -1.758700888
                        -----------------------------------------
Total Dipole Moment    :      0.330019282       0.751938264       0.179896519
                        -----------------------------------------
Magnitude (a.u.)       :      0.840646559
Magnitude (Debye)      :      2.136753742

Rotational constants in cm-1:             0.175795             0.047602             0.042731
Rotational constants in MHz :          5270.195265          1427.061966          1281.035283

                             ****ORCA TERMINATED NORMALLY****
TOTAL RUN TIME: 0 days 0 hours 0 minutes 20 seconds 928 msec
