                         Program Version 6.0.0  -   RELEASE  -
|  1> ! r2scan-3c def2/J RI DEFGRID2 scfconv6 printgap
|  2> %output
|  3>     printlevel normal
|  4> end
|  5> %cpcm
|  6>     smd true
|  7>     smdsolvent "water"
|  8> end
|  9> * xyz 0 1
| 10> C -2.5438899139 0.6982348599 -0.6555689848
| 11> C -1.7496628392 0.3579893101 0.6074218199
| 12> C -0.5047730374 -0.4072251381 0.2363711217
| 13> O -0.4982824195 -1.524219196 -0.2401397671
| 14> O 0.5898139279 0.2985813908 0.4762238363
| 15> C 1.8750206889 -0.2551619621 0.142502079
| 16> C 2.7312187277 0.8292046273 -0.4875839276
| 17> H -3.4748657028 1.1869440882 -0.3855187201
| 18> H -1.9717331951 1.3633624469 -1.2973344487
| 19> H -2.7682616418 -0.2107859615 -1.2085235392
| 20> H -2.3544402006 -0.2769725027 1.2556837065
| 21> H -1.4603007535 1.2627958263 1.1392505308
| 22> H 2.3206670351 -0.6175640288 1.0731539393
| 23> H 1.7228439756 -1.1008579575 -0.5353704307
| 24> H 2.8266832098 1.6684227292 0.1949845511
| 25> H 3.7159613551 0.4275802446 -0.7025908602
| 26> H 2.2795409895 1.1780312398 -1.4120791268
| 27> *
| 28>
| 29>                          ****END OF INPUT****

CARTESIAN COORDINATES (ANGSTROEM)
---------------------------------
  C     -2.543890    0.698235   -0.655569
  C     -1.749663    0.357989    0.607422
  C     -0.504773   -0.407225    0.236371
  O     -0.498282   -1.524219   -0.240140
  O      0.589814    0.298581    0.476224
  C      1.875021   -0.255162    0.142502
  C      2.731219    0.829205   -0.487584
  H     -3.474866    1.186944   -0.385519
  H     -1.971733    1.363362   -1.297334
  H     -2.768262   -0.210786   -1.208524
  H     -2.354440   -0.276973    1.255684
  H     -1.460301    1.262796    1.139251
  H      2.320667   -0.617564    1.073154
  H      1.722844   -1.100858   -0.535370
  H      2.826683    1.668423    0.194985
  H      3.715961    0.427580   -0.702591
  H      2.279541    1.178031   -1.412079

 Total Charge           Charge          ....    0
 Multiplicity           Mult            ....    1
 Number of Electrons    NEL             ....   56
 Basis Dimension        Dim             ....  193

ORBITAL ENERGIES
----------------

  NO   OCC          E(Eh)            E(eV)
   0   2.0000     -19.003148      -517.1019
   1   2.0000     -18.942229      -515.4442
   2   2.0000     -10.162146      -276.5261
   3   2.0000     -10.082426      -274.3568
   4   2.0000     -10.037270      -273.1280
   5   2.0000     -10.021323      -272.6941
   6   2.0000     -10.018598      -272.6199
   7   2.0000      -1.078673       -29.3522
   8   2.0000      -0.988434       -26.8967
   9   2.0000      -0.760946       -20.7064
  10   2.0000      -0.725324       -19.7371
  11   2.0000      -0.635305       -17.2875
  12   2.0000      -0.586367       -15.9558
  13   2.0000      -0.528880       -14.3916
  14   2.0000      -0.469690       -12.7809
  15   2.0000      -0.458516       -12.4769
  16   2.0000      -0.449531       -12.2324
  17   2.0000      -0.412357       -11.2208
  18   2.0000      -0.391225       -10.6458
  19   2.0000      -0.381884       -10.3916
  20   2.0000      -0.364486        -9.9182
  21   2.0000      -0.341613        -9.2958
  22   2.0000      -0.332915        -9.0591
  23   2.0000      -0.330183        -8.9847
  24   2.0000      -0.313526        -8.5315
  25   2.0000      -0.306353        -8.3363
  26   2.0000      -0.276688        -7.5291
  27   2.0000      -0.251136        -6.8338
  28   0.0000      -0.022017        -0.5991
  29   0.0000       0.078894         2.1468
  30   0.0000       0.106267         2.8917
  31   0.0000       0.125963         3.4276
  32   0.0000       0.132991         3.6189

MULLIKEN ATOMIC CHARGES
-----------------------
   0 C :   -0.492731
   1 C :   -0.310504
   2 C :    0.448744
   3 O :   -0.526053
   4 O :   -0.188231
   5 C :   -0.148866
   6 C :   -0.486776
   7 H :    0.171416
   8 H :    0.163075
   9 H :    0.166791
  10 H :    0.183455
  11 H :    0.174252
  12 H :    0.169273
  13 H :    0.178322
  14 H :    0.165088
  15 H :    0.168393
  16 H :    0.164349
Sum of atomic charges:    0.0000000

LOEWDIN ATOMIC CHARGES
----------------------
   0 C :   -0.396353
   1 C :   -0.233404
   2 C :    0.368873
   3 O :   -0.503092
   4 O :   -0.598186
   5 C :    0.036426
   6 C :   -0.390270
   7 H :    0.160030
   8 H :    0.159900
   9 H :    0.161036
  10 H :    0.184746
  11 H :    0.181207
  12 H :    0.185261
  13 H :    0.193021
  14 H :    0.161760
  15 H :    0.167752
  16 H :    0.161292

  Mayer bond orders larger than 0.100000
B(  0-C ,  1-C ) :   0.8846 B(  0-C ,  7-H ) :   0.9664 B(  0-C ,  8-H ) :   0.9709
B(  0-C ,  9-H ) :   0.9746 B(  1-C ,  2-C ) :   0.9555 B(  1-C , 10-H ) :   0.9536
B(  1-C , 11-H ) :   0.9733 B(  2-C ,  3-O ) :   1.7548 B(  2-C ,  4-O ) :   1.0963
B(  4-O ,  5-C ) :   0.7703 B(  5-C ,  6-C ) :   0.9443 B(  5-C , 12-H ) :   0.9399
B(  5-C , 13-H ) :   0.9613 B(  6-C , 14-H ) :   0.9675 B(  6-C , 15-H ) :   0.9616
B(  6-C , 16-H ) :   0.9710

Dispersion correction           -0.003885650
FINAL SINGLE POINT ENERGY      -346.940001712742

DIPOLE MOMENT
-------------

Method             : SCF
Type of density    : Electron Density
Multiplicity       :   1
Irrep              :   0
Energy             :  -346.9465809726592056 Eh
Relativity type    :
Basis              : AO
                                X                 Y                 Z
Electronic contribution:     -0.347342067      -3.499446615       2.053898034
Nuclear contribution   :      0.785754034       4.560981450      -1.758700888
                        -----------------------------------------
Total Dipole Moment    :      0.438411967       1.061534835       0.295197146
                        -----------------------------------------
Magnitude (a.u.)       :      1.185834142
Magnitude (Debye)      :      3.014150852

Rotational constants in cm-1:             0.175795             0.047602             0.042731
Rotational constants in MHz :          5270.195265          1427.061966          1281.035283

                             ****ORCA TERMINATED NORMALLY****
TOTAL RUN TIME: 0 days 0 hours 0 minutes 24 seconds 337 msec
