                         Program Version 6.0.0  -   RELEASE  -
|  1> ! r2scan-3c def2/J RI DEFGRID2 scfconv6 printgap
|  2> %output
|  3>     printlevel normal
|  4> end
|  5> * xyz 0 1
|  6> C 1.7668811331 -0.4409251408 -0.5423574874
|  7> O 1.0436633617 -0.0960158238 0.6219538658
|  8> C 0.0502253166 0.8864772432 0.4327876984
|  9> C -1.1192534378 0.4765857075 -0.4713324363
| 10> N -1.7158931991 -0.772571147 -0.0256591902
| 11> H 2.5900927922 -1.0661373466 -0.2050474483
| 12> H 2.1601152528 0.4553550681 -1.0349726336
| 13> H 1.1467861923 -1.0033477569 -1.2446638005
| 14> H -0.3193181881 1.0911422518 1.4409698686
| 15> H 0.5016987512 1.803924522 0.0244244695
| 16> H -1.8235319328 1.3265011429 -0.4784265777
| 17> H -0.766109461 0.328069602 -1.495619556
| 18> H -2.5594998028 -0.9595794796 -0.5548162754
| 19> H -1.9677094342 -0.7042092936 0.9543210476
| 20> *
| 21>
| 22>                          ****END OF INPUT****

CARTESIAN COORDINATES (ANGSTROEM)
---------------------------------
  C      1.766881   -0.440925   -0.542357
  O      1.043663   -0.096016    0.621954
  C      0.050225    0.886477    0.432788
  C     -1.119253    0.476586   -0.471332
  N     -1.715893   -0.772571   -0.025659
  H      2.590093   -1.066137   -0.205047
  H      2.160115    0.455355   -1.034973
  H      1.146786   -1.003348   -1.244664
  H     -0.319318    1.091142    1.440970
  H      0.501699    1.803925    0.024424
  H     -1.823532    1.326501   -0.478427
  H     -0.766109    0.328070   -1.495620
  H     -2.559500   -0.959579   -0.554816
  H     -1.967709   -0.704209    0.954321

 Total Charge           Charge          ....    0
 Multiplicity           Mult            ....    1
 Number of Electrons    NEL             ....   42
 Basis Dimension        Dim             ....  150

ORBITAL ENERGIES
----------------

  NO   OCC          E(Eh)            E(eV)
   0   2.0000     -18.944350      -515.5020
   1   2.0000     -14.136311      -384.6686
   2   2.0000     -10.074583      -274.1433
   3   2.0000     -10.063141      -273.8320
   4   2.0000     -10.054022      -273.5838
   5   2.0000      -0.990416       -26.9506
   6   2.0000      -0.846768       -23.0417
   7   2.0000      -0.701387       -19.0857
   8   2.0000      -0.639355       -17.3977
   9   2.0000      -0.555440       -15.1143
  10   2.0000      -0.467738       -12.7278
  11   2.0000      -0.456328       -12.4173
  12   2.0000      -0.435964       -11.8632
  13   2.0000      -0.406445       -11.0599
  14   2.0000      -0.394440       -10.7332
  15   2.0000      -0.368626       -10.0308
  16   2.0000      -0.343132        -9.3371
  17   2.0000      -0.328052        -8.9268
  18   2.0000      -0.274592        -7.4720
  19   2.0000      -0.215383        -5.8609
  20   2.0000      -0.206060        -5.6072
  21   0.0000       0.067309         1.8316
  22   0.0000       0.090387         2.4595
  23   0.0000       0.107728         2.9314
  24   0.0000       0.125042         3.4026
  25   0.0000       0.127750         3.4762

MULLIKEN ATOMIC CHARGES
-----------------------
   0 C :   -0.306671
   1 O :   -0.206175
   2 C :   -0.201956
   3 C :   -0.206122
   4 N :   -0.529330
   5 H :    0.146613
   6 H :    0.128699
   7 H :    0.150574
   8 H :    0.138804
   9 H :    0.132561
  10 H :    0.123981
  11 H :    0.150919
  12 H :    0.240317
  13 H :    0.237786
Sum of atomic charges:    0.0000000

LOEWDIN ATOMIC CHARGES
----------------------
   0 C :   -0.074978
   1 O :   -0.773745
   2 C :    0.016942
   3 C :   -0.073646
   4 N :   -0.724065
   5 H :    0.175331
   6 H :    0.154090
   7 H :    0.159130
   8 H :    0.179103
   9 H :    0.164327
  10 H :    0.153447
  11 H :    0.170891
  12 H :    0.237026
  13 H :    0.236147

  Mayer bond orders larger than 0.100000
B(  0-C ,  1-O ) :   0.8822 B(  0-C ,  5-H ) :   0.9746 B(  0-C ,  6-H ) :   0.9637
B(  0-C ,  7-H ) :   0.9617 B(  1-O ,  2-C ) :   0.9278 B(  2-C ,  3-C ) :   0.9403
B(  2-C ,  8-H ) :   0.9683 B(  2-C ,  9-H ) :   0.9786 B(  3-C ,  4-N ) :   0.9092
B(  3-C , 10-H ) :   0.9462 B(  3-C , 11-H ) :   0.9819 B(  4-N , 12-H ) :   0.9176
B(  4-N , 13-H ) :   0.9244

Dispersion correction           -0.002870946
FINAL SINGLE POINT ENERGY      -249.614558758723

DIPOLE MOMENT
-------------

Method             : SCF
Type of density    : Electron Density
Multiplicity       :   1
Irrep              :   0
Energy             :  -249.6243558553816229 Eh
Relativity type    :
Basis              : AO
                                X                 Y                 Z
Electronic contribution:      0.509721041      -0.719744809       2.053581624
Nuclear contribution   :     -0.967257972       1.187407737      -2.424350176
                        -----------------------------------------
Total Dipole Moment    :     -0.457536931       0.467662928      -0.370768552
                        -----------------------------------------
Magnitude (a.u.)       :      0.752009293
Magnitude (Debye)      :      1.911455716

Rotational constants in cm-1:             0.299804             0.105621             0.096626
Rotational constants in MHz :          8987.888109          3166.436704          2896.772230

                             ****ORCA TERMINATED NORMALLY****
TOTAL RUN TIME: 0 days 0 hours 0 minutes 16 seconds 227 msec
