                         Program Version 6.0.0  -   RELEASE  -
|  1> ! r2scan-3c def2/J RI DEFGRID2 scfconv6 printgap
|  2> %output
|  3>     printlevel normal
|  4> end
|  5> %cpcm
|  6>     smd true
|  7>     smdsolvent "water"
|  8> end
|  9> * xyz 0 1
| 10> C 1.7668811331 -0.4409251408 -0.5423574874
| 11> O 1.0436633617 -0.0960158238 0.6219538658
| 12> C 0.0502253166 0.8864772432 0.4327876984
| 13> C -1.1192534378 0.4765857075 -0.4713324363
| 14> N -1.7158931991 -0.772571147 -0.0256591902
| 15> H 2.5900927922 -1.0661373466 -0.2050474483
| 16> H 2.1601152528 0.4553550681 -1.0349726336
| 17> H 1.1467861923 -1.0033477569 -1.2446638005
| 18> H -0.3193181881 1.0911422518 1.4409698686
| 19> H 0.5016987512 1.803924522 0.0244244695
| 20> H -1.8235319328 1.3265011429 -0.4784265777
| 21> H -0.766109461 0.328069602 -1.495619556
| 22> H -2.5594998028 -0.9595794796 -0.5548162754
| 23> H -1.9677094342 -0.7042092936 0.9543210476
| 24> *
| 25>
| 26>                          ****END OF INPUT****

CARTESIAN COORDINATES (ANGSTROEM)
---------------------------------
  C      1.766881   -0.440925   -0.542357
  O      1.043663   -0.096016    0.621954
  C      0.050225    0.886477    0.432788
  C     -1.119253    0.476586   -0.471332
  N     -1.715893   -0.772571   -0.025659
  H      2.590093   -1.066137   -0.205047
  H      2.160115    0.455355   -1.034973
  H      1.146786   -1.003348   -1.244664
  H     -0.319318    1.091142    1.440970
  H      0.501699    1.803925    0.024424
  H     -1.823532    1.326501   -0.478427
  H     -0.766109    0.328070   -1.495620
  H     -2.559500   -0.959579   -0.554816
  H     -1.967709   -0.704209    0.954321

 Total Charge           Charge          ....    0
 Multiplicity           Mult            ....    1
 Number of Electrons    NEL             ....   42
 Basis Dimension        Dim             ....  150

ORBITAL ENERGIES
----------------

  NO   OCC          E(Eh)            E(eV)
   0   2.0000     -18.954784      -515.7859
   1   2.0000     -14.131737      -384.5441
   2   2.0000     -10.069130      -273.9950
   3   2.0000     -10.061413      -273.7850
   4   2.0000     -10.045349      -273.3479
   5   2.0000      -0.999011       -27.1845
   6   2.0000      -0.840861       -22.8810
   7   2.0000      -0.698647       -19.0111
   8   2.0000      -0.636395       -17.3172
   9   2.0000      -0.550492       -14.9797
  10   2.0000      -0.462900       -12.5961
  11   2.0000      -0.455434       -12.3930
  12   2.0000      -0.435039       -11.8380
  13   2.0000      -0.406234       -11.0542
  14   2.0000      -0.388921       -10.5831
  15   2.0000      -0.364527        -9.9193
  16   2.0000      -0.338340        -9.2067
  17   2.0000      -0.323370        -8.7993
  18   2.0000      -0.280452        -7.6315
  19   2.0000      -0.223661        -6.0861
  20   2.0000      -0.207042        -5.6339
  21   0.0000       0.070790         1.9263
  22   0.0000       0.097435         2.6513
  23   0.0000       0.119352         3.2477
  24   0.0000       0.134132         3.6499
  25   0.0000       0.137278         3.7355

MULLIKEN ATOMIC CHARGES
-----------------------
   0 C :   -0.316727
   1 O :   -0.295439
   2 C :   -0.189701
   3 C :   -0.229250
   4 N :   -0.627708
   5 H :    0.161680
   6 H :    0.154379
   7 H :    0.158054
   8 H :    0.157893
   9 H :    0.150857
  10 H :    0.141440
  11 H :    0.168549
  12 H :    0.284045
  13 H :    0.281927
Sum of atomic charges:   -0.0000000

LOEWDIN ATOMIC CHARGES
----------------------
   0 C :   -0.076518
   1 O :   -0.822768
   2 C :    0.017788
   3 C :   -0.070368
   4 N :   -0.748853
   5 H :    0.179753
   6 H :    0.166298
   7 H :    0.163204
   8 H :    0.186157
   9 H :    0.173852
  10 H :    0.162670
  11 H :    0.176149
  12 H :    0.247638
  13 H :    0.244998

  Mayer bond orders larger than 0.100000
B(  0-C ,  1-O ) :   0.8779 B(  0-C ,  5-H ) :   0.9680 B(  0-C ,  6-H ) :   0.9595
B(  0-C ,  7-H ) :   0.9555 B(  1-O ,  2-C ) :   0.9157 B(  2-C ,  3-C ) :   0.9306
B(  2-C ,  8-H ) :   0.9627 B(  2-C ,  9-H ) :   0.9692 B(  3-C ,  4-N ) :   0.9217
B(  3-C , 10-H ) :   0.9515 B(  3-C , 11-H ) :   0.9786 B(  4-N , 12-H ) :   0.9008
B(  4-N , 13-H ) :   0.9059

Dispersion correction           -0.002870946
FINAL SINGLE POINT ENERGY      -249.625367919133

DIPOLE MOMENT
-------------

Method             : SCF
Type of density    : Electron Density
Multiplicity       :   1
Irrep              :   0
Energy             :  -249.6351650157922393 Eh
Relativity type    :
Basis              : AO
                                X                 Y                 Z
Electronic contribution:      0.331204412      -0.431147328       1.861168171
Nuclear contribution   :     -0.967257972       1.187407737      -2.424350176
                        -----------------------------------------
Total Dipole Moment    :     -0.636053560       0.756260409      -0.563182005
                        -----------------------------------------
Magnitude (a.u.)       :      1.137395229
Magnitude (Debye)      :      2.891028919

Rotational constants in cm-1:             0.299804             0.105621             0.096626
Rotational constants in MHz :          8987.888109          3166.436704          2896.772230

                             ****ORCA TERMINATED NORMALLY****
TOTAL RUN TIME: 0 days 0 hours 0 minutes 18 seconds 606 msec
