                         Program Version 6.0.0  -   RELEASE  -
|  1> ! pbe def2-sv(p) def2/J RI DEFGRID1 loosescf d4 GCP(DFT/SV(P)) printgap
|  2> %output
|  3>     printlevel normal
|  4> end
|  5> * xyz 0 1
|  6> C 4.951140413 1.2048386065 0.0133547782
|  7> C 4.5334476415 -0.2546991036 -0.1167591929
|  8> C 3.0533184904 -0.5719549446 -0.0459992283
|  9> O 2.671693791 -1.7315674027 0.0495213969
| 10> N 2.2196232954 0.4972590977 -0.1104952591
| 11> C 0.8294132415 0.5344512069 -0.0794658918
| 12> C 0.2045726835 1.7812352241 -0.162022945
| 13> C -1.170845752 1.8812099806 -0.1355550021
| 14> C -1.9493947945 0.7385572661 -0.0259389174
| 15> C -1.3331897432 -0.5033098787 0.0565947332
| 16> C 0.0457141241 -0.6117433833 0.0304651683
| 17> Cl -2.2892113289 -1.9436461161 0.1944294057
| 18> Cl -3.6781417309 0.8639431103 0.0075330224
| 19> H 4.6133174874 1.79609732 -0.8342947621
| 20> H 6.0367294805 1.2572218029 0.0333716307
| 21> H 4.5819988985 1.6386221177 0.9393583196
| 22> H 5.0070783702 -0.8544647188 0.6635683723
| 23> H 4.8845358795 -0.6613315972 -1.0688983734
| 24> H 2.6592390281 1.4057603126 -0.1913295836
| 25> H 0.7967567706 2.678052695 -0.2471153318
| 26> H -1.653392083 2.8420776395 -0.1992129367
| 27> H 0.5115287928 -1.5807665534 0.0951706887
| 28> *
| 29>
| 30>                          ****END OF INPUT****

CARTESIAN COORDINATES (ANGSTROEM)
---------------------------------
  C      4.951140    1.204839    0.013355
  C      4.533448   -0.254699   -0.116759
  C      3.053318   -0.571955   -0.045999
  O      2.671694   -1.731567    0.049521
  N      2.219623    0.497259   -0.110495
  C      0.829413    0.534451   -0.079466
  C      0.204573    1.781235   -0.162023
  C     -1.170846    1.881210   -0.135555
  C     -1.949395    0.738557   -0.025939
  C     -1.333190   -0.503310    0.056595
  C      0.045714   -0.611743    0.030465
  Cl    -2.289211   -1.943646    0.194429
  Cl    -3.678142    0.863943    0.007533
  H      4.613317    1.796097   -0.834295
  H      6.036729    1.257222    0.033372
  H      4.581999    1.638622    0.939358
  H      5.007078   -0.854465    0.663568
  H      4.884536   -0.661332   -1.068898
  H      2.659239    1.405760   -0.191330
  H      0.796757    2.678053   -0.247115
  H     -1.653392    2.842078   -0.199213
  H      0.511529   -1.580767    0.095171

 Total Charge           Charge          ....    0
 Multiplicity           Mult            ....    1
 Number of Electrons    NEL             ....  112
 Basis Dimension        Dim             ....  208

ORBITAL ENERGIES
----------------

  NO   OCC          E(Eh)            E(eV)
   0   2.0000    -100.642329     -2738.6170
   1   2.0000    -100.641171     -2738.5855
   2   2.0000     -18.729865      -509.6655
   3   2.0000     -14.049127      -382.2962
   4   2.0000      -9.999476      -272.0996
   5   2.0000      -9.959794      -271.0198
   6   2.0000      -9.957552      -270.9588
   7   2.0000      -9.956507      -270.9303
   8   2.0000      -9.914951      -269.7995
   9   2.0000      -9.913444      -269.7585
  10   2.0000      -9.911693      -269.7109
  11   2.0000      -9.907776      -269.6043
  12   2.0000      -9.903010      -269.4746
  13   2.0000      -9.177938      -249.7444
  14   2.0000      -9.176811      -249.7137
  15   2.0000      -7.009507      -190.7384
  16   2.0000      -7.008411      -190.7086
  17   2.0000      -6.997939      -190.4236
  18   2.0000      -6.997168      -190.4026
  19   2.0000      -6.996872      -190.3946
  20   2.0000      -6.995949      -190.3694
  21   2.0000      -0.950030       -25.8516
  22   2.0000      -0.872573       -23.7439
  23   2.0000      -0.832802       -22.6617
  24   2.0000      -0.778502       -21.1841
  25   2.0000      -0.764469       -20.8023
  26   2.0000      -0.722819       -19.6689
  27   2.0000      -0.679579       -18.4923
  28   2.0000      -0.665872       -18.1193
  29   2.0000      -0.606140       -16.4939
  30   2.0000      -0.582186       -15.8421
  31   2.0000      -0.563459       -15.3325
  32   2.0000      -0.532390       -14.4871
  33   2.0000      -0.500554       -13.6208
  34   2.0000      -0.450917       -12.2701
  35   2.0000      -0.441752       -12.0207
  36   2.0000      -0.437605       -11.9078
  37   2.0000      -0.428356       -11.6562
  38   2.0000      -0.406374       -11.0580
  39   2.0000      -0.396818       -10.7980
  40   2.0000      -0.394180       -10.7262
  41   2.0000      -0.384643       -10.4667
  42   2.0000      -0.370349       -10.0777
  43   2.0000      -0.359421        -9.7804
  44   2.0000      -0.350181        -9.5289
  45   2.0000      -0.342956        -9.3323
  46   2.0000      -0.338024        -9.1981
  47   2.0000      -0.335017        -9.1163
  48   2.0000      -0.303466        -8.2577
  49   2.0000      -0.302244        -8.2245
  50   2.0000      -0.279998        -7.6191
  51   2.0000      -0.262027        -7.1301
  52   2.0000      -0.256988        -6.9930
  53   2.0000      -0.230137        -6.2623
  54   2.0000      -0.211013        -5.7420
  55   2.0000      -0.202239        -5.5032
  56   0.0000      -0.058084        -1.5806
  57   0.0000      -0.052750        -1.4354
  58   0.0000      -0.013011        -0.3541
  59   0.0000      -0.000933        -0.0254
  60   0.0000       0.008850         0.2408

MULLIKEN ATOMIC CHARGES
-----------------------
   0 C :   -0.318411
   1 C :   -0.185092
   2 C :    0.070451
   3 O :   -0.216641
   4 N :   -0.195567
   5 C :    0.206732
   6 C :   -0.132660
   7 C :   -0.111310
   8 C :    0.090038
   9 C :    0.089003
  10 C :   -0.190691
  11 Cl:   -0.052468
  12 Cl:   -0.062709
  13 H :    0.116663
  14 H :    0.121115
  15 H :    0.120168
  16 H :    0.122061
  17 H :    0.127116
  18 H :    0.234696
  19 H :    0.039523
  20 H :    0.054019
  21 H :    0.073964
Sum of atomic charges:   -0.0000000

LOEWDIN ATOMIC CHARGES
----------------------
   0 C :   -0.356101
   1 C :   -0.256107
   2 C :    0.029007
   3 O :   -0.184449
   4 N :   -0.101728
   5 C :    0.006999
   6 C :   -0.146834
   7 C :   -0.128922
   8 C :   -0.166200
   9 C :   -0.144448
  10 C :   -0.152898
  11 Cl:    0.144309
  12 Cl:    0.135644
  13 H :    0.120164
  14 H :    0.135414
  15 H :    0.123271
  16 H :    0.144681
  17 H :    0.146022
  18 H :    0.239851
  19 H :    0.125512
  20 H :    0.135233
  21 H :    0.151581

  Mayer bond orders larger than 0.100000
B(  0-C ,  1-C ) :   1.1497 B(  0-C , 13-H ) :   0.9350 B(  0-C , 14-H ) :   0.9363
B(  0-C , 15-H ) :   0.9479 B(  1-C ,  2-C ) :   1.0176 B(  1-C , 16-H ) :   0.9043
B(  1-C , 17-H ) :   0.8984 B(  2-C ,  3-O ) :   2.0189 B(  2-C ,  4-N ) :   1.1927
B(  4-N ,  5-C ) :   1.0963 B(  4-N , 18-H ) :   0.8122 B(  5-C ,  6-C ) :   1.2932
B(  5-C , 10-C ) :   1.3370 B(  6-C ,  7-C ) :   1.3690 B(  6-C , 19-H ) :   0.9572
B(  7-C ,  8-C ) :   1.3745 B(  7-C , 20-H ) :   0.9628 B(  8-C ,  9-C ) :   1.4121
B(  8-C , 12-Cl) :   1.0284 B(  9-C , 10-C ) :   1.3240 B(  9-C , 11-Cl) :   1.0446
B( 10-C , 21-H ) :   0.9480

Dispersion correction           -0.027911226
FINAL SINGLE POINT ENERGY     -1397.093793378004

DIPOLE MOMENT
-------------

Method             : SCF
Type of density    : Electron Density
Multiplicity       :   1
Irrep              :   0
Energy             : -1397.1546102389620501 Eh
Relativity type    :
Basis              : AO
                                X                 Y                 Z
Electronic contribution:    -32.404613983      -7.857746329       0.871684248
Nuclear contribution   :     33.802588806       9.420723721      -1.030291081
                        -----------------------------------------
Total Dipole Moment    :      1.397974823       1.562977392      -0.158606833
                        -----------------------------------------
Magnitude (a.u.)       :      2.102947470
Magnitude (Debye)      :      5.345267674

Rotational constants in cm-1:             0.046069             0.009700             0.008042
Rotational constants in MHz :          1381.107655           290.792346           241.084672

                             ****ORCA TERMINATED NORMALLY****
TOTAL RUN TIME: 0 days 0 hours 0 minutes 17 seconds 135 msec
