                         Program Version 6.0.0  -   RELEASE  -
|  1> ! r2scan-3c def2/J RI DEFGRID2 scfconv6 printgap
|  2> %output
|  3>     printlevel normal
|  4> end
|  5> * xyz 0 1
|  6> C 3.1392292987 0.3158138023 1.0335020046
|  7> C 1.930663978 -0.3576759667 0.4471722351
|  8> C 1.4388329188 -1.4561367868 0.9964758947
|  9> C 1.3866856159 0.3082260304 -0.7972907309
| 10> H 2.2540559627 0.5442704774 -1.4250136793
| 11> C 0.4329186844 -0.5370431607 -1.649297179
| 12> C -0.9787632348 -0.7104323523 -1.0702047573
| 13> C -1.3557413356 0.3124627137 -0.04017283
| 14> C -0.6015434191 1.3876237022 0.2326827984
| 15> C 0.6922304143 1.6376102928 -0.4475594088
| 16> C -2.5960973983 0.0967747867 0.6790227291
| 17> O -3.3447137081 -0.8536116415 0.5338129278
| 18> H 3.9115712397 0.4370327841 0.2758373007
| 19> H 2.8881153739 1.3040476857 1.4144033
| 20> H 3.544345066 -0.2696806409 1.853955648
| 21> H 0.5850998056 -1.9815348964 0.6132344937
| 22> H 1.8861113579 -1.8838338101 1.8789999773
| 23> H 0.3504204695 -0.0441089221 -2.6195959415
| 24> H 0.8777148481 -1.5178662482 -1.8194198273
| 25> H -1.7148224303 -0.6577958799 -1.8777170742
| 26> H -1.1133152488 -1.6974081942 -0.6199256529
| 27> H -0.9317592037 2.0999087454 0.9758642103
| 28> H 0.4983169848 2.184361641 -1.3751446161
| 29> H 1.3318795027 2.2661280292 0.1705026093
| 30> H -2.8447119363 0.882942075 1.4171175098
| 31> *
| 32>
| 33>                          ****END OF INPUT****

CARTESIAN COORDINATES (ANGSTROEM)
---------------------------------
  C      3.139229    0.315814    1.033502
  C      1.930664   -0.357676    0.447172
  C      1.438833   -1.456137    0.996476
  C      1.386686    0.308226   -0.797291
  H      2.254056    0.544270   -1.425014
  C      0.432919   -0.537043   -1.649297
  C     -0.978763   -0.710432   -1.070205
  C     -1.355741    0.312463   -0.040173
  C     -0.601543    1.387624    0.232683
  C      0.692230    1.637610   -0.447559
  C     -2.596097    0.096775    0.679023
  O     -3.344714   -0.853612    0.533813
  H      3.911571    0.437033    0.275837
  H      2.888115    1.304048    1.414403
  H      3.544345   -0.269681    1.853956
  H      0.585100   -1.981535    0.613234
  H      1.886111   -1.883834    1.879000
  H      0.350420   -0.044109   -2.619596
  H      0.877715   -1.517866   -1.819420
  H     -1.714822   -0.657796   -1.877717
  H     -1.113315   -1.697408   -0.619926
  H     -0.931759    2.099909    0.975864
  H      0.498317    2.184362   -1.375145
  H      1.331880    2.266128    0.170503
  H     -2.844712    0.882942    1.417118

 Total Charge           Charge          ....    0
 Multiplicity           Mult            ....    1
 Number of Electrons    NEL             ....   82
 Basis Dimension        Dim             ....  284

ORBITAL ENERGIES
----------------

  NO   OCC          E(Eh)            E(eV)
   0   2.0000     -18.937124      -515.3054
   1   2.0000     -10.106808      -275.0202
   2   2.0000     -10.058749      -273.7125
   3   2.0000     -10.052843      -273.5518
   4   2.0000     -10.051565      -273.5170
   5   2.0000     -10.047001      -273.3928
   6   2.0000     -10.045454      -273.3507
   7   2.0000     -10.037583      -273.1365
   8   2.0000     -10.037215      -273.1265
   9   2.0000     -10.030514      -272.9442
  10   2.0000     -10.016792      -272.5708
  11   2.0000      -0.997481       -27.1428
  12   2.0000      -0.832759       -22.6605
  13   2.0000      -0.778708       -21.1897
  14   2.0000      -0.728675       -19.8283
  15   2.0000      -0.726283       -19.7632
  16   2.0000      -0.658252       -17.9119
  17   2.0000      -0.629853       -17.1392
  18   2.0000      -0.596523       -16.2322
  19   2.0000      -0.560656       -15.2562
  20   2.0000      -0.513410       -13.9706
  21   2.0000      -0.475908       -12.9501
  22   2.0000      -0.467150       -12.7118
  23   2.0000      -0.454816       -12.3762
  24   2.0000      -0.425266       -11.5721
  25   2.0000      -0.417983       -11.3739
  26   2.0000      -0.408899       -11.1267
  27   2.0000      -0.400675       -10.9029
  28   2.0000      -0.380354       -10.3500
  29   2.0000      -0.376415       -10.2428
  30   2.0000      -0.372059       -10.1242
  31   2.0000      -0.368667       -10.0319
  32   2.0000      -0.361937        -9.8488
  33   2.0000      -0.340192        -9.2571
  34   2.0000      -0.337062        -9.1719
  35   2.0000      -0.305034        -8.3004
  36   2.0000      -0.297034        -8.0827
  37   2.0000      -0.291602        -7.9349
  38   2.0000      -0.244330        -6.6486
  39   2.0000      -0.232189        -6.3182
  40   2.0000      -0.215782        -5.8717
  41   0.0000      -0.085104        -2.3158
  42   0.0000      -0.014646        -0.3985
  43   0.0000       0.023806         0.6478
  44   0.0000       0.060761         1.6534
  45   0.0000       0.087227         2.3736

MULLIKEN ATOMIC CHARGES
-----------------------
   0 C :   -0.523884
   1 C :    0.008878
   2 C :   -0.308997
   3 C :    0.038018
   4 H :    0.167947
   5 C :   -0.394568
   6 C :   -0.371648
   7 C :    0.141161
   8 C :   -0.110296
   9 C :   -0.371055
  10 C :    0.019076
  11 O :   -0.351835
  12 H :    0.155890
  13 H :    0.153227
  14 H :    0.153329
  15 H :    0.139926
  16 H :    0.138071
  17 H :    0.164618
  18 H :    0.181638
  19 H :    0.179752
  20 H :    0.184648
  21 H :    0.162958
  22 H :    0.180158
  23 H :    0.162321
  24 H :    0.100665
Sum of atomic charges:   -0.0000000

LOEWDIN ATOMIC CHARGES
----------------------
   0 C :   -0.392208
   1 C :   -0.120948
   2 C :   -0.302984
   3 C :   -0.196542
   4 H :    0.170600
   5 C :   -0.282123
   6 C :   -0.269576
   7 C :   -0.109162
   8 C :   -0.119071
   9 C :   -0.268928
  10 C :    0.201073
  11 O :   -0.470144
  12 H :    0.160448
  13 H :    0.158227
  14 H :    0.160885
  15 H :    0.162828
  16 H :    0.157994
  17 H :    0.162347
  18 H :    0.169339
  19 H :    0.178908
  20 H :    0.176703
  21 H :    0.171103
  22 H :    0.179302
  23 H :    0.166391
  24 H :    0.155538

  Mayer bond orders larger than 0.100000
B(  0-C ,  1-C ) :   0.8907 B(  0-C , 12-H ) :   0.9756 B(  0-C , 13-H ) :   0.9702
B(  0-C , 14-H ) :   0.9857 B(  1-C ,  2-C ) :   1.8757 B(  1-C ,  3-C ) :   0.9054
B(  2-C , 15-H ) :   0.9638 B(  2-C , 16-H ) :   0.9700 B(  3-C ,  4-H ) :   0.9967
B(  3-C ,  5-C ) :   0.8673 B(  3-C ,  9-C ) :   0.8501 B(  5-C ,  6-C ) :   0.8391
B(  5-C , 17-H ) :   0.9859 B(  5-C , 18-H ) :   0.9965 B(  6-C ,  7-C ) :   0.8891
B(  6-C , 19-H ) :   0.9887 B(  6-C , 20-H ) :   0.9926 B(  7-C ,  8-C ) :   1.7519
B(  7-C , 10-C ) :   0.9048 B(  7-C , 11-O ) :  -0.1053 B(  7-C , 24-H ) :  -0.1341
B(  8-C ,  9-C ) :   0.8783 B(  8-C , 11-O ) :   0.1070 B(  8-C , 21-H ) :   0.9164
B(  9-C , 22-H ) :   0.9624 B(  9-C , 23-H ) :   0.9953 B( 10-C , 11-O ) :   1.9141
B( 10-C , 24-H ) :   1.0413

Dispersion correction           -0.009383232
FINAL SINGLE POINT ENERGY      -464.550678705094

DIPOLE MOMENT
-------------

Method             : SCF
Type of density    : Electron Density
Multiplicity       :   1
Irrep              :   0
Energy             :  -464.5511115883277853 Eh
Relativity type    :
Basis              : AO
                                X                 Y                 Z
Electronic contribution:     -9.438329076      -0.574225503       0.752194602
Nuclear contribution   :     10.760943350       1.550767350      -1.058691042
                        -----------------------------------------
Total Dipole Moment    :      1.322614274       0.976541847      -0.306496440
                        -----------------------------------------
Magnitude (a.u.)       :      1.672388281
Magnitude (Debye)      :      4.250873189

Rotational constants in cm-1:             0.064777             0.024053             0.023345
Rotational constants in MHz :          1941.965349           721.092894           699.879836

                             ****ORCA TERMINATED NORMALLY****
TOTAL RUN TIME: 0 days 0 hours 0 minutes 55 seconds 747 msec
