                         Program Version 6.0.0  -   RELEASE  -
|  1> ! r2scan-3c def2/J RI DEFGRID2 scfconv6 printgap
|  2> %output
|  3>     printlevel normal
|  4> end
|  5> %cpcm
|  6>     smd true
|  7>     smdsolvent "water"
|  8> end
|  9> * xyz 0 1
| 10> C 3.1392292987 0.3158138023 1.0335020046
| 11> C 1.930663978 -0.3576759667 0.4471722351
| 12> C 1.4388329188 -1.4561367868 0.9964758947
| 13> C 1.3866856159 0.3082260304 -0.7972907309
| 14> H 2.2540559627 0.5442704774 -1.4250136793
| 15> C 0.4329186844 -0.5370431607 -1.649297179
| 16> C -0.9787632348 -0.7104323523 -1.0702047573
| 17> C -1.3557413356 0.3124627137 -0.04017283
| 18> C -0.6015434191 1.3876237022 0.2326827984
| 19> C 0.6922304143 1.6376102928 -0.4475594088
| 20> C -2.5960973983 0.0967747867 0.6790227291
| 21> O -3.3447137081 -0.8536116415 0.5338129278
| 22> H 3.9115712397 0.4370327841 0.2758373007
| 23> H 2.8881153739 1.3040476857 1.4144033
| 24> H 3.544345066 -0.2696806409 1.853955648
| 25> H 0.5850998056 -1.9815348964 0.6132344937
| 26> H 1.8861113579 -1.8838338101 1.8789999773
| 27> H 0.3504204695 -0.0441089221 -2.6195959415
| 28> H 0.8777148481 -1.5178662482 -1.8194198273
| 29> H -1.7148224303 -0.6577958799 -1.8777170742
| 30> H -1.1133152488 -1.6974081942 -0.6199256529
| 31> H -0.9317592037 2.0999087454 0.9758642103
| 32> H 0.4983169848 2.184361641 -1.3751446161
| 33> H 1.3318795027 2.2661280292 0.1705026093
| 34> H -2.8447119363 0.882942075 1.4171175098
| 35> *
| 36>
| 37>                          ****END OF INPUT****

CARTESIAN COORDINATES (ANGSTROEM)
---------------------------------
  C      3.139229    0.315814    1.033502
  C      1.930664   -0.357676    0.447172
  C      1.438833   -1.456137    0.996476
  C      1.386686    0.308226   -0.797291
  H      2.254056    0.544270   -1.425014
  C      0.432919   -0.537043   -1.649297
  C     -0.978763   -0.710432   -1.070205
  C     -1.355741    0.312463   -0.040173
  C     -0.601543    1.387624    0.232683
  C      0.692230    1.637610   -0.447559
  C     -2.596097    0.096775    0.679023
  O     -3.344714   -0.853612    0.533813
  H      3.911571    0.437033    0.275837
  H      2.888115    1.304048    1.414403
  H      3.544345   -0.269681    1.853956
  H      0.585100   -1.981535    0.613234
  H      1.886111   -1.883834    1.879000
  H      0.350420   -0.044109   -2.619596
  H      0.877715   -1.517866   -1.819420
  H     -1.714822   -0.657796   -1.877717
  H     -1.113315   -1.697408   -0.619926
  H     -0.931759    2.099909    0.975864
  H      0.498317    2.184362   -1.375145
  H      1.331880    2.266128    0.170503
  H     -2.844712    0.882942    1.417118

 Total Charge           Charge          ....    0
 Multiplicity           Mult            ....    1
 Number of Electrons    NEL             ....   82
 Basis Dimension        Dim             ....  284

ORBITAL ENERGIES
----------------

  NO   OCC          E(Eh)            E(eV)
   0   2.0000     -18.949897      -515.6529
   1   2.0000     -10.113964      -275.2150
   2   2.0000     -10.052499      -273.5424
   3   2.0000     -10.041063      -273.2312
   4   2.0000     -10.037765      -273.1415
   5   2.0000     -10.037500      -273.1343
   6   2.0000     -10.034034      -273.0399
   7   2.0000     -10.028126      -272.8792
   8   2.0000     -10.022844      -272.7355
   9   2.0000     -10.014503      -272.5085
  10   2.0000     -10.007207      -272.3100
  11   2.0000      -1.012675       -27.5563
  12   2.0000      -0.821985       -22.3673
  13   2.0000      -0.770291       -20.9607
  14   2.0000      -0.716479       -19.4964
  15   2.0000      -0.715903       -19.4807
  16   2.0000      -0.646551       -17.5935
  17   2.0000      -0.621655       -16.9161
  18   2.0000      -0.585811       -15.9407
  19   2.0000      -0.554009       -15.0753
  20   2.0000      -0.503012       -13.6877
  21   2.0000      -0.467045       -12.7089
  22   2.0000      -0.461741       -12.5646
  23   2.0000      -0.445037       -12.1101
  24   2.0000      -0.423240       -11.5170
  25   2.0000      -0.407857       -11.0984
  26   2.0000      -0.400607       -10.9011
  27   2.0000      -0.395135       -10.7522
  28   2.0000      -0.373227       -10.1560
  29   2.0000      -0.371386       -10.1059
  30   2.0000      -0.364440        -9.9169
  31   2.0000      -0.358836        -9.7644
  32   2.0000      -0.353135        -9.6093
  33   2.0000      -0.333273        -9.0688
  34   2.0000      -0.325704        -8.8628
  35   2.0000      -0.293249        -7.9797
  36   2.0000      -0.283741        -7.7210
  37   2.0000      -0.279063        -7.5937
  38   2.0000      -0.240211        -6.5365
  39   2.0000      -0.229521        -6.2456
  40   2.0000      -0.226069        -6.1517
  41   0.0000      -0.086727        -2.3600
  42   0.0000      -0.007897        -0.2149
  43   0.0000       0.027266         0.7419
  44   0.0000       0.075818         2.0631
  45   0.0000       0.102932         2.8009

MULLIKEN ATOMIC CHARGES
-----------------------
   0 C :   -0.558678
   1 C :   -0.012627
   2 C :   -0.400488
   3 C :    0.051108
   4 H :    0.189432
   5 C :   -0.409276
   6 C :   -0.382740
   7 C :    0.077649
   8 C :   -0.099362
   9 C :   -0.379638
  10 C :    0.058261
  11 O :   -0.457549
  12 H :    0.174598
  13 H :    0.177301
  14 H :    0.166265
  15 H :    0.162990
  16 H :    0.163119
  17 H :    0.182126
  18 H :    0.186115
  19 H :    0.193158
  20 H :    0.190762
  21 H :    0.196738
  22 H :    0.206445
  23 H :    0.189607
  24 H :    0.134682
Sum of atomic charges:   -0.0000000

LOEWDIN ATOMIC CHARGES
----------------------
   0 C :   -0.399740
   1 C :   -0.118154
   2 C :   -0.338923
   3 C :   -0.194849
   4 H :    0.179970
   5 C :   -0.281247
   6 C :   -0.275431
   7 C :   -0.124308
   8 C :   -0.090368
   9 C :   -0.264541
  10 C :    0.211383
  11 O :   -0.554621
  12 H :    0.167443
  13 H :    0.167730
  14 H :    0.163136
  15 H :    0.166994
  16 H :    0.163047
  17 H :    0.169162
  18 H :    0.170085
  19 H :    0.181120
  20 H :    0.175939
  21 H :    0.184540
  22 H :    0.192083
  23 H :    0.177080
  24 H :    0.172471

  Mayer bond orders larger than 0.100000
B(  0-C ,  1-C ) :   0.8957 B(  0-C , 12-H ) :   0.9685 B(  0-C , 13-H ) :   0.9615
B(  0-C , 14-H ) :   0.9839 B(  1-C ,  2-C ) :   1.8402 B(  1-C ,  3-C ) :   0.8941
B(  2-C , 15-H ) :   0.9674 B(  2-C , 16-H ) :   0.9707 B(  3-C ,  4-H ) :   0.9870
B(  3-C ,  5-C ) :   0.8623 B(  3-C ,  9-C ) :   0.8424 B(  5-C ,  6-C ) :   0.8408
B(  5-C , 17-H ) :   0.9819 B(  5-C , 18-H ) :   0.9988 B(  6-C ,  7-C ) :   0.8411
B(  6-C , 19-H ) :   0.9787 B(  6-C , 20-H ) :   0.9952 B(  7-C ,  8-C ) :   1.7450
B(  7-C , 10-C ) :   0.9741 B(  7-C , 11-O ) :  -0.1013 B(  7-C , 24-H ) :  -0.1014
B(  8-C ,  9-C ) :   0.8776 B(  8-C , 21-H ) :   0.9134 B(  9-C , 22-H ) :   0.9529
B(  9-C , 23-H ) :   0.9871 B( 10-C , 11-O ) :   1.8321 B( 10-C , 24-H ) :   1.0104

Dispersion correction           -0.009383232
FINAL SINGLE POINT ENERGY      -464.558385664553

DIPOLE MOMENT
-------------

Method             : SCF
Type of density    : Electron Density
Multiplicity       :   1
Irrep              :   0
Energy             :  -464.5588185477865864 Eh
Relativity type    :
Basis              : AO
                                X                 Y                 Z
Electronic contribution:     -8.844446253       0.137321263       0.600731151
Nuclear contribution   :     10.760943350       1.550767350      -1.058691042
                        -----------------------------------------
Total Dipole Moment    :      1.916497096       1.688088613      -0.457959890
                        -----------------------------------------
Magnitude (a.u.)       :      2.594673688
Magnitude (Debye)      :      6.595136390

Rotational constants in cm-1:             0.064777             0.024053             0.023345
Rotational constants in MHz :          1941.965349           721.092894           699.879836

                             ****ORCA TERMINATED NORMALLY****
TOTAL RUN TIME: 0 days 0 hours 1 minutes 15 seconds 134 msec
