                         Program Version 6.0.0  -   RELEASE  -
|  1> ! pbe def2-sv(p) def2/J RI DEFGRID1 loosescf d4 GCP(DFT/SV(P)) printgap
|  2> %output
|  3>     printlevel normal
|  4> end
|  5> * xyz 0 1
|  6> C 3.58812707 -0.0325540478 -0.8464583911
|  7> C 2.5752288737 -0.1113729337 0.2535511482
|  8> C 2.9198028717 -0.309583325 1.5162940144
|  9> C 1.1335231101 0.0452107343 -0.1787143655
| 10> H 1.1070779924 0.1613922187 -1.2665089032
| 11> C 0.2916549253 -1.1849322853 0.1790755988
| 12> C -1.093742732 -1.06256106 -0.4456937954
| 13> C -1.710911838 0.2722749374 -0.1394386322
| 14> C -0.9803340311 1.3224884479 0.2680477399
| 15> C 0.4920722919 1.2895108689 0.4479499578
| 16> C -3.1470253347 0.4036687722 -0.2884823999
| 17> O -3.9089601262 -0.4828057359 -0.6324522161
| 18> H 4.5971549396 -0.1492913105 -0.4611176423
| 19> H 3.4008419463 -0.8136050528 -1.5822745013
| 20> H 3.5146008313 0.9274702034 -1.3556661808
| 21> H 2.1958178792 -0.3729951667 2.3105575225
| 22> H 3.9489344799 -0.4242870127 1.8104548134
| 23> H 0.7824408409 -2.090208944 -0.1801751238
| 24> H 0.1980866134 -1.2601883084 1.2628429463
| 25> H -1.0332882933 -1.1799046277 -1.5317812538
| 26> H -1.7598686176 -1.8478213349 -0.0811086985
| 27> H -1.4736011388 2.2576819357 0.4982022404
| 28> H 0.9303506589 2.1963251185 0.0247841606
| 29> H 0.705114233 1.3157453946 1.5212524136
| 30> H -3.5453303743 1.4105005897 -0.0597901535
| 31> *
| 32>
| 33>                          ****END OF INPUT****

CARTESIAN COORDINATES (ANGSTROEM)
---------------------------------
  C      3.588127   -0.032554   -0.846458
  C      2.575229   -0.111373    0.253551
  C      2.919803   -0.309583    1.516294
  C      1.133523    0.045211   -0.178714
  H      1.107078    0.161392   -1.266509
  C      0.291655   -1.184932    0.179076
  C     -1.093743   -1.062561   -0.445694
  C     -1.710912    0.272275   -0.139439
  C     -0.980334    1.322488    0.268048
  C      0.492072    1.289511    0.447950
  C     -3.147025    0.403669   -0.288482
  O     -3.908960   -0.482806   -0.632452
  H      4.597155   -0.149291   -0.461118
  H      3.400842   -0.813605   -1.582275
  H      3.514601    0.927470   -1.355666
  H      2.195818   -0.372995    2.310558
  H      3.948934   -0.424287    1.810455
  H      0.782441   -2.090209   -0.180175
  H      0.198087   -1.260188    1.262843
  H     -1.033288   -1.179905   -1.531781
  H     -1.759869   -1.847821   -0.081109
  H     -1.473601    2.257682    0.498202
  H      0.930351    2.196325    0.024784
  H      0.705114    1.315745    1.521252
  H     -3.545330    1.410501   -0.059790

 Total Charge           Charge          ....    0
 Multiplicity           Mult            ....    1
 Number of Electrons    NEL             ....   82
 Basis Dimension        Dim             ....  182

ORBITAL ENERGIES
----------------

  NO   OCC          E(Eh)            E(eV)
   0   2.0000     -18.741636      -509.9859
   1   2.0000      -9.961122      -271.0559
   2   2.0000      -9.918592      -269.8986
   3   2.0000      -9.906635      -269.5732
   4   2.0000      -9.906593      -269.5721
   5   2.0000      -9.904951      -269.5274
   6   2.0000      -9.904631      -269.5187
   7   2.0000      -9.892639      -269.1924
   8   2.0000      -9.892200      -269.1805
   9   2.0000      -9.888188      -269.0713
  10   2.0000      -9.877385      -268.7773
  11   2.0000      -0.931165       -25.3383
  12   2.0000      -0.783069       -21.3084
  13   2.0000      -0.734327       -19.9821
  14   2.0000      -0.684127       -18.6160
  15   2.0000      -0.678626       -18.4663
  16   2.0000      -0.619901       -16.8684
  17   2.0000      -0.589121       -16.0308
  18   2.0000      -0.561814       -15.2877
  19   2.0000      -0.523672       -14.2498
  20   2.0000      -0.485023       -13.1982
  21   2.0000      -0.470090       -12.7918
  22   2.0000      -0.442280       -12.0350
  23   2.0000      -0.425527       -11.5792
  24   2.0000      -0.407848       -11.0981
  25   2.0000      -0.398353       -10.8397
  26   2.0000      -0.391361       -10.6495
  27   2.0000      -0.381590       -10.3836
  28   2.0000      -0.375592       -10.2204
  29   2.0000      -0.359207        -9.7745
  30   2.0000      -0.354739        -9.6529
  31   2.0000      -0.351806        -9.5731
  32   2.0000      -0.340781        -9.2731
  33   2.0000      -0.330723        -8.9994
  34   2.0000      -0.323715        -8.8087
  35   2.0000      -0.299833        -8.1589
  36   2.0000      -0.291961        -7.9447
  37   2.0000      -0.277439        -7.5495
  38   2.0000      -0.237372        -6.4592
  39   2.0000      -0.221603        -6.0301
  40   2.0000      -0.199678        -5.4335
  41   0.0000      -0.087584        -2.3833
  42   0.0000      -0.020018        -0.5447
  43   0.0000       0.018183         0.4948
  44   0.0000       0.031750         0.8640
  45   0.0000       0.050308         1.3690

MULLIKEN ATOMIC CHARGES
-----------------------
   0 C :   -0.209991
   1 C :   -0.009250
   2 C :   -0.258784
   3 C :   -0.172780
   4 H :    0.060470
   5 C :   -0.132046
   6 C :   -0.056430
   7 C :   -0.058034
   8 C :   -0.162260
   9 C :   -0.044663
  10 C :    0.034899
  11 O :   -0.173272
  12 H :    0.096940
  13 H :    0.112155
  14 H :    0.109059
  15 H :    0.094487
  16 H :    0.086428
  17 H :    0.088894
  18 H :    0.089748
  19 H :    0.097957
  20 H :    0.101998
  21 H :    0.066593
  22 H :    0.099351
  23 H :    0.108217
  24 H :    0.030313
Sum of atomic charges:    0.0000000

LOEWDIN ATOMIC CHARGES
----------------------
   0 C :   -0.320708
   1 C :   -0.046863
   2 C :   -0.267116
   3 C :   -0.130775
   4 H :    0.119252
   5 C :   -0.204811
   6 C :   -0.210772
   7 C :   -0.104083
   8 C :   -0.086322
   9 C :   -0.207139
  10 C :   -0.004439
  11 O :   -0.135746
  12 H :    0.123521
  13 H :    0.129490
  14 H :    0.128113
  15 H :    0.115668
  16 H :    0.120000
  17 H :    0.121828
  18 H :    0.119666
  19 H :    0.133139
  20 H :    0.134364
  21 H :    0.124660
  22 H :    0.133566
  23 H :    0.138675
  24 H :    0.076833

  Mayer bond orders larger than 0.100000
B(  0-C ,  1-C ) :   1.1371 B(  0-C , 12-H ) :   0.9388 B(  0-C , 13-H ) :   0.9278
B(  0-C , 14-H ) :   0.9287 B(  1-C ,  2-C ) :   2.0293 B(  1-C ,  3-C ) :   0.9872
B(  2-C , 15-H ) :   0.9081 B(  2-C , 16-H ) :   0.9028 B(  3-C ,  4-H ) :   0.8942
B(  3-C ,  5-C ) :   1.0628 B(  3-C ,  9-C ) :   1.0829 B(  5-C ,  6-C ) :   1.1283
B(  5-C , 17-H ) :   0.9194 B(  5-C , 18-H ) :   0.9109 B(  6-C ,  7-C ) :   1.0637
B(  6-C , 19-H ) :   0.8855 B(  6-C , 20-H ) :   0.8916 B(  7-C ,  8-C ) :   1.7628
B(  7-C , 10-C ) :   1.0212 B(  8-C ,  9-C ) :   1.0548 B(  8-C , 11-O ) :   0.1008
B(  8-C , 21-H ) :   0.9263 B(  9-C , 22-H ) :   0.8980 B(  9-C , 23-H ) :   0.8737
B( 10-C , 11-O ) :   2.1142 B( 10-C , 24-H ) :   0.9213

Dispersion correction           -0.026170130
FINAL SINGLE POINT ENERGY      -463.628736280053

DIPOLE MOMENT
-------------

Method             : SCF
Type of density    : Electron Density
Multiplicity       :   1
Irrep              :   0
Energy             :  -463.7047973931984188 Eh
Relativity type    :
Basis              : AO
                                X                 Y                 Z
Electronic contribution:    -11.485831352       0.475175613      -0.704845190
Nuclear contribution   :     12.671422675       0.115567924       0.844048848
                        -----------------------------------------
Total Dipole Moment    :      1.185591323       0.590743537       0.139203658
                        -----------------------------------------
Magnitude (a.u.)       :      1.331909295
Magnitude (Debye)      :      3.385444381

Rotational constants in cm-1:             0.099245             0.017994             0.017067
Rotational constants in MHz :          2975.280786           539.437794           511.660145

                             ****ORCA TERMINATED NORMALLY****
TOTAL RUN TIME: 0 days 0 hours 0 minutes 19 seconds 51 msec
