                         Program Version 6.0.0  -   RELEASE  -
|  1> ! pbe def2-sv(p) def2/J RI DEFGRID1 loosescf d4 GCP(DFT/SV(P)) printgap
|  2> %output
|  3>     printlevel normal
|  4> end
|  5> * xyz 0 1
|  6> C -3.2356083075 0.9448548734 -0.1502596454
|  7> C -2.4144525094 1.0705065607 0.9582442687
|  8> C -1.2796119202 0.28810584 1.0720139072
|  9> C -0.9531523657 -0.6265934831 0.0781861453
| 10> C -1.7768808131 -0.7432323539 -1.032309272
| 11> C -2.9156293251 0.0363577794 -1.1443970594
| 12> C 0.3063734853 -1.4519552539 0.1989780129
| 13> N 1.4761268144 -0.6098696888 0.1037145229
| 14> C 2.2464120086 -0.1541977017 1.1330240635
| 15> C 3.1844475169 0.6631559064 0.5719062071
| 16> N 3.0013167788 0.7247972986 -0.7756352199
| 17> C 1.9697739333 -0.043194662 -1.0173969114
| 18> H -4.1217718628 1.5545751917 -0.2386256429
| 19> H -2.65897911 1.7785122402 1.7355080244
| 20> H -0.6393889085 0.3906450651 1.9360570485
| 21> H -1.5300392723 -1.4487898713 -1.8120230382
| 22> H -3.55132215 -0.0637917041 -2.0109598589
| 23> H 0.3350124635 -1.9607265863 1.1654695671
| 24> H 0.344084793 -2.1978669939 -0.5986967101
| 25> H 2.0802047039 -0.4492752445 2.1480487155
| 26> H 3.9775663704 1.2076674227 1.0434620365
| 27> H 1.5571540535 -0.2151250318 -1.9909535649
| 28> *
| 29>
| 30>                          ****END OF INPUT****

CARTESIAN COORDINATES (ANGSTROEM)
---------------------------------
  C     -3.235608    0.944855   -0.150260
  C     -2.414453    1.070507    0.958244
  C     -1.279612    0.288106    1.072014
  C     -0.953152   -0.626593    0.078186
  C     -1.776881   -0.743232   -1.032309
  C     -2.915629    0.036358   -1.144397
  C      0.306373   -1.451955    0.198978
  N      1.476127   -0.609870    0.103715
  C      2.246412   -0.154198    1.133024
  C      3.184448    0.663156    0.571906
  N      3.001317    0.724797   -0.775635
  C      1.969774   -0.043195   -1.017397
  H     -4.121772    1.554575   -0.238626
  H     -2.658979    1.778512    1.735508
  H     -0.639389    0.390645    1.936057
  H     -1.530039   -1.448790   -1.812023
  H     -3.551322   -0.063792   -2.010960
  H      0.335012   -1.960727    1.165470
  H      0.344085   -2.197867   -0.598697
  H      2.080205   -0.449275    2.148049
  H      3.977566    1.207667    1.043462
  H      1.557154   -0.215125   -1.990954

 Total Charge           Charge          ....    0
 Multiplicity           Mult            ....    1
 Number of Electrons    NEL             ....   84
 Basis Dimension        Dim             ....  188

ORBITAL ENERGIES
----------------

  NO   OCC          E(Eh)            E(eV)
   0   2.0000     -14.056383      -382.4936
   1   2.0000     -13.956645      -379.7796
   2   2.0000      -9.948811      -270.7209
   3   2.0000      -9.924672      -270.0641
   4   2.0000      -9.915244      -269.8075
   5   2.0000      -9.908338      -269.6196
   6   2.0000      -9.904206      -269.5071
   7   2.0000      -9.904026      -269.5022
   8   2.0000      -9.903771      -269.4953
   9   2.0000      -9.903292      -269.4823
  10   2.0000      -9.902927      -269.4723
  11   2.0000      -9.890717      -269.1401
  12   2.0000      -0.935591       -25.4587
  13   2.0000      -0.811548       -22.0833
  14   2.0000      -0.784285       -21.3415
  15   2.0000      -0.706629       -19.2283
  16   2.0000      -0.682392       -18.5688
  17   2.0000      -0.666501       -18.1364
  18   2.0000      -0.635852       -17.3024
  19   2.0000      -0.559096       -15.2138
  20   2.0000      -0.546341       -14.8667
  21   2.0000      -0.536004       -14.5854
  22   2.0000      -0.512270       -13.9396
  23   2.0000      -0.491815       -13.3830
  24   2.0000      -0.473084       -12.8733
  25   2.0000      -0.432413       -11.7665
  26   2.0000      -0.424062       -11.5393
  27   2.0000      -0.403591       -10.9823
  28   2.0000      -0.398054       -10.8316
  29   2.0000      -0.387477       -10.5438
  30   2.0000      -0.384973       -10.4757
  31   2.0000      -0.366117        -9.9626
  32   2.0000      -0.360346        -9.8055
  33   2.0000      -0.351465        -9.5638
  34   2.0000      -0.339992        -9.2516
  35   2.0000      -0.316202        -8.6043
  36   2.0000      -0.310842        -8.4584
  37   2.0000      -0.245508        -6.6806
  38   2.0000      -0.241875        -6.5817
  39   2.0000      -0.232366        -6.3230
  40   2.0000      -0.207579        -5.6485
  41   2.0000      -0.197678        -5.3791
  42   0.0000      -0.051374        -1.3979
  43   0.0000      -0.046011        -1.2520
  44   0.0000      -0.002936        -0.0799
  45   0.0000       0.028342         0.7712
  46   0.0000       0.039293         1.0692

MULLIKEN ATOMIC CHARGES
-----------------------
   0 C :   -0.044018
   1 C :   -0.045968
   2 C :   -0.097083
   3 C :    0.047857
   4 C :   -0.112109
   5 C :   -0.047657
   6 C :    0.018619
   7 N :   -0.129003
   8 C :   -0.045930
   9 C :   -0.082823
  10 N :   -0.124651
  11 C :   -0.005568
  12 H :    0.059442
  13 H :    0.058223
  14 H :    0.048099
  15 H :    0.042890
  16 H :    0.057377
  17 H :    0.109099
  18 H :    0.099456
  19 H :    0.064151
  20 H :    0.060287
  21 H :    0.069309
Sum of atomic charges:    0.0000000

LOEWDIN ATOMIC CHARGES
----------------------
   0 C :   -0.119099
   1 C :   -0.114765
   2 C :   -0.112824
   3 C :   -0.056656
   4 C :   -0.121624
   5 C :   -0.116977
   6 C :   -0.124203
   7 N :    0.057306
   8 C :   -0.158444
   9 C :   -0.148655
  10 N :   -0.114715
  11 C :   -0.109369
  12 H :    0.126374
  13 H :    0.126910
  14 H :    0.124186
  15 H :    0.122502
  16 H :    0.126474
  17 H :    0.134685
  18 H :    0.128914
  19 H :    0.120503
  20 H :    0.115217
  21 H :    0.114260

  Mayer bond orders larger than 0.100000
B(  0-C ,  1-C ) :   1.3722 B(  0-C ,  5-C ) :   1.3901 B(  0-C , 12-H ) :   0.9650
B(  1-C ,  2-C ) :   1.3900 B(  1-C , 13-H ) :   0.9641 B(  2-C ,  3-C ) :   1.3821
B(  2-C , 14-H ) :   0.9577 B(  3-C ,  4-C ) :   1.3980 B(  3-C ,  6-C ) :   1.0572
B(  4-C ,  5-C ) :   1.3693 B(  4-C , 15-H ) :   0.9603 B(  5-C , 16-H ) :   0.9631
B(  6-C ,  7-N ) :   0.9933 B(  6-C , 17-H ) :   0.9066 B(  6-C , 18-H ) :   0.9087
B(  7-N ,  8-C ) :   1.1882 B(  7-N , 11-C ) :   1.2116 B(  8-C ,  9-C ) :   1.4726
B(  8-C , 19-H ) :   0.9601 B(  9-C , 10-N ) :   1.4131 B(  9-C , 20-H ) :   0.9776
B( 10-N , 11-C ) :   1.6352 B( 11-C , 21-H ) :   0.9568

Dispersion correction           -0.025902423
FINAL SINGLE POINT ENERGY      -495.509412734466

DIPOLE MOMENT
-------------

Method             : SCF
Type of density    : Electron Density
Multiplicity       :   1
Irrep              :   0
Energy             :  -495.5711953029506276 Eh
Relativity type    :
Basis              : AO
                                X                 Y                 Z
Electronic contribution:      2.703480874       0.547228993      -0.773758277
Nuclear contribution   :     -3.922756533      -1.316725194       1.288441541
                        -----------------------------------------
Total Dipole Moment    :     -1.219275659      -0.769496201       0.514683265
                        -----------------------------------------
Magnitude (a.u.)       :      1.530900519
Magnitude (Debye)      :      3.891239877

Rotational constants in cm-1:             0.077796             0.018654             0.017756
Rotational constants in MHz :          2332.258804           559.240939           532.310283

                             ****ORCA TERMINATED NORMALLY****
TOTAL RUN TIME: 0 days 0 hours 0 minutes 13 seconds 830 msec
