                         Program Version 6.0.0  -   RELEASE  -
|  1> ! pbe def2-sv(p) def2/J RI DEFGRID1 loosescf d4 GCP(DFT/SV(P)) printgap
|  2> %output
|  3>     printlevel normal
|  4> end
|  5> * xyz 0 1
|  6> C -1.4980913073 1.0555839467 0.5942188434
|  7> C -1.1531367953 -0.3224157201 0.0340982223
|  8> C -2.3334396109 -0.8393151071 -0.7922532024
|  9> C 0.1012904802 -0.3262052784 -0.8511675847
| 10> C 1.4755051309 -0.095502245 -0.1946270949
| 11> C 1.7936375833 1.3764449226 0.066621034
| 12> C 1.6608878711 -0.9170677683 1.0793339533
| 13> H -2.4862190551 1.0353241797 1.0498262057
| 14> H -0.7890470209 1.3645420757 1.355857647
| 15> H -1.5028219721 1.7995179304 -0.1992458381
| 16> H -1.0019135278 -1.0131636129 0.8689433884
| 17> H -2.5180804103 -0.1825834314 -1.639895931
| 18> H -2.133417806 -1.839354366 -1.1705262874
| 19> H -3.2357843999 -0.8784562247 -0.1862769564
| 20> H -0.0304960591 0.4160696302 -1.6426779592
| 21> H 0.1418778408 -1.3062637992 -1.3350914403
| 22> H 2.213309526 -0.4502085594 -0.9262805373
| 23> H 1.1956294655 1.7775954181 0.8784098534
| 24> H 2.8419125938 1.4836486167 0.338544529
| 25> H 1.6104713277 1.9724255199 -0.8242578511
| 26> H 1.415734686 -1.9615247474 0.9008539067
| 27> H 2.6948599102 -0.8600116348 1.4124180993
| 28> H 1.0280235852 -0.5415234137 1.8794065945
| 29> *
| 30>
| 31>                          ****END OF INPUT****

CARTESIAN COORDINATES (ANGSTROEM)
---------------------------------
  C     -1.498091    1.055584    0.594219
  C     -1.153137   -0.322416    0.034098
  C     -2.333440   -0.839315   -0.792253
  C      0.101290   -0.326205   -0.851168
  C      1.475505   -0.095502   -0.194627
  C      1.793638    1.376445    0.066621
  C      1.660888   -0.917068    1.079334
  H     -2.486219    1.035324    1.049826
  H     -0.789047    1.364542    1.355858
  H     -1.502822    1.799518   -0.199246
  H     -1.001914   -1.013164    0.868943
  H     -2.518080   -0.182583   -1.639896
  H     -2.133418   -1.839354   -1.170526
  H     -3.235784   -0.878456   -0.186277
  H     -0.030496    0.416070   -1.642678
  H      0.141878   -1.306264   -1.335091
  H      2.213310   -0.450209   -0.926281
  H      1.195629    1.777595    0.878410
  H      2.841913    1.483649    0.338545
  H      1.610471    1.972426   -0.824258
  H      1.415735   -1.961525    0.900854
  H      2.694860   -0.860012    1.412418
  H      1.028024   -0.541523    1.879407

 Total Charge           Charge          ....    0
 Multiplicity           Mult            ....    1
 Number of Electrons    NEL             ....   58
 Basis Dimension        Dim             ....  130

ORBITAL ENERGIES
----------------

  NO   OCC          E(Eh)            E(eV)
   0   2.0000      -9.889872      -269.1171
   1   2.0000      -9.888997      -269.0933
   2   2.0000      -9.875491      -268.7258
   3   2.0000      -9.869199      -268.5546
   4   2.0000      -9.867987      -268.5216
   5   2.0000      -9.867768      -268.5156
   6   2.0000      -9.866882      -268.4915
   7   2.0000      -0.737414       -20.0661
   8   2.0000      -0.696008       -18.9394
   9   2.0000      -0.610896       -16.6233
  10   2.0000      -0.605959       -16.4890
  11   2.0000      -0.599530       -16.3140
  12   2.0000      -0.514266       -13.9939
  13   2.0000      -0.475339       -12.9346
  14   2.0000      -0.417320       -11.3558
  15   2.0000      -0.411628       -11.2010
  16   2.0000      -0.391678       -10.6581
  17   2.0000      -0.370593       -10.0843
  18   2.0000      -0.367803       -10.0084
  19   2.0000      -0.348207        -9.4752
  20   2.0000      -0.338758        -9.2181
  21   2.0000      -0.332659        -9.0521
  22   2.0000      -0.315488        -8.5849
  23   2.0000      -0.311211        -8.4685
  24   2.0000      -0.293562        -7.9882
  25   2.0000      -0.289057        -7.8656
  26   2.0000      -0.273344        -7.4381
  27   2.0000      -0.266756        -7.2588
  28   2.0000      -0.257033        -6.9942
  29   0.0000       0.028329         0.7709
  30   0.0000       0.057576         1.5667
  31   0.0000       0.064944         1.7672
  32   0.0000       0.068183         1.8553
  33   0.0000       0.089187         2.4269

MULLIKEN ATOMIC CHARGES
-----------------------
   0 C :   -0.242564
   1 C :   -0.189971
   2 C :   -0.241582
   3 C :   -0.120495
   4 C :   -0.143387
   5 C :   -0.249465
   6 C :   -0.257608
   7 H :    0.093074
   8 H :    0.110748
   9 H :    0.089571
  10 H :    0.074150
  11 H :    0.091260
  12 H :    0.095434
  13 H :    0.096438
  14 H :    0.069713
  15 H :    0.072291
  16 H :    0.066456
  17 H :    0.097835
  18 H :    0.094854
  19 H :    0.094034
  20 H :    0.098277
  21 H :    0.096547
  22 H :    0.104390
Sum of atomic charges:   -0.0000000

LOEWDIN ATOMIC CHARGES
----------------------
   0 C :   -0.330292
   1 C :   -0.158576
   2 C :   -0.327405
   3 C :   -0.210735
   4 C :   -0.156299
   5 C :   -0.332148
   6 C :   -0.330740
   7 H :    0.116227
   8 H :    0.114803
   9 H :    0.116483
  10 H :    0.114666
  11 H :    0.115418
  12 H :    0.114861
  13 H :    0.114976
  14 H :    0.111804
  15 H :    0.113683
  16 H :    0.115573
  17 H :    0.114808
  18 H :    0.116595
  19 H :    0.115653
  20 H :    0.116546
  21 H :    0.117810
  22 H :    0.116290

  Mayer bond orders larger than 0.100000
B(  0-C ,  1-C ) :   1.1180 B(  0-C ,  7-H ) :   0.9470 B(  0-C ,  8-H ) :   0.9382
B(  0-C ,  9-H ) :   0.9470 B(  1-C ,  2-C ) :   1.1097 B(  1-C ,  3-C ) :   1.0946
B(  1-C , 10-H ) :   0.8911 B(  2-C , 11-H ) :   0.9517 B(  2-C , 12-H ) :   0.9496
B(  2-C , 13-H ) :   0.9498 B(  3-C ,  4-C ) :   1.0855 B(  3-C , 14-H ) :   0.9134
B(  3-C , 15-H ) :   0.9139 B(  4-C ,  5-C ) :   1.1209 B(  4-C ,  6-C ) :   1.1127
B(  4-C , 16-H ) :   0.8989 B(  5-C , 17-H ) :   0.9410 B(  5-C , 18-H ) :   0.9485
B(  5-C , 19-H ) :   0.9489 B(  6-C , 20-H ) :   0.9500 B(  6-C , 21-H ) :   0.9486
B(  6-C , 22-H ) :   0.9409

Dispersion correction           -0.019049841
FINAL SINGLE POINT ENERGY      -275.659365865358

DIPOLE MOMENT
-------------

Method             : SCF
Type of density    : Electron Density
Multiplicity       :   1
Irrep              :   0
Energy             :  -275.7366842824863511 Eh
Relativity type    :
Basis              : AO
                                X                 Y                 Z
Electronic contribution:      0.559477785      -0.806944732      -0.699548189
Nuclear contribution   :     -0.521581467       0.765571236       0.713009656
                        -----------------------------------------
Total Dipole Moment    :      0.037896318      -0.041373496       0.013461467
                        -----------------------------------------
Magnitude (a.u.)       :      0.057698425
Magnitude (Debye)      :      0.146657740

Rotational constants in cm-1:             0.128121             0.052061             0.047004
Rotational constants in MHz :          3840.957194          1560.741213          1409.154585

                             ****ORCA TERMINATED NORMALLY****
TOTAL RUN TIME: 0 days 0 hours 0 minutes 10 seconds 926 msec
