                         Program Version 6.0.0  -   RELEASE  -
|  1> ! pbe def2-sv(p) def2/J RI DEFGRID1 loosescf d4 GCP(DFT/SV(P)) printgap
|  2> %output
|  3>     printlevel normal
|  4> end
|  5> * xyz 0 1
|  6> C -1.9773768177 0.2669245744 -0.5723576085
|  7> C -1.0280521381 0.2656801439 0.6311728558
|  8> N 0.0421513968 -0.7170746251 0.5883672413
|  9> C 1.0566684606 -0.5213226778 -0.4390992653
| 10> C 1.9346946887 0.6909919412 -0.1429891866
| 11> H -2.4182307901 -0.7191713592 -0.7082784497
| 12> H -2.7765343854 0.9847005679 -0.4101150379
| 13> H -1.4521686405 0.5408612529 -1.4844465778
| 14> H -1.6035398007 0.0577203746 1.5378875273
| 15> H -0.5760467799 1.2526661513 0.7442045221
| 16> H -0.3676480261 -1.6389067597 0.4760100114
| 17> H 1.6822310698 -1.4177036631 -0.4315025291
| 18> H 0.6296981461 -0.4226050418 -1.4513627575
| 19> H 2.2878233967 0.6448842886 0.8830335968
| 20> H 2.7897332482 0.6951994772 -0.8133971939
| 21> H 1.3865414976 1.618702642 -0.2828109425
| 22> *
| 23>
| 24>                          ****END OF INPUT****

CARTESIAN COORDINATES (ANGSTROEM)
---------------------------------
  C     -1.977377    0.266925   -0.572358
  C     -1.028052    0.265680    0.631173
  N      0.042151   -0.717075    0.588367
  C      1.056668   -0.521323   -0.439099
  C      1.934695    0.690992   -0.142989
  H     -2.418231   -0.719171   -0.708278
  H     -2.776534    0.984701   -0.410115
  H     -1.452169    0.540861   -1.484447
  H     -1.603540    0.057720    1.537888
  H     -0.576047    1.252666    0.744205
  H     -0.367648   -1.638907    0.476010
  H      1.682231   -1.417704   -0.431503
  H      0.629698   -0.422605   -1.451363
  H      2.287823    0.644884    0.883034
  H      2.789733    0.695199   -0.813397
  H      1.386541    1.618703   -0.282811

 Total Charge           Charge          ....    0
 Multiplicity           Mult            ....    1
 Number of Electrons    NEL             ....   42
 Basis Dimension        Dim             ....   92

ORBITAL ENERGIES
----------------

  NO   OCC          E(Eh)            E(eV)
   0   2.0000     -13.960784      -379.8923
   1   2.0000      -9.904106      -269.5044
   2   2.0000      -9.903267      -269.4816
   3   2.0000      -9.872240      -268.6373
   4   2.0000      -9.868738      -268.5420
   5   2.0000      -0.810985       -22.0680
   6   2.0000      -0.676327       -18.4038
   7   2.0000      -0.638053       -17.3623
   8   2.0000      -0.561509       -15.2794
   9   2.0000      -0.507472       -13.8090
  10   2.0000      -0.444535       -12.0964
  11   2.0000      -0.415090       -11.2952
  12   2.0000      -0.383442       -10.4340
  13   2.0000      -0.368396       -10.0246
  14   2.0000      -0.354766        -9.6537
  15   2.0000      -0.330755        -9.0003
  16   2.0000      -0.320489        -8.7209
  17   2.0000      -0.310883        -8.4596
  18   2.0000      -0.293798        -7.9946
  19   2.0000      -0.287011        -7.8100
  20   2.0000      -0.166802        -4.5389
  21   0.0000       0.031016         0.8440
  22   0.0000       0.058176         1.5830
  23   0.0000       0.073435         1.9983
  24   0.0000       0.080390         2.1875
  25   0.0000       0.106886         2.9085

MULLIKEN ATOMIC CHARGES
-----------------------
   0 C :   -0.300120
   1 C :   -0.103289
   2 N :   -0.343482
   3 C :   -0.095235
   4 C :   -0.287901
   5 H :    0.092385
   6 H :    0.098332
   7 H :    0.110682
   8 H :    0.086255
   9 H :    0.090716
  10 H :    0.194484
  11 H :    0.078867
  12 H :    0.067173
  13 H :    0.105406
  14 H :    0.098958
  15 H :    0.106769
Sum of atomic charges:    0.0000000

LOEWDIN ATOMIC CHARGES
----------------------
   0 C :   -0.365202
   1 C :   -0.179737
   2 N :   -0.265023
   3 C :   -0.175085
   4 C :   -0.351854
   5 H :    0.113652
   6 H :    0.121374
   7 H :    0.117789
   8 H :    0.110638
   9 H :    0.112277
  10 H :    0.204019
  11 H :    0.111212
  12 H :    0.086945
  13 H :    0.122102
  14 H :    0.121222
  15 H :    0.115672

  Mayer bond orders larger than 0.100000
B(  0-C ,  1-C ) :   1.1214 B(  0-C ,  5-H ) :   0.9525 B(  0-C ,  6-H ) :   0.9425
B(  0-C ,  7-H ) :   0.9483 B(  1-C ,  2-N ) :   1.1056 B(  1-C ,  8-H ) :   0.9392
B(  1-C ,  9-H ) :   0.9285 B(  2-N ,  3-C ) :   1.0888 B(  2-N , 10-H ) :   0.8827
B(  3-C ,  4-C ) :   1.1572 B(  3-C , 11-H ) :   0.9347 B(  3-C , 12-H ) :   0.9083
B(  4-C , 13-H ) :   0.9478 B(  4-C , 14-H ) :   0.9483 B(  4-C , 15-H ) :   0.9496

Dispersion correction           -0.010485089
FINAL SINGLE POINT ENERGY      -213.242317983141

DIPOLE MOMENT
-------------

Method             : SCF
Type of density    : Electron Density
Multiplicity       :   1
Irrep              :   0
Energy             :  -213.3021038418837634 Eh
Relativity type    :
Basis              : AO
                                X                 Y                 Z
Electronic contribution:      0.198315739      -1.599454212       1.533022164
Nuclear contribution   :     -0.392055716       1.493697807      -1.817540964
                        -----------------------------------------
Total Dipole Moment    :     -0.193739978      -0.105756405      -0.284518800
                        -----------------------------------------
Magnitude (a.u.)       :      0.360097964
Magnitude (Debye)      :      0.915296285

Rotational constants in cm-1:             0.302595             0.094246             0.089943
Rotational constants in MHz :          9071.578592          2825.418621          2696.433232

                             ****ORCA TERMINATED NORMALLY****
TOTAL RUN TIME: 0 days 0 hours 0 minutes 6 seconds 442 msec
