                         Program Version 6.0.0  -   RELEASE  -
|  1> ! r2scan-3c def2/J RI DEFGRID2 scfconv6 printgap
|  2> %output
|  3>     printlevel normal
|  4> end
|  5> * xyz 0 1
|  6> C -2.4441635672 0.7386297927 0.5466365424
|  7> C -1.2467675331 -0.2137177352 0.4937366693
|  8> C -1.7157190436 -1.5450141846 -0.0976765888
|  9> C -0.0802658274 0.4020870761 -0.3102865285
| 10> C 0.2760551763 1.7920334386 0.2238110222
| 11> C 1.1608880345 -0.5175246403 -0.3640835802
| 12> C 2.1240707299 -0.0911537993 -1.4739960728
| 13> C 1.9085382975 -0.6028385854 0.9655050506
| 14> H -2.2158657804 1.6371246526 1.1113479037
| 15> H -2.7456499925 1.024017531 -0.4591554848
| 16> H -3.2873939558 0.2484053274 1.0284605353
| 17> H -0.9110488324 -0.3902096797 1.5211865151
| 18> H -1.9465646679 -1.4291187404 -1.1546344918
| 19> H -2.6154559573 -1.8810127388 0.4130225723
| 20> H -0.96676015 -2.3240873012 0.0110571839
| 21> H -0.4299493774 0.5180131589 -1.3439417946
| 22> H 1.2060905472 2.1442264177 -0.2127390123
| 23> H 0.3871026652 1.7726794982 1.3051759879
| 24> H -0.4964480319 2.511694962 -0.0309412275
| 25> H 0.8166033167 -1.5229719059 -0.621355166
| 26> H 2.9265775763 -0.8194187658 -1.5684173387
| 27> H 1.6064441051 -0.0277313536 -2.4285214484
| 28> H 2.5742868999 0.8752290664 -1.2618263509
| 29> H 1.2443603075 -0.9075499917 1.7698611748
| 30> H 2.3523964739 0.3545070206 1.2243491089
| 31> H 2.7081959743 -1.3369312631 0.891953484
| 32> *
| 33>
| 34>                          ****END OF INPUT****

CARTESIAN COORDINATES (ANGSTROEM)
---------------------------------
  C     -2.444164    0.738630    0.546637
  C     -1.246768   -0.213718    0.493737
  C     -1.715719   -1.545014   -0.097677
  C     -0.080266    0.402087   -0.310287
  C      0.276055    1.792033    0.223811
  C      1.160888   -0.517525   -0.364084
  C      2.124071   -0.091154   -1.473996
  C      1.908538   -0.602839    0.965505
  H     -2.215866    1.637125    1.111348
  H     -2.745650    1.024018   -0.459155
  H     -3.287394    0.248405    1.028461
  H     -0.911049   -0.390210    1.521187
  H     -1.946565   -1.429119   -1.154634
  H     -2.615456   -1.881013    0.413023
  H     -0.966760   -2.324087    0.011057
  H     -0.429949    0.518013   -1.343942
  H      1.206091    2.144226   -0.212739
  H      0.387103    1.772679    1.305176
  H     -0.496448    2.511695   -0.030941
  H      0.816603   -1.522972   -0.621355
  H      2.926578   -0.819419   -1.568417
  H      1.606444   -0.027731   -2.428521
  H      2.574287    0.875229   -1.261826
  H      1.244360   -0.907550    1.769861
  H      2.352396    0.354507    1.224349
  H      2.708196   -1.336931    0.891953

 Total Charge           Charge          ....    0
 Multiplicity           Mult            ....    1
 Number of Electrons    NEL             ....   66
 Basis Dimension        Dim             ....  242

ORBITAL ENERGIES
----------------

  NO   OCC          E(Eh)            E(eV)
   0   2.0000     -10.029435      -272.9148
   1   2.0000     -10.027697      -272.8675
   2   2.0000     -10.027083      -272.8508
   3   2.0000     -10.012128      -272.4438
   4   2.0000     -10.011956      -272.4392
   5   2.0000     -10.011856      -272.4365
   6   2.0000     -10.011725      -272.4329
   7   2.0000     -10.011139      -272.4169
   8   2.0000      -0.794051       -21.6072
   9   2.0000      -0.742754       -20.2114
  10   2.0000      -0.687720       -18.7138
  11   2.0000      -0.647199       -17.6112
  12   2.0000      -0.645640       -17.5687
  13   2.0000      -0.599799       -16.3214
  14   2.0000      -0.541222       -14.7274
  15   2.0000      -0.500040       -13.6068
  16   2.0000      -0.445432       -12.1208
  17   2.0000      -0.422595       -11.4994
  18   2.0000      -0.408793       -11.1238
  19   2.0000      -0.398557       -10.8453
  20   2.0000      -0.379822       -10.3355
  21   2.0000      -0.370253       -10.0751
  22   2.0000      -0.361429        -9.8350
  23   2.0000      -0.351963        -9.5774
  24   2.0000      -0.343500        -9.3471
  25   2.0000      -0.337563        -9.1856
  26   2.0000      -0.323316        -8.7979
  27   2.0000      -0.312482        -8.5031
  28   2.0000      -0.307697        -8.3729
  29   2.0000      -0.298853        -8.1322
  30   2.0000      -0.279680        -7.6105
  31   2.0000      -0.268638        -7.3100
  32   2.0000      -0.265941        -7.2366
  33   0.0000       0.078580         2.1383
  34   0.0000       0.104940         2.8556
  35   0.0000       0.109448         2.9782
  36   0.0000       0.111762         3.0412
  37   0.0000       0.121210         3.2983

MULLIKEN ATOMIC CHARGES
-----------------------
   0 C :   -0.510501
   1 C :   -0.026325
   2 C :   -0.526785
   3 C :   -0.076893
   4 C :   -0.564384
   5 C :   -0.038312
   6 C :   -0.504542
   7 C :   -0.516096
   8 H :    0.157708
   9 H :    0.156212
  10 H :    0.142936
  11 H :    0.156073
  12 H :    0.156986
  13 H :    0.144532
  14 H :    0.149309
  15 H :    0.166531
  16 H :    0.151187
  17 H :    0.168052
  18 H :    0.160862
  19 H :    0.148455
  20 H :    0.148342
  21 H :    0.147299
  22 H :    0.149226
  23 H :    0.154713
  24 H :    0.157279
  25 H :    0.148136
Sum of atomic charges:   -0.0000000

LOEWDIN ATOMIC CHARGES
----------------------
   0 C :   -0.415174
   1 C :   -0.239000
   2 C :   -0.418304
   3 C :   -0.227189
   4 C :   -0.413487
   5 C :   -0.240202
   6 C :   -0.414949
   7 C :   -0.414154
   8 H :    0.154174
   9 H :    0.155205
  10 H :    0.151842
  11 H :    0.157015
  12 H :    0.155475
  13 H :    0.152739
  14 H :    0.150417
  15 H :    0.161531
  16 H :    0.154139
  17 H :    0.156373
  18 H :    0.155418
  19 H :    0.159140
  20 H :    0.152952
  21 H :    0.153176
  22 H :    0.150446
  23 H :    0.153159
  24 H :    0.155634
  25 H :    0.153625

  Mayer bond orders larger than 0.100000
B(  0-C ,  1-C ) :   0.8781 B(  0-C ,  8-H ) :   0.9723 B(  0-C ,  9-H ) :   0.9908
B(  0-C , 10-H ) :   0.9759 B(  1-C ,  2-C ) :   0.8866 B(  1-C ,  3-C ) :   0.8805
B(  1-C , 11-H ) :   0.9686 B(  2-C , 12-H ) :   0.9900 B(  2-C , 13-H ) :   0.9746
B(  2-C , 14-H ) :   0.9735 B(  3-C ,  4-C ) :   0.8210 B(  3-C ,  5-C ) :   0.8644
B(  3-C , 15-H ) :   1.0098 B(  4-C , 16-H ) :   0.9795 B(  4-C , 17-H ) :   0.9832
B(  4-C , 18-H ) :   0.9709 B(  5-C ,  6-C ) :   0.9173 B(  5-C ,  7-C ) :   0.8774
B(  5-C , 19-H ) :   0.9806 B(  6-C , 20-H ) :   0.9750 B(  6-C , 21-H ) :   0.9810
B(  6-C , 22-H ) :   0.9874 B(  7-C , 23-H ) :   0.9827 B(  7-C , 24-H ) :   0.9735
B(  7-C , 25-H ) :   0.9722

Dispersion correction           -0.008059842
FINAL SINGLE POINT ENERGY      -315.585130005851

DIPOLE MOMENT
-------------

Method             : SCF
Type of density    : Electron Density
Multiplicity       :   1
Irrep              :   0
Energy             :  -315.5900189618038780 Eh
Relativity type    :
Basis              : AO
                                X                 Y                 Z
Electronic contribution:     -0.208804804      -0.457451974      -0.180909571
Nuclear contribution   :      0.194125456       0.419232437       0.182830957
                        -----------------------------------------
Total Dipole Moment    :     -0.014679348      -0.038219537       0.001921386
                        -----------------------------------------
Magnitude (a.u.)       :      0.040986681
Magnitude (Debye)      :      0.104179863

Rotational constants in cm-1:             0.092130             0.043828             0.038086
Rotational constants in MHz :          2761.997106          1313.916456          1141.794662

                             ****ORCA TERMINATED NORMALLY****
TOTAL RUN TIME: 0 days 0 hours 0 minutes 27 seconds 957 msec
