                         Program Version 6.0.0  -   RELEASE  -
|  1> ! r2scan-3c def2/J RI DEFGRID2 scfconv6 printgap
|  2> %output
|  3>     printlevel normal
|  4> end
|  5> %cpcm
|  6>     smd true
|  7>     smdsolvent "water"
|  8> end
|  9> * xyz 0 1
| 10> C -2.4441635672 0.7386297927 0.5466365424
| 11> C -1.2467675331 -0.2137177352 0.4937366693
| 12> C -1.7157190436 -1.5450141846 -0.0976765888
| 13> C -0.0802658274 0.4020870761 -0.3102865285
| 14> C 0.2760551763 1.7920334386 0.2238110222
| 15> C 1.1608880345 -0.5175246403 -0.3640835802
| 16> C 2.1240707299 -0.0911537993 -1.4739960728
| 17> C 1.9085382975 -0.6028385854 0.9655050506
| 18> H -2.2158657804 1.6371246526 1.1113479037
| 19> H -2.7456499925 1.024017531 -0.4591554848
| 20> H -3.2873939558 0.2484053274 1.0284605353
| 21> H -0.9110488324 -0.3902096797 1.5211865151
| 22> H -1.9465646679 -1.4291187404 -1.1546344918
| 23> H -2.6154559573 -1.8810127388 0.4130225723
| 24> H -0.96676015 -2.3240873012 0.0110571839
| 25> H -0.4299493774 0.5180131589 -1.3439417946
| 26> H 1.2060905472 2.1442264177 -0.2127390123
| 27> H 0.3871026652 1.7726794982 1.3051759879
| 28> H -0.4964480319 2.511694962 -0.0309412275
| 29> H 0.8166033167 -1.5229719059 -0.621355166
| 30> H 2.9265775763 -0.8194187658 -1.5684173387
| 31> H 1.6064441051 -0.0277313536 -2.4285214484
| 32> H 2.5742868999 0.8752290664 -1.2618263509
| 33> H 1.2443603075 -0.9075499917 1.7698611748
| 34> H 2.3523964739 0.3545070206 1.2243491089
| 35> H 2.7081959743 -1.3369312631 0.891953484
| 36> *
| 37>
| 38>                          ****END OF INPUT****

CARTESIAN COORDINATES (ANGSTROEM)
---------------------------------
  C     -2.444164    0.738630    0.546637
  C     -1.246768   -0.213718    0.493737
  C     -1.715719   -1.545014   -0.097677
  C     -0.080266    0.402087   -0.310287
  C      0.276055    1.792033    0.223811
  C      1.160888   -0.517525   -0.364084
  C      2.124071   -0.091154   -1.473996
  C      1.908538   -0.602839    0.965505
  H     -2.215866    1.637125    1.111348
  H     -2.745650    1.024018   -0.459155
  H     -3.287394    0.248405    1.028461
  H     -0.911049   -0.390210    1.521187
  H     -1.946565   -1.429119   -1.154634
  H     -2.615456   -1.881013    0.413023
  H     -0.966760   -2.324087    0.011057
  H     -0.429949    0.518013   -1.343942
  H      1.206091    2.144226   -0.212739
  H      0.387103    1.772679    1.305176
  H     -0.496448    2.511695   -0.030941
  H      0.816603   -1.522972   -0.621355
  H      2.926578   -0.819419   -1.568417
  H      1.606444   -0.027731   -2.428521
  H      2.574287    0.875229   -1.261826
  H      1.244360   -0.907550    1.769861
  H      2.352396    0.354507    1.224349
  H      2.708196   -1.336931    0.891953

 Total Charge           Charge          ....    0
 Multiplicity           Mult            ....    1
 Number of Electrons    NEL             ....   66
 Basis Dimension        Dim             ....  242

ORBITAL ENERGIES
----------------

  NO   OCC          E(Eh)            E(eV)
   0   2.0000     -10.021135      -272.6889
   1   2.0000     -10.019688      -272.6496
   2   2.0000     -10.018618      -272.6204
   3   2.0000     -10.003942      -272.2211
   4   2.0000     -10.003927      -272.2207
   5   2.0000     -10.003869      -272.2191
   6   2.0000     -10.003784      -272.2168
   7   2.0000     -10.002779      -272.1894
   8   2.0000      -0.785856       -21.3842
   9   2.0000      -0.734903       -19.9977
  10   2.0000      -0.679889       -18.5007
  11   2.0000      -0.639902       -17.4126
  12   2.0000      -0.638215       -17.3667
  13   2.0000      -0.592044       -16.1103
  14   2.0000      -0.533498       -14.5172
  15   2.0000      -0.491917       -13.3858
  16   2.0000      -0.437248       -11.8981
  17   2.0000      -0.414737       -11.2856
  18   2.0000      -0.400969       -10.9109
  19   2.0000      -0.390656       -10.6303
  20   2.0000      -0.371826       -10.1179
  21   2.0000      -0.362624        -9.8675
  22   2.0000      -0.353629        -9.6227
  23   2.0000      -0.344217        -9.3666
  24   2.0000      -0.335665        -9.1339
  25   2.0000      -0.329638        -8.9699
  26   2.0000      -0.315367        -8.5816
  27   2.0000      -0.304488        -8.2855
  28   2.0000      -0.299644        -8.1537
  29   2.0000      -0.290867        -7.9149
  30   2.0000      -0.271351        -7.3838
  31   2.0000      -0.260451        -7.0872
  32   2.0000      -0.257951        -7.0192
  33   0.0000       0.087526         2.3817
  34   0.0000       0.112712         3.0671
  35   0.0000       0.117754         3.2042
  36   0.0000       0.120082         3.2676
  37   0.0000       0.127937         3.4814

MULLIKEN ATOMIC CHARGES
-----------------------
   0 C :   -0.550100
   1 C :   -0.014532
   2 C :   -0.572856
   3 C :   -0.077654
   4 C :   -0.594483
   5 C :   -0.021475
   6 C :   -0.553285
   7 C :   -0.558660
   8 H :    0.165424
   9 H :    0.165810
  10 H :    0.154626
  11 H :    0.165798
  12 H :    0.166936
  13 H :    0.156266
  14 H :    0.161085
  15 H :    0.174147
  16 H :    0.162780
  17 H :    0.174878
  18 H :    0.168220
  19 H :    0.156638
  20 H :    0.158867
  21 H :    0.157597
  22 H :    0.163656
  23 H :    0.165959
  24 H :    0.165589
  25 H :    0.158768
Sum of atomic charges:   -0.0000000

LOEWDIN ATOMIC CHARGES
----------------------
   0 C :   -0.423579
   1 C :   -0.237451
   2 C :   -0.427144
   3 C :   -0.226640
   4 C :   -0.420742
   5 C :   -0.238581
   6 C :   -0.424521
   7 C :   -0.422474
   8 H :    0.155818
   9 H :    0.157199
  10 H :    0.153950
  11 H :    0.159780
  12 H :    0.157370
  13 H :    0.154911
  14 H :    0.153230
  15 H :    0.163600
  16 H :    0.156729
  17 H :    0.158192
  18 H :    0.156643
  19 H :    0.161300
  20 H :    0.154809
  21 H :    0.155139
  22 H :    0.153745
  23 H :    0.156044
  24 H :    0.157231
  25 H :    0.155444

  Mayer bond orders larger than 0.100000
B(  0-C ,  1-C ) :   0.8705 B(  0-C ,  8-H ) :   0.9698 B(  0-C ,  9-H ) :   0.9886
B(  0-C , 10-H ) :   0.9747 B(  1-C ,  2-C ) :   0.8779 B(  1-C ,  3-C ) :   0.8820
B(  1-C , 11-H ) :   0.9689 B(  2-C , 12-H ) :   0.9880 B(  2-C , 13-H ) :   0.9732
B(  2-C , 14-H ) :   0.9706 B(  3-C ,  4-C ) :   0.8221 B(  3-C ,  5-C ) :   0.8645
B(  3-C , 15-H ) :   1.0086 B(  4-C , 16-H ) :   0.9766 B(  4-C , 17-H ) :   0.9802
B(  4-C , 18-H ) :   0.9690 B(  5-C ,  6-C ) :   0.9045 B(  5-C ,  7-C ) :   0.8702
B(  5-C , 19-H ) :   0.9818 B(  6-C , 20-H ) :   0.9735 B(  6-C , 21-H ) :   0.9790
B(  6-C , 22-H ) :   0.9850 B(  7-C , 23-H ) :   0.9789 B(  7-C , 24-H ) :   0.9727
B(  7-C , 25-H ) :   0.9712

Dispersion correction           -0.008059842
FINAL SINGLE POINT ENERGY      -315.580921004486

DIPOLE MOMENT
-------------

Method             : SCF
Type of density    : Electron Density
Multiplicity       :   1
Irrep              :   0
Energy             :  -315.5858099604382687 Eh
Relativity type    :
Basis              : AO
                                X                 Y                 Z
Electronic contribution:     -0.209087059      -0.470771895      -0.174113437
Nuclear contribution   :      0.194125456       0.419232437       0.182830957
                        -----------------------------------------
Total Dipole Moment    :     -0.014961603      -0.051539457       0.008717519
                        -----------------------------------------
Magnitude (a.u.)       :      0.054370584
Magnitude (Debye)      :      0.138199040

Rotational constants in cm-1:             0.092130             0.043828             0.038086
Rotational constants in MHz :          2761.997106          1313.916456          1141.794662

                             ****ORCA TERMINATED NORMALLY****
TOTAL RUN TIME: 0 days 0 hours 0 minutes 33 seconds 164 msec
