                         Program Version 6.0.0  -   RELEASE  -
|  1> ! pbe def2-sv(p) def2/J RI DEFGRID1 loosescf d4 GCP(DFT/SV(P)) printgap
|  2> %output
|  3>     printlevel normal
|  4> end
|  5> * xyz 0 1
|  6> C -1.9975295936 0.4792929206 -0.7269021673
|  7> C -1.5033455784 -0.5355345239 0.2958990728
|  8> C -0.2412986685 -0.055103419 1.0261224862
|  9> C 0.9391604771 0.0910417741 0.1051734618
| 10> C 1.3449951574 1.2730765853 -0.3315601703
| 11> C 1.6240729977 -1.1826710714 -0.2865331205
| 12> H -1.2314277159 0.6690821853 -1.4751011984
| 13> H -2.2401592318 1.4214374583 -0.2402746619
| 14> H -2.889313664 0.1114928677 -1.2287246579
| 15> H -2.2865207743 -0.7125728013 1.0361165463
| 16> H -1.2996979418 -1.4847280737 -0.2029405725
| 17> H -0.4566033846 0.904753516 1.4992839245
| 18> H 0.0035415179 -0.7755858351 1.810018739
| 19> H 2.1851083333 1.3777973404 -0.9979841224
| 20> H 0.8539912006 2.1867503929 -0.0411885591
| 21> H 0.9208671947 -1.8629178603 -0.7637927141
| 22> H 2.4434983836 -0.9897552759 -0.9734136897
| 23> H 2.017864904 -1.6811525791 0.5984405457
| 24> *
| 25>
| 26>                          ****END OF INPUT****

CARTESIAN COORDINATES (ANGSTROEM)
---------------------------------
  C     -1.997530    0.479293   -0.726902
  C     -1.503346   -0.535535    0.295899
  C     -0.241299   -0.055103    1.026122
  C      0.939160    0.091042    0.105173
  C      1.344995    1.273077   -0.331560
  C      1.624073   -1.182671   -0.286533
  H     -1.231428    0.669082   -1.475101
  H     -2.240159    1.421437   -0.240275
  H     -2.889314    0.111493   -1.228725
  H     -2.286521   -0.712573    1.036117
  H     -1.299698   -1.484728   -0.202941
  H     -0.456603    0.904754    1.499284
  H      0.003542   -0.775586    1.810019
  H      2.185108    1.377797   -0.997984
  H      0.853991    2.186750   -0.041189
  H      0.920867   -1.862918   -0.763793
  H      2.443498   -0.989755   -0.973414
  H      2.017865   -1.681153    0.598441

 Total Charge           Charge          ....    0
 Multiplicity           Mult            ....    1
 Number of Electrons    NEL             ....   48
 Basis Dimension        Dim             ....  108

ORBITAL ENERGIES
----------------

  NO   OCC          E(Eh)            E(eV)
   0   2.0000      -9.895850      -269.2798
   1   2.0000      -9.885460      -268.9971
   2   2.0000      -9.883702      -268.9492
   3   2.0000      -9.878292      -268.8020
   4   2.0000      -9.868524      -268.5362
   5   2.0000      -9.866145      -268.4714
   6   2.0000      -0.738426       -20.0936
   7   2.0000      -0.682771       -18.5791
   8   2.0000      -0.612742       -16.6736
   9   2.0000      -0.604794       -16.4573
  10   2.0000      -0.524605       -14.2752
  11   2.0000      -0.462007       -12.5718
  12   2.0000      -0.416983       -11.3467
  13   2.0000      -0.408850       -11.1254
  14   2.0000      -0.391674       -10.6580
  15   2.0000      -0.370790       -10.0897
  16   2.0000      -0.362457        -9.8630
  17   2.0000      -0.338847        -9.2205
  18   2.0000      -0.323182        -8.7942
  19   2.0000      -0.307873        -8.3776
  20   2.0000      -0.298728        -8.1288
  21   2.0000      -0.289026        -7.8648
  22   2.0000      -0.276874        -7.5341
  23   2.0000      -0.214074        -5.8253
  24   0.0000      -0.009813        -0.2670
  25   0.0000       0.036612         0.9963
  26   0.0000       0.066224         1.8021
  27   0.0000       0.073909         2.0112
  28   0.0000       0.088491         2.4080

MULLIKEN ATOMIC CHARGES
-----------------------
   0 C :   -0.283021
   1 C :   -0.197020
   2 C :   -0.099255
   3 C :   -0.101287
   4 C :   -0.221724
   5 C :   -0.218733
   6 H :    0.114958
   7 H :    0.093737
   8 H :    0.101234
   9 H :    0.088596
  10 H :    0.088698
  11 H :    0.078182
  12 H :    0.080383
  13 H :    0.079635
  14 H :    0.081194
  15 H :    0.110017
  16 H :    0.097467
  17 H :    0.106938
Sum of atomic charges:   -0.0000000

LOEWDIN ATOMIC CHARGES
----------------------
   0 C :   -0.344421
   1 C :   -0.228416
   2 C :   -0.210919
   3 C :   -0.059079
   4 C :   -0.268031
   5 C :   -0.322947
   6 H :    0.121432
   7 H :    0.115906
   8 H :    0.118225
   9 H :    0.116522
  10 H :    0.113005
  11 H :    0.119411
  12 H :    0.119371
  13 H :    0.115428
  14 H :    0.115726
  15 H :    0.126250
  16 H :    0.123792
  17 H :    0.128744

  Mayer bond orders larger than 0.100000
B(  0-C ,  1-C ) :   1.1543 B(  0-C ,  6-H ) :   0.9470 B(  0-C ,  7-H ) :   0.9541
B(  0-C ,  8-H ) :   0.9516 B(  1-C ,  2-C ) :   1.1060 B(  1-C ,  9-H ) :   0.9242
B(  1-C , 10-H ) :   0.9251 B(  2-C ,  3-C ) :   1.0743 B(  2-C , 11-H ) :   0.9087
B(  2-C , 12-H ) :   0.9061 B(  3-C ,  4-C ) :   2.0317 B(  3-C ,  5-C ) :   1.1159
B(  4-C , 13-H ) :   0.9072 B(  4-C , 14-H ) :   0.9108 B(  5-C , 15-H ) :   0.9296
B(  5-C , 16-H ) :   0.9410 B(  5-C , 17-H ) :   0.9294

Dispersion correction           -0.013919439
FINAL SINGLE POINT ENERGY      -235.245225706411

DIPOLE MOMENT
-------------

Method             : SCF
Type of density    : Electron Density
Multiplicity       :   1
Irrep              :   0
Energy             :  -235.3026168714902440 Eh
Relativity type    :
Basis              : AO
                                X                 Y                 Z
Electronic contribution:      1.787461992       0.582034703       0.969377751
Nuclear contribution   :     -1.856485036      -0.783740151      -0.918987382
                        -----------------------------------------
Total Dipole Moment    :     -0.069023045      -0.201705448       0.050390370
                        -----------------------------------------
Magnitude (a.u.)       :      0.219062680
Magnitude (Debye)      :      0.556813081

Rotational constants in cm-1:             0.170681             0.079667             0.068808
Rotational constants in MHz :          5116.901971          2388.348026          2062.804779

                             ****ORCA TERMINATED NORMALLY****
TOTAL RUN TIME: 0 days 0 hours 0 minutes 7 seconds 927 msec
