                         Program Version 6.0.0  -   RELEASE  -
|  1> ! r2scan-3c def2/J RI DEFGRID2 scfconv6 printgap
|  2> %output
|  3>     printlevel normal
|  4> end
|  5> * xyz 0 1
|  6> C -2.7771355378 0.9999174532 0.0942451736
|  7> C -2.4608827555 -0.4757243099 0.3049244968
|  8> C -1.1617910774 -0.9362748428 -0.3593157175
|  9> C 0.1105799674 -0.300620539 0.2070630218
| 10> C 1.3373860691 -1.2067013649 0.0486866631
| 11> C 2.5458774742 -0.2822762249 0.2419538877
| 12> C 2.0300379303 1.1433535851 -0.0331581967
| 13> C 0.5805966485 0.9750244714 -0.4962313254
| 14> H -2.0671546446 1.6286613194 0.6239527419
| 15> H -2.7410819223 1.2500190356 -0.9635455724
| 16> H -3.7732214982 1.2268472018 0.4677970474
| 17> H -2.4083705321 -0.6838864343 1.3761320582
| 18> H -3.2797916658 -1.0722466324 -0.104802696
| 19> H -1.0906069705 -2.0190310801 -0.2260568203
| 20> H -1.2163873622 -0.7427462733 -1.4331108159
| 21> H -0.0353213769 -0.0890542577 1.2714114514
| 22> H 1.3336658356 -2.0342590991 0.7569360922
| 23> H 1.3399938225 -1.6238491756 -0.9600133635
| 24> H 2.9256135115 -0.3578605526 1.2609016542
| 25> H 3.357517548 -0.5518231076 -0.4326690455
| 26> H 2.0598077896 1.7359736726 0.8818265579
| 27> H 2.6324484318 1.6581565667 -0.7802107672
| 28> H -0.023568277 1.8478523711 -0.2595600582
| 29> H 0.5474494905 0.8199417334 -1.5763253921
| 30> *
| 31>
| 32>                          ****END OF INPUT****

CARTESIAN COORDINATES (ANGSTROEM)
---------------------------------
  C     -2.777136    0.999917    0.094245
  C     -2.460883   -0.475724    0.304924
  C     -1.161791   -0.936275   -0.359316
  C      0.110580   -0.300621    0.207063
  C      1.337386   -1.206701    0.048687
  C      2.545877   -0.282276    0.241954
  C      2.030038    1.143354   -0.033158
  C      0.580597    0.975024   -0.496231
  H     -2.067155    1.628661    0.623953
  H     -2.741082    1.250019   -0.963546
  H     -3.773221    1.226847    0.467797
  H     -2.408371   -0.683886    1.376132
  H     -3.279792   -1.072247   -0.104803
  H     -1.090607   -2.019031   -0.226057
  H     -1.216387   -0.742746   -1.433111
  H     -0.035321   -0.089054    1.271411
  H      1.333666   -2.034259    0.756936
  H      1.339994   -1.623849   -0.960013
  H      2.925614   -0.357861    1.260902
  H      3.357518   -0.551823   -0.432669
  H      2.059808    1.735974    0.881827
  H      2.632448    1.658157   -0.780211
  H     -0.023568    1.847852   -0.259560
  H      0.547449    0.819942   -1.576325

 Total Charge           Charge          ....    0
 Multiplicity           Mult            ....    1
 Number of Electrons    NEL             ....   64
 Basis Dimension        Dim             ....  232

ORBITAL ENERGIES
----------------

  NO   OCC          E(Eh)            E(eV)
   0   2.0000     -10.024451      -272.7792
   1   2.0000     -10.021185      -272.6903
   2   2.0000     -10.018141      -272.6075
   3   2.0000     -10.017072      -272.5784
   4   2.0000     -10.016883      -272.5732
   5   2.0000     -10.016398      -272.5601
   6   2.0000     -10.015914      -272.5469
   7   2.0000     -10.012538      -272.4550
   8   2.0000      -0.804725       -21.8977
   9   2.0000      -0.748489       -20.3674
  10   2.0000      -0.685185       -18.6448
  11   2.0000      -0.670191       -18.2368
  12   2.0000      -0.624708       -16.9992
  13   2.0000      -0.547163       -14.8891
  14   2.0000      -0.525320       -14.2947
  15   2.0000      -0.521342       -14.1864
  16   2.0000      -0.449838       -12.2407
  17   2.0000      -0.434233       -11.8161
  18   2.0000      -0.407810       -11.0971
  19   2.0000      -0.399851       -10.8805
  20   2.0000      -0.388307       -10.5664
  21   2.0000      -0.377022       -10.2593
  22   2.0000      -0.350745        -9.5443
  23   2.0000      -0.330435        -8.9916
  24   2.0000      -0.319107        -8.6834
  25   2.0000      -0.302122        -8.2212
  26   2.0000      -0.299711        -8.1555
  27   2.0000      -0.298891        -8.1332
  28   2.0000      -0.284212        -7.7338
  29   2.0000      -0.277873        -7.5613
  30   2.0000      -0.273791        -7.4502
  31   2.0000      -0.269388        -7.3304
  32   0.0000       0.082643         2.2488
  33   0.0000       0.095560         2.6003
  34   0.0000       0.100532         2.7356
  35   0.0000       0.118195         3.2162
  36   0.0000       0.122279         3.3274

MULLIKEN ATOMIC CHARGES
-----------------------
   0 C :   -0.483831
   1 C :   -0.288514
   2 C :   -0.247889
   3 C :   -0.055971
   4 C :   -0.361319
   5 C :   -0.293735
   6 C :   -0.331350
   7 C :   -0.353243
   8 H :    0.148420
   9 H :    0.147812
  10 H :    0.144628
  11 H :    0.147710
  12 H :    0.140312
  13 H :    0.145571
  14 H :    0.147386
  15 H :    0.161201
  16 H :    0.153894
  17 H :    0.158023
  18 H :    0.149974
  19 H :    0.149464
  20 H :    0.149575
  21 H :    0.150433
  22 H :    0.153716
  23 H :    0.167732
Sum of atomic charges:    0.0000000

LOEWDIN ATOMIC CHARGES
----------------------
   0 C :   -0.426516
   1 C :   -0.313725
   2 C :   -0.299035
   3 C :   -0.225685
   4 C :   -0.299028
   5 C :   -0.307945
   6 C :   -0.306304
   7 C :   -0.299210
   8 H :    0.148841
   9 H :    0.150424
  10 H :    0.149352
  11 H :    0.150325
  12 H :    0.150428
  13 H :    0.159628
  14 H :    0.157128
  15 H :    0.161381
  16 H :    0.157203
  17 H :    0.158540
  18 H :    0.155231
  19 H :    0.155209
  20 H :    0.154379
  21 H :    0.155010
  22 H :    0.157617
  23 H :    0.156752

  Mayer bond orders larger than 0.100000
B(  0-C ,  1-C ) :   0.8625 B(  0-C ,  8-H ) :   0.9824 B(  0-C ,  9-H ) :   0.9794
B(  0-C , 10-H ) :   0.9688 B(  1-C ,  2-C ) :   0.9005 B(  1-C , 11-H ) :   1.0142
B(  1-C , 12-H ) :   0.9733 B(  2-C ,  3-C ) :   0.8551 B(  2-C , 13-H ) :   0.9817
B(  2-C , 14-H ) :   0.9746 B(  3-C ,  4-C ) :   0.8897 B(  3-C ,  7-C ) :   0.8878
B(  3-C , 15-H ) :   0.9601 B(  4-C ,  5-C ) :   0.9084 B(  4-C , 16-H ) :   0.9537
B(  4-C , 17-H ) :   1.0114 B(  5-C ,  6-C ) :   0.9223 B(  5-C , 18-H ) :   0.9803
B(  5-C , 19-H ) :   0.9796 B(  6-C ,  7-C ) :   0.9123 B(  6-C , 20-H ) :   0.9814
B(  6-C , 21-H ) :   0.9729 B(  7-C , 22-H ) :   0.9424 B(  7-C , 23-H ) :   1.0262

Dispersion correction           -0.007044367
FINAL SINGLE POINT ENERGY      -314.379739264042

DIPOLE MOMENT
-------------

Method             : SCF
Type of density    : Electron Density
Multiplicity       :   1
Irrep              :   0
Energy             :  -314.3829318843061742 Eh
Relativity type    :
Basis              : AO
                                X                 Y                 Z
Electronic contribution:      2.261459500      -0.954265288       0.111420796
Nuclear contribution   :     -2.288186990       0.931310029      -0.091317908
                        -----------------------------------------
Total Dipole Moment    :     -0.026727490      -0.022955259       0.020102888
                        -----------------------------------------
Magnitude (a.u.)       :      0.040563885
Magnitude (Debye)      :      0.103105201

Rotational constants in cm-1:             0.137502             0.038625             0.032605
Rotational constants in MHz :          4122.203001          1157.940262           977.484670

                             ****ORCA TERMINATED NORMALLY****
TOTAL RUN TIME: 0 days 0 hours 0 minutes 25 seconds 8 msec
