                         Program Version 6.0.0  -   RELEASE  -
|  1> ! r2scan-3c def2/J RI DEFGRID2 scfconv6 printgap
|  2> %output
|  3>     printlevel normal
|  4> end
|  5> %cpcm
|  6>     smd true
|  7>     smdsolvent "water"
|  8> end
|  9> * xyz 0 1
| 10> C -2.7771355378 0.9999174532 0.0942451736
| 11> C -2.4608827555 -0.4757243099 0.3049244968
| 12> C -1.1617910774 -0.9362748428 -0.3593157175
| 13> C 0.1105799674 -0.300620539 0.2070630218
| 14> C 1.3373860691 -1.2067013649 0.0486866631
| 15> C 2.5458774742 -0.2822762249 0.2419538877
| 16> C 2.0300379303 1.1433535851 -0.0331581967
| 17> C 0.5805966485 0.9750244714 -0.4962313254
| 18> H -2.0671546446 1.6286613194 0.6239527419
| 19> H -2.7410819223 1.2500190356 -0.9635455724
| 20> H -3.7732214982 1.2268472018 0.4677970474
| 21> H -2.4083705321 -0.6838864343 1.3761320582
| 22> H -3.2797916658 -1.0722466324 -0.104802696
| 23> H -1.0906069705 -2.0190310801 -0.2260568203
| 24> H -1.2163873622 -0.7427462733 -1.4331108159
| 25> H -0.0353213769 -0.0890542577 1.2714114514
| 26> H 1.3336658356 -2.0342590991 0.7569360922
| 27> H 1.3399938225 -1.6238491756 -0.9600133635
| 28> H 2.9256135115 -0.3578605526 1.2609016542
| 29> H 3.357517548 -0.5518231076 -0.4326690455
| 30> H 2.0598077896 1.7359736726 0.8818265579
| 31> H 2.6324484318 1.6581565667 -0.7802107672
| 32> H -0.023568277 1.8478523711 -0.2595600582
| 33> H 0.5474494905 0.8199417334 -1.5763253921
| 34> *
| 35>
| 36>                          ****END OF INPUT****

CARTESIAN COORDINATES (ANGSTROEM)
---------------------------------
  C     -2.777136    0.999917    0.094245
  C     -2.460883   -0.475724    0.304924
  C     -1.161791   -0.936275   -0.359316
  C      0.110580   -0.300621    0.207063
  C      1.337386   -1.206701    0.048687
  C      2.545877   -0.282276    0.241954
  C      2.030038    1.143354   -0.033158
  C      0.580597    0.975024   -0.496231
  H     -2.067155    1.628661    0.623953
  H     -2.741082    1.250019   -0.963546
  H     -3.773221    1.226847    0.467797
  H     -2.408371   -0.683886    1.376132
  H     -3.279792   -1.072247   -0.104803
  H     -1.090607   -2.019031   -0.226057
  H     -1.216387   -0.742746   -1.433111
  H     -0.035321   -0.089054    1.271411
  H      1.333666   -2.034259    0.756936
  H      1.339994   -1.623849   -0.960013
  H      2.925614   -0.357861    1.260902
  H      3.357518   -0.551823   -0.432669
  H      2.059808    1.735974    0.881827
  H      2.632448    1.658157   -0.780211
  H     -0.023568    1.847852   -0.259560
  H      0.547449    0.819942   -1.576325

 Total Charge           Charge          ....    0
 Multiplicity           Mult            ....    1
 Number of Electrons    NEL             ....   64
 Basis Dimension        Dim             ....  232

ORBITAL ENERGIES
----------------

  NO   OCC          E(Eh)            E(eV)
   0   2.0000     -10.017069      -272.5783
   1   2.0000     -10.014258      -272.5018
   2   2.0000     -10.010987      -272.4128
   3   2.0000     -10.010677      -272.4044
   4   2.0000     -10.010552      -272.4010
   5   2.0000     -10.009549      -272.3737
   6   2.0000     -10.008676      -272.3499
   7   2.0000     -10.005586      -272.2658
   8   2.0000      -0.797931       -21.7128
   9   2.0000      -0.741857       -20.1870
  10   2.0000      -0.678698       -18.4683
  11   2.0000      -0.663778       -18.0623
  12   2.0000      -0.618287       -16.8245
  13   2.0000      -0.540681       -14.7127
  14   2.0000      -0.519119       -14.1259
  15   2.0000      -0.514291       -13.9946
  16   2.0000      -0.443095       -12.0572
  17   2.0000      -0.427505       -11.6330
  18   2.0000      -0.401213       -10.9176
  19   2.0000      -0.393184       -10.6991
  20   2.0000      -0.381446       -10.3797
  21   2.0000      -0.370019       -10.0687
  22   2.0000      -0.343989        -9.3604
  23   2.0000      -0.323551        -8.8043
  24   2.0000      -0.312622        -8.5069
  25   2.0000      -0.295839        -8.0502
  26   2.0000      -0.293366        -7.9829
  27   2.0000      -0.291927        -7.9437
  28   2.0000      -0.276518        -7.5244
  29   2.0000      -0.270987        -7.3739
  30   2.0000      -0.266997        -7.2654
  31   2.0000      -0.262648        -7.1470
  32   0.0000       0.090298         2.4571
  33   0.0000       0.103001         2.8028
  34   0.0000       0.107658         2.9295
  35   0.0000       0.124339         3.3834
  36   0.0000       0.127432         3.4676

MULLIKEN ATOMIC CHARGES
-----------------------
   0 C :   -0.522463
   1 C :   -0.298800
   2 C :   -0.268314
   3 C :   -0.048608
   4 C :   -0.380162
   5 C :   -0.310612
   6 C :   -0.352862
   7 C :   -0.369915
   8 H :    0.161688
   9 H :    0.157040
  10 H :    0.154007
  11 H :    0.155734
  12 H :    0.147324
  13 H :    0.151078
  14 H :    0.157152
  15 H :    0.170193
  16 H :    0.161860
  17 H :    0.164955
  18 H :    0.158425
  19 H :    0.157462
  20 H :    0.157979
  21 H :    0.157826
  22 H :    0.162379
  23 H :    0.176637
Sum of atomic charges:    0.0000000

LOEWDIN ATOMIC CHARGES
----------------------
   0 C :   -0.434927
   1 C :   -0.316471
   2 C :   -0.302313
   3 C :   -0.224726
   4 C :   -0.302792
   5 C :   -0.312768
   6 C :   -0.310972
   7 C :   -0.303035
   8 H :    0.152239
   9 H :    0.152326
  10 H :    0.151208
  11 H :    0.152412
  12 H :    0.151783
  13 H :    0.160537
  14 H :    0.159387
  15 H :    0.164020
  16 H :    0.159006
  17 H :    0.159945
  18 H :    0.157067
  19 H :    0.156817
  20 H :    0.156256
  21 H :    0.156468
  22 H :    0.159625
  23 H :    0.158907

  Mayer bond orders larger than 0.100000
B(  0-C ,  1-C ) :   0.8556 B(  0-C ,  8-H ) :   0.9795 B(  0-C ,  9-H ) :   0.9769
B(  0-C , 10-H ) :   0.9669 B(  1-C ,  2-C ) :   0.8964 B(  1-C , 11-H ) :   1.0120
B(  1-C , 12-H ) :   0.9735 B(  2-C ,  3-C ) :   0.8517 B(  2-C , 13-H ) :   0.9818
B(  2-C , 14-H ) :   0.9744 B(  3-C ,  4-C ) :   0.8882 B(  3-C ,  7-C ) :   0.8826
B(  3-C , 15-H ) :   0.9592 B(  4-C ,  5-C ) :   0.9032 B(  4-C , 16-H ) :   0.9524
B(  4-C , 17-H ) :   1.0097 B(  5-C ,  6-C ) :   0.9175 B(  5-C , 18-H ) :   0.9795
B(  5-C , 19-H ) :   0.9785 B(  6-C ,  7-C ) :   0.9138 B(  6-C , 20-H ) :   0.9805
B(  6-C , 21-H ) :   0.9712 B(  7-C , 22-H ) :   0.9399 B(  7-C , 23-H ) :   1.0224

Dispersion correction           -0.007044367
FINAL SINGLE POINT ENERGY      -314.377128009849

DIPOLE MOMENT
-------------

Method             : SCF
Type of density    : Electron Density
Multiplicity       :   1
Irrep              :   0
Energy             :  -314.3803206301138289 Eh
Relativity type    :
Basis              : AO
                                X                 Y                 Z
Electronic contribution:      2.248482004      -0.955678418       0.124821524
Nuclear contribution   :     -2.288186990       0.931310029      -0.091317908
                        -----------------------------------------
Total Dipole Moment    :     -0.039704986      -0.024368389       0.033503616
                        -----------------------------------------
Magnitude (a.u.)       :      0.057382894
Magnitude (Debye)      :      0.145855726

Rotational constants in cm-1:             0.137502             0.038625             0.032605
Rotational constants in MHz :          4122.203001          1157.940262           977.484670

                             ****ORCA TERMINATED NORMALLY****
TOTAL RUN TIME: 0 days 0 hours 0 minutes 30 seconds 318 msec
