                         Program Version 6.0.0  -   RELEASE  -
|  1> ! r2scan-3c def2/J RI DEFGRID2 scfconv6 printgap
|  2> %output
|  3>     printlevel normal
|  4> end
|  5> * xyz 0 1
|  6> C 2.1170491713 -1.0166272216 -0.419299958
|  7> C 1.7536142664 0.3776902893 0.0774341261
|  8> C 0.3722982551 0.4616446644 0.7286916387
|  9> C -0.8019507994 0.2098372609 -0.2381799479
| 10> H -0.4726957504 0.3996484777 -1.2660368865
| 11> C -1.3520832183 -1.2113099637 -0.1282782054
| 12> O -1.840071614 1.1599102514 -0.0391044568
| 13> H 2.0283090073 -1.7432915932 0.3849963269
| 14> H 3.1429641435 -1.0283377346 -0.7795883851
| 15> H 1.4687419944 -1.3190778053 -1.2372916506
| 16> H 2.4948631406 0.6924297699 0.8155326941
| 17> H 1.7987924335 1.0824758879 -0.7558010909
| 18> H 0.3207987078 -0.2422906437 1.5619385146
| 19> H 0.2530381703 1.4706827164 1.1310327558
| 20> H -2.1840795676 -1.3391099747 -0.8171411253
| 21> H -0.5828342817 -1.9375606414 -0.3672094092
| 22> H -1.7052932137 -1.3986953166 0.8840262998
| 23> H -2.2467684145 0.9978902141 0.8235675151
| 24> *
| 25>
| 26>                          ****END OF INPUT****

CARTESIAN COORDINATES (ANGSTROEM)
---------------------------------
  C      2.117049   -1.016627   -0.419300
  C      1.753614    0.377690    0.077434
  C      0.372298    0.461645    0.728692
  C     -0.801951    0.209837   -0.238180
  H     -0.472696    0.399648   -1.266037
  C     -1.352083   -1.211310   -0.128278
  O     -1.840072    1.159910   -0.039104
  H      2.028309   -1.743292    0.384996
  H      3.142964   -1.028338   -0.779588
  H      1.468742   -1.319078   -1.237292
  H      2.494863    0.692430    0.815533
  H      1.798792    1.082476   -0.755801
  H      0.320799   -0.242291    1.561939
  H      0.253038    1.470683    1.131033
  H     -2.184080   -1.339110   -0.817141
  H     -0.582834   -1.937561   -0.367209
  H     -1.705293   -1.398695    0.884026
  H     -2.246768    0.997890    0.823568

 Total Charge           Charge          ....    0
 Multiplicity           Mult            ....    1
 Number of Electrons    NEL             ....   50
 Basis Dimension        Dim             ....  179

ORBITAL ENERGIES
----------------

  NO   OCC          E(Eh)            E(eV)
   0   2.0000     -18.941130      -515.4144
   1   2.0000     -10.079103      -274.2663
   2   2.0000     -10.027949      -272.8744
   3   2.0000     -10.021869      -272.7089
   4   2.0000     -10.019393      -272.6415
   5   2.0000     -10.019039      -272.6319
   6   2.0000      -0.979722       -26.6596
   7   2.0000      -0.764916       -20.8144
   8   2.0000      -0.708906       -19.2903
   9   2.0000      -0.653290       -17.7769
  10   2.0000      -0.581518       -15.8239
  11   2.0000      -0.547023       -14.8853
  12   2.0000      -0.453630       -12.3439
  13   2.0000      -0.431622       -11.7450
  14   2.0000      -0.424643       -11.5551
  15   2.0000      -0.395323       -10.7573
  16   2.0000      -0.384130       -10.4527
  17   2.0000      -0.366993        -9.9864
  18   2.0000      -0.350519        -9.5381
  19   2.0000      -0.342523        -9.3205
  20   2.0000      -0.312129        -8.4935
  21   2.0000      -0.302139        -8.2216
  22   2.0000      -0.294780        -8.0214
  23   2.0000      -0.282010        -7.6739
  24   2.0000      -0.229780        -6.2526
  25   0.0000       0.066359         1.8057
  26   0.0000       0.087807         2.3894
  27   0.0000       0.109413         2.9773
  28   0.0000       0.115115         3.1324
  29   0.0000       0.127877         3.4797

MULLIKEN ATOMIC CHARGES
-----------------------
   0 C :   -0.493608
   1 C :   -0.276410
   2 C :   -0.228077
   3 C :   -0.004797
   4 H :    0.141515
   5 C :   -0.497558
   6 O :   -0.414801
   7 H :    0.148812
   8 H :    0.147416
   9 H :    0.149681
  10 H :    0.139612
  11 H :    0.146870
  12 H :    0.136074
  13 H :    0.162441
  14 H :    0.161629
  15 H :    0.150183
  16 H :    0.144090
  17 H :    0.286930
Sum of atomic charges:   -0.0000000

LOEWDIN ATOMIC CHARGES
----------------------
   0 C :   -0.428240
   1 C :   -0.310758
   2 C :   -0.292089
   3 C :    0.044554
   4 H :    0.179253
   5 C :   -0.400247
   6 O :   -0.613025
   7 H :    0.149948
   8 H :    0.151378
   9 H :    0.148513
  10 H :    0.152118
  11 H :    0.152851
  12 H :    0.155889
  13 H :    0.172167
  14 H :    0.160760
  15 H :    0.158806
  16 H :    0.152242
  17 H :    0.265880

  Mayer bond orders larger than 0.100000
B(  0-C ,  1-C ) :   0.8794 B(  0-C ,  7-H ) :   0.9802 B(  0-C ,  8-H ) :   0.9676
B(  0-C ,  9-H ) :   0.9796 B(  1-C ,  2-C ) :   0.8948 B(  1-C , 10-H ) :   0.9687
B(  1-C , 11-H ) :   0.9935 B(  2-C ,  3-C ) :   0.8510 B(  2-C , 12-H ) :   0.9652
B(  2-C , 13-H ) :   0.9681 B(  3-C ,  4-H ) :   0.9560 B(  3-C ,  5-C ) :   0.9456
B(  3-C ,  6-O ) :   0.9371 B(  5-C , 14-H ) :   0.9735 B(  5-C , 15-H ) :   0.9599
B(  5-C , 16-H ) :   0.9809 B(  6-O , 17-H ) :   0.8995

Dispersion correction           -0.004356619
FINAL SINGLE POINT ENERGY      -272.898566121478

DIPOLE MOMENT
-------------

Method             : SCF
Type of density    : Electron Density
Multiplicity       :   1
Irrep              :   0
Energy             :  -272.9038506748501050 Eh
Relativity type    :
Basis              : AO
                                X                 Y                 Z
Electronic contribution:     -3.772731692       3.651145832       0.034378384
Nuclear contribution   :      4.021653213      -4.078092655       0.354069502
                        -----------------------------------------
Total Dipole Moment    :      0.248921522      -0.426946823       0.388447885
                        -----------------------------------------
Magnitude (a.u.)       :      0.628599454
Magnitude (Debye)      :      1.597772835

Rotational constants in cm-1:             0.191595             0.070105             0.057347
Rotational constants in MHz :          5743.872157          2101.691551          1719.216142

                             ****ORCA TERMINATED NORMALLY****
TOTAL RUN TIME: 0 days 0 hours 0 minutes 23 seconds 307 msec
