                         Program Version 6.0.0  -   RELEASE  -
|  1> ! r2scan-3c def2/J RI DEFGRID2 scfconv6 printgap
|  2> %output
|  3>     printlevel normal
|  4> end
|  5> %cpcm
|  6>     smd true
|  7>     smdsolvent "water"
|  8> end
|  9> * xyz 0 1
| 10> C 2.1170491713 -1.0166272216 -0.419299958
| 11> C 1.7536142664 0.3776902893 0.0774341261
| 12> C 0.3722982551 0.4616446644 0.7286916387
| 13> C -0.8019507994 0.2098372609 -0.2381799479
| 14> H -0.4726957504 0.3996484777 -1.2660368865
| 15> C -1.3520832183 -1.2113099637 -0.1282782054
| 16> O -1.840071614 1.1599102514 -0.0391044568
| 17> H 2.0283090073 -1.7432915932 0.3849963269
| 18> H 3.1429641435 -1.0283377346 -0.7795883851
| 19> H 1.4687419944 -1.3190778053 -1.2372916506
| 20> H 2.4948631406 0.6924297699 0.8155326941
| 21> H 1.7987924335 1.0824758879 -0.7558010909
| 22> H 0.3207987078 -0.2422906437 1.5619385146
| 23> H 0.2530381703 1.4706827164 1.1310327558
| 24> H -2.1840795676 -1.3391099747 -0.8171411253
| 25> H -0.5828342817 -1.9375606414 -0.3672094092
| 26> H -1.7052932137 -1.3986953166 0.8840262998
| 27> H -2.2467684145 0.9978902141 0.8235675151
| 28> *
| 29>
| 30>                          ****END OF INPUT****

CARTESIAN COORDINATES (ANGSTROEM)
---------------------------------
  C      2.117049   -1.016627   -0.419300
  C      1.753614    0.377690    0.077434
  C      0.372298    0.461645    0.728692
  C     -0.801951    0.209837   -0.238180
  H     -0.472696    0.399648   -1.266037
  C     -1.352083   -1.211310   -0.128278
  O     -1.840072    1.159910   -0.039104
  H      2.028309   -1.743292    0.384996
  H      3.142964   -1.028338   -0.779588
  H      1.468742   -1.319078   -1.237292
  H      2.494863    0.692430    0.815533
  H      1.798792    1.082476   -0.755801
  H      0.320799   -0.242291    1.561939
  H      0.253038    1.470683    1.131033
  H     -2.184080   -1.339110   -0.817141
  H     -0.582834   -1.937561   -0.367209
  H     -1.705293   -1.398695    0.884026
  H     -2.246768    0.997890    0.823568

 Total Charge           Charge          ....    0
 Multiplicity           Mult            ....    1
 Number of Electrons    NEL             ....   50
 Basis Dimension        Dim             ....  179

ORBITAL ENERGIES
----------------

  NO   OCC          E(Eh)            E(eV)
   0   2.0000     -18.946111      -515.5499
   1   2.0000     -10.073991      -274.1272
   2   2.0000     -10.017868      -272.6001
   3   2.0000     -10.013279      -272.4752
   4   2.0000     -10.009120      -272.3620
   5   2.0000     -10.007355      -272.3140
   6   2.0000      -0.983362       -26.7586
   7   2.0000      -0.756047       -20.5731
   8   2.0000      -0.700470       -19.0608
   9   2.0000      -0.643879       -17.5208
  10   2.0000      -0.575220       -15.6525
  11   2.0000      -0.539022       -14.6675
  12   2.0000      -0.448213       -12.1965
  13   2.0000      -0.426378       -11.6023
  14   2.0000      -0.416552       -11.3350
  15   2.0000      -0.387084       -10.5331
  16   2.0000      -0.377094       -10.2612
  17   2.0000      -0.358767        -9.7625
  18   2.0000      -0.342058        -9.3079
  19   2.0000      -0.335861        -9.1392
  20   2.0000      -0.302721        -8.2375
  21   2.0000      -0.294462        -8.0127
  22   2.0000      -0.286748        -7.8028
  23   2.0000      -0.279582        -7.6078
  24   2.0000      -0.234277        -6.3750
  25   0.0000       0.080865         2.2005
  26   0.0000       0.098039         2.6678
  27   0.0000       0.120883         3.2894
  28   0.0000       0.123264         3.3542
  29   0.0000       0.138638         3.7725

MULLIKEN ATOMIC CHARGES
-----------------------
   0 C :   -0.527726
   1 C :   -0.275945
   2 C :   -0.252080
   3 C :    0.023253
   4 H :    0.152536
   5 C :   -0.537636
   6 O :   -0.510135
   7 H :    0.158916
   8 H :    0.155230
   9 H :    0.162789
  10 H :    0.147846
  11 H :    0.150814
  12 H :    0.153112
  13 H :    0.159809
  14 H :    0.160754
  15 H :    0.165523
  16 H :    0.168647
  17 H :    0.344293
Sum of atomic charges:   -0.0000000

LOEWDIN ATOMIC CHARGES
----------------------
   0 C :   -0.435021
   1 C :   -0.312456
   2 C :   -0.290725
   3 C :    0.044912
   4 H :    0.182624
   5 C :   -0.403917
   6 O :   -0.653281
   7 H :    0.152953
   8 H :    0.152537
   9 H :    0.152709
  10 H :    0.154183
  11 H :    0.153930
  12 H :    0.161963
  13 H :    0.170685
  14 H :    0.159533
  15 H :    0.164446
  16 H :    0.160597
  17 H :    0.284328

  Mayer bond orders larger than 0.100000
B(  0-C ,  1-C ) :   0.8761 B(  0-C ,  7-H ) :   0.9771 B(  0-C ,  8-H ) :   0.9662
B(  0-C ,  9-H ) :   0.9764 B(  1-C ,  2-C ) :   0.8893 B(  1-C , 10-H ) :   0.9687
B(  1-C , 11-H ) :   0.9912 B(  2-C ,  3-C ) :   0.8528 B(  2-C , 12-H ) :   0.9662
B(  2-C , 13-H ) :   0.9699 B(  3-C ,  4-H ) :   0.9587 B(  3-C ,  5-C ) :   0.9337
B(  3-C ,  6-O ) :   0.9193 B(  5-C , 14-H ) :   0.9712 B(  5-C , 15-H ) :   0.9568
B(  5-C , 16-H ) :   0.9775 B(  6-O , 17-H ) :   0.8720

Dispersion correction           -0.004356619
FINAL SINGLE POINT ENERGY      -272.905025028712

DIPOLE MOMENT
-------------

Method             : SCF
Type of density    : Electron Density
Multiplicity       :   1
Irrep              :   0
Energy             :  -272.9103095820833573 Eh
Relativity type    :
Basis              : AO
                                X                 Y                 Z
Electronic contribution:     -3.706537377       3.451187521       0.216440813
Nuclear contribution   :      4.021653213      -4.078092655       0.354069502
                        -----------------------------------------
Total Dipole Moment    :      0.315115837      -0.626905134       0.570510315
                        -----------------------------------------
Magnitude (a.u.)       :      0.904317453
Magnitude (Debye)      :      2.298592294

Rotational constants in cm-1:             0.191595             0.070105             0.057347
Rotational constants in MHz :          5743.872157          2101.691551          1719.216142

                             ****ORCA TERMINATED NORMALLY****
TOTAL RUN TIME: 0 days 0 hours 0 minutes 26 seconds 980 msec
