                         Program Version 6.0.0  -   RELEASE  -
|  1> ! r2scan-3c def2/J RI DEFGRID2 scfconv6 printgap
|  2> %output
|  3>     printlevel normal
|  4> end
|  5> * xyz 0 1
|  6> C -1.5185523793 1.0839335521 0.5594657411
|  7> C -1.1514461874 -0.3060732955 0.0447282534
|  8> C -2.3279814074 -0.8712311781 -0.7550839903
|  9> C 0.0966362315 -0.3153917721 -0.8494764159
| 10> C 1.4763076848 -0.0852631309 -0.2052485908
| 11> C 1.7787226785 1.3799395068 0.1073854148
| 12> C 1.6930278303 -0.9502053439 1.0346415461
| 13> H -1.5523876974 1.7973679839 -0.2609218734
| 14> H -2.4989272536 1.0590841634 1.0313631488
| 15> H -0.8050149481 1.4376989039 1.2965234794
| 16> H -0.9821919854 -0.9650371452 0.9014324691
| 17> H -3.2271962369 -0.8991258142 -0.1438806886
| 18> H -2.5253000335 -0.2503781415 -1.6266693648
| 19> H -2.1157091582 -1.8823670696 -1.0952738489
| 20> H -0.0397694273 0.4237502688 -1.6432383588
| 21> H 0.1343410224 -1.2973426048 -1.3299019227
| 22> H 2.2063701049 -0.4027314716 -0.9613753388
| 23> H 2.8377803007 1.4984222634 0.3281014318
| 24> H 1.5346023734 2.0131919827 -0.7421057815
| 25> H 1.2189849928 1.7277481243 0.9699388468
| 26> H 2.7312001134 -0.8908950338 1.3539023278
| 27> H 1.0680981383 -0.6124661446 1.8575867343
| 28> H 1.4584302691 -1.9907657384 0.8222883271
| 29> *
| 30>
| 31>                          ****END OF INPUT****

CARTESIAN COORDINATES (ANGSTROEM)
---------------------------------
  C     -1.518552    1.083934    0.559466
  C     -1.151446   -0.306073    0.044728
  C     -2.327981   -0.871231   -0.755084
  C      0.096636   -0.315392   -0.849476
  C      1.476308   -0.085263   -0.205249
  C      1.778723    1.379940    0.107385
  C      1.693028   -0.950205    1.034642
  H     -1.552388    1.797368   -0.260922
  H     -2.498927    1.059084    1.031363
  H     -0.805015    1.437699    1.296523
  H     -0.982192   -0.965037    0.901432
  H     -3.227196   -0.899126   -0.143881
  H     -2.525300   -0.250378   -1.626669
  H     -2.115709   -1.882367   -1.095274
  H     -0.039769    0.423750   -1.643238
  H      0.134341   -1.297343   -1.329902
  H      2.206370   -0.402731   -0.961375
  H      2.837780    1.498422    0.328101
  H      1.534602    2.013192   -0.742106
  H      1.218985    1.727748    0.969939
  H      2.731200   -0.890895    1.353902
  H      1.068098   -0.612466    1.857587
  H      1.458430   -1.990766    0.822288

 Total Charge           Charge          ....    0
 Multiplicity           Mult            ....    1
 Number of Electrons    NEL             ....   58
 Basis Dimension        Dim             ....  213

ORBITAL ENERGIES
----------------

  NO   OCC          E(Eh)            E(eV)
   0   2.0000     -10.030513      -272.9441
   1   2.0000     -10.029301      -272.9112
   2   2.0000     -10.017587      -272.5924
   3   2.0000     -10.013065      -272.4693
   4   2.0000     -10.011763      -272.4339
   5   2.0000     -10.011492      -272.4266
   6   2.0000     -10.010890      -272.4102
   7   2.0000      -0.784530       -21.3482
   8   2.0000      -0.741747       -20.1840
   9   2.0000      -0.651078       -17.7167
  10   2.0000      -0.645690       -17.5701
  11   2.0000      -0.639698       -17.4071
  12   2.0000      -0.546474       -14.8703
  13   2.0000      -0.503365       -13.6973
  14   2.0000      -0.435335       -11.8461
  15   2.0000      -0.428369       -11.6565
  16   2.0000      -0.407624       -11.0920
  17   2.0000      -0.385831       -10.4990
  18   2.0000      -0.384186       -10.4542
  19   2.0000      -0.363374        -9.8879
  20   2.0000      -0.352166        -9.5829
  21   2.0000      -0.346985        -9.4420
  22   2.0000      -0.327783        -8.9194
  23   2.0000      -0.324062        -8.8182
  24   2.0000      -0.305185        -8.3045
  25   2.0000      -0.300133        -8.1670
  26   2.0000      -0.284160        -7.7324
  27   2.0000      -0.277143        -7.5414
  28   2.0000      -0.266625        -7.2552
  29   0.0000       0.074896         2.0380
  30   0.0000       0.106902         2.9090
  31   0.0000       0.118377         3.2212
  32   0.0000       0.123237         3.3535
  33   0.0000       0.130519         3.5516

MULLIKEN ATOMIC CHARGES
-----------------------
   0 C :   -0.498206
   1 C :   -0.034622
   2 C :   -0.480606
   3 C :   -0.317849
   4 C :   -0.006056
   5 C :   -0.497650
   6 C :   -0.508564
   7 H :    0.157331
   8 H :    0.139914
   9 H :    0.140250
  10 H :    0.152074
  11 H :    0.145458
  12 H :    0.145606
  13 H :    0.144165
  14 H :    0.148534
  15 H :    0.141706
  16 H :    0.144943
  17 H :    0.144762
  18 H :    0.146881
  19 H :    0.140999
  20 H :    0.146389
  21 H :    0.154035
  22 H :    0.150504
Sum of atomic charges:   -0.0000000

LOEWDIN ATOMIC CHARGES
----------------------
   0 C :   -0.415435
   1 C :   -0.244546
   2 C :   -0.418131
   3 C :   -0.300921
   4 C :   -0.244116
   5 C :   -0.417729
   6 C :   -0.418788
   7 H :    0.154409
   8 H :    0.152167
   9 H :    0.149902
  10 H :    0.156892
  11 H :    0.150987
  12 H :    0.154173
  13 H :    0.151533
  14 H :    0.159517
  15 H :    0.160202
  16 H :    0.155488
  17 H :    0.152082
  18 H :    0.153296
  19 H :    0.149936
  20 H :    0.153339
  21 H :    0.151492
  22 H :    0.154251

  Mayer bond orders larger than 0.100000
B(  0-C ,  1-C ) :   0.8925 B(  0-C ,  7-H ) :   0.9903 B(  0-C ,  8-H ) :   0.9714
B(  0-C ,  9-H ) :   0.9686 B(  1-C ,  2-C ) :   0.9059 B(  1-C ,  3-C ) :   0.8886
B(  1-C , 10-H ) :   0.9573 B(  2-C , 11-H ) :   0.9772 B(  2-C , 12-H ) :   0.9849
B(  2-C , 13-H ) :   0.9775 B(  3-C ,  4-C ) :   0.9085 B(  3-C , 14-H ) :   0.9909
B(  3-C , 15-H ) :   0.9733 B(  4-C ,  5-C ) :   0.9268 B(  4-C ,  6-C ) :   0.8856
B(  4-C , 16-H ) :   0.9714 B(  5-C , 17-H ) :   0.9711 B(  5-C , 18-H ) :   0.9777
B(  5-C , 19-H ) :   0.9788 B(  6-C , 20-H ) :   0.9701 B(  6-C , 21-H ) :   0.9808
B(  6-C , 22-H ) :   0.9763

Dispersion correction           -0.006515315
FINAL SINGLE POINT ENERGY      -276.284409577486

DIPOLE MOMENT
-------------

Method             : SCF
Type of density    : Electron Density
Multiplicity       :   1
Irrep              :   0
Energy             :  -276.2890861650550391 Eh
Relativity type    :
Basis              : AO
                                X                 Y                 Z
Electronic contribution:      0.566937722      -0.762942295      -0.723102837
Nuclear contribution   :     -0.522264551       0.718776631       0.710910205
                        -----------------------------------------
Total Dipole Moment    :      0.044673171      -0.044165664      -0.012192632
                        -----------------------------------------
Magnitude (a.u.)       :      0.063991862
Magnitude (Debye)      :      0.162654387

Rotational constants in cm-1:             0.127690             0.052369             0.046522
Rotational constants in MHz :          3828.037739          1569.971598          1394.687555

                             ****ORCA TERMINATED NORMALLY****
TOTAL RUN TIME: 0 days 0 hours 0 minutes 23 seconds 854 msec
