                         Program Version 6.0.0  -   RELEASE  -
|  1> ! r2scan-3c def2/J RI DEFGRID2 scfconv6 printgap
|  2> %output
|  3>     printlevel normal
|  4> end
|  5> %cpcm
|  6>     smd true
|  7>     smdsolvent "water"
|  8> end
|  9> * xyz 0 1
| 10> C -1.5185523793 1.0839335521 0.5594657411
| 11> C -1.1514461874 -0.3060732955 0.0447282534
| 12> C -2.3279814074 -0.8712311781 -0.7550839903
| 13> C 0.0966362315 -0.3153917721 -0.8494764159
| 14> C 1.4763076848 -0.0852631309 -0.2052485908
| 15> C 1.7787226785 1.3799395068 0.1073854148
| 16> C 1.6930278303 -0.9502053439 1.0346415461
| 17> H -1.5523876974 1.7973679839 -0.2609218734
| 18> H -2.4989272536 1.0590841634 1.0313631488
| 19> H -0.8050149481 1.4376989039 1.2965234794
| 20> H -0.9821919854 -0.9650371452 0.9014324691
| 21> H -3.2271962369 -0.8991258142 -0.1438806886
| 22> H -2.5253000335 -0.2503781415 -1.6266693648
| 23> H -2.1157091582 -1.8823670696 -1.0952738489
| 24> H -0.0397694273 0.4237502688 -1.6432383588
| 25> H 0.1343410224 -1.2973426048 -1.3299019227
| 26> H 2.2063701049 -0.4027314716 -0.9613753388
| 27> H 2.8377803007 1.4984222634 0.3281014318
| 28> H 1.5346023734 2.0131919827 -0.7421057815
| 29> H 1.2189849928 1.7277481243 0.9699388468
| 30> H 2.7312001134 -0.8908950338 1.3539023278
| 31> H 1.0680981383 -0.6124661446 1.8575867343
| 32> H 1.4584302691 -1.9907657384 0.8222883271
| 33> *
| 34>
| 35>                          ****END OF INPUT****

CARTESIAN COORDINATES (ANGSTROEM)
---------------------------------
  C     -1.518552    1.083934    0.559466
  C     -1.151446   -0.306073    0.044728
  C     -2.327981   -0.871231   -0.755084
  C      0.096636   -0.315392   -0.849476
  C      1.476308   -0.085263   -0.205249
  C      1.778723    1.379940    0.107385
  C      1.693028   -0.950205    1.034642
  H     -1.552388    1.797368   -0.260922
  H     -2.498927    1.059084    1.031363
  H     -0.805015    1.437699    1.296523
  H     -0.982192   -0.965037    0.901432
  H     -3.227196   -0.899126   -0.143881
  H     -2.525300   -0.250378   -1.626669
  H     -2.115709   -1.882367   -1.095274
  H     -0.039769    0.423750   -1.643238
  H      0.134341   -1.297343   -1.329902
  H      2.206370   -0.402731   -0.961375
  H      2.837780    1.498422    0.328101
  H      1.534602    2.013192   -0.742106
  H      1.218985    1.727748    0.969939
  H      2.731200   -0.890895    1.353902
  H      1.068098   -0.612466    1.857587
  H      1.458430   -1.990766    0.822288

 Total Charge           Charge          ....    0
 Multiplicity           Mult            ....    1
 Number of Electrons    NEL             ....   58
 Basis Dimension        Dim             ....  213

ORBITAL ENERGIES
----------------

  NO   OCC          E(Eh)            E(eV)
   0   2.0000     -10.022890      -272.7367
   1   2.0000     -10.021827      -272.7078
   2   2.0000     -10.009324      -272.3675
   3   2.0000     -10.004900      -272.2472
   4   2.0000     -10.004592      -272.2388
   5   2.0000     -10.003694      -272.2144
   6   2.0000     -10.003243      -272.2021
   7   2.0000      -0.776845       -21.1390
   8   2.0000      -0.734337       -19.9823
   9   2.0000      -0.643984       -17.5237
  10   2.0000      -0.638399       -17.3717
  11   2.0000      -0.632675       -17.2160
  12   2.0000      -0.539269       -14.6743
  13   2.0000      -0.495927       -13.4949
  14   2.0000      -0.427602       -11.6356
  15   2.0000      -0.420757       -11.4494
  16   2.0000      -0.400151       -10.8887
  17   2.0000      -0.378339       -10.2951
  18   2.0000      -0.376707       -10.2507
  19   2.0000      -0.356038        -9.6883
  20   2.0000      -0.344888        -9.3849
  21   2.0000      -0.339745        -9.2449
  22   2.0000      -0.320120        -8.7109
  23   2.0000      -0.316243        -8.6054
  24   2.0000      -0.297876        -8.1056
  25   2.0000      -0.292757        -7.9663
  26   2.0000      -0.276277        -7.5179
  27   2.0000      -0.269604        -7.3363
  28   2.0000      -0.258838        -7.0433
  29   0.0000       0.083517         2.2726
  30   0.0000       0.114473         3.1150
  31   0.0000       0.126550         3.4436
  32   0.0000       0.129271         3.5176
  33   0.0000       0.136760         3.7214

MULLIKEN ATOMIC CHARGES
-----------------------
   0 C :   -0.550823
   1 C :   -0.009049
   2 C :   -0.526959
   3 C :   -0.336812
   4 C :    0.009634
   5 C :   -0.547280
   6 C :   -0.548844
   7 H :    0.168063
   8 H :    0.150462
   9 H :    0.156465
  10 H :    0.157508
  11 H :    0.156824
  12 H :    0.155881
  13 H :    0.155862
  14 H :    0.157867
  15 H :    0.149648
  16 H :    0.150876
  17 H :    0.154977
  18 H :    0.157605
  19 H :    0.156215
  20 H :    0.156516
  21 H :    0.165709
  22 H :    0.159655
Sum of atomic charges:   -0.0000000

LOEWDIN ATOMIC CHARGES
----------------------
   0 C :   -0.424798
   1 C :   -0.242304
   2 C :   -0.427584
   3 C :   -0.303960
   4 C :   -0.242308
   5 C :   -0.427377
   6 C :   -0.426926
   7 H :    0.156334
   8 H :    0.154106
   9 H :    0.153708
  10 H :    0.158621
  11 H :    0.153410
  12 H :    0.155961
  13 H :    0.153898
  14 H :    0.161703
  15 H :    0.161906
  16 H :    0.157082
  17 H :    0.153996
  18 H :    0.155271
  19 H :    0.153298
  20 H :    0.155084
  21 H :    0.154540
  22 H :    0.156339

  Mayer bond orders larger than 0.100000
B(  0-C ,  1-C ) :   0.8789 B(  0-C ,  7-H ) :   0.9881 B(  0-C ,  8-H ) :   0.9701
B(  0-C ,  9-H ) :   0.9674 B(  1-C ,  2-C ) :   0.8932 B(  1-C ,  3-C ) :   0.8860
B(  1-C , 10-H ) :   0.9583 B(  2-C , 11-H ) :   0.9748 B(  2-C , 12-H ) :   0.9839
B(  2-C , 13-H ) :   0.9754 B(  3-C ,  4-C ) :   0.9085 B(  3-C , 14-H ) :   0.9897
B(  3-C , 15-H ) :   0.9728 B(  4-C ,  5-C ) :   0.9127 B(  4-C ,  6-C ) :   0.8799
B(  4-C , 16-H ) :   0.9733 B(  5-C , 17-H ) :   0.9696 B(  5-C , 18-H ) :   0.9753
B(  5-C , 19-H ) :   0.9780 B(  6-C , 20-H ) :   0.9692 B(  6-C , 21-H ) :   0.9780
B(  6-C , 22-H ) :   0.9736

Dispersion correction           -0.006515315
FINAL SINGLE POINT ENERGY      -276.280794423046

DIPOLE MOMENT
-------------

Method             : SCF
Type of density    : Electron Density
Multiplicity       :   1
Irrep              :   0
Energy             :  -276.2854710106143443 Eh
Relativity type    :
Basis              : AO
                                X                 Y                 Z
Electronic contribution:      0.576733744      -0.775972035      -0.715196877
Nuclear contribution   :     -0.522264551       0.718776631       0.710910205
                        -----------------------------------------
Total Dipole Moment    :      0.054469193      -0.057195404      -0.004286673
                        -----------------------------------------
Magnitude (a.u.)       :      0.079098564
Magnitude (Debye)      :      0.201052571

Rotational constants in cm-1:             0.127690             0.052369             0.046522
Rotational constants in MHz :          3828.037739          1569.971598          1394.687555

                             ****ORCA TERMINATED NORMALLY****
TOTAL RUN TIME: 0 days 0 hours 0 minutes 28 seconds 194 msec
