                         Program Version 6.0.0  -   RELEASE  -
|  1> ! r2scan-3c def2/J RI DEFGRID2 scfconv6 printgap
|  2> %output
|  3>     printlevel normal
|  4> end
|  5> * xyz 0 1
|  6> C -3.1511334331 -0.2093615884 0.14013575
|  7> C -1.7208111809 0.0988177396 0.5632705988
|  8> C -0.8434724513 0.3974742965 -0.6495101574
|  9> O 0.4762508711 0.7941531993 -0.2529428477
| 10> C 1.3840603035 -0.15075127 -0.029881125
| 11> O 1.1661586734 -1.3363484553 -0.1733752168
| 12> C 2.6901884338 0.434808671 0.4147380624
| 13> H -3.7595097884 -0.4260524457 1.0132368692
| 14> H -3.5842965986 0.6387332608 -0.383477728
| 15> H -3.1740533763 -1.0726131402 -0.5200890803
| 16> H -1.2977359851 -0.7538735415 1.0992539656
| 17> H -1.7033773049 0.963155332 1.2295436956
| 18> H -0.7691956043 -0.4852049549 -1.2926761521
| 19> H -1.2326776239 1.2446864472 -1.215737823
| 20> H 2.7201883223 1.4932743967 0.1806952371
| 21> H 3.5073551543 -0.0978121554 -0.0622901647
| 22> H 2.7792691922 0.2981313749 1.4903539704
| 23> *
| 24>
| 25>                          ****END OF INPUT****

CARTESIAN COORDINATES (ANGSTROEM)
---------------------------------
  C     -3.151133   -0.209362    0.140136
  C     -1.720811    0.098818    0.563271
  C     -0.843472    0.397474   -0.649510
  O      0.476251    0.794153   -0.252943
  C      1.384060   -0.150751   -0.029881
  O      1.166159   -1.336348   -0.173375
  C      2.690188    0.434809    0.414738
  H     -3.759510   -0.426052    1.013237
  H     -3.584297    0.638733   -0.383478
  H     -3.174053   -1.072613   -0.520089
  H     -1.297736   -0.753874    1.099254
  H     -1.703377    0.963155    1.229544
  H     -0.769196   -0.485205   -1.292676
  H     -1.232678    1.244686   -1.215738
  H      2.720188    1.493274    0.180695
  H      3.507355   -0.097812   -0.062290
  H      2.779269    0.298131    1.490354

 Total Charge           Charge          ....    0
 Multiplicity           Mult            ....    1
 Number of Electrons    NEL             ....   56
 Basis Dimension        Dim             ....  193

ORBITAL ENERGIES
----------------

  NO   OCC          E(Eh)            E(eV)
   0   2.0000     -18.996831      -516.9301
   1   2.0000     -18.927095      -515.0324
   2   2.0000     -10.155117      -276.3348
   3   2.0000     -10.087967      -274.5075
   4   2.0000     -10.038690      -273.1666
   5   2.0000     -10.034741      -273.0592
   6   2.0000     -10.026627      -272.8384
   7   2.0000      -1.071369       -29.1534
   8   2.0000      -0.975016       -26.5315
   9   2.0000      -0.767503       -20.8848
  10   2.0000      -0.722942       -19.6722
  11   2.0000      -0.661444       -17.9988
  12   2.0000      -0.581762       -15.8305
  13   2.0000      -0.526818       -14.3354
  14   2.0000      -0.471963       -12.8428
  15   2.0000      -0.448229       -12.1969
  16   2.0000      -0.441730       -12.0201
  17   2.0000      -0.421730       -11.4758
  18   2.0000      -0.400677       -10.9030
  19   2.0000      -0.380324       -10.3491
  20   2.0000      -0.376746       -10.2518
  21   2.0000      -0.361046        -9.8246
  22   2.0000      -0.340309        -9.2603
  23   2.0000      -0.325839        -8.8665
  24   2.0000      -0.318678        -8.6717
  25   2.0000      -0.303059        -8.2466
  26   2.0000      -0.267996        -7.2925
  27   2.0000      -0.236254        -6.4288
  28   0.0000      -0.013752        -0.3742
  29   0.0000       0.071681         1.9505
  30   0.0000       0.087829         2.3900
  31   0.0000       0.121040         3.2937
  32   0.0000       0.127267         3.4631

MULLIKEN ATOMIC CHARGES
-----------------------
   0 C :   -0.470825
   1 C :   -0.223981
   2 C :   -0.186575
   3 O :   -0.172796
   4 C :    0.423785
   5 O :   -0.427874
   6 C :   -0.521866
   7 H :    0.151971
   8 H :    0.140924
   9 H :    0.148496
  10 H :    0.160183
  11 H :    0.142647
  12 H :    0.170420
  13 H :    0.147616
  14 H :    0.170761
  15 H :    0.173436
  16 H :    0.173679
Sum of atomic charges:    0.0000000

LOEWDIN ATOMIC CHARGES
----------------------
   0 C :   -0.417023
   1 C :   -0.285571
   2 C :    0.033099
   3 O :   -0.598453
   4 C :    0.354258
   5 O :   -0.436471
   6 C :   -0.335632
   7 H :    0.155229
   8 H :    0.150496
   9 H :    0.153668
  10 H :    0.165477
  11 H :    0.157186
  12 H :    0.190454
  13 H :    0.180029
  14 H :    0.174513
  15 H :    0.177711
  16 H :    0.181030

  Mayer bond orders larger than 0.100000
B(  0-C ,  1-C ) :   0.9069 B(  0-C ,  7-H ) :   0.9685 B(  0-C ,  8-H ) :   0.9771
B(  0-C ,  9-H ) :   0.9802 B(  1-C ,  2-C ) :   0.9416 B(  1-C , 10-H ) :   0.9629
B(  1-C , 11-H ) :   0.9601 B(  2-C ,  3-O ) :   0.8372 B(  2-C , 12-H ) :   0.9739
B(  2-C , 13-H ) :   0.9622 B(  3-O ,  4-C ) :   1.0507 B(  4-C ,  5-O ) :   1.8382
B(  4-C ,  6-C ) :   0.9490 B(  6-C , 14-H ) :   0.9820 B(  6-C , 15-H ) :   0.9681
B(  6-C , 16-H ) :   0.9385

Dispersion correction           -0.003930771
FINAL SINGLE POINT ENERGY      -346.936961111847

DIPOLE MOMENT
-------------

Method             : SCF
Type of density    : Electron Density
Multiplicity       :   1
Irrep              :   0
Energy             :  -346.9434678363481908 Eh
Relativity type    :
Basis              : AO
                                X                 Y                 Z
Electronic contribution:      5.852235295      -0.942469783      -1.318635172
Nuclear contribution   :     -6.086902063       1.682936946       1.437343030
                        -----------------------------------------
Total Dipole Moment    :     -0.234666768       0.740467163       0.118707858
                        -----------------------------------------
Magnitude (a.u.)       :      0.785780928
Magnitude (Debye)      :      1.997296392

Rotational constants in cm-1:             0.229365             0.042918             0.039985
Rotational constants in MHz :          6876.188845          1286.651954          1198.722223

                             ****ORCA TERMINATED NORMALLY****
TOTAL RUN TIME: 0 days 0 hours 0 minutes 24 seconds 168 msec
