                         Program Version 6.0.0  -   RELEASE  -
|  1> ! r2scan-3c def2/J RI DEFGRID2 scfconv6 printgap
|  2> %output
|  3>     printlevel normal
|  4> end
|  5> %cpcm
|  6>     smd true
|  7>     smdsolvent "water"
|  8> end
|  9> * xyz 0 1
| 10> C -3.1511334331 -0.2093615884 0.14013575
| 11> C -1.7208111809 0.0988177396 0.5632705988
| 12> C -0.8434724513 0.3974742965 -0.6495101574
| 13> O 0.4762508711 0.7941531993 -0.2529428477
| 14> C 1.3840603035 -0.15075127 -0.029881125
| 15> O 1.1661586734 -1.3363484553 -0.1733752168
| 16> C 2.6901884338 0.434808671 0.4147380624
| 17> H -3.7595097884 -0.4260524457 1.0132368692
| 18> H -3.5842965986 0.6387332608 -0.383477728
| 19> H -3.1740533763 -1.0726131402 -0.5200890803
| 20> H -1.2977359851 -0.7538735415 1.0992539656
| 21> H -1.7033773049 0.963155332 1.2295436956
| 22> H -0.7691956043 -0.4852049549 -1.2926761521
| 23> H -1.2326776239 1.2446864472 -1.215737823
| 24> H 2.7201883223 1.4932743967 0.1806952371
| 25> H 3.5073551543 -0.0978121554 -0.0622901647
| 26> H 2.7792691922 0.2981313749 1.4903539704
| 27> *
| 28>
| 29>                          ****END OF INPUT****

CARTESIAN COORDINATES (ANGSTROEM)
---------------------------------
  C     -3.151133   -0.209362    0.140136
  C     -1.720811    0.098818    0.563271
  C     -0.843472    0.397474   -0.649510
  O      0.476251    0.794153   -0.252943
  C      1.384060   -0.150751   -0.029881
  O      1.166159   -1.336348   -0.173375
  C      2.690188    0.434809    0.414738
  H     -3.759510   -0.426052    1.013237
  H     -3.584297    0.638733   -0.383478
  H     -3.174053   -1.072613   -0.520089
  H     -1.297736   -0.753874    1.099254
  H     -1.703377    0.963155    1.229544
  H     -0.769196   -0.485205   -1.292676
  H     -1.232678    1.244686   -1.215738
  H      2.720188    1.493274    0.180695
  H      3.507355   -0.097812   -0.062290
  H      2.779269    0.298131    1.490354

 Total Charge           Charge          ....    0
 Multiplicity           Mult            ....    1
 Number of Electrons    NEL             ....   56
 Basis Dimension        Dim             ....  193

ORBITAL ENERGIES
----------------

  NO   OCC          E(Eh)            E(eV)
   0   2.0000     -19.002610      -517.0873
   1   2.0000     -18.942915      -515.4629
   2   2.0000     -10.165484      -276.6169
   3   2.0000     -10.080370      -274.3008
   4   2.0000     -10.030103      -272.9330
   5   2.0000     -10.025648      -272.8117
   6   2.0000     -10.013858      -272.4909
   7   2.0000      -1.078740       -29.3540
   8   2.0000      -0.988769       -26.9058
   9   2.0000      -0.760688       -20.6994
  10   2.0000      -0.716910       -19.5081
  11   2.0000      -0.654346       -17.8057
  12   2.0000      -0.574468       -15.6321
  13   2.0000      -0.523889       -14.2557
  14   2.0000      -0.470110       -12.7923
  15   2.0000      -0.459098       -12.4927
  16   2.0000      -0.443801       -12.0764
  17   2.0000      -0.417477       -11.3601
  18   2.0000      -0.391694       -10.6585
  19   2.0000      -0.377645       -10.2763
  20   2.0000      -0.371162       -10.0998
  21   2.0000      -0.353045        -9.6069
  22   2.0000      -0.335499        -9.1294
  23   2.0000      -0.320619        -8.7245
  24   2.0000      -0.318086        -8.6556
  25   2.0000      -0.296009        -8.0548
  26   2.0000      -0.273206        -7.4343
  27   2.0000      -0.252931        -6.8826
  28   0.0000      -0.021366        -0.5814
  29   0.0000       0.077184         2.1003
  30   0.0000       0.094093         2.5604
  31   0.0000       0.132157         3.5962
  32   0.0000       0.138127         3.7586

MULLIKEN ATOMIC CHARGES
-----------------------
   0 C :   -0.508336
   1 C :   -0.220247
   2 C :   -0.196794
   3 O :   -0.193353
   4 C :    0.469506
   5 O :   -0.514294
   6 C :   -0.558294
   7 H :    0.163565
   8 H :    0.157403
   9 H :    0.158016
  10 H :    0.155950
  11 H :    0.155118
  12 H :    0.174296
  13 H :    0.174035
  14 H :    0.188088
  15 H :    0.191014
  16 H :    0.204328
Sum of atomic charges:    0.0000000

LOEWDIN ATOMIC CHARGES
----------------------
   0 C :   -0.422140
   1 C :   -0.284803
   2 C :    0.036454
   3 O :   -0.600863
   4 C :    0.365006
   5 O :   -0.498206
   6 C :   -0.333749
   7 H :    0.158142
   8 H :    0.155953
   9 H :    0.156046
  10 H :    0.162796
  11 H :    0.161853
  12 H :    0.191699
  13 H :    0.191350
  14 H :    0.182737
  15 H :    0.184755
  16 H :    0.192971

  Mayer bond orders larger than 0.100000
B(  0-C ,  1-C ) :   0.9041 B(  0-C ,  7-H ) :   0.9656 B(  0-C ,  8-H ) :   0.9738
B(  0-C ,  9-H ) :   0.9776 B(  1-C ,  2-C ) :   0.9412 B(  1-C , 10-H ) :   0.9633
B(  1-C , 11-H ) :   0.9569 B(  2-C ,  3-O ) :   0.8175 B(  2-C , 12-H ) :   0.9693
B(  2-C , 13-H ) :   0.9529 B(  3-O ,  4-C ) :   1.0766 B(  4-C ,  5-O ) :   1.7664
B(  4-C ,  6-C ) :   0.9500 B(  6-C , 14-H ) :   0.9718 B(  6-C , 15-H ) :   0.9591
B(  6-C , 16-H ) :   0.9262

Dispersion correction           -0.003930771
FINAL SINGLE POINT ENERGY      -346.942333254938

DIPOLE MOMENT
-------------

Method             : SCF
Type of density    : Electron Density
Multiplicity       :   1
Irrep              :   0
Energy             :  -346.9488399794389579 Eh
Relativity type    :
Basis              : AO
                                X                 Y                 Z
Electronic contribution:      5.805518199      -0.602038623      -1.297812586
Nuclear contribution   :     -6.086902063       1.682936946       1.437343030
                        -----------------------------------------
Total Dipole Moment    :     -0.281383865       1.080898324       0.139530444
                        -----------------------------------------
Magnitude (a.u.)       :      1.125605086
Magnitude (Debye)      :      2.861060758

Rotational constants in cm-1:             0.229365             0.042918             0.039985
Rotational constants in MHz :          6876.188845          1286.651954          1198.722223

                             ****ORCA TERMINATED NORMALLY****
TOTAL RUN TIME: 0 days 0 hours 0 minutes 28 seconds 231 msec
