                         Program Version 6.0.0  -   RELEASE  -
|  1> ! wb97x-v def2-tzvp def2/J RIJCOSX DEFGRID2 scfconv7 GCP(DFT/TZ) printgap
|  2> %output
|  3>     printlevel normal
|  4> end
|  5> * xyz 0 1
|  6> C -2.560288849293803 0.37601526740520647 0.2627747339142619
|  7> C -1.957432854915816 -0.7324688102450059 0.8528984827790107
|  8> C -0.6574899120875638 -1.091667183430077 0.5020597267222958
|  9> C 0.06023061238395311 -0.35251782418684474 -0.4431112954568912
| 10> C -0.5557964720777624 0.7593873699323658 -1.0286184671332992
| 11> C -1.854500576907364 1.1210356499429877 -0.681110211739539
| 12> C 1.4811902354110331 -0.7076383429010239 -0.7864228096136594
| 13> C 2.501369921278779 0.14040400661348165 -0.025199761585659848
| 14> O 2.385532812063778 0.004860439572826858 1.4017316331199727
| 15> H -3.574084738971116 0.6552027067639813 0.5321918281559174
| 16> H -2.49997464348468 -1.3206056444578018 1.5872884911480358
| 17> H -0.19372295779093818 -1.9600023163278095 0.9629629067354236
| 18> H -0.011552309874385118 1.3441401036522023 -1.7662592845546583
| 19> H -2.318223831053673 1.9840533186263614 -1.1497385101294175
| 20> H 1.6688173542788263 -1.766322590276164 -0.5696545784441891
| 21> H 1.662270405834039 -0.5521641634666101 -1.8571459311559637
| 22> H 3.515206798379394 -0.129330549913215 -0.35172709430889587
| 23> H 2.3436150052725004 1.2030267308988547 -0.23787076008109168
| 24> H 2.498226264957485 -0.9321675948555865 1.6110743060907435
| 25> *
| 26>
| 27>                          ****END OF INPUT****

CARTESIAN COORDINATES (ANGSTROEM)
---------------------------------
  C     -2.560289    0.376015    0.262775
  C     -1.957433   -0.732469    0.852898
  C     -0.657490   -1.091667    0.502060
  C      0.060231   -0.352518   -0.443111
  C     -0.555796    0.759387   -1.028618
  C     -1.854501    1.121036   -0.681110
  C      1.481190   -0.707638   -0.786423
  C      2.501370    0.140404   -0.025200
  O      2.385533    0.004860    1.401732
  H     -3.574085    0.655203    0.532192
  H     -2.499975   -1.320606    1.587288
  H     -0.193723   -1.960002    0.962963
  H     -0.011552    1.344140   -1.766259
  H     -2.318224    1.984053   -1.149739
  H      1.668817   -1.766323   -0.569655
  H      1.662270   -0.552164   -1.857146
  H      3.515207   -0.129331   -0.351727
  H      2.343615    1.203027   -0.237871
  H      2.498226   -0.932168    1.611074

 Total Charge           Charge          ....    0
 Multiplicity           Mult            ....    1
 Number of Electrons    NEL             ....   66
 Basis Dimension        Dim             ....  339

ORBITAL ENERGIES
----------------

  NO   OCC          E(Eh)            E(eV)
   0   2.0000     -21.670701      -589.6898
   1   2.0000     -12.096294      -329.1569
   2   2.0000     -12.058626      -328.1319
   3   2.0000     -12.054756      -328.0266
   4   2.0000     -12.050926      -327.9224
   5   2.0000     -12.050579      -327.9129
   6   2.0000     -12.048313      -327.8513
   7   2.0000     -12.047997      -327.8427
   8   2.0000     -12.046854      -327.8116
   9   2.0000      -1.669334       -45.4249
  10   2.0000      -1.383471       -37.6461
  11   2.0000      -1.307656       -35.5831
  12   2.0000      -1.270031       -34.5593
  13   2.0000      -1.245498       -33.8917
  14   2.0000      -1.153325       -31.3836
  15   2.0000      -1.104729       -30.0612
  16   2.0000      -1.084944       -29.5228
  17   2.0000      -1.016889       -27.6710
  18   2.0000      -0.962188       -26.1825
  19   2.0000      -0.956818       -26.0363
  20   2.0000      -0.945855       -25.7380
  21   2.0000      -0.932619       -25.3779
  22   2.0000      -0.912646       -24.8344
  23   2.0000      -0.877874       -23.8882
  24   2.0000      -0.871671       -23.7194
  25   2.0000      -0.840289       -22.8654
  26   2.0000      -0.825534       -22.4639
  27   2.0000      -0.814729       -22.1699
  28   2.0000      -0.798896       -21.7391
  29   2.0000      -0.785156       -21.3652
  30   2.0000      -0.761808       -20.7299
  31   2.0000      -0.635775       -17.3003
  32   2.0000      -0.633623       -17.2418
  33   0.0000      -0.240178        -6.5356
  34   0.0000      -0.234354        -6.3771
  35   0.0000      -0.140313        -3.8181
  36   0.0000      -0.074441        -2.0256
  37   0.0000      -0.055496        -1.5101

MULLIKEN ATOMIC CHARGES
-----------------------
   0 C :   -0.137831
   1 C :   -0.102288
   2 C :   -0.254319
   3 C :    0.339734
   4 C :   -0.232812
   5 C :   -0.103493
   6 C :   -0.335971
   7 C :   -0.015421
   8 O :   -0.442728
   9 H :    0.115955
  10 H :    0.114564
  11 H :    0.100701
  12 H :    0.115097
  13 H :    0.115466
  14 H :    0.124299
  15 H :    0.111720
  16 H :    0.095120
  17 H :    0.098136
  18 H :    0.294073
Sum of atomic charges:   -0.0000000

LOEWDIN ATOMIC CHARGES
----------------------
   0 C :   -0.144246
   1 C :   -0.137348
   2 C :   -0.114024
   3 C :   -0.142026
   4 C :   -0.112801
   5 C :   -0.138516
   6 C :   -0.233088
   7 C :   -0.323666
   8 O :   -0.050931
   9 H :    0.140359
  10 H :    0.141120
  11 H :    0.140076
  12 H :    0.143265
  13 H :    0.141143
  14 H :    0.138822
  15 H :    0.146742
  16 H :    0.112661
  17 H :    0.126944
  18 H :    0.165516

  Mayer bond orders larger than 0.100000
B(  0-C ,  1-C ) :   1.4266 B(  0-C ,  5-C ) :   1.4196 B(  0-C ,  9-H ) :   0.9716
B(  1-C ,  2-C ) :   1.4569 B(  1-C , 10-H ) :   0.9733 B(  2-C ,  3-C ) :   1.3797
B(  2-C , 11-H ) :   0.9693 B(  3-C ,  4-C ) :   1.3638 B(  3-C ,  6-C ) :   0.8570
B(  4-C ,  5-C ) :   1.4539 B(  4-C , 12-H ) :   0.9720 B(  5-C , 13-H ) :   0.9734
B(  6-C ,  7-C ) :   0.9956 B(  6-C , 14-H ) :   1.0001 B(  6-C , 15-H ) :   0.9760
B(  7-C ,  8-O ) :   1.0226 B(  7-C , 16-H ) :   0.9774 B(  7-C , 17-H ) :   0.9641
B(  8-O , 18-H ) :   0.9056

FINAL SINGLE POINT ENERGY      -386.107833479698

DIPOLE MOMENT
-------------

Method             : SCF
Type of density    : Electron Density
Multiplicity       :   1
Irrep              :   0
Energy             :  -386.1187271172982491 Eh
Relativity type    :
Basis              : AO
                                X                 Y                 Z
Electronic contribution:     -2.856242037       0.345765347       1.094037652
Nuclear contribution   :      3.032481020      -0.824324282      -1.526283941
                        -----------------------------------------
Total Dipole Moment    :      0.176238983      -0.478558935      -0.432246290
                        -----------------------------------------
Magnitude (a.u.)       :      0.668517530
Magnitude (Debye)      :      1.699236520

Rotational constants in cm-1:             0.111322             0.035658             0.031671
Rotational constants in MHz :          3337.361578          1069.004918           949.461221

                             ****ORCA TERMINATED NORMALLY****
TOTAL RUN TIME: 0 days 0 hours 2 minutes 52 seconds 630 msec
