                         Program Version 6.0.0  -   RELEASE  -
|  1> ! wb97x-v def2-tzvp def2/J RIJCOSX DEFGRID2 scfconv7 GCP(DFT/TZ) printgap
|  2> %output
|  3>     printlevel normal
|  4> end
|  5> %cpcm
|  6>     smd true
|  7>     smdsolvent "water"
|  8> end
|  9> * xyz 0 1
| 10> C -2.560288849293803 0.37601526740520647 0.2627747339142619
| 11> C -1.957432854915816 -0.7324688102450059 0.8528984827790107
| 12> C -0.6574899120875638 -1.091667183430077 0.5020597267222958
| 13> C 0.06023061238395311 -0.35251782418684474 -0.4431112954568912
| 14> C -0.5557964720777624 0.7593873699323658 -1.0286184671332992
| 15> C -1.854500576907364 1.1210356499429877 -0.681110211739539
| 16> C 1.4811902354110331 -0.7076383429010239 -0.7864228096136594
| 17> C 2.501369921278779 0.14040400661348165 -0.025199761585659848
| 18> O 2.385532812063778 0.004860439572826858 1.4017316331199727
| 19> H -3.574084738971116 0.6552027067639813 0.5321918281559174
| 20> H -2.49997464348468 -1.3206056444578018 1.5872884911480358
| 21> H -0.19372295779093818 -1.9600023163278095 0.9629629067354236
| 22> H -0.011552309874385118 1.3441401036522023 -1.7662592845546583
| 23> H -2.318223831053673 1.9840533186263614 -1.1497385101294175
| 24> H 1.6688173542788263 -1.766322590276164 -0.5696545784441891
| 25> H 1.662270405834039 -0.5521641634666101 -1.8571459311559637
| 26> H 3.515206798379394 -0.129330549913215 -0.35172709430889587
| 27> H 2.3436150052725004 1.2030267308988547 -0.23787076008109168
| 28> H 2.498226264957485 -0.9321675948555865 1.6110743060907435
| 29> *
| 30>
| 31>                          ****END OF INPUT****

CARTESIAN COORDINATES (ANGSTROEM)
---------------------------------
  C     -2.560289    0.376015    0.262775
  C     -1.957433   -0.732469    0.852898
  C     -0.657490   -1.091667    0.502060
  C      0.060231   -0.352518   -0.443111
  C     -0.555796    0.759387   -1.028618
  C     -1.854501    1.121036   -0.681110
  C      1.481190   -0.707638   -0.786423
  C      2.501370    0.140404   -0.025200
  O      2.385533    0.004860    1.401732
  H     -3.574085    0.655203    0.532192
  H     -2.499975   -1.320606    1.587288
  H     -0.193723   -1.960002    0.962963
  H     -0.011552    1.344140   -1.766259
  H     -2.318224    1.984053   -1.149739
  H      1.668817   -1.766323   -0.569655
  H      1.662270   -0.552164   -1.857146
  H      3.515207   -0.129331   -0.351727
  H      2.343615    1.203027   -0.237871
  H      2.498226   -0.932168    1.611074

 Total Charge           Charge          ....    0
 Multiplicity           Mult            ....    1
 Number of Electrons    NEL             ....   66
 Basis Dimension        Dim             ....  339

ORBITAL ENERGIES
----------------

  NO   OCC          E(Eh)            E(eV)
   0   2.0000     -21.673210      -589.7580
   1   2.0000     -12.087962      -328.9302
   2   2.0000     -12.056211      -328.0662
   3   2.0000     -12.048839      -327.8656
   4   2.0000     -12.048567      -327.8582
   5   2.0000     -12.045818      -327.7834
   6   2.0000     -12.045217      -327.7670
   7   2.0000     -12.044567      -327.7493
   8   2.0000     -12.041473      -327.6651
   9   2.0000      -1.672054       -45.4989
  10   2.0000      -1.382796       -37.6278
  11   2.0000      -1.302565       -35.4446
  12   2.0000      -1.269048       -34.5326
  13   2.0000      -1.240838       -33.7649
  14   2.0000      -1.149314       -31.2744
  15   2.0000      -1.102325       -29.9958
  16   2.0000      -1.082171       -29.4474
  17   2.0000      -1.016608       -27.6633
  18   2.0000      -0.962466       -26.1900
  19   2.0000      -0.953077       -25.9345
  20   2.0000      -0.945256       -25.7217
  21   2.0000      -0.933138       -25.3920
  22   2.0000      -0.906827       -24.6760
  23   2.0000      -0.872877       -23.7522
  24   2.0000      -0.868108       -23.6224
  25   2.0000      -0.831025       -22.6133
  26   2.0000      -0.821787       -22.3620
  27   2.0000      -0.808413       -21.9980
  28   2.0000      -0.793492       -21.5920
  29   2.0000      -0.775998       -21.1160
  30   2.0000      -0.762506       -20.7488
  31   2.0000      -0.636798       -17.3282
  32   2.0000      -0.634079       -17.2542
  33   0.0000      -0.240265        -6.5379
  34   0.0000      -0.234821        -6.3898
  35   0.0000      -0.133847        -3.6422
  36   0.0000      -0.072522        -1.9734
  37   0.0000      -0.037149        -1.0109

MULLIKEN ATOMIC CHARGES
-----------------------
   0 C :   -0.188759
   1 C :   -0.136981
   2 C :   -0.310319
   3 C :    0.231627
   4 C :   -0.264400
   5 C :   -0.145436
   6 C :   -0.255509
   7 C :   -0.039702
   8 O :   -0.562143
   9 H :    0.159811
  10 H :    0.159372
  11 H :    0.156345
  12 H :    0.158974
  13 H :    0.159265
  14 H :    0.143885
  15 H :    0.131100
  16 H :    0.120166
  17 H :    0.122347
  18 H :    0.360357
Sum of atomic charges:   -0.0000000

LOEWDIN ATOMIC CHARGES
----------------------
   0 C :   -0.157984
   1 C :   -0.150701
   2 C :   -0.126736
   3 C :   -0.153604
   4 C :   -0.119167
   5 C :   -0.150508
   6 C :   -0.224074
   7 C :   -0.320256
   8 O :   -0.096947
   9 H :    0.149232
  10 H :    0.150338
  11 H :    0.152655
  12 H :    0.154364
  13 H :    0.150343
  14 H :    0.148638
  15 H :    0.154131
  16 H :    0.121362
  17 H :    0.129428
  18 H :    0.189486

  Mayer bond orders larger than 0.100000
B(  0-C ,  1-C ) :   1.4032 B(  0-C ,  5-C ) :   1.3938 B(  0-C ,  9-H ) :   0.9753
B(  1-C ,  2-C ) :   1.4220 B(  1-C , 10-H ) :   0.9772 B(  2-C ,  3-C ) :   1.3694
B(  2-C , 11-H ) :   0.9764 B(  3-C ,  4-C ) :   1.3485 B(  3-C ,  6-C ) :   0.8969
B(  4-C ,  5-C ) :   1.4275 B(  4-C , 12-H ) :   0.9791 B(  5-C , 13-H ) :   0.9775
B(  6-C ,  7-C ) :   0.9902 B(  6-C , 14-H ) :   0.9858 B(  6-C , 15-H ) :   0.9631
B(  7-C ,  8-O ) :   0.9799 B(  7-C , 16-H ) :   0.9804 B(  7-C , 17-H ) :   0.9683
B(  8-O , 18-H ) :   0.8670

FINAL SINGLE POINT ENERGY      -386.120609528451

DIPOLE MOMENT
-------------

Method             : SCF
Type of density    : Electron Density
Multiplicity       :   1
Irrep              :   0
Energy             :  -386.1315031660513455 Eh
Relativity type    :
Basis              : AO
                                X                 Y                 Z
Electronic contribution:     -2.693782480       0.109346813       0.861600290
Nuclear contribution   :      3.032481020      -0.824324282      -1.526283941
                        -----------------------------------------
Total Dipole Moment    :      0.338698540      -0.714977469      -0.664683652
                        -----------------------------------------
Magnitude (a.u.)       :      1.033302395
Magnitude (Debye)      :      2.626445960

Rotational constants in cm-1:             0.111322             0.035658             0.031671
Rotational constants in MHz :          3337.361578          1069.004918           949.461221

                             ****ORCA TERMINATED NORMALLY****
TOTAL RUN TIME: 0 days 0 hours 2 minutes 57 seconds 386 msec
