                         Program Version 6.0.0  -   RELEASE  -
|  1> ! pbe def2-sv(p) def2/J RI DEFGRID1 loosescf d4 GCP(DFT/SV(P)) printgap
|  2> %output
|  3>     printlevel normal
|  4> end
|  5> * xyz 0 1
|  6> C -2.5298868741 0.0884813519 0.3034056812
|  7> C -1.2664850829 0.7074208065 -0.2836855054
|  8> C -7.65878e-05 -0.0118949475 0.2013863938
|  9> C 1.2662333594 0.7081969409 -0.2829236907
| 10> C 2.5297426213 0.0884512299 0.3030865145
| 11> O 0.0004592661 -1.3733760858 -0.1878677079
| 12> H -2.5542466366 -0.9792799928 0.0986775583
| 13> H -2.5526589038 0.2271704855 1.3817737819
| 14> H -3.4160850166 0.5488407239 -0.1253206311
| 15> H -1.3043354873 0.6559529832 -1.3747114405
| 16> H -1.2035953395 1.7582285337 0.001338707
| 17> H -0.0004056156 -0.0454046666 1.2971392539
| 18> H 1.3039163953 0.6582607146 -1.3740009074
| 19> H 1.2033284893 1.7585498339 0.0036195423
| 20> H 2.5527213115 0.2255576854 1.3816483059
| 21> H 2.554013416 -0.9789892173 0.0968160234
| 22> H 3.4158319744 0.5493882158 -0.1251907279
| 23> H -0.0001434978 -1.4137534627 -1.1547511474
| 24> *
| 25>
| 26>                          ****END OF INPUT****

CARTESIAN COORDINATES (ANGSTROEM)
---------------------------------
  C     -2.529887    0.088481    0.303406
  C     -1.266485    0.707421   -0.283686
  C     -0.000077   -0.011895    0.201386
  C      1.266233    0.708197   -0.282924
  C      2.529743    0.088451    0.303087
  O      0.000459   -1.373376   -0.187868
  H     -2.554247   -0.979280    0.098678
  H     -2.552659    0.227170    1.381774
  H     -3.416085    0.548841   -0.125321
  H     -1.304335    0.655953   -1.374711
  H     -1.203595    1.758229    0.001339
  H     -0.000406   -0.045405    1.297139
  H      1.303916    0.658261   -1.374001
  H      1.203328    1.758550    0.003620
  H      2.552721    0.225558    1.381648
  H      2.554013   -0.978989    0.096816
  H      3.415832    0.549388   -0.125191
  H     -0.000143   -1.413753   -1.154751

 Total Charge           Charge          ....    0
 Multiplicity           Mult            ....    1
 Number of Electrons    NEL             ....   50
 Basis Dimension        Dim             ....  108

ORBITAL ENERGIES
----------------

  NO   OCC          E(Eh)            E(eV)
   0   2.0000     -18.741406      -509.9796
   1   2.0000      -9.932841      -270.2863
   2   2.0000      -9.883198      -268.9355
   3   2.0000      -9.883165      -268.9346
   4   2.0000      -9.869398      -268.5600
   5   2.0000      -9.869360      -268.5589
   6   2.0000      -0.920011       -25.0348
   7   2.0000      -0.710302       -19.3283
   8   2.0000      -0.676896       -18.4193
   9   2.0000      -0.599572       -16.3152
  10   2.0000      -0.534740       -14.5510
  11   2.0000      -0.532020       -14.4770
  12   2.0000      -0.434843       -11.8327
  13   2.0000      -0.410132       -11.1603
  14   2.0000      -0.406933       -11.0732
  15   2.0000      -0.389077       -10.5873
  16   2.0000      -0.357923        -9.7396
  17   2.0000      -0.343533        -9.3480
  18   2.0000      -0.329709        -8.9718
  19   2.0000      -0.312247        -8.4967
  20   2.0000      -0.297822        -8.1042
  21   2.0000      -0.296440        -8.0666
  22   2.0000      -0.290762        -7.9120
  23   2.0000      -0.262862        -7.1528
  24   2.0000      -0.213755        -5.8166
  25   0.0000       0.024427         0.6647
  26   0.0000       0.052336         1.4241
  27   0.0000       0.062906         1.7117
  28   0.0000       0.078509         2.1363
  29   0.0000       0.089307         2.4302

MULLIKEN ATOMIC CHARGES
-----------------------
   0 C :   -0.248313
   1 C :   -0.160768
   2 C :    0.004185
   3 C :   -0.160746
   4 C :   -0.248256
   5 O :   -0.425368
   6 H :    0.100740
   7 H :    0.095026
   8 H :    0.099686
   9 H :    0.066432
  10 H :    0.080573
  11 H :    0.063476
  12 H :    0.066410
  13 H :    0.080558
  14 H :    0.094996
  15 H :    0.100723
  16 H :    0.099664
  17 H :    0.290981
Sum of atomic charges:   -0.0000000

LOEWDIN ATOMIC CHARGES
----------------------
   0 C :   -0.343055
   1 C :   -0.245782
   2 C :   -0.054427
   3 C :   -0.245806
   4 C :   -0.343069
   5 O :   -0.321630
   6 H :    0.118730
   7 H :    0.117596
   8 H :    0.117392
   9 H :    0.109667
  10 H :    0.118070
  11 H :    0.110975
  12 H :    0.109669
  13 H :    0.118064
  14 H :    0.117593
  15 H :    0.118726
  16 H :    0.117386
  17 H :    0.279898

  Mayer bond orders larger than 0.100000
B(  0-C ,  1-C ) :   1.1573 B(  0-C ,  6-H ) :   0.9449 B(  0-C ,  7-H ) :   0.9544
B(  0-C ,  8-H ) :   0.9529 B(  1-C ,  2-C ) :   1.0725 B(  1-C ,  9-H ) :   0.9122
B(  1-C , 10-H ) :   0.9148 B(  2-C ,  3-C ) :   1.0724 B(  2-C ,  5-O ) :   1.0171
B(  2-C , 11-H ) :   0.9021 B(  3-C ,  4-C ) :   1.1573 B(  3-C , 12-H ) :   0.9122
B(  3-C , 13-H ) :   0.9148 B(  4-C , 14-H ) :   0.9544 B(  4-C , 15-H ) :   0.9449
B(  4-C , 16-H ) :   0.9529 B(  5-O , 17-H ) :   0.8515

Dispersion correction           -0.012495113
FINAL SINGLE POINT ENERGY      -272.306777026481

DIPOLE MOMENT
-------------

Method             : SCF
Type of density    : Electron Density
Multiplicity       :   1
Irrep              :   0
Energy             :  -272.3771095780435303 Eh
Relativity type    :
Basis              : AO
                                X                 Y                 Z
Electronic contribution:      0.000795609      -2.351453654      -0.504589953
Nuclear contribution   :     -0.001549514       2.760825041       0.097631416
                        -----------------------------------------
Total Dipole Moment    :     -0.000753904       0.409371387      -0.406958538
                        -----------------------------------------
Magnitude (a.u.)       :      0.577235439
Magnitude (Debye)      :      1.467215884

Rotational constants in cm-1:             0.240472             0.063768             0.055711
Rotational constants in MHz :          7209.156538          1911.703386          1670.179216

                             ****ORCA TERMINATED NORMALLY****
TOTAL RUN TIME: 0 days 0 hours 0 minutes 7 seconds 909 msec
