                         Program Version 6.0.0  -   RELEASE  -
|  1> ! r2scan-3c def2/J RI DEFGRID2 scfconv6 printgap
|  2> %output
|  3>     printlevel normal
|  4> end
|  5> * xyz 0 1
|  6> C -2.1571884486 1.0981870629 0.5393149593
|  7> C -2.0854774846 -0.2900496539 -0.0850881022
|  8> C -0.8310130626 -0.4557130317 -0.9491281975
|  9> C 0.4131593257 -0.4204224053 -0.1008983442
| 10> O 0.6169770111 -1.1165589912 0.8715363697
| 11> O 1.285987819 0.4788125592 -0.5437654316
| 12> C 2.5211566892 0.6095953552 0.164503713
| 13> H -2.149691463 1.8651774603 -0.2314087555
| 14> H -3.0665503088 1.2036705337 1.124761158
| 15> H -1.3061057044 1.2631874181 1.19746959
| 16> H -2.9651982496 -0.4585811705 -0.7065157733
| 17> H -2.0691822509 -1.0464531779 0.701818285
| 18> H -0.763492114 0.3316709234 -1.6987929513
| 19> H -0.85956396 -1.4269499988 -1.4461082271
| 20> H 3.086843783 -0.320570143 0.1008124877
| 21> H 2.327710476 0.8351680282 1.2139498157
| 22> H 3.0520571158 1.4231262679 -0.3193276584
| 23> *
| 24>
| 25>                          ****END OF INPUT****

CARTESIAN COORDINATES (ANGSTROEM)
---------------------------------
  C     -2.157188    1.098187    0.539315
  C     -2.085477   -0.290050   -0.085088
  C     -0.831013   -0.455713   -0.949128
  C      0.413159   -0.420422   -0.100898
  O      0.616977   -1.116559    0.871536
  O      1.285988    0.478813   -0.543765
  C      2.521157    0.609595    0.164504
  H     -2.149691    1.865177   -0.231409
  H     -3.066550    1.203671    1.124761
  H     -1.306106    1.263187    1.197470
  H     -2.965198   -0.458581   -0.706516
  H     -2.069182   -1.046453    0.701818
  H     -0.763492    0.331671   -1.698793
  H     -0.859564   -1.426950   -1.446108
  H      3.086844   -0.320570    0.100812
  H      2.327710    0.835168    1.213950
  H      3.052057    1.423126   -0.319328

 Total Charge           Charge          ....    0
 Multiplicity           Mult            ....    1
 Number of Electrons    NEL             ....   56
 Basis Dimension        Dim             ....  193

ORBITAL ENERGIES
----------------

  NO   OCC          E(Eh)            E(eV)
   0   2.0000     -19.000665      -517.0344
   1   2.0000     -18.929482      -515.0974
   2   2.0000     -10.152416      -276.2613
   3   2.0000     -10.087223      -274.4873
   4   2.0000     -10.041940      -273.2551
   5   2.0000     -10.034717      -273.0585
   6   2.0000     -10.020040      -272.6592
   7   2.0000      -1.073995       -29.2249
   8   2.0000      -0.976693       -26.5772
   9   2.0000      -0.772067       -21.0090
  10   2.0000      -0.711387       -19.3578
  11   2.0000      -0.660903       -17.9841
  12   2.0000      -0.574699       -15.6383
  13   2.0000      -0.527446       -14.3525
  14   2.0000      -0.472664       -12.8618
  15   2.0000      -0.458690       -12.4816
  16   2.0000      -0.444654       -12.0996
  17   2.0000      -0.419707       -11.4208
  18   2.0000      -0.413018       -11.2388
  19   2.0000      -0.376764       -10.2523
  20   2.0000      -0.371899       -10.1199
  21   2.0000      -0.357406        -9.7255
  22   2.0000      -0.329014        -8.9529
  23   2.0000      -0.311423        -8.4742
  24   2.0000      -0.310963        -8.4617
  25   2.0000      -0.309434        -8.4201
  26   2.0000      -0.275257        -7.4901
  27   2.0000      -0.237605        -6.4656
  28   0.0000      -0.017212        -0.4684
  29   0.0000       0.065103         1.7715
  30   0.0000       0.090984         2.4758
  31   0.0000       0.111395         3.0312
  32   0.0000       0.126287         3.4365

MULLIKEN ATOMIC CHARGES
-----------------------
   0 C :   -0.492646
   1 C :   -0.215574
   2 C :   -0.294420
   3 C :    0.336864
   4 O :   -0.417524
   5 O :   -0.180814
   6 C :   -0.296070
   7 H :    0.146337
   8 H :    0.148721
   9 H :    0.155819
  10 H :    0.144295
  11 H :    0.161341
  12 H :    0.163996
  13 H :    0.165899
  14 H :    0.159854
  15 H :    0.163292
  16 H :    0.150630
Sum of atomic charges:   -0.0000000

LOEWDIN ATOMIC CHARGES
----------------------
   0 C :   -0.416552
   1 C :   -0.293248
   2 C :   -0.232507
   3 C :    0.349298
   4 O :   -0.427119
   5 O :   -0.603758
   6 C :   -0.045425
   7 H :    0.150643
   8 H :    0.152995
   9 H :    0.155651
  10 H :    0.153009
  11 H :    0.167577
  12 H :    0.177337
  13 H :    0.181989
  14 H :    0.176090
  15 H :    0.177775
  16 H :    0.176247

  Mayer bond orders larger than 0.100000
B(  0-C ,  1-C ) :   0.9055 B(  0-C ,  7-H ) :   0.9818 B(  0-C ,  8-H ) :   0.9686
B(  0-C ,  9-H ) :   0.9730 B(  1-C ,  2-C ) :   0.8887 B(  1-C , 10-H ) :   0.9655
B(  1-C , 11-H ) :   0.9667 B(  2-C ,  3-C ) :   0.9416 B(  2-C , 12-H ) :   1.0038
B(  2-C , 13-H ) :   0.9342 B(  3-C ,  4-O ) :   1.8168 B(  3-C ,  5-O ) :   1.0545
B(  5-O ,  6-C ) :   0.8534 B(  6-C , 14-H ) :   0.9618 B(  6-C , 15-H ) :   0.9629
B(  6-C , 16-H ) :   0.9689

Dispersion correction           -0.004122603
FINAL SINGLE POINT ENERGY      -346.932372958228

DIPOLE MOMENT
-------------

Method             : SCF
Type of density    : Electron Density
Multiplicity       :   1
Irrep              :   0
Energy             :  -346.9389083860951359 Eh
Relativity type    :
Basis              : AO
                                X                 Y                 Z
Electronic contribution:      4.456857616      -2.906312649      -0.437802980
Nuclear contribution   :     -4.393530364       3.433098689      -0.054565831
                        -----------------------------------------
Total Dipole Moment    :      0.063327252       0.526786040      -0.492368811
                        -----------------------------------------
Magnitude (a.u.)       :      0.723837633
Magnitude (Debye)      :      1.839849047

Rotational constants in cm-1:             0.163335             0.051994             0.049093
Rotational constants in MHz :          4896.656832          1558.729576          1471.779803

                             ****ORCA TERMINATED NORMALLY****
TOTAL RUN TIME: 0 days 0 hours 0 minutes 25 seconds 535 msec
