                         Program Version 6.0.0  -   RELEASE  -
|  1> ! r2scan-3c def2/J RI DEFGRID2 scfconv6 printgap
|  2> %output
|  3>     printlevel normal
|  4> end
|  5> %cpcm
|  6>     smd true
|  7>     smdsolvent "water"
|  8> end
|  9> * xyz 0 1
| 10> C -2.1571884486 1.0981870629 0.5393149593
| 11> C -2.0854774846 -0.2900496539 -0.0850881022
| 12> C -0.8310130626 -0.4557130317 -0.9491281975
| 13> C 0.4131593257 -0.4204224053 -0.1008983442
| 14> O 0.6169770111 -1.1165589912 0.8715363697
| 15> O 1.285987819 0.4788125592 -0.5437654316
| 16> C 2.5211566892 0.6095953552 0.164503713
| 17> H -2.149691463 1.8651774603 -0.2314087555
| 18> H -3.0665503088 1.2036705337 1.124761158
| 19> H -1.3061057044 1.2631874181 1.19746959
| 20> H -2.9651982496 -0.4585811705 -0.7065157733
| 21> H -2.0691822509 -1.0464531779 0.701818285
| 22> H -0.763492114 0.3316709234 -1.6987929513
| 23> H -0.85956396 -1.4269499988 -1.4461082271
| 24> H 3.086843783 -0.320570143 0.1008124877
| 25> H 2.327710476 0.8351680282 1.2139498157
| 26> H 3.0520571158 1.4231262679 -0.3193276584
| 27> *
| 28>
| 29>                          ****END OF INPUT****

CARTESIAN COORDINATES (ANGSTROEM)
---------------------------------
  C     -2.157188    1.098187    0.539315
  C     -2.085477   -0.290050   -0.085088
  C     -0.831013   -0.455713   -0.949128
  C      0.413159   -0.420422   -0.100898
  O      0.616977   -1.116559    0.871536
  O      1.285988    0.478813   -0.543765
  C      2.521157    0.609595    0.164504
  H     -2.149691    1.865177   -0.231409
  H     -3.066550    1.203671    1.124761
  H     -1.306106    1.263187    1.197470
  H     -2.965198   -0.458581   -0.706516
  H     -2.069182   -1.046453    0.701818
  H     -0.763492    0.331671   -1.698793
  H     -0.859564   -1.426950   -1.446108
  H      3.086844   -0.320570    0.100812
  H      2.327710    0.835168    1.213950
  H      3.052057    1.423126   -0.319328

 Total Charge           Charge          ....    0
 Multiplicity           Mult            ....    1
 Number of Electrons    NEL             ....   56
 Basis Dimension        Dim             ....  193

ORBITAL ENERGIES
----------------

  NO   OCC          E(Eh)            E(eV)
   0   2.0000     -19.005515      -517.1664
   1   2.0000     -18.944815      -515.5146
   2   2.0000     -10.162461      -276.5346
   3   2.0000     -10.076452      -274.1942
   4   2.0000     -10.035736      -273.0863
   5   2.0000     -10.028181      -272.8807
   6   2.0000     -10.011578      -272.4289
   7   2.0000      -1.080505       -29.4020
   8   2.0000      -0.989721       -26.9317
   9   2.0000      -0.767275       -20.8786
  10   2.0000      -0.706601       -19.2276
  11   2.0000      -0.654112       -17.7993
  12   2.0000      -0.568444       -15.4681
  13   2.0000      -0.525836       -14.3087
  14   2.0000      -0.473227       -12.8772
  15   2.0000      -0.460038       -12.5183
  16   2.0000      -0.451126       -12.2758
  17   2.0000      -0.414635       -11.2828
  18   2.0000      -0.411150       -11.1880
  19   2.0000      -0.372100       -10.1254
  20   2.0000      -0.365745        -9.9524
  21   2.0000      -0.358015        -9.7421
  22   2.0000      -0.328248        -8.9321
  23   2.0000      -0.306090        -8.3291
  24   2.0000      -0.305523        -8.3137
  25   2.0000      -0.303525        -8.2593
  26   2.0000      -0.282445        -7.6857
  27   2.0000      -0.253719        -6.9040
  28   0.0000      -0.024492        -0.6665
  29   0.0000       0.069810         1.8996
  30   0.0000       0.098573         2.6823
  31   0.0000       0.122515         3.3338
  32   0.0000       0.133710         3.6384

MULLIKEN ATOMIC CHARGES
-----------------------
   0 C :   -0.528676
   1 C :   -0.224296
   2 C :   -0.310698
   3 C :    0.381574
   4 O :   -0.503302
   5 O :   -0.197750
   6 C :   -0.331286
   7 H :    0.162213
   8 H :    0.161417
   9 H :    0.162212
  10 H :    0.163487
  11 H :    0.154881
  12 H :    0.179701
  13 H :    0.194862
  14 H :    0.178768
  15 H :    0.178349
  16 H :    0.178545
Sum of atomic charges:   -0.0000000

LOEWDIN ATOMIC CHARGES
----------------------
   0 C :   -0.423757
   1 C :   -0.292707
   2 C :   -0.229528
   3 C :    0.359597
   4 O :   -0.488148
   5 O :   -0.605551
   6 C :   -0.042982
   7 H :    0.155843
   8 H :    0.156256
   9 H :    0.156161
  10 H :    0.160536
  11 H :    0.163496
  12 H :    0.184970
  13 H :    0.192268
  14 H :    0.182224
  15 H :    0.182889
  16 H :    0.188432

  Mayer bond orders larger than 0.100000
B(  0-C ,  1-C ) :   0.8989 B(  0-C ,  7-H ) :   0.9782 B(  0-C ,  8-H ) :   0.9657
B(  0-C ,  9-H ) :   0.9706 B(  1-C ,  2-C ) :   0.8744 B(  1-C , 10-H ) :   0.9613
B(  1-C , 11-H ) :   0.9714 B(  2-C ,  3-C ) :   0.9450 B(  2-C , 12-H ) :   0.9935
B(  2-C , 13-H ) :   0.9271 B(  3-C ,  4-O ) :   1.7506 B(  3-C ,  5-O ) :   1.0785
B(  5-O ,  6-C ) :   0.8339 B(  6-C , 14-H ) :   0.9560 B(  6-C , 15-H ) :   0.9576
B(  6-C , 16-H ) :   0.9590

Dispersion correction           -0.004122603
FINAL SINGLE POINT ENERGY      -346.937537367341

DIPOLE MOMENT
-------------

Method             : SCF
Type of density    : Electron Density
Multiplicity       :   1
Irrep              :   0
Energy             :  -346.9440727952079442 Eh
Relativity type    :
Basis              : AO
                                X                 Y                 Z
Electronic contribution:      4.457288833      -2.688267656      -0.709995224
Nuclear contribution   :     -4.393530364       3.433098689      -0.054565831
                        -----------------------------------------
Total Dipole Moment    :      0.063758469       0.744831033      -0.764561055
                        -----------------------------------------
Magnitude (a.u.)       :      1.069295103
Magnitude (Debye)      :      2.717932154

Rotational constants in cm-1:             0.163335             0.051994             0.049093
Rotational constants in MHz :          4896.656832          1558.729576          1471.779803

                             ****ORCA TERMINATED NORMALLY****
TOTAL RUN TIME: 0 days 0 hours 0 minutes 30 seconds 276 msec
