                         Program Version 6.0.0  -   RELEASE  -
|  1> ! pbe def2-sv(p) def2/J RI DEFGRID1 loosescf d4 GCP(DFT/SV(P)) printgap
|  2> %output
|  3>     printlevel normal
|  4> end
|  5> * xyz 0 1
|  6> C -3.3015171433 1.3545427395 -0.0330083884
|  7> C -1.9065353198 1.1505195687 -0.5274813825
|  8> O -1.5271161718 1.3044710971 -1.6664036174
|  9> O -1.0923869915 0.7744839842 0.4699819109
| 10> C 0.2621213236 0.5915410299 0.2158912676
| 11> C 1.0585834273 1.6969709445 -0.0391964326
| 12> C 2.420224251 1.5434620715 -0.2345178029
| 13> C 2.9958565614 0.2838413728 -0.1708951065
| 14> C 2.2039424108 -0.8186635138 0.0771129075
| 15> C 0.8267320737 -0.6875350229 0.2656038228
| 16> C 0.0489956738 -1.9266590041 0.4898341241
| 17> O 0.5698867137 -3.0216921277 0.5953873143
| 18> O -1.2642856571 -1.7702469406 0.5530451971
| 19> H -3.4805582789 0.7282457418 0.8342087972
| 20> H -4.004978485 1.1397984245 -0.8308943078
| 21> H -3.4130091573 2.3978260195 0.2562901619
| 22> H 0.598691648 2.6719099563 -0.0840090523
| 23> H 3.0288220755 2.4106368101 -0.4345002381
| 24> H 4.0565477088 0.1626101136 -0.3183839242
| 25> H 2.6212989507 -1.8128400675 0.1251491324
| 26> H -1.7196293969 -2.6234717007 0.6974072614
| 27> *
| 28>
| 29>                          ****END OF INPUT****

CARTESIAN COORDINATES (ANGSTROEM)
---------------------------------
  C     -3.301517    1.354543   -0.033008
  C     -1.906535    1.150520   -0.527481
  O     -1.527116    1.304471   -1.666404
  O     -1.092387    0.774484    0.469982
  C      0.262121    0.591541    0.215891
  C      1.058583    1.696971   -0.039196
  C      2.420224    1.543462   -0.234518
  C      2.995857    0.283841   -0.170895
  C      2.203942   -0.818664    0.077113
  C      0.826732   -0.687535    0.265604
  C      0.048996   -1.926659    0.489834
  O      0.569887   -3.021692    0.595387
  O     -1.264286   -1.770247    0.553045
  H     -3.480558    0.728246    0.834209
  H     -4.004978    1.139798   -0.830894
  H     -3.413009    2.397826    0.256290
  H      0.598692    2.671910   -0.084009
  H      3.028822    2.410637   -0.434500
  H      4.056548    0.162610   -0.318384
  H      2.621299   -1.812840    0.125149
  H     -1.719629   -2.623472    0.697407

 Total Charge           Charge          ....    0
 Multiplicity           Mult            ....    1
 Number of Electrons    NEL             ....   94
 Basis Dimension        Dim             ....  198

ORBITAL ENERGIES
----------------

  NO   OCC          E(Eh)            E(eV)
   0   2.0000     -18.813896      -511.9522
   1   2.0000     -18.805680      -511.7286
   2   2.0000     -18.742814      -510.0179
   3   2.0000     -18.739791      -509.9356
   4   2.0000     -10.020628      -272.6752
   5   2.0000     -10.018215      -272.6095
   6   2.0000      -9.973457      -271.3916
   7   2.0000      -9.921831      -269.9868
   8   2.0000      -9.913539      -269.7611
   9   2.0000      -9.909776      -269.6587
  10   2.0000      -9.909449      -269.6498
  11   2.0000      -9.906770      -269.5769
  12   2.0000      -9.899286      -269.3733
  13   2.0000      -1.023753       -27.8577
  14   2.0000      -1.012837       -27.5607
  15   2.0000      -0.923258       -25.1231
  16   2.0000      -0.913978       -24.8706
  17   2.0000      -0.795915       -21.6579
  18   2.0000      -0.713990       -19.4286
  19   2.0000      -0.702137       -19.1061
  20   2.0000      -0.669897       -18.2288
  21   2.0000      -0.614572       -16.7233
  22   2.0000      -0.593028       -16.1371
  23   2.0000      -0.549575       -14.9547
  24   2.0000      -0.531844       -14.4722
  25   2.0000      -0.476977       -12.9792
  26   2.0000      -0.452044       -12.3008
  27   2.0000      -0.442445       -12.0396
  28   2.0000      -0.432940       -11.7809
  29   2.0000      -0.423077       -11.5125
  30   2.0000      -0.412190       -11.2163
  31   2.0000      -0.410411       -11.1678
  32   2.0000      -0.406775       -11.0689
  33   2.0000      -0.395290       -10.7564
  34   2.0000      -0.369236       -10.0474
  35   2.0000      -0.359161        -9.7733
  36   2.0000      -0.351209        -9.5569
  37   2.0000      -0.350533        -9.5385
  38   2.0000      -0.337464        -9.1829
  39   2.0000      -0.324090        -8.8189
  40   2.0000      -0.318722        -8.6729
  41   2.0000      -0.279244        -7.5986
  42   2.0000      -0.271013        -7.3746
  43   2.0000      -0.246574        -6.7096
  44   2.0000      -0.236055        -6.4234
  45   2.0000      -0.230177        -6.2634
  46   2.0000      -0.226107        -6.1527
  47   0.0000      -0.082708        -2.2506
  48   0.0000      -0.049912        -1.3582
  49   0.0000      -0.027096        -0.7373
  50   0.0000       0.014432         0.3927
  51   0.0000       0.020995         0.5713

MULLIKEN ATOMIC CHARGES
-----------------------
   0 C :   -0.248328
   1 C :    0.098817
   2 O :   -0.191858
   3 O :   -0.204147
   4 C :    0.190962
   5 C :   -0.095397
   6 C :   -0.039323
   7 C :   -0.023103
   8 C :   -0.119348
   9 C :    0.018241
  10 C :    0.110456
  11 O :   -0.182137
  12 O :   -0.279561
  13 H :    0.124738
  14 H :    0.131202
  15 H :    0.137383
  16 H :    0.052332
  17 H :    0.066280
  18 H :    0.062761
  19 H :    0.071951
  20 H :    0.318081
Sum of atomic charges:    0.0000000

LOEWDIN ATOMIC CHARGES
----------------------
   0 C :   -0.357487
   1 C :    0.043193
   2 O :   -0.155116
   3 O :   -0.023260
   4 C :    0.060229
   5 C :   -0.121925
   6 C :   -0.098724
   7 C :   -0.122982
   8 C :   -0.080394
   9 C :   -0.085338
  10 C :    0.036266
  11 O :   -0.170156
  12 O :   -0.196927
  13 H :    0.139384
  14 H :    0.144948
  15 H :    0.151840
  16 H :    0.135233
  17 H :    0.130671
  18 H :    0.130003
  19 H :    0.140081
  20 H :    0.300463

  Mayer bond orders larger than 0.100000
B(  0-C ,  1-C ) :   1.0912 B(  0-C , 13-H ) :   0.9334 B(  0-C , 14-H ) :   0.9365
B(  0-C , 15-H ) :   0.9213 B(  1-C ,  2-O ) :   2.0995 B(  1-C ,  3-O ) :   1.1121
B(  3-O ,  4-C ) :   1.0056 B(  4-C ,  5-C ) :   1.3880 B(  4-C ,  9-C ) :   1.3468
B(  5-C ,  6-C ) :   1.3502 B(  5-C , 16-H ) :   0.9591 B(  6-C ,  7-C ) :   1.3396
B(  6-C , 17-H ) :   0.9628 B(  7-C ,  8-C ) :   1.3592 B(  7-C , 18-H ) :   0.9700
B(  8-C ,  9-C ) :   1.3846 B(  8-C , 19-H ) :   0.9538 B(  9-C , 10-C ) :   0.9330
B( 10-C , 11-O ) :   2.0972 B( 10-C , 12-O ) :   1.3057 B( 12-O , 20-H ) :   0.8179

Dispersion correction           -0.024150149
FINAL SINGLE POINT ENERGY      -647.388219276367

DIPOLE MOMENT
-------------

Method             : SCF
Type of density    : Electron Density
Multiplicity       :   1
Irrep              :   0
Energy             :  -647.4563444617367622 Eh
Relativity type    :
Basis              : AO
                                X                 Y                 Z
Electronic contribution:      1.810924695      -4.146258450       0.323689583
Nuclear contribution   :     -2.218884660       4.720788210       0.229392932
                        -----------------------------------------
Total Dipole Moment    :     -0.407959965       0.574529760       0.553082515
                        -----------------------------------------
Magnitude (a.u.)       :      0.895776784
Magnitude (Debye)      :      2.276883637

Rotational constants in cm-1:             0.036440             0.024989             0.016007
Rotational constants in MHz :          1092.454027           749.148423           479.889034

                             ****ORCA TERMINATED NORMALLY****
TOTAL RUN TIME: 0 days 0 hours 0 minutes 15 seconds 5 msec
