                         Program Version 6.0.0  -   RELEASE  -
|  1> ! r2scan-3c def2/J RI DEFGRID2 scfconv6 printgap
|  2> %output
|  3>     printlevel normal
|  4> end
|  5> * xyz 0 1
|  6> C 2.2449720759 0.5414207681 -0.8892465994
|  7> C 1.0635368638 -0.1442721286 -0.2075785894
|  8> H 0.6271382115 -0.8673704129 -0.9130242214
|  9> C 0.0018045735 0.8823970239 0.2254321417
| 10> C -1.459765641 0.4100672899 0.1686702611
| 11> C -1.9318692752 0.2150443789 -1.2716349034
| 12> C -1.7009607316 -0.8575406665 0.9869301395
| 13> O 1.5957407275 -0.8548637983 0.9031966322
| 14> H 2.6656095041 1.2921880927 -0.2254684102
| 15> H 3.0147169708 -0.1942274775 -1.1074420278
| 16> H 1.9252044513 1.0111004349 -1.8141035038
| 17> H 0.2437984857 1.1895250965 1.2460424017
| 18> H 0.0933901444 1.7647098955 -0.4096670932
| 19> H -2.0621191572 1.2134808156 0.6093883075
| 20> H -2.9891335482 -0.0385841915 -1.2883458028
| 21> H -1.3840131653 -0.5875976508 -1.7590460881
| 22> H -1.7881505459 1.1261990298 -1.8471262961
| 23> H -1.3633398062 -0.7230395391 2.0121773241
| 24> H -2.7635862287 -1.0888918071 1.0098832486
| 25> H -1.1868457167 -1.708371091 0.5453979381
| 26> H 0.8757504067 -1.2973565546 1.3710277494
| 27> *
| 28>
| 29>                          ****END OF INPUT****

CARTESIAN COORDINATES (ANGSTROEM)
---------------------------------
  C      2.244972    0.541421   -0.889247
  C      1.063537   -0.144272   -0.207579
  H      0.627138   -0.867370   -0.913024
  C      0.001805    0.882397    0.225432
  C     -1.459766    0.410067    0.168670
  C     -1.931869    0.215044   -1.271635
  C     -1.700961   -0.857541    0.986930
  O      1.595741   -0.854864    0.903197
  H      2.665610    1.292188   -0.225468
  H      3.014717   -0.194227   -1.107442
  H      1.925204    1.011100   -1.814104
  H      0.243798    1.189525    1.246042
  H      0.093390    1.764710   -0.409667
  H     -2.062119    1.213481    0.609388
  H     -2.989134   -0.038584   -1.288346
  H     -1.384013   -0.587598   -1.759046
  H     -1.788151    1.126199   -1.847126
  H     -1.363340   -0.723040    2.012177
  H     -2.763586   -1.088892    1.009883
  H     -1.186846   -1.708371    0.545398
  H      0.875750   -1.297357    1.371028

 Total Charge           Charge          ....    0
 Multiplicity           Mult            ....    1
 Number of Electrons    NEL             ....   58
 Basis Dimension        Dim             ....  208

ORBITAL ENERGIES
----------------

  NO   OCC          E(Eh)            E(eV)
   0   2.0000     -18.940417      -515.3949
   1   2.0000     -10.078337      -274.2455
   2   2.0000     -10.039467      -273.1878
   3   2.0000     -10.025512      -272.8081
   4   2.0000     -10.022067      -272.7143
   5   2.0000     -10.019195      -272.6362
   6   2.0000     -10.013929      -272.4928
   7   2.0000      -0.978501       -26.6264
   8   2.0000      -0.780994       -21.2519
   9   2.0000      -0.721957       -19.6454
  10   2.0000      -0.657526       -17.8922
  11   2.0000      -0.649124       -17.6636
  12   2.0000      -0.566129       -15.4051
  13   2.0000      -0.524477       -14.2718
  14   2.0000      -0.481522       -13.1029
  15   2.0000      -0.429114       -11.6768
  16   2.0000      -0.420485       -11.4420
  17   2.0000      -0.412895       -11.2354
  18   2.0000      -0.386563       -10.5189
  19   2.0000      -0.371294       -10.1034
  20   2.0000      -0.356745        -9.7075
  21   2.0000      -0.350782        -9.5453
  22   2.0000      -0.338472        -9.2103
  23   2.0000      -0.331027        -9.0077
  24   2.0000      -0.314652        -8.5621
  25   2.0000      -0.301398        -8.2015
  26   2.0000      -0.293088        -7.9753
  27   2.0000      -0.274250        -7.4627
  28   2.0000      -0.228944        -6.2299
  29   0.0000       0.056928         1.5491
  30   0.0000       0.090261         2.4561
  31   0.0000       0.104404         2.8410
  32   0.0000       0.116429         3.1682
  33   0.0000       0.122175         3.3246

MULLIKEN ATOMIC CHARGES
-----------------------
   0 C :   -0.514714
   1 C :    0.037912
   2 H :    0.138642
   3 C :   -0.321155
   4 C :   -0.001982
   5 C :   -0.503898
   6 C :   -0.547882
   7 O :   -0.431633
   8 H :    0.154102
   9 H :    0.156260
  10 H :    0.144868
  11 H :    0.172821
  12 H :    0.149420
  13 H :    0.152164
  14 H :    0.145645
  15 H :    0.150176
  16 H :    0.149759
  17 H :    0.158663
  18 H :    0.153415
  19 H :    0.159065
  20 H :    0.298354
Sum of atomic charges:   -0.0000000

LOEWDIN ATOMIC CHARGES
----------------------
   0 C :   -0.383030
   1 C :    0.049019
   2 H :    0.160987
   3 C :   -0.285334
   4 C :   -0.243846
   5 C :   -0.418627
   6 C :   -0.422582
   7 O :   -0.619023
   8 H :    0.161724
   9 H :    0.162353
  10 H :    0.154966
  11 H :    0.173406
  12 H :    0.165112
  13 H :    0.156636
  14 H :    0.153599
  15 H :    0.151160
  16 H :    0.154438
  17 H :    0.153419
  18 H :    0.156745
  19 H :    0.151793
  20 H :    0.267086

  Mayer bond orders larger than 0.100000
B(  0-C ,  1-C ) :   0.9181 B(  0-C ,  8-H ) :   0.9822 B(  0-C ,  9-H ) :   0.9729
B(  0-C , 10-H ) :   0.9784 B(  1-C ,  2-H ) :   0.9770 B(  1-C ,  3-C ) :   0.8248
B(  1-C ,  7-O ) :   0.8538 B(  3-C ,  4-C ) :   0.8996 B(  3-C , 11-H ) :   0.9787
B(  3-C , 12-H ) :   0.9808 B(  4-C ,  5-C ) :   0.9276 B(  4-C ,  6-C ) :   0.8664
B(  4-C , 13-H ) :   0.9752 B(  5-C , 14-H ) :   0.9697 B(  5-C , 15-H ) :   0.9807
B(  5-C , 16-H ) :   0.9755 B(  6-C , 17-H ) :   0.9763 B(  6-C , 18-H ) :   0.9642
B(  6-C , 19-H ) :   0.9740 B(  7-O , 20-H ) :   0.8888

Dispersion correction           -0.005683147
FINAL SINGLE POINT ENERGY      -312.200742233315

DIPOLE MOMENT
-------------

Method             : SCF
Type of density    : Electron Density
Multiplicity       :   1
Irrep              :   0
Energy             :  -312.2063026548817106 Eh
Relativity type    :
Basis              : AO
                                X                 Y                 Z
Electronic contribution:      3.136431418      -0.898955362       2.259628036
Nuclear contribution   :     -3.814889173       1.011566947      -2.397963702
                        -----------------------------------------
Total Dipole Moment    :     -0.678457755       0.112611586      -0.138335666
                        -----------------------------------------
Magnitude (a.u.)       :      0.701514826
Magnitude (Debye)      :      1.783108982

Rotational constants in cm-1:             0.127754             0.056054             0.045214
Rotational constants in MHz :          3829.972063          1680.457232          1355.474437

                             ****ORCA TERMINATED NORMALLY****
TOTAL RUN TIME: 0 days 0 hours 0 minutes 30 seconds 449 msec
