                         Program Version 6.0.0  -   RELEASE  -
|  1> ! pbe def2-sv(p) def2/J RI DEFGRID1 loosescf d4 GCP(DFT/SV(P)) printgap
|  2> %output
|  3>     printlevel normal
|  4> end
|  5> * xyz 0 1
|  6> C -2.8505137115 0.1236323023 0.317158652
|  7> C -1.6561480334 0.622206401 -0.4963115116
|  8> C -0.4083733425 -0.1361134994 -0.1202252664
|  9> O -0.2909797666 -1.3427421686 -0.1709832443
| 10> O 0.5525130331 0.6803121728 0.2936276596
| 11> C 1.8184655688 0.1165312083 0.6769607103
| 12> C 2.7462169808 -0.0077990967 -0.5217653731
| 13> H -2.7091992254 0.3399464268 1.3730407629
| 14> H -3.7594793759 0.6109015054 -0.0215748996
| 15> H -2.9573850098 -0.9514547298 0.1958855751
| 16> H -1.4820132831 1.6844487504 -0.3326381497
| 17> H -1.8415311757 0.4434825795 -1.5567880055
| 18> H 2.2168635734 0.8111642958 1.4169910978
| 19> H 1.640307671 -0.8630546704 1.1307449519
| 20> H 2.331946668 -0.7093367938 -1.2424487426
| 21> H 2.8706243454 0.9596690924 -1.0004127303
| 22> H 3.7133889679 -0.3721086956 -0.1914510976
| 23> *
| 24>
| 25>                          ****END OF INPUT****

CARTESIAN COORDINATES (ANGSTROEM)
---------------------------------
  C     -2.850514    0.123632    0.317159
  C     -1.656148    0.622206   -0.496312
  C     -0.408373   -0.136113   -0.120225
  O     -0.290980   -1.342742   -0.170983
  O      0.552513    0.680312    0.293628
  C      1.818466    0.116531    0.676961
  C      2.746217   -0.007799   -0.521765
  H     -2.709199    0.339946    1.373041
  H     -3.759479    0.610902   -0.021575
  H     -2.957385   -0.951455    0.195886
  H     -1.482013    1.684449   -0.332638
  H     -1.841531    0.443483   -1.556788
  H      2.216864    0.811164    1.416991
  H      1.640308   -0.863055    1.130745
  H      2.331947   -0.709337   -1.242449
  H      2.870624    0.959669   -1.000413
  H      3.713389   -0.372109   -0.191451

 Total Charge           Charge          ....    0
 Multiplicity           Mult            ....    1
 Number of Electrons    NEL             ....   56
 Basis Dimension        Dim             ....  118

ORBITAL ENERGIES
----------------

  NO   OCC          E(Eh)            E(eV)
   0   2.0000     -18.797517      -511.5064
   1   2.0000     -18.730593      -509.6854
   2   2.0000     -10.004329      -272.2316
   3   2.0000      -9.945892      -270.6415
   4   2.0000      -9.898155      -269.3425
   5   2.0000      -9.886986      -269.0386
   6   2.0000      -9.883547      -268.9450
   7   2.0000      -1.003657       -27.3109
   8   2.0000      -0.908105       -24.7108
   9   2.0000      -0.718934       -19.5632
  10   2.0000      -0.686840       -18.6899
  11   2.0000      -0.608280       -16.5522
  12   2.0000      -0.559610       -15.2278
  13   2.0000      -0.495458       -13.4821
  14   2.0000      -0.452044       -12.3007
  15   2.0000      -0.428914       -11.6714
  16   2.0000      -0.415656       -11.3106
  17   2.0000      -0.399573       -10.8729
  18   2.0000      -0.386874       -10.5274
  19   2.0000      -0.362062        -9.8522
  20   2.0000      -0.350755        -9.5445
  21   2.0000      -0.340661        -9.2699
  22   2.0000      -0.320973        -8.7341
  23   2.0000      -0.319111        -8.6834
  24   2.0000      -0.306226        -8.3328
  25   2.0000      -0.288793        -7.8585
  26   2.0000      -0.254961        -6.9378
  27   2.0000      -0.217500        -5.9185
  28   0.0000      -0.019882        -0.5410
  29   0.0000       0.046260         1.2588
  30   0.0000       0.058185         1.5833
  31   0.0000       0.082507         2.2451
  32   0.0000       0.088131         2.3982

MULLIKEN ATOMIC CHARGES
-----------------------
   0 C :   -0.297276
   1 C :   -0.151035
   2 C :    0.101873
   3 O :   -0.214297
   4 O :   -0.234421
   5 C :   -0.016105
   6 C :   -0.302359
   7 H :    0.108744
   8 H :    0.110050
   9 H :    0.123900
  10 H :    0.097421
  11 H :    0.113972
  12 H :    0.100999
  13 H :    0.108286
  14 H :    0.125318
  15 H :    0.112936
  16 H :    0.111995
Sum of atomic charges:   -0.0000000

LOEWDIN ATOMIC CHARGES
----------------------
   0 C :   -0.332399
   1 C :   -0.253584
   2 C :    0.037552
   3 O :   -0.175159
   4 O :   -0.066792
   5 C :   -0.114093
   6 C :   -0.355473
   7 H :    0.121754
   8 H :    0.122126
   9 H :    0.127692
  10 H :    0.127387
  11 H :    0.140776
  12 H :    0.116655
  13 H :    0.119201
  14 H :    0.130116
  15 H :    0.124162
  16 H :    0.130078

  Mayer bond orders larger than 0.100000
B(  0-C ,  1-C ) :   1.1417 B(  0-C ,  7-H ) :   0.9576 B(  0-C ,  8-H ) :   0.9532
B(  0-C ,  9-H ) :   0.9487 B(  1-C ,  2-C ) :   1.0218 B(  1-C , 10-H ) :   0.9144
B(  1-C , 11-H ) :   0.9013 B(  2-C ,  3-O ) :   2.0356 B(  2-C ,  4-O ) :   1.2225
B(  4-O ,  5-C ) :   0.9226 B(  5-C ,  6-C ) :   1.1726 B(  5-C , 12-H ) :   0.9371
B(  5-C , 13-H ) :   0.9127 B(  6-C , 14-H ) :   0.9469 B(  6-C , 15-H ) :   0.9494
B(  6-C , 16-H ) :   0.9446

Dispersion correction           -0.011916286
FINAL SINGLE POINT ENERGY      -346.244979871164

DIPOLE MOMENT
-------------

Method             : SCF
Type of density    : Electron Density
Multiplicity       :   1
Irrep              :   0
Energy             :  -346.3096393891141815 Eh
Relativity type    :
Basis              : AO
                                X                 Y                 Z
Electronic contribution:      0.231622790      -1.196681272       0.295347169
Nuclear contribution   :      0.025946186       1.823036343      -0.212694746
                        -----------------------------------------
Total Dipole Moment    :      0.257568976       0.626355071       0.082652423
                        -----------------------------------------
Magnitude (a.u.)       :      0.682271116
Magnitude (Debye)      :      1.734195357

Rotational constants in cm-1:             0.227207             0.046143             0.043212
Rotational constants in MHz :          6811.482413          1383.337431          1295.461670

                             ****ORCA TERMINATED NORMALLY****
TOTAL RUN TIME: 0 days 0 hours 0 minutes 9 seconds 16 msec
