                         Program Version 6.0.0  -   RELEASE  -
|  1> ! pbe def2-sv(p) def2/J RI DEFGRID1 loosescf d4 GCP(DFT/SV(P)) printgap
|  2> %output
|  3>     printlevel normal
|  4> end
|  5> * xyz 0 1
|  6> C -1.3266693188 0.3073125114 -0.0087608562
|  7> C 0.152084257 0.6602755424 0.2359994393
|  8> C 1.0928806255 -0.3044967276 -0.5061381482
|  9> O 1.2452823889 -1.4594139131 0.2891335808
| 10> O 0.4051074818 2.0061901873 -0.0891932231
| 11> O -1.6079924069 -1.0651897242 0.101779294
| 12> H -1.6002345133 0.579197949 -1.0333729275
| 13> H -1.9500970227 0.8921446772 0.6823027141
| 14> H 0.3807978966 0.5729384585 1.3046677567
| 15> H 2.0588252232 0.1997093418 -0.6450162258
| 16> H 0.6690945351 -0.5596126292 -1.4856542469
| 17> H 1.7748740105 -2.1117953684 -0.1885436917
| 18> H 0.1874826544 2.1623673421 -1.0196476651
| 19> H -1.2201336307 -1.4074583934 0.9193588127
| 20> *
| 21>
| 22>                          ****END OF INPUT****

CARTESIAN COORDINATES (ANGSTROEM)
---------------------------------
  C     -1.326669    0.307313   -0.008761
  C      0.152084    0.660276    0.235999
  C      1.092881   -0.304497   -0.506138
  O      1.245282   -1.459414    0.289134
  O      0.405107    2.006190   -0.089193
  O     -1.607992   -1.065190    0.101779
  H     -1.600235    0.579198   -1.033373
  H     -1.950097    0.892145    0.682303
  H      0.380798    0.572938    1.304668
  H      2.058825    0.199709   -0.645016
  H      0.669095   -0.559613   -1.485654
  H      1.774874   -2.111795   -0.188544
  H      0.187483    2.162367   -1.019648
  H     -1.220134   -1.407458    0.919359

 Total Charge           Charge          ....    0
 Multiplicity           Mult            ....    1
 Number of Electrons    NEL             ....   50
 Basis Dimension        Dim             ....  100

ORBITAL ENERGIES
----------------

  NO   OCC          E(Eh)            E(eV)
   0   2.0000     -18.752793      -510.2894
   1   2.0000     -18.752519      -510.2820
   2   2.0000     -18.739379      -509.9244
   3   2.0000      -9.938067      -270.4286
   4   2.0000      -9.931348      -270.2457
   5   2.0000      -9.928090      -270.1571
   6   2.0000      -0.937136       -25.5008
   7   2.0000      -0.922617       -25.1057
   8   2.0000      -0.913577       -24.8597
   9   2.0000      -0.674753       -18.3610
  10   2.0000      -0.605864       -16.4864
  11   2.0000      -0.550968       -14.9926
  12   2.0000      -0.477808       -13.0018
  13   2.0000      -0.461497       -12.5580
  14   2.0000      -0.436722       -11.8838
  15   2.0000      -0.413214       -11.2441
  16   2.0000      -0.394064       -10.7230
  17   2.0000      -0.352257        -9.5854
  18   2.0000      -0.345145        -9.3919
  19   2.0000      -0.312767        -8.5108
  20   2.0000      -0.293540        -7.9876
  21   2.0000      -0.264124        -7.1872
  22   2.0000      -0.235933        -6.4201
  23   2.0000      -0.221136        -6.0174
  24   2.0000      -0.200589        -5.4583
  25   0.0000       0.012244         0.3332
  26   0.0000       0.029711         0.8085
  27   0.0000       0.050029         1.3614
  28   0.0000       0.076866         2.0916
  29   0.0000       0.094899         2.5823

MULLIKEN ATOMIC CHARGES
-----------------------
   0 C :    0.033752
   1 C :   -0.034942
   2 C :    0.024752
   3 O :   -0.439760
   4 O :   -0.420505
   5 O :   -0.432420
   6 H :    0.063250
   7 H :    0.084593
   8 H :    0.080230
   9 H :    0.077178
  10 H :    0.064686
  11 H :    0.302060
  12 H :    0.297109
  13 H :    0.300015
Sum of atomic charges:    0.0000000

LOEWDIN ATOMIC CHARGES
----------------------
   0 C :   -0.137011
   1 C :   -0.092385
   2 C :   -0.140031
   3 O :   -0.343835
   4 O :   -0.312851
   5 O :   -0.335555
   6 H :    0.102742
   7 H :    0.097477
   8 H :    0.115926
   9 H :    0.097291
  10 H :    0.096033
  11 H :    0.287928
  12 H :    0.283011
  13 H :    0.281258

  Mayer bond orders larger than 0.100000
B(  0-C ,  1-C ) :   1.0585 B(  0-C ,  5-O ) :   1.0848 B(  0-C ,  6-H ) :   0.9130
B(  0-C ,  7-H ) :   0.9241 B(  1-C ,  2-C ) :   1.0286 B(  1-C ,  4-O ) :   1.0374
B(  1-C ,  8-H ) :   0.8947 B(  2-C ,  3-O ) :   1.0665 B(  2-C ,  9-H ) :   0.9191
B(  2-C , 10-H ) :   0.9113 B(  3-O , 11-H ) :   0.8484 B(  4-O , 12-H ) :   0.8506
B(  5-O , 13-H ) :   0.8403

Dispersion correction           -0.009265340
FINAL SINGLE POINT ENERGY      -344.003202950382

DIPOLE MOMENT
-------------

Method             : SCF
Type of density    : Electron Density
Multiplicity       :   1
Irrep              :   0
Energy             :  -344.0766649791229383 Eh
Relativity type    :
Basis              : AO
                                X                 Y                 Z
Electronic contribution:      0.149552242      -0.475488767       0.862096636
Nuclear contribution   :      0.282653163       0.299544560      -1.370792548
                        -----------------------------------------
Total Dipole Moment    :      0.432205404      -0.175944207      -0.508695912
                        -----------------------------------------
Magnitude (a.u.)       :      0.690311094
Magnitude (Debye)      :      1.754631358

Rotational constants in cm-1:             0.126668             0.112426             0.065135
Rotational constants in MHz :          3797.397711          3370.450466          1952.696259

                             ****ORCA TERMINATED NORMALLY****
TOTAL RUN TIME: 0 days 0 hours 0 minutes 6 seconds 573 msec
