                         Program Version 6.0.0  -   RELEASE  -
|  1> ! r2scan-3c def2/J RI DEFGRID2 scfconv6 printgap
|  2> %output
|  3>     printlevel normal
|  4> end
|  5> * xyz 0 1
|  6> C -2.0354067089 0.62741689 -0.1803812559
|  7> C -1.3106432213 -0.5568647218 0.447740243
|  8> C 0.0815343988 -0.7465522379 -0.1449025769
|  9> O 0.8952697442 0.3522795765 0.2244851636
| 10> C 2.2008646417 0.2738269472 -0.2969257982
| 11> H -1.4438542741 1.5299260144 -0.0511382414
| 12> H -2.1866117728 0.4607882117 -1.2444275273
| 13> H -3.0039357232 0.7721624457 0.290145254
| 14> H -1.8802211146 -1.4734089964 0.2900361174
| 15> H -1.2040230947 -0.393590177 1.520870812
| 16> H 0.533282758 -1.6781347615 0.2301989214
| 17> H 0.0251408329 -0.8111344807 -1.2424201208
| 18> H 2.7246974481 1.159813031 0.0530568174
| 19> H 2.1857522388 0.2602969431 -1.3929553572
| 20> H 2.7134192747 -0.626237874 0.0622967798
| 21> *
| 22>
| 23>                          ****END OF INPUT****

CARTESIAN COORDINATES (ANGSTROEM)
---------------------------------
  C     -2.035407    0.627417   -0.180381
  C     -1.310643   -0.556865    0.447740
  C      0.081534   -0.746552   -0.144903
  O      0.895270    0.352280    0.224485
  C      2.200865    0.273827   -0.296926
  H     -1.443854    1.529926   -0.051138
  H     -2.186612    0.460788   -1.244428
  H     -3.003936    0.772162    0.290145
  H     -1.880221   -1.473409    0.290036
  H     -1.204023   -0.393590    1.520871
  H      0.533283   -1.678135    0.230199
  H      0.025141   -0.811134   -1.242420
  H      2.724697    1.159813    0.053057
  H      2.185752    0.260297   -1.392955
  H      2.713419   -0.626238    0.062297

 Total Charge           Charge          ....    0
 Multiplicity           Mult            ....    1
 Number of Electrons    NEL             ....   42
 Basis Dimension        Dim             ....  150

ORBITAL ENERGIES
----------------

  NO   OCC          E(Eh)            E(eV)
   0   2.0000     -18.948642      -515.6188
   1   2.0000     -10.072077      -274.0751
   2   2.0000     -10.068196      -273.9695
   3   2.0000     -10.025412      -272.8053
   4   2.0000     -10.011117      -272.4163
   5   2.0000      -0.994667       -27.0663
   6   2.0000      -0.748499       -20.3677
   7   2.0000      -0.666607       -18.1393
   8   2.0000      -0.612693       -16.6722
   9   2.0000      -0.547174       -14.8894
  10   2.0000      -0.457799       -12.4573
  11   2.0000      -0.443667       -12.0728
  12   2.0000      -0.423143       -11.5143
  13   2.0000      -0.395758       -10.7691
  14   2.0000      -0.377970       -10.2851
  15   2.0000      -0.360542        -9.8108
  16   2.0000      -0.319088        -8.6828
  17   2.0000      -0.308516        -8.3951
  18   2.0000      -0.305560        -8.3147
  19   2.0000      -0.280101        -7.6219
  20   2.0000      -0.219120        -5.9626
  21   0.0000       0.072809         1.9812
  22   0.0000       0.110352         3.0028
  23   0.0000       0.114904         3.1267
  24   0.0000       0.130636         3.5548
  25   0.0000       0.134760         3.6670

MULLIKEN ATOMIC CHARGES
-----------------------
   0 C :   -0.479708
   1 C :   -0.213772
   2 C :   -0.139860
   3 O :   -0.246862
   4 C :   -0.291910
   5 H :    0.166979
   6 H :    0.136183
   7 H :    0.144169
   8 H :    0.130438
   9 H :    0.143098
  10 H :    0.123892
  11 H :    0.121096
  12 H :    0.146256
  13 H :    0.129746
  14 H :    0.130254
Sum of atomic charges:    0.0000000

LOEWDIN ATOMIC CHARGES
----------------------
   0 C :   -0.421696
   1 C :   -0.289559
   2 C :    0.008399
   3 O :   -0.804068
   4 C :   -0.074559
   5 H :    0.161546
   6 H :    0.149097
   7 H :    0.149465
   8 H :    0.155991
   9 H :    0.162277
  10 H :    0.160965
  11 H :    0.160432
  12 H :    0.173845
  13 H :    0.153929
  14 H :    0.153934

  Mayer bond orders larger than 0.100000
B(  0-C ,  1-C ) :   0.9161 B(  0-C ,  5-H ) :   0.9788 B(  0-C ,  6-H ) :   0.9777
B(  0-C ,  7-H ) :   0.9743 B(  1-C ,  2-C ) :   0.9727 B(  1-C ,  8-H ) :   0.9584
B(  1-C ,  9-H ) :   0.9708 B(  2-C ,  3-O ) :   0.8869 B(  2-C , 10-H ) :   0.9488
B(  2-C , 11-H ) :   0.9567 B(  3-O ,  4-C ) :   0.9044 B(  4-C , 12-H ) :   0.9732
B(  4-C , 13-H ) :   0.9664 B(  4-C , 14-H ) :   0.9691

Dispersion correction           -0.002971538
FINAL SINGLE POINT ENERGY      -233.583057712149

DIPOLE MOMENT
-------------

Method             : SCF
Type of density    : Electron Density
Multiplicity       :   1
Irrep              :   0
Energy             :  -233.5901098818580408 Eh
Relativity type    :
Basis              : AO
                                X                 Y                 Z
Electronic contribution:      1.557317766       0.405674844       1.152761435
Nuclear contribution   :     -1.428037035      -0.744842953      -1.389221049
                        -----------------------------------------
Total Dipole Moment    :      0.129280731      -0.339168109      -0.236459613
                        -----------------------------------------
Magnitude (a.u.)       :      0.433199333
Magnitude (Debye)      :      1.101105199

Rotational constants in cm-1:             0.414489             0.086714             0.079209
Rotational constants in MHz :         12426.076906          2599.634913          2374.618396

                             ****ORCA TERMINATED NORMALLY****
TOTAL RUN TIME: 0 days 0 hours 0 minutes 15 seconds 287 msec
