                         Program Version 6.0.0  -   RELEASE  -
|  1> ! r2scan-3c def2/J RI DEFGRID2 scfconv6 printgap
|  2> %output
|  3>     printlevel normal
|  4> end
|  5> %cpcm
|  6>     smd true
|  7>     smdsolvent "water"
|  8> end
|  9> * xyz 0 1
| 10> C -2.0354067089 0.62741689 -0.1803812559
| 11> C -1.3106432213 -0.5568647218 0.447740243
| 12> C 0.0815343988 -0.7465522379 -0.1449025769
| 13> O 0.8952697442 0.3522795765 0.2244851636
| 14> C 2.2008646417 0.2738269472 -0.2969257982
| 15> H -1.4438542741 1.5299260144 -0.0511382414
| 16> H -2.1866117728 0.4607882117 -1.2444275273
| 17> H -3.0039357232 0.7721624457 0.290145254
| 18> H -1.8802211146 -1.4734089964 0.2900361174
| 19> H -1.2040230947 -0.393590177 1.520870812
| 20> H 0.533282758 -1.6781347615 0.2301989214
| 21> H 0.0251408329 -0.8111344807 -1.2424201208
| 22> H 2.7246974481 1.159813031 0.0530568174
| 23> H 2.1857522388 0.2602969431 -1.3929553572
| 24> H 2.7134192747 -0.626237874 0.0622967798
| 25> *
| 26>
| 27>                          ****END OF INPUT****

CARTESIAN COORDINATES (ANGSTROEM)
---------------------------------
  C     -2.035407    0.627417   -0.180381
  C     -1.310643   -0.556865    0.447740
  C      0.081534   -0.746552   -0.144903
  O      0.895270    0.352280    0.224485
  C      2.200865    0.273827   -0.296926
  H     -1.443854    1.529926   -0.051138
  H     -2.186612    0.460788   -1.244428
  H     -3.003936    0.772162    0.290145
  H     -1.880221   -1.473409    0.290036
  H     -1.204023   -0.393590    1.520871
  H      0.533283   -1.678135    0.230199
  H      0.025141   -0.811134   -1.242420
  H      2.724697    1.159813    0.053057
  H      2.185752    0.260297   -1.392955
  H      2.713419   -0.626238    0.062297

 Total Charge           Charge          ....    0
 Multiplicity           Mult            ....    1
 Number of Electrons    NEL             ....   42
 Basis Dimension        Dim             ....  150

ORBITAL ENERGIES
----------------

  NO   OCC          E(Eh)            E(eV)
   0   2.0000     -18.954649      -515.7822
   1   2.0000     -10.067090      -273.9394
   2   2.0000     -10.061969      -273.8001
   3   2.0000     -10.020736      -272.6781
   4   2.0000     -10.008742      -272.3517
   5   2.0000      -0.999304       -27.1925
   6   2.0000      -0.745473       -20.2853
   7   2.0000      -0.663862       -18.0646
   8   2.0000      -0.608709       -16.5638
   9   2.0000      -0.543975       -14.8023
  10   2.0000      -0.455687       -12.3999
  11   2.0000      -0.441602       -12.0166
  12   2.0000      -0.421561       -11.4713
  13   2.0000      -0.392284       -10.6746
  14   2.0000      -0.374859       -10.2004
  15   2.0000      -0.355810        -9.6821
  16   2.0000      -0.316349        -8.6083
  17   2.0000      -0.305011        -8.2998
  18   2.0000      -0.302171        -8.2225
  19   2.0000      -0.282928        -7.6989
  20   2.0000      -0.223221        -6.0742
  21   0.0000       0.074384         2.0241
  22   0.0000       0.117187         3.1888
  23   0.0000       0.124592         3.3903
  24   0.0000       0.134741         3.6665
  25   0.0000       0.139840         3.8052

MULLIKEN ATOMIC CHARGES
-----------------------
   0 C :   -0.509383
   1 C :   -0.235256
   2 C :   -0.147109
   3 O :   -0.314756
   4 C :   -0.311378
   5 H :    0.157409
   6 H :    0.154624
   7 H :    0.158596
   8 H :    0.150697
   9 H :    0.150307
  10 H :    0.143130
  11 H :    0.142632
  12 H :    0.161150
  13 H :    0.149535
  14 H :    0.149800
Sum of atomic charges:    0.0000000

LOEWDIN ATOMIC CHARGES
----------------------
   0 C :   -0.429801
   1 C :   -0.292269
   2 C :    0.009319
   3 O :   -0.844149
   4 C :   -0.076157
   5 H :    0.156226
   6 H :    0.154446
   7 H :    0.153870
   8 H :    0.163800
   9 H :    0.162068
  10 H :    0.169135
  11 H :    0.169246
  12 H :    0.178726
  13 H :    0.162841
  14 H :    0.162699

  Mayer bond orders larger than 0.100000
B(  0-C ,  1-C ) :   0.9053 B(  0-C ,  5-H ) :   0.9793 B(  0-C ,  6-H ) :   0.9746
B(  0-C ,  7-H ) :   0.9710 B(  1-C ,  2-C ) :   0.9628 B(  1-C ,  8-H ) :   0.9545
B(  1-C ,  9-H ) :   0.9736 B(  2-C ,  3-O ) :   0.8777 B(  2-C , 10-H ) :   0.9461
B(  2-C , 11-H ) :   0.9536 B(  3-O ,  4-C ) :   0.8944 B(  4-C , 12-H ) :   0.9666
B(  4-C , 13-H ) :   0.9613 B(  4-C , 14-H ) :   0.9639

Dispersion correction           -0.002971538
FINAL SINGLE POINT ENERGY      -233.584296126478

DIPOLE MOMENT
-------------

Method             : SCF
Type of density    : Electron Density
Multiplicity       :   1
Irrep              :   0
Energy             :  -233.5913482961867373 Eh
Relativity type    :
Basis              : AO
                                X                 Y                 Z
Electronic contribution:      1.593577089       0.184191945       1.006150042
Nuclear contribution   :     -1.428037035      -0.744842953      -1.389221049
                        -----------------------------------------
Total Dipole Moment    :      0.165540054      -0.560651008      -0.383071007
                        -----------------------------------------
Magnitude (a.u.)       :      0.698910909
Magnitude (Debye)      :      1.776490350

Rotational constants in cm-1:             0.414489             0.086714             0.079209
Rotational constants in MHz :         12426.076906          2599.634913          2374.618396

                             ****ORCA TERMINATED NORMALLY****
TOTAL RUN TIME: 0 days 0 hours 0 minutes 20 seconds 13 msec
