                         Program Version 6.0.0  -   RELEASE  -
|  1> ! r2scan-3c def2/J RI DEFGRID2 scfconv6 printgap
|  2> %output
|  3>     printlevel normal
|  4> end
|  5> * xyz 0 1
|  6> C 2.0644748866 1.3850864999 -0.5568047374
|  7> C 1.6148257205 0.2513847718 0.3587241385
|  8> C 0.4096268128 -0.5442494888 -0.1644705439
|  9> H 0.6650784922 -0.8962061776 -1.1720962013
| 10> C 0.2042490771 -1.7734649937 0.7217754131
| 11> C -0.8649280745 0.313340018 -0.3074721784
| 12> C -1.9406182905 -0.4193292041 -1.1113158801
| 13> C -1.4465559067 0.773995365 1.0277411257
| 14> H 2.2186254453 1.0186429051 -1.5694734445
| 15> H 1.3307301882 2.1861631154 -0.5876328523
| 16> H 3.0018512188 1.8034883596 -0.1974806719
| 17> H 1.3903880389 0.6515523174 1.3489495365
| 18> H 2.4472078886 -0.4471919629 0.4752013631
| 19> H -0.6459167075 -2.3612760559 0.3884029649
| 20> H 1.0870749567 -2.4081325288 0.6839689148
| 21> H 0.0444359434 -1.4811082014 1.7562745087
| 22> H -0.5884153687 1.2042923493 -0.880715128
| 23> H -2.7682689117 0.253065361 -1.3260126389
| 24> H -2.3340521686 -1.2679768512 -0.5576211417
| 25> H -1.5386082508 -0.7788997887 -2.055904863
| 26> H -2.2844657986 1.4450127328 0.850914613
| 27> H -0.7063202523 1.3083956158 1.6168748858
| 28> H -1.8088203757 -0.0720773755 1.6055762671
| 29> *
| 30>
| 31>                          ****END OF INPUT****

CARTESIAN COORDINATES (ANGSTROEM)
---------------------------------
  C      2.064475    1.385086   -0.556805
  C      1.614826    0.251385    0.358724
  C      0.409627   -0.544249   -0.164471
  H      0.665078   -0.896206   -1.172096
  C      0.204249   -1.773465    0.721775
  C     -0.864928    0.313340   -0.307472
  C     -1.940618   -0.419329   -1.111316
  C     -1.446556    0.773995    1.027741
  H      2.218625    1.018643   -1.569473
  H      1.330730    2.186163   -0.587633
  H      3.001851    1.803488   -0.197481
  H      1.390388    0.651552    1.348950
  H      2.447208   -0.447192    0.475201
  H     -0.645917   -2.361276    0.388403
  H      1.087075   -2.408133    0.683969
  H      0.044436   -1.481108    1.756275
  H     -0.588415    1.204292   -0.880715
  H     -2.768269    0.253065   -1.326013
  H     -2.334052   -1.267977   -0.557621
  H     -1.538608   -0.778900   -2.055905
  H     -2.284466    1.445013    0.850915
  H     -0.706320    1.308396    1.616875
  H     -1.808820   -0.072077    1.605576

 Total Charge           Charge          ....    0
 Multiplicity           Mult            ....    1
 Number of Electrons    NEL             ....   58
 Basis Dimension        Dim             ....  213

ORBITAL ENERGIES
----------------

  NO   OCC          E(Eh)            E(eV)
   0   2.0000     -10.028141      -272.8796
   1   2.0000     -10.026922      -272.8464
   2   2.0000     -10.019888      -272.6550
   3   2.0000     -10.013650      -272.4853
   4   2.0000     -10.012202      -272.4459
   5   2.0000     -10.011750      -272.4336
   6   2.0000     -10.011198      -272.4185
   7   2.0000      -0.788367       -21.4525
   8   2.0000      -0.727130       -19.7862
   9   2.0000      -0.684953       -18.6385
  10   2.0000      -0.647001       -17.6058
  11   2.0000      -0.600827       -16.3493
  12   2.0000      -0.565268       -15.3817
  13   2.0000      -0.497807       -13.5460
  14   2.0000      -0.443104       -12.0575
  15   2.0000      -0.424165       -11.5421
  16   2.0000      -0.403293       -10.9742
  17   2.0000      -0.386778       -10.5248
  18   2.0000      -0.383129       -10.4255
  19   2.0000      -0.365440        -9.9441
  20   2.0000      -0.352308        -9.5868
  21   2.0000      -0.343335        -9.3426
  22   2.0000      -0.332789        -9.0556
  23   2.0000      -0.315413        -8.5828
  24   2.0000      -0.310566        -8.4509
  25   2.0000      -0.307797        -8.3756
  26   2.0000      -0.280303        -7.6274
  27   2.0000      -0.273260        -7.4358
  28   2.0000      -0.269618        -7.3367
  29   0.0000       0.079936         2.1752
  30   0.0000       0.102459         2.7881
  31   0.0000       0.112603         3.0641
  32   0.0000       0.116582         3.1724
  33   0.0000       0.130209         3.5432

MULLIKEN ATOMIC CHARGES
-----------------------
   0 C :   -0.505952
   1 C :   -0.255761
   2 C :   -0.051851
   3 H :    0.154128
   4 C :   -0.524882
   5 C :   -0.028666
   6 C :   -0.513846
   7 C :   -0.520501
   8 H :    0.148034
   9 H :    0.149374
  10 H :    0.147791
  11 H :    0.146458
  12 H :    0.141186
  13 H :    0.153499
  14 H :    0.146204
  15 H :    0.158823
  16 H :    0.152697
  17 H :    0.147786
  18 H :    0.153060
  19 H :    0.146683
  20 H :    0.146966
  21 H :    0.151037
  22 H :    0.157735
Sum of atomic charges:   -0.0000000

LOEWDIN ATOMIC CHARGES
----------------------
   0 C :   -0.426033
   1 C :   -0.309391
   2 C :   -0.236194
   3 H :    0.158463
   4 C :   -0.414662
   5 C :   -0.241128
   6 C :   -0.415424
   7 C :   -0.415102
   8 H :    0.151120
   9 H :    0.147941
  10 H :    0.150914
  11 H :    0.153717
  12 H :    0.154786
  13 H :    0.153661
  14 H :    0.153880
  15 H :    0.154962
  16 H :    0.158535
  17 H :    0.152784
  18 H :    0.151563
  19 H :    0.153359
  20 H :    0.154235
  21 H :    0.153170
  22 H :    0.154845

  Mayer bond orders larger than 0.100000
B(  0-C ,  1-C ) :   0.8825 B(  0-C ,  8-H ) :   0.9857 B(  0-C ,  9-H ) :   0.9823
B(  0-C , 10-H ) :   0.9735 B(  1-C ,  2-C ) :   0.9095 B(  1-C , 11-H ) :   0.9840
B(  1-C , 12-H ) :   0.9738 B(  2-C ,  3-H ) :   0.9887 B(  2-C ,  4-C ) :   0.8792
B(  2-C ,  5-C ) :   0.8539 B(  4-C , 13-H ) :   0.9807 B(  4-C , 14-H ) :   0.9722
B(  4-C , 15-H ) :   0.9829 B(  5-C ,  6-C ) :   0.9102 B(  5-C ,  7-C ) :   0.8793
B(  5-C , 16-H ) :   0.9737 B(  6-C , 17-H ) :   0.9750 B(  6-C , 18-H ) :   0.9898
B(  6-C , 19-H ) :   0.9785 B(  7-C , 20-H ) :   0.9706 B(  7-C , 21-H ) :   0.9783
B(  7-C , 22-H ) :   0.9799

Dispersion correction           -0.006589755
FINAL SINGLE POINT ENERGY      -276.286653979738

DIPOLE MOMENT
-------------

Method             : SCF
Type of density    : Electron Density
Multiplicity       :   1
Irrep              :   0
Energy             :  -276.2913128241876279 Eh
Relativity type    :
Basis              : AO
                                X                 Y                 Z
Electronic contribution:      0.496887940      -0.125579069      -0.385470777
Nuclear contribution   :     -0.459207190       0.147989163       0.355775314
                        -----------------------------------------
Total Dipole Moment    :      0.037680750       0.022410094      -0.029695463
                        -----------------------------------------
Magnitude (a.u.)       :      0.052951599
Magnitude (Debye)      :      0.134592268

Rotational constants in cm-1:             0.104076             0.059330             0.051603
Rotational constants in MHz :          3120.116514          1778.668499          1547.030255

                             ****ORCA TERMINATED NORMALLY****
TOTAL RUN TIME: 0 days 0 hours 0 minutes 21 seconds 582 msec
