                         Program Version 6.0.0  -   RELEASE  -
|  1> ! r2scan-3c def2/J RI DEFGRID2 scfconv6 printgap
|  2> %output
|  3>     printlevel normal
|  4> end
|  5> %cpcm
|  6>     smd true
|  7>     smdsolvent "water"
|  8> end
|  9> * xyz 0 1
| 10> C 2.0644748866 1.3850864999 -0.5568047374
| 11> C 1.6148257205 0.2513847718 0.3587241385
| 12> C 0.4096268128 -0.5442494888 -0.1644705439
| 13> H 0.6650784922 -0.8962061776 -1.1720962013
| 14> C 0.2042490771 -1.7734649937 0.7217754131
| 15> C -0.8649280745 0.313340018 -0.3074721784
| 16> C -1.9406182905 -0.4193292041 -1.1113158801
| 17> C -1.4465559067 0.773995365 1.0277411257
| 18> H 2.2186254453 1.0186429051 -1.5694734445
| 19> H 1.3307301882 2.1861631154 -0.5876328523
| 20> H 3.0018512188 1.8034883596 -0.1974806719
| 21> H 1.3903880389 0.6515523174 1.3489495365
| 22> H 2.4472078886 -0.4471919629 0.4752013631
| 23> H -0.6459167075 -2.3612760559 0.3884029649
| 24> H 1.0870749567 -2.4081325288 0.6839689148
| 25> H 0.0444359434 -1.4811082014 1.7562745087
| 26> H -0.5884153687 1.2042923493 -0.880715128
| 27> H -2.7682689117 0.253065361 -1.3260126389
| 28> H -2.3340521686 -1.2679768512 -0.5576211417
| 29> H -1.5386082508 -0.7788997887 -2.055904863
| 30> H -2.2844657986 1.4450127328 0.850914613
| 31> H -0.7063202523 1.3083956158 1.6168748858
| 32> H -1.8088203757 -0.0720773755 1.6055762671
| 33> *
| 34>
| 35>                          ****END OF INPUT****

CARTESIAN COORDINATES (ANGSTROEM)
---------------------------------
  C      2.064475    1.385086   -0.556805
  C      1.614826    0.251385    0.358724
  C      0.409627   -0.544249   -0.164471
  H      0.665078   -0.896206   -1.172096
  C      0.204249   -1.773465    0.721775
  C     -0.864928    0.313340   -0.307472
  C     -1.940618   -0.419329   -1.111316
  C     -1.446556    0.773995    1.027741
  H      2.218625    1.018643   -1.569473
  H      1.330730    2.186163   -0.587633
  H      3.001851    1.803488   -0.197481
  H      1.390388    0.651552    1.348950
  H      2.447208   -0.447192    0.475201
  H     -0.645917   -2.361276    0.388403
  H      1.087075   -2.408133    0.683969
  H      0.044436   -1.481108    1.756275
  H     -0.588415    1.204292   -0.880715
  H     -2.768269    0.253065   -1.326013
  H     -2.334052   -1.267977   -0.557621
  H     -1.538608   -0.778900   -2.055905
  H     -2.284466    1.445013    0.850915
  H     -0.706320    1.308396    1.616875
  H     -1.808820   -0.072077    1.605576

 Total Charge           Charge          ....    0
 Multiplicity           Mult            ....    1
 Number of Electrons    NEL             ....   58
 Basis Dimension        Dim             ....  213

ORBITAL ENERGIES
----------------

  NO   OCC          E(Eh)            E(eV)
   0   2.0000     -10.020358      -272.6678
   1   2.0000     -10.018987      -272.6305
   2   2.0000     -10.011853      -272.4364
   3   2.0000     -10.005969      -272.2763
   4   2.0000     -10.004159      -272.2270
   5   2.0000     -10.004021      -272.2233
   6   2.0000     -10.003543      -272.2103
   7   2.0000      -0.780567       -21.2403
   8   2.0000      -0.719610       -19.5816
   9   2.0000      -0.677716       -18.4416
  10   2.0000      -0.639780       -17.4093
  11   2.0000      -0.593651       -16.1541
  12   2.0000      -0.557849       -15.1798
  13   2.0000      -0.490227       -13.3397
  14   2.0000      -0.435166       -11.8415
  15   2.0000      -0.416478       -11.3330
  16   2.0000      -0.395828       -10.7710
  17   2.0000      -0.379372       -10.3232
  18   2.0000      -0.375592       -10.2204
  19   2.0000      -0.357898        -9.7389
  20   2.0000      -0.344755        -9.3813
  21   2.0000      -0.335787        -9.1372
  22   2.0000      -0.325411        -8.8549
  23   2.0000      -0.307572        -8.3695
  24   2.0000      -0.302768        -8.2387
  25   2.0000      -0.300243        -8.1700
  26   2.0000      -0.272419        -7.4129
  27   2.0000      -0.265620        -7.2279
  28   2.0000      -0.261746        -7.1225
  29   0.0000       0.088572         2.4102
  30   0.0000       0.109744         2.9863
  31   0.0000       0.120299         3.2735
  32   0.0000       0.123962         3.3732
  33   0.0000       0.137324         3.7368

MULLIKEN ATOMIC CHARGES
-----------------------
   0 C :   -0.546315
   1 C :   -0.271248
   2 C :   -0.043908
   3 H :    0.161442
   4 C :   -0.564394
   5 C :   -0.014502
   6 C :   -0.558257
   7 C :   -0.561220
   8 H :    0.157997
   9 H :    0.160895
  10 H :    0.157012
  11 H :    0.157017
  12 H :    0.149717
  13 H :    0.163989
  14 H :    0.157347
  15 H :    0.167081
  16 H :    0.159998
  17 H :    0.158297
  18 H :    0.165766
  19 H :    0.156747
  20 H :    0.157463
  21 H :    0.162574
  22 H :    0.166502
Sum of atomic charges:   -0.0000000

LOEWDIN ATOMIC CHARGES
----------------------
   0 C :   -0.434509
   1 C :   -0.312275
   2 C :   -0.235342
   3 H :    0.160509
   4 C :   -0.423051
   5 C :   -0.239526
   6 C :   -0.424555
   7 C :   -0.423263
   8 H :    0.153273
   9 H :    0.150819
  10 H :    0.152618
  11 H :    0.156273
  12 H :    0.156314
  13 H :    0.156187
  14 H :    0.155739
  15 H :    0.156725
  16 H :    0.160592
  17 H :    0.154661
  18 H :    0.154550
  19 H :    0.155342
  20 H :    0.156068
  21 H :    0.156162
  22 H :    0.156689

  Mayer bond orders larger than 0.100000
B(  0-C ,  1-C ) :   0.8760 B(  0-C ,  8-H ) :   0.9833 B(  0-C ,  9-H ) :   0.9793
B(  0-C , 10-H ) :   0.9715 B(  1-C ,  2-C ) :   0.9056 B(  1-C , 11-H ) :   0.9826
B(  1-C , 12-H ) :   0.9747 B(  2-C ,  3-H ) :   0.9881 B(  2-C ,  4-C ) :   0.8743
B(  2-C ,  5-C ) :   0.8540 B(  4-C , 13-H ) :   0.9770 B(  4-C , 14-H ) :   0.9712
B(  4-C , 15-H ) :   0.9807 B(  5-C ,  6-C ) :   0.8994 B(  5-C ,  7-C ) :   0.8737
B(  5-C , 16-H ) :   0.9745 B(  6-C , 17-H ) :   0.9733 B(  6-C , 18-H ) :   0.9868
B(  6-C , 19-H ) :   0.9766 B(  7-C , 20-H ) :   0.9695 B(  7-C , 21-H ) :   0.9750
B(  7-C , 22-H ) :   0.9778

Dispersion correction           -0.006589755
FINAL SINGLE POINT ENERGY      -276.282836770538

DIPOLE MOMENT
-------------

Method             : SCF
Type of density    : Electron Density
Multiplicity       :   1
Irrep              :   0
Energy             :  -276.2874956149881882 Eh
Relativity type    :
Basis              : AO
                                X                 Y                 Z
Electronic contribution:      0.503167083      -0.117625243      -0.390688210
Nuclear contribution   :     -0.459207190       0.147989163       0.355775314
                        -----------------------------------------
Total Dipole Moment    :      0.043959894       0.030363921      -0.034912895
                        -----------------------------------------
Magnitude (a.u.)       :      0.063822803
Magnitude (Debye)      :      0.162224673

Rotational constants in cm-1:             0.104076             0.059330             0.051603
Rotational constants in MHz :          3120.116514          1778.668499          1547.030255

                             ****ORCA TERMINATED NORMALLY****
TOTAL RUN TIME: 0 days 0 hours 0 minutes 25 seconds 786 msec
