                         Program Version 6.0.0  -   RELEASE  -
|  1> ! r2scan-3c def2/J RI DEFGRID2 scfconv6 printgap
|  2> %output
|  3>     printlevel normal
|  4> end
|  5> * xyz 0 1
|  6> C -0.3587103789 2.3946061292 0.1630675532
|  7> N -0.1121108175 1.1461912213 -0.5372392734
|  8> C -1.2634304606 0.4566097943 -1.0300312026
|  9> C -2.0048634614 -0.3708184802 0.0463474822
| 10> F -3.2397961677 0.1085173084 0.3038162389
| 11> F -2.1853181498 -1.6572490324 -0.3138441909
| 12> F -1.3685207723 -0.3961268834 1.2252431613
| 13> C 1.0635221229 0.4520619564 -0.27747292
| 14> C 1.212186748 -0.905800272 -0.5789403185
| 15> C 2.4128964805 -1.5549023368 -0.3606074835
| 16> C 3.4989270825 -0.8817854408 0.1692022023
| 17> C 3.3621569081 0.4598317399 0.481104287
| 18> C 2.1681293727 1.1188097933 0.2648245748
| 19> H -0.2058549632 2.2877089405 1.2404741415
| 20> H -1.3849809701 2.7071521753 -0.008723
| 21> H 0.3019915882 3.1733204458 -0.2179620601
| 22> H -1.979223379 1.1819325708 -1.4247368327
| 23> H -0.9865489681 -0.2236895333 -1.8388366099
| 24> H 0.3938715637 -1.4883561775 -0.9715109134
| 25> H 2.4922119704 -2.6048677362 -0.6018009565
| 26> H 4.4322407614 -1.3949684916 0.3413865844
| 27> H 4.1956567246 1.0037437963 0.9004470523
| 28> H 2.1043895687 2.1629013248 0.5177862233
| 29> *
| 30>
| 31>                          ****END OF INPUT****

CARTESIAN COORDINATES (ANGSTROEM)
---------------------------------
  C     -0.358710    2.394606    0.163068
  N     -0.112111    1.146191   -0.537239
  C     -1.263430    0.456610   -1.030031
  C     -2.004863   -0.370818    0.046347
  F     -3.239796    0.108517    0.303816
  F     -2.185318   -1.657249   -0.313844
  F     -1.368521   -0.396127    1.225243
  C      1.063522    0.452062   -0.277473
  C      1.212187   -0.905800   -0.578940
  C      2.412896   -1.554902   -0.360607
  C      3.498927   -0.881785    0.169202
  C      3.362157    0.459832    0.481104
  C      2.168129    1.118810    0.264825
  H     -0.205855    2.287709    1.240474
  H     -1.384981    2.707152   -0.008723
  H      0.301992    3.173320   -0.217962
  H     -1.979223    1.181933   -1.424737
  H     -0.986549   -0.223690   -1.838837
  H      0.393872   -1.488356   -0.971511
  H      2.492212   -2.604868   -0.601801
  H      4.432241   -1.394968    0.341387
  H      4.195657    1.003744    0.900447
  H      2.104390    2.162901    0.517786

 Total Charge           Charge          ....    0
 Multiplicity           Mult            ....    1
 Number of Electrons    NEL             ....   98
 Basis Dimension        Dim             ....  317

ORBITAL ENERGIES
----------------

  NO   OCC          E(Eh)            E(eV)
   0   2.0000     -24.518808      -667.1907
   1   2.0000     -24.517898      -667.1659
   2   2.0000     -24.517446      -667.1536
   3   2.0000     -14.197757      -386.3406
   4   2.0000     -10.280447      -279.7452
   5   2.0000     -10.101204      -274.8677
   6   2.0000     -10.079260      -274.2706
   7   2.0000     -10.072468      -274.0858
   8   2.0000     -10.032604      -273.0010
   9   2.0000     -10.032536      -272.9992
  10   2.0000     -10.030736      -272.9502
  11   2.0000     -10.029529      -272.9174
  12   2.0000     -10.022644      -272.7300
  13   2.0000      -1.276157       -34.7260
  14   2.0000      -1.186602       -32.2891
  15   2.0000      -1.184407       -32.2294
  16   2.0000      -0.937943       -25.5227
  17   2.0000      -0.819527       -22.3005
  18   2.0000      -0.752312       -20.4714
  19   2.0000      -0.722312       -19.6551
  20   2.0000      -0.710805       -19.3420
  21   2.0000      -0.664033       -18.0693
  22   2.0000      -0.632059       -17.1992
  23   2.0000      -0.577414       -15.7122
  24   2.0000      -0.565951       -15.4003
  25   2.0000      -0.556306       -15.1379
  26   2.0000      -0.553600       -15.0642
  27   2.0000      -0.527115       -14.3435
  28   2.0000      -0.502685       -13.6788
  29   2.0000      -0.465427       -12.6649
  30   2.0000      -0.453174       -12.3315
  31   2.0000      -0.432933       -11.7807
  32   2.0000      -0.429029       -11.6745
  33   2.0000      -0.424504       -11.5513
  34   2.0000      -0.421066       -11.4578
  35   2.0000      -0.400793       -10.9061
  36   2.0000      -0.397747       -10.8232
  37   2.0000      -0.389005       -10.5854
  38   2.0000      -0.383981       -10.4487
  39   2.0000      -0.373180       -10.1547
  40   2.0000      -0.368083       -10.0161
  41   2.0000      -0.365277        -9.9397
  42   2.0000      -0.360237        -9.8025
  43   2.0000      -0.346472        -9.4280
  44   2.0000      -0.326625        -8.8879
  45   2.0000      -0.308076        -8.3832
  46   2.0000      -0.272219        -7.4075
  47   2.0000      -0.235366        -6.4046
  48   2.0000      -0.185975        -5.0606
  49   0.0000      -0.030557        -0.8315
  50   0.0000      -0.015716        -0.4277
  51   0.0000       0.047432         1.2907
  52   0.0000       0.066904         1.8206
  53   0.0000       0.071939         1.9576

MULLIKEN ATOMIC CHARGES
-----------------------
   0 C :   -0.430134
   1 N :    0.155528
   2 C :   -0.485095
   3 C :    0.646579
   4 F :   -0.223441
   5 F :   -0.222451
   6 F :   -0.202306
   7 C :    0.301418
   8 C :   -0.310749
   9 C :   -0.166849
  10 C :   -0.187233
  11 C :   -0.141560
  12 C :   -0.312010
  13 H :    0.179731
  14 H :    0.147530
  15 H :    0.160047
  16 H :    0.178395
  17 H :    0.192689
  18 H :    0.148777
  19 H :    0.144997
  20 H :    0.145527
  21 H :    0.144382
  22 H :    0.136228
Sum of atomic charges:   -0.0000000

LOEWDIN ATOMIC CHARGES
----------------------
   0 C :   -0.119766
   1 N :   -0.888198
   2 C :   -0.002046
   3 C :    0.525096
   4 F :   -0.224564
   5 F :   -0.223198
   6 F :   -0.190129
   7 C :    0.151808
   8 C :   -0.161707
   9 C :   -0.151336
  10 C :   -0.196085
  11 C :   -0.152287
  12 C :   -0.158411
  13 H :    0.177581
  14 H :    0.181838
  15 H :    0.173154
  16 H :    0.205453
  17 H :    0.205256
  18 H :    0.174077
  19 H :    0.167761
  20 H :    0.165837
  21 H :    0.167103
  22 H :    0.172761

  Mayer bond orders larger than 0.100000
B(  0-C ,  1-N ) :   0.8661 B(  0-C , 13-H ) :   0.9443 B(  0-C , 14-H ) :   0.9507
B(  0-C , 15-H ) :   0.9680 B(  1-N ,  2-C ) :   0.9674 B(  1-N ,  7-C ) :   1.1873
B(  2-C ,  3-C ) :   0.8814 B(  2-C , 16-H ) :   0.9497 B(  2-C , 17-H ) :   0.9592
B(  3-C ,  4-F ) :   1.0029 B(  3-C ,  5-F ) :   1.0149 B(  3-C ,  6-F ) :   1.0411
B(  7-C ,  8-C ) :   1.2860 B(  7-C , 12-C ) :   1.3067 B(  8-C ,  9-C ) :   1.4334
B(  8-C , 18-H ) :   0.9290 B(  9-C , 10-C ) :   1.4097 B(  9-C , 19-H ) :   0.9477
B( 10-C , 11-C ) :   1.4119 B( 10-C , 20-H ) :   0.9491 B( 11-C , 12-C ) :   1.4158
B( 11-C , 21-H ) :   0.9501 B( 12-C , 22-H ) :   0.9410

Dispersion correction           -0.008657658
FINAL SINGLE POINT ENERGY      -703.150163423671

DIPOLE MOMENT
-------------

Method             : SCF
Type of density    : Electron Density
Multiplicity       :   1
Irrep              :   0
Energy             :  -703.1602475633940230 Eh
Relativity type    :
Basis              : AO
                                X                 Y                 Z
Electronic contribution:    -15.074065305      -7.434836981       2.633906991
Nuclear contribution   :     15.078641656       8.192401333      -3.064771381
                        -----------------------------------------
Total Dipole Moment    :      0.004576351       0.757564352      -0.430864390
                        -----------------------------------------
Magnitude (a.u.)       :      0.871532451
Magnitude (Debye)      :      2.215259440

Rotational constants in cm-1:             0.051829             0.017572             0.014687
Rotational constants in MHz :          1553.780321           526.784992           440.314034

                             ****ORCA TERMINATED NORMALLY****
TOTAL RUN TIME: 0 days 0 hours 0 minutes 46 seconds 679 msec
