                         Program Version 6.0.0  -   RELEASE  -
|  1> ! r2scan-3c def2/J RI DEFGRID2 scfconv6 printgap
|  2> %output
|  3>     printlevel normal
|  4> end
|  5> %cpcm
|  6>     smd true
|  7>     smdsolvent "water"
|  8> end
|  9> * xyz 0 1
| 10> C -0.3587103789 2.3946061292 0.1630675532
| 11> N -0.1121108175 1.1461912213 -0.5372392734
| 12> C -1.2634304606 0.4566097943 -1.0300312026
| 13> C -2.0048634614 -0.3708184802 0.0463474822
| 14> F -3.2397961677 0.1085173084 0.3038162389
| 15> F -2.1853181498 -1.6572490324 -0.3138441909
| 16> F -1.3685207723 -0.3961268834 1.2252431613
| 17> C 1.0635221229 0.4520619564 -0.27747292
| 18> C 1.212186748 -0.905800272 -0.5789403185
| 19> C 2.4128964805 -1.5549023368 -0.3606074835
| 20> C 3.4989270825 -0.8817854408 0.1692022023
| 21> C 3.3621569081 0.4598317399 0.481104287
| 22> C 2.1681293727 1.1188097933 0.2648245748
| 23> H -0.2058549632 2.2877089405 1.2404741415
| 24> H -1.3849809701 2.7071521753 -0.008723
| 25> H 0.3019915882 3.1733204458 -0.2179620601
| 26> H -1.979223379 1.1819325708 -1.4247368327
| 27> H -0.9865489681 -0.2236895333 -1.8388366099
| 28> H 0.3938715637 -1.4883561775 -0.9715109134
| 29> H 2.4922119704 -2.6048677362 -0.6018009565
| 30> H 4.4322407614 -1.3949684916 0.3413865844
| 31> H 4.1956567246 1.0037437963 0.9004470523
| 32> H 2.1043895687 2.1629013248 0.5177862233
| 33> *
| 34>
| 35>                          ****END OF INPUT****

CARTESIAN COORDINATES (ANGSTROEM)
---------------------------------
  C     -0.358710    2.394606    0.163068
  N     -0.112111    1.146191   -0.537239
  C     -1.263430    0.456610   -1.030031
  C     -2.004863   -0.370818    0.046347
  F     -3.239796    0.108517    0.303816
  F     -2.185318   -1.657249   -0.313844
  F     -1.368521   -0.396127    1.225243
  C      1.063522    0.452062   -0.277473
  C      1.212187   -0.905800   -0.578940
  C      2.412896   -1.554902   -0.360607
  C      3.498927   -0.881785    0.169202
  C      3.362157    0.459832    0.481104
  C      2.168129    1.118810    0.264825
  H     -0.205855    2.287709    1.240474
  H     -1.384981    2.707152   -0.008723
  H      0.301992    3.173320   -0.217962
  H     -1.979223    1.181933   -1.424737
  H     -0.986549   -0.223690   -1.838837
  H      0.393872   -1.488356   -0.971511
  H      2.492212   -2.604868   -0.601801
  H      4.432241   -1.394968    0.341387
  H      4.195657    1.003744    0.900447
  H      2.104390    2.162901    0.517786

 Total Charge           Charge          ....    0
 Multiplicity           Mult            ....    1
 Number of Electrons    NEL             ....   98
 Basis Dimension        Dim             ....  317

ORBITAL ENERGIES
----------------

  NO   OCC          E(Eh)            E(eV)
   0   2.0000     -24.520534      -667.2376
   1   2.0000     -24.517467      -667.1542
   2   2.0000     -24.516253      -667.1212
   3   2.0000     -14.188112      -386.0782
   4   2.0000     -10.278318      -279.6872
   5   2.0000     -10.083325      -274.3812
   6   2.0000     -10.076793      -274.2035
   7   2.0000     -10.051196      -273.5070
   8   2.0000     -10.031192      -272.9626
   9   2.0000     -10.030995      -272.9573
  10   2.0000     -10.027966      -272.8748
  11   2.0000     -10.026183      -272.8263
  12   2.0000     -10.020898      -272.6825
  13   2.0000      -1.276859       -34.7451
  14   2.0000      -1.188441       -32.3391
  15   2.0000      -1.184259       -32.2253
  16   2.0000      -0.927515       -25.2390
  17   2.0000      -0.818530       -22.2733
  18   2.0000      -0.742645       -20.2084
  19   2.0000      -0.717849       -19.5337
  20   2.0000      -0.706320       -19.2199
  21   2.0000      -0.656702       -17.8698
  22   2.0000      -0.625893       -17.0314
  23   2.0000      -0.573790       -15.6136
  24   2.0000      -0.562194       -15.2981
  25   2.0000      -0.556116       -15.1327
  26   2.0000      -0.552319       -15.0294
  27   2.0000      -0.521079       -14.1793
  28   2.0000      -0.492290       -13.3959
  29   2.0000      -0.454626       -12.3710
  30   2.0000      -0.446295       -12.1443
  31   2.0000      -0.431519       -11.7422
  32   2.0000      -0.428746       -11.6668
  33   2.0000      -0.416946       -11.3457
  34   2.0000      -0.412032       -11.2120
  35   2.0000      -0.395322       -10.7573
  36   2.0000      -0.391655       -10.6575
  37   2.0000      -0.384767       -10.4700
  38   2.0000      -0.382101       -10.3975
  39   2.0000      -0.369321       -10.0497
  40   2.0000      -0.361214        -9.8291
  41   2.0000      -0.357170        -9.7191
  42   2.0000      -0.348125        -9.4730
  43   2.0000      -0.343127        -9.3370
  44   2.0000      -0.322720        -8.7816
  45   2.0000      -0.302536        -8.2324
  46   2.0000      -0.269443        -7.3319
  47   2.0000      -0.238034        -6.4772
  48   2.0000      -0.182071        -4.9544
  49   0.0000      -0.031803        -0.8654
  50   0.0000      -0.016300        -0.4435
  51   0.0000       0.060595         1.6489
  52   0.0000       0.080209         2.1826
  53   0.0000       0.085420         2.3244

MULLIKEN ATOMIC CHARGES
-----------------------
   0 C :   -0.447076
   1 N :    0.148807
   2 C :   -0.472052
   3 C :    0.626557
   4 F :   -0.228827
   5 F :   -0.227538
   6 F :   -0.214255
   7 C :    0.250628
   8 C :   -0.330362
   9 C :   -0.207514
  10 C :   -0.234352
  11 C :   -0.186662
  12 C :   -0.330666
  13 H :    0.183093
  14 H :    0.178099
  15 H :    0.175926
  16 H :    0.212618
  17 H :    0.221265
  18 H :    0.180706
  19 H :    0.176437
  20 H :    0.175566
  21 H :    0.176208
  22 H :    0.173395
Sum of atomic charges:   -0.0000000

LOEWDIN ATOMIC CHARGES
----------------------
   0 C :   -0.118140
   1 N :   -0.887681
   2 C :    0.005478
   3 C :    0.525309
   4 F :   -0.228655
   5 F :   -0.228427
   6 F :   -0.200645
   7 C :    0.140065
   8 C :   -0.173776
   9 C :   -0.167529
  10 C :   -0.218900
  11 C :   -0.167498
  12 C :   -0.168585
  13 H :    0.178992
  14 H :    0.193002
  15 H :    0.180387
  16 H :    0.220914
  17 H :    0.215973
  18 H :    0.184825
  19 H :    0.177603
  20 H :    0.174382
  21 H :    0.177315
  22 H :    0.185592

  Mayer bond orders larger than 0.100000
B(  0-C ,  1-N ) :   0.8672 B(  0-C , 13-H ) :   0.9420 B(  0-C , 14-H ) :   0.9447
B(  0-C , 15-H ) :   0.9604 B(  1-N ,  2-C ) :   0.9635 B(  1-N ,  7-C ) :   1.1904
B(  2-C ,  3-C ) :   0.8838 B(  2-C , 16-H ) :   0.9318 B(  2-C , 17-H ) :   0.9517
B(  3-C ,  4-F ) :   1.0061 B(  3-C ,  5-F ) :   1.0150 B(  3-C ,  6-F ) :   1.0312
B(  7-C ,  8-C ) :   1.2596 B(  7-C , 12-C ) :   1.2741 B(  8-C ,  9-C ) :   1.3972
B(  8-C , 18-H ) :   0.9358 B(  9-C , 10-C ) :   1.3631 B(  9-C , 19-H ) :   0.9614
B( 10-C , 11-C ) :   1.3631 B( 10-C , 20-H ) :   0.9608 B( 11-C , 12-C ) :   1.3859
B( 11-C , 21-H ) :   0.9631 B( 12-C , 22-H ) :   0.9521

Dispersion correction           -0.008657658
FINAL SINGLE POINT ENERGY      -703.156627547336

DIPOLE MOMENT
-------------

Method             : SCF
Type of density    : Electron Density
Multiplicity       :   1
Irrep              :   0
Energy             :  -703.1667116870590917 Eh
Relativity type    :
Basis              : AO
                                X                 Y                 Z
Electronic contribution:    -15.308715466      -7.130096415       2.418055171
Nuclear contribution   :     15.078641656       8.192401333      -3.064771381
                        -----------------------------------------
Total Dipole Moment    :     -0.230073810       1.062304918      -0.646716211
                        -----------------------------------------
Magnitude (a.u.)       :      1.264779646
Magnitude (Debye)      :      3.214814375

Rotational constants in cm-1:             0.051829             0.017572             0.014687
Rotational constants in MHz :          1553.780321           526.784992           440.314034

                             ****ORCA TERMINATED NORMALLY****
TOTAL RUN TIME: 0 days 0 hours 1 minutes 1 seconds 622 msec
