                         Program Version 6.0.0  -   RELEASE  -
|  1> ! pbe def2-sv(p) def2/J RI DEFGRID1 loosescf d4 GCP(DFT/SV(P)) printgap
|  2> %output
|  3>     printlevel normal
|  4> end
|  5> * xyz 0 1
|  6> C -4.0327860785 -0.6319100376 -1.6315988206
|  7> C -3.0325840359 -1.5483369975 -0.9361145871
|  8> C -2.4617441692 -1.0404069009 0.3981140366
|  9> H -1.9774447274 -1.9006319529 0.8762141813
| 10> C -3.5068545642 -0.4940175273 1.360537131
| 11> N -1.3381544987 -0.1017247984 0.1837187799
| 12> C -0.0643878402 -0.6794445412 0.2332033583
| 13> O 0.0817851954 -1.8778896346 0.410497221
| 14> C 1.0346794702 0.2404381704 0.0701655816
| 15> C 0.8572120461 1.5700219713 -0.1388050816
| 16> N -0.4258944198 2.0120895901 -0.2016554492
| 17> C -1.5533379456 1.230424364 -0.0727047263
| 18> O -2.6464997001 1.7502623038 -0.1900145487
| 19> C 1.9546771335 2.5524942689 -0.3138438465
| 20> Br 2.7712041316 -0.5256824468 0.1587482197
| 21> H -3.6260033702 0.3633889046 -1.7819591364
| 22> H -4.2914529006 -1.0508475688 -2.6008056553
| 23> H -4.942034144 -0.542167987 -1.044912595
| 24> H -3.5177739606 -2.5047050938 -0.7331423108
| 25> H -2.1893595216 -1.7496506673 -1.6025365484
| 26> H -4.0015379184 0.3835838453 0.9591264034
| 27> H -4.2442534098 -1.2705813042 1.5400570126
| 28> H -3.0406374062 -0.2307542812 2.307303252
| 29> H -0.6090382919 2.9950860698 -0.3800405667
| 30> H 1.57572683 3.5686243362 -0.3008498057
| 31> H 2.4630139789 2.3719469016 -1.2602854988
| 32> H 2.6963306023 2.4279443264 0.4727989229
| 33> *
| 34>
| 35>                          ****END OF INPUT****

CARTESIAN COORDINATES (ANGSTROEM)
---------------------------------
  C     -4.032786   -0.631910   -1.631599
  C     -3.032584   -1.548337   -0.936115
  C     -2.461744   -1.040407    0.398114
  H     -1.977445   -1.900632    0.876214
  C     -3.506855   -0.494018    1.360537
  N     -1.338154   -0.101725    0.183719
  C     -0.064388   -0.679445    0.233203
  O      0.081785   -1.877890    0.410497
  C      1.034679    0.240438    0.070166
  C      0.857212    1.570022   -0.138805
  N     -0.425894    2.012090   -0.201655
  C     -1.553338    1.230424   -0.072705
  O     -2.646500    1.750262   -0.190015
  C      1.954677    2.552494   -0.313844
  Br     2.771204   -0.525682    0.158748
  H     -3.626003    0.363389   -1.781959
  H     -4.291453   -1.050848   -2.600806
  H     -4.942034   -0.542168   -1.044913
  H     -3.517774   -2.504705   -0.733142
  H     -2.189360   -1.749651   -1.602537
  H     -4.001538    0.383584    0.959126
  H     -4.244253   -1.270581    1.540057
  H     -3.040637   -0.230754    2.307303
  H     -0.609038    2.995086   -0.380041
  H      1.575727    3.568624   -0.300850
  H      2.463014    2.371947   -1.260285
  H      2.696331    2.427944    0.472799

 Total Charge           Charge          ....    0
 Multiplicity           Mult            ....    1
 Number of Electrons    NEL             ....  132
 Basis Dimension        Dim             ....  240

ORBITAL ENERGIES
----------------

  NO   OCC          E(Eh)            E(eV)
   0   2.0000    -480.942118    -13087.1004
   1   2.0000     -61.783870     -1681.2246
   2   2.0000     -55.714554     -1516.0701
   3   2.0000     -55.711473     -1515.9863
   4   2.0000     -55.711219     -1515.9793
   5   2.0000     -18.735091      -509.8078
   6   2.0000     -18.731435      -509.7083
   7   2.0000     -14.067378      -382.7928
   8   2.0000     -14.055718      -382.4755
   9   2.0000     -10.034981      -273.0657
  10   2.0000     -10.003177      -272.2003
  11   2.0000      -9.982831      -271.6466
  12   2.0000      -9.949644      -270.7436
  13   2.0000      -9.931824      -270.2587
  14   2.0000      -9.924086      -270.0481
  15   2.0000      -9.885928      -269.0098
  16   2.0000      -9.873873      -268.6817
  17   2.0000      -9.865427      -268.4519
  18   2.0000      -8.409072      -228.8225
  19   2.0000      -6.291398      -171.1976
  20   2.0000      -6.276768      -170.7995
  21   2.0000      -6.276014      -170.7790
  22   2.0000      -2.492483       -67.8239
  23   2.0000      -2.488914       -67.7268
  24   2.0000      -2.488412       -67.7131
  25   2.0000      -2.477401       -67.4135
  26   2.0000      -2.477379       -67.4129
  27   2.0000      -0.988176       -26.8896
  28   2.0000      -0.948138       -25.8001
  29   2.0000      -0.898632       -24.4530
  30   2.0000      -0.859222       -23.3806
  31   2.0000      -0.768508       -20.9122
  32   2.0000      -0.728152       -19.8140
  33   2.0000      -0.707865       -19.2620
  34   2.0000      -0.667543       -18.1648
  35   2.0000      -0.647891       -17.6300
  36   2.0000      -0.616303       -16.7705
  37   2.0000      -0.595384       -16.2012
  38   2.0000      -0.573239       -15.5986
  39   2.0000      -0.532271       -14.4838
  40   2.0000      -0.527741       -14.3606
  41   2.0000      -0.489161       -13.3108
  42   2.0000      -0.454048       -12.3553
  43   2.0000      -0.433597       -11.7988
  44   2.0000      -0.418065       -11.3761
  45   2.0000      -0.413003       -11.2384
  46   2.0000      -0.404948       -11.0192
  47   2.0000      -0.391402       -10.6506
  48   2.0000      -0.387786       -10.5522
  49   2.0000      -0.382543       -10.4095
  50   2.0000      -0.373172       -10.1545
  51   2.0000      -0.368709       -10.0331
  52   2.0000      -0.361114        -9.8264
  53   2.0000      -0.348117        -9.4727
  54   2.0000      -0.341096        -9.2817
  55   2.0000      -0.333923        -9.0865
  56   2.0000      -0.319583        -8.6963
  57   2.0000      -0.300275        -8.1709
  58   2.0000      -0.290219        -7.8973
  59   2.0000      -0.288692        -7.8557
  60   2.0000      -0.275282        -7.4908
  61   2.0000      -0.253690        -6.9033
  62   2.0000      -0.240347        -6.5402
  63   2.0000      -0.232494        -6.3265
  64   2.0000      -0.215959        -5.8765
  65   2.0000      -0.205631        -5.5955
  66   0.0000      -0.073351        -1.9960
  67   0.0000      -0.031836        -0.8663
  68   0.0000      -0.025829        -0.7028
  69   0.0000       0.013625         0.3708
  70   0.0000       0.040984         1.1152

MULLIKEN ATOMIC CHARGES
-----------------------
   0 C :   -0.287835
   1 C :   -0.155762
   2 C :   -0.064027
   3 H :    0.109098
   4 C :   -0.253278
   5 N :   -0.245263
   6 C :    0.186159
   7 O :   -0.178661
   8 C :   -0.188514
   9 C :   -0.002592
  10 N :   -0.200542
  11 C :    0.177803
  12 O :   -0.205296
  13 C :   -0.201821
  14 Br:    0.009093
  15 H :    0.127522
  16 H :    0.096641
  17 H :    0.101359
  18 H :    0.090880
  19 H :    0.091800
  20 H :    0.145799
  21 H :    0.103458
  22 H :    0.099207
  23 H :    0.247985
  24 H :    0.103890
  25 H :    0.146916
  26 H :    0.145980
Sum of atomic charges:   -0.0000000

LOEWDIN ATOMIC CHARGES
----------------------
   0 C :   -0.350106
   1 C :   -0.226165
   2 C :   -0.077535
   3 H :    0.137048
   4 C :   -0.344204
   5 N :   -0.003898
   6 C :    0.021143
   7 O :   -0.169749
   8 C :   -0.219278
   9 C :   -0.007483
  10 N :   -0.086221
  11 C :    0.042038
  12 O :   -0.189312
  13 C :   -0.330400
  14 Br:    0.137072
  15 H :    0.123318
  16 H :    0.117707
  17 H :    0.118550
  18 H :    0.122475
  19 H :    0.120498
  20 H :    0.131689
  21 H :    0.125935
  22 H :    0.121645
  23 H :    0.253816
  24 H :    0.129500
  25 H :    0.152523
  26 H :    0.149394

  Mayer bond orders larger than 0.100000
B(  0-C ,  1-C ) :   1.1575 B(  0-C , 15-H ) :   0.9383 B(  0-C , 16-H ) :   0.9465
B(  0-C , 17-H ) :   0.9466 B(  1-C ,  2-C ) :   1.0968 B(  1-C , 18-H ) :   0.9214
B(  1-C , 19-H ) :   0.9214 B(  2-C ,  3-H ) :   0.8688 B(  2-C ,  4-C ) :   1.1195
B(  2-C ,  5-N ) :   0.9135 B(  4-C , 20-H ) :   0.9154 B(  4-C , 21-H ) :   0.9417
B(  4-C , 22-H ) :   0.9441 B(  5-N ,  6-C ) :   1.0271 B(  5-N , 11-C ) :   1.0908
B(  6-C ,  7-O ) :   2.0891 B(  6-C ,  8-C ) :   1.0516 B(  8-C ,  9-C ) :   1.5991
B(  8-C , 14-Br) :   1.0915 B(  9-C , 10-N ) :   1.2121 B(  9-C , 13-C ) :   1.1629
B( 10-N , 11-C ) :   1.0833 B( 10-N , 23-H ) :   0.8291 B( 11-C , 12-O ) :   2.0022
B( 13-C , 24-H ) :   0.9221 B( 13-C , 25-H ) :   0.9151 B( 13-C , 26-H ) :   0.9124

Dispersion correction           -0.034104156
FINAL SINGLE POINT ENERGY     -3182.938903467907

DIPOLE MOMENT
-------------

Method             : SCF
Type of density    : Electron Density
Multiplicity       :   1
Irrep              :   0
Energy             : -3183.0309970302123475 Eh
Relativity type    :
Basis              : AO
                                X                 Y                 Z
Electronic contribution:     50.335911770      -6.128995895       4.595682521
Nuclear contribution   :    -49.893460263       7.573905660      -4.800422103
                        -----------------------------------------
Total Dipole Moment    :      0.442451508       1.444909765      -0.204739582
                        -----------------------------------------
Magnitude (a.u.)       :      1.524941265
Magnitude (Debye)      :      3.876092658

Rotational constants in cm-1:             0.033009             0.010452             0.008697
Rotational constants in MHz :           989.570454           313.345537           260.734326

                             ****ORCA TERMINATED NORMALLY****
TOTAL RUN TIME: 0 days 0 hours 0 minutes 22 seconds 148 msec
