                         Program Version 6.0.0  -   RELEASE  -
|  1> ! r2scan-3c def2/J RI DEFGRID2 scfconv6 printgap
|  2> %output
|  3>     printlevel normal
|  4> end
|  5> * xyz 0 1
|  6> C -4.3627331591 -1.8651407363 0.8239450789
|  7> C -2.9041933952 -1.4290400944 0.7623468549
|  8> C -2.6399690402 -0.4829199379 -0.4135356975
|  9> H -3.4062572516 0.2995433043 -0.4141896692
| 10> C -2.6410968911 -1.1852168253 -1.7666210602
| 11> N -1.3695809045 0.2433947653 -0.2165585063
| 12> C -0.1797284948 -0.4748099394 -0.1379149628
| 13> O -0.1508115969 -1.6887147911 -0.2258420345
| 14> C 1.0074239428 0.3352373221 0.0553506989
| 15> C 0.9681542799 1.6866357803 0.1537395227
| 16> N -0.2601608649 2.2749541711 0.0619745876
| 17> C -1.4459312306 1.6138875731 -0.1203203496
| 18> O -2.4921253412 2.2357140843 -0.1888493816
| 19> C 2.1243106246 2.5945736023 0.3508136378
| 20> Br 2.6259047042 -0.6561320194 0.1600303652
| 21> H -4.5260128715 -2.4767853124 1.706869191
| 22> H -5.0169484235 -0.9981207237 0.8773674091
| 23> H -4.6310008257 -2.4510196085 -0.0500283247
| 24> H -2.6490278859 -0.9055545732 1.6877827831
| 25> H -2.2565044996 -2.3024563081 0.6799395034
| 26> H -1.9018873094 -1.981622162 -1.7842820781
| 27> H -3.6222599754 -1.6093073053 -1.9512031798
| 28> H -2.4175208051 -0.4735137468 -2.5583568964
| 29> H -0.3310857498 3.2855618619 0.1311382034
| 30> H 2.1899494835 3.2934797128 -0.4804779096
| 31> H 3.0519600153 2.0350696403 0.4162823273
| 32> H 1.9908411246 3.1684915968 1.2654287017
| 33> *
| 34>
| 35>                          ****END OF INPUT****

CARTESIAN COORDINATES (ANGSTROEM)
---------------------------------
  C     -4.362733   -1.865141    0.823945
  C     -2.904193   -1.429040    0.762347
  C     -2.639969   -0.482920   -0.413536
  H     -3.406257    0.299543   -0.414190
  C     -2.641097   -1.185217   -1.766621
  N     -1.369581    0.243395   -0.216559
  C     -0.179728   -0.474810   -0.137915
  O     -0.150812   -1.688715   -0.225842
  C      1.007424    0.335237    0.055351
  C      0.968154    1.686636    0.153740
  N     -0.260161    2.274954    0.061975
  C     -1.445931    1.613888   -0.120320
  O     -2.492125    2.235714   -0.188849
  C      2.124311    2.594574    0.350814
  Br     2.625905   -0.656132    0.160030
  H     -4.526013   -2.476785    1.706869
  H     -5.016948   -0.998121    0.877367
  H     -4.631001   -2.451020   -0.050028
  H     -2.649028   -0.905555    1.687783
  H     -2.256504   -2.302456    0.679940
  H     -1.901887   -1.981622   -1.784282
  H     -3.622260   -1.609307   -1.951203
  H     -2.417521   -0.473514   -2.558357
  H     -0.331086    3.285562    0.131138
  H      2.189949    3.293480   -0.480478
  H      3.051960    2.035070    0.416282
  H      1.990841    3.168492    1.265429

 Total Charge           Charge          ....    0
 Multiplicity           Mult            ....    1
 Number of Electrons    NEL             ....  132
 Basis Dimension        Dim             ....  368

ORBITAL ENERGIES
----------------

  NO   OCC          E(Eh)            E(eV)
   0   2.0000    -482.235105    -13122.2843
   1   2.0000     -62.306298     -1695.4406
   2   2.0000     -56.086894     -1526.2020
   3   2.0000     -56.084074     -1526.1252
   4   2.0000     -56.083910     -1526.1208
   5   2.0000     -18.932150      -515.1700
   6   2.0000     -18.927394      -515.0406
   7   2.0000     -14.239634      -387.4801
   8   2.0000     -14.227144      -387.1403
   9   2.0000     -10.182156      -277.0706
  10   2.0000     -10.152252      -276.2568
  11   2.0000     -10.130165      -275.6558
  12   2.0000     -10.100906      -274.8596
  13   2.0000     -10.077494      -274.2226
  14   2.0000     -10.068702      -273.9833
  15   2.0000     -10.026125      -272.8247
  16   2.0000     -10.018912      -272.6284
  17   2.0000     -10.018870      -272.6273
  18   2.0000      -8.638141      -235.0558
  19   2.0000      -6.446391      -175.4152
  20   2.0000      -6.431812      -175.0185
  21   2.0000      -6.431127      -174.9999
  22   2.0000      -2.543788       -69.2200
  23   2.0000      -2.540195       -69.1222
  24   2.0000      -2.539723       -69.1094
  25   2.0000      -2.528873       -68.8141
  26   2.0000      -2.528862       -68.8138
  27   2.0000      -1.053791       -28.6751
  28   2.0000      -1.016112       -27.6498
  29   2.0000      -0.958311       -26.0770
  30   2.0000      -0.918845       -25.0030
  31   2.0000      -0.814141       -22.1539
  32   2.0000      -0.775763       -21.1096
  33   2.0000      -0.750775       -20.4296
  34   2.0000      -0.709563       -19.3082
  35   2.0000      -0.692211       -18.8360
  36   2.0000      -0.642452       -17.4820
  37   2.0000      -0.638047       -17.3621
  38   2.0000      -0.603243       -16.4151
  39   2.0000      -0.564687       -15.3659
  40   2.0000      -0.549859       -14.9624
  41   2.0000      -0.519295       -14.1307
  42   2.0000      -0.472476       -12.8567
  43   2.0000      -0.458355       -12.4725
  44   2.0000      -0.437774       -11.9124
  45   2.0000      -0.433692       -11.8014
  46   2.0000      -0.430392       -11.7116
  47   2.0000      -0.411730       -11.2037
  48   2.0000      -0.408134       -11.1059
  49   2.0000      -0.398172       -10.8348
  50   2.0000      -0.392820       -10.6892
  51   2.0000      -0.389218       -10.5912
  52   2.0000      -0.379734       -10.3331
  53   2.0000      -0.366771        -9.9803
  54   2.0000      -0.359649        -9.7865
  55   2.0000      -0.341023        -9.2797
  56   2.0000      -0.335291        -9.1237
  57   2.0000      -0.327541        -8.9129
  58   2.0000      -0.307920        -8.3789
  59   2.0000      -0.301403        -8.2016
  60   2.0000      -0.291779        -7.9397
  61   2.0000      -0.269322        -7.3286
  62   2.0000      -0.255813        -6.9610
  63   2.0000      -0.253290        -6.8924
  64   2.0000      -0.233722        -6.3599
  65   2.0000      -0.219145        -5.9632
  66   0.0000      -0.073921        -2.0115
  67   0.0000      -0.033623        -0.9149
  68   0.0000      -0.024119        -0.6563
  69   0.0000       0.039570         1.0768
  70   0.0000       0.064283         1.7492

MULLIKEN ATOMIC CHARGES
-----------------------
   0 C :   -0.508026
   1 C :   -0.243150
   2 C :   -0.074303
   3 H :    0.209963
   4 C :   -0.557410
   5 N :    0.170367
   6 C :    0.245763
   7 O :   -0.434472
   8 C :   -0.198782
   9 C :    0.218879
  10 N :   -0.030852
  11 C :    0.240076
  12 O :   -0.457991
  13 C :   -0.606572
  14 Br:   -0.080417
  15 H :    0.152293
  16 H :    0.151418
  17 H :    0.146532
  18 H :    0.143923
  19 H :    0.184895
  20 H :    0.201384
  21 H :    0.151991
  22 H :    0.151706
  23 H :    0.281906
  24 H :    0.176918
  25 H :    0.187609
  26 H :    0.176350
Sum of atomic charges:    0.0000000

LOEWDIN ATOMIC CHARGES
----------------------
   0 C :   -0.415747
   1 C :   -0.263788
   2 C :    0.045219
   3 H :    0.221283
   4 C :   -0.362833
   5 N :   -0.625328
   6 C :    0.356665
   7 O :   -0.474644
   8 C :   -0.193008
   9 C :    0.154417
  10 N :   -0.517726
  11 C :    0.460315
  12 O :   -0.423205
  13 C :   -0.350917
  14 Br:    0.257029
  15 H :    0.154782
  16 H :    0.152000
  17 H :    0.150806
  18 H :    0.163336
  19 H :    0.180513
  20 H :    0.180391
  21 H :    0.158300
  22 H :    0.161088
  23 H :    0.299221
  24 H :    0.175940
  25 H :    0.180157
  26 H :    0.175735

  Mayer bond orders larger than 0.100000
B(  0-C ,  1-C ) :   0.8903 B(  0-C , 15-H ) :   0.9706 B(  0-C , 16-H ) :   0.9902
B(  0-C , 17-H ) :   0.9817 B(  1-C ,  2-C ) :   0.8804 B(  1-C , 18-H ) :   0.9718
B(  1-C , 19-H ) :   0.9419 B(  2-C ,  3-H ) :   0.9634 B(  2-C ,  4-C ) :   0.8683
B(  2-C ,  5-N ) :   0.8736 B(  4-C , 20-H ) :   0.9758 B(  4-C , 21-H ) :   0.9686
B(  4-C , 22-H ) :   0.9711 B(  5-N ,  6-C ) :   1.1231 B(  5-N , 11-C ) :   1.1208
B(  6-C ,  7-O ) :   1.9024 B(  6-C ,  8-C ) :   0.9563 B(  6-C , 14-Br) :  -0.1285
B(  8-C ,  9-C ) :   1.4868 B(  8-C , 14-Br) :   1.2207 B(  9-C , 10-N ) :   1.1455
B(  9-C , 13-C ) :   0.8424 B( 10-N , 11-C ) :   1.0483 B( 10-N , 23-H ) :   0.9058
B( 11-C , 12-O ) :   1.9035 B( 13-C , 24-H ) :   0.9668 B( 13-C , 25-H ) :   0.9551
B( 13-C , 26-H ) :   0.9673

Dispersion correction           -0.011242661
FINAL SINGLE POINT ENERGY     -3184.785481059666

DIPOLE MOMENT
-------------

Method             : SCF
Type of density    : Electron Density
Multiplicity       :   1
Irrep              :   0
Energy             : -3184.7957128250545793 Eh
Relativity type    :
Basis              : AO
                                X                 Y                 Z
Electronic contribution:     47.023547034      -3.696111635       2.132482138
Nuclear contribution   :    -46.500767904       5.066887558      -1.937302714
                        -----------------------------------------
Total Dipole Moment    :      0.522779130       1.370775923       0.195179424
                        -----------------------------------------
Magnitude (a.u.)       :      1.480006641
Magnitude (Debye)      :      3.761877919

Rotational constants in cm-1:             0.027924             0.011205             0.008663
Rotational constants in MHz :           837.153291           335.920147           259.700585

                             ****ORCA TERMINATED NORMALLY****
TOTAL RUN TIME: 0 days 0 hours 1 minutes 21 seconds 168 msec
