                         Program Version 6.0.0  -   RELEASE  -
|  1> ! r2scan-3c def2/J RI DEFGRID2 scfconv6 printgap
|  2> %output
|  3>     printlevel normal
|  4> end
|  5> %cpcm
|  6>     smd true
|  7>     smdsolvent "water"
|  8> end
|  9> * xyz 0 1
| 10> C -4.3627331591 -1.8651407363 0.8239450789
| 11> C -2.9041933952 -1.4290400944 0.7623468549
| 12> C -2.6399690402 -0.4829199379 -0.4135356975
| 13> H -3.4062572516 0.2995433043 -0.4141896692
| 14> C -2.6410968911 -1.1852168253 -1.7666210602
| 15> N -1.3695809045 0.2433947653 -0.2165585063
| 16> C -0.1797284948 -0.4748099394 -0.1379149628
| 17> O -0.1508115969 -1.6887147911 -0.2258420345
| 18> C 1.0074239428 0.3352373221 0.0553506989
| 19> C 0.9681542799 1.6866357803 0.1537395227
| 20> N -0.2601608649 2.2749541711 0.0619745876
| 21> C -1.4459312306 1.6138875731 -0.1203203496
| 22> O -2.4921253412 2.2357140843 -0.1888493816
| 23> C 2.1243106246 2.5945736023 0.3508136378
| 24> Br 2.6259047042 -0.6561320194 0.1600303652
| 25> H -4.5260128715 -2.4767853124 1.706869191
| 26> H -5.0169484235 -0.9981207237 0.8773674091
| 27> H -4.6310008257 -2.4510196085 -0.0500283247
| 28> H -2.6490278859 -0.9055545732 1.6877827831
| 29> H -2.2565044996 -2.3024563081 0.6799395034
| 30> H -1.9018873094 -1.981622162 -1.7842820781
| 31> H -3.6222599754 -1.6093073053 -1.9512031798
| 32> H -2.4175208051 -0.4735137468 -2.5583568964
| 33> H -0.3310857498 3.2855618619 0.1311382034
| 34> H 2.1899494835 3.2934797128 -0.4804779096
| 35> H 3.0519600153 2.0350696403 0.4162823273
| 36> H 1.9908411246 3.1684915968 1.2654287017
| 37> *
| 38>
| 39>                          ****END OF INPUT****

CARTESIAN COORDINATES (ANGSTROEM)
---------------------------------
  C     -4.362733   -1.865141    0.823945
  C     -2.904193   -1.429040    0.762347
  C     -2.639969   -0.482920   -0.413536
  H     -3.406257    0.299543   -0.414190
  C     -2.641097   -1.185217   -1.766621
  N     -1.369581    0.243395   -0.216559
  C     -0.179728   -0.474810   -0.137915
  O     -0.150812   -1.688715   -0.225842
  C      1.007424    0.335237    0.055351
  C      0.968154    1.686636    0.153740
  N     -0.260161    2.274954    0.061975
  C     -1.445931    1.613888   -0.120320
  O     -2.492125    2.235714   -0.188849
  C      2.124311    2.594574    0.350814
  Br     2.625905   -0.656132    0.160030
  H     -4.526013   -2.476785    1.706869
  H     -5.016948   -0.998121    0.877367
  H     -4.631001   -2.451020   -0.050028
  H     -2.649028   -0.905555    1.687783
  H     -2.256504   -2.302456    0.679940
  H     -1.901887   -1.981622   -1.784282
  H     -3.622260   -1.609307   -1.951203
  H     -2.417521   -0.473514   -2.558357
  H     -0.331086    3.285562    0.131138
  H      2.189949    3.293480   -0.480478
  H      3.051960    2.035070    0.416282
  H      1.990841    3.168492    1.265429

 Total Charge           Charge          ....    0
 Multiplicity           Mult            ....    1
 Number of Electrons    NEL             ....  132
 Basis Dimension        Dim             ....  368

ORBITAL ENERGIES
----------------

  NO   OCC          E(Eh)            E(eV)
   0   2.0000    -482.234462    -13122.2668
   1   2.0000     -62.305707     -1695.4245
   2   2.0000     -56.086258     -1526.1847
   3   2.0000     -56.083496     -1526.1095
   4   2.0000     -56.083344     -1526.1054
   5   2.0000     -18.938639      -515.3466
   6   2.0000     -18.933503      -515.2068
   7   2.0000     -14.227183      -387.1413
   8   2.0000     -14.226999      -387.1363
   9   2.0000     -10.183741      -277.1137
  10   2.0000     -10.155826      -276.3541
  11   2.0000     -10.121022      -275.4070
  12   2.0000     -10.094287      -274.6795
  13   2.0000     -10.074260      -274.1345
  14   2.0000     -10.040180      -273.2072
  15   2.0000     -10.022298      -272.7206
  16   2.0000     -10.014036      -272.4958
  17   2.0000     -10.011258      -272.4202
  18   2.0000      -8.637606      -235.0412
  19   2.0000      -6.445635      -175.3946
  20   2.0000      -6.431395      -175.0071
  21   2.0000      -6.430711      -174.9886
  22   2.0000      -2.543101       -69.2013
  23   2.0000      -2.539589       -69.1057
  24   2.0000      -2.539119       -69.0929
  25   2.0000      -2.528516       -68.8044
  26   2.0000      -2.528505       -68.8041
  27   2.0000      -1.055231       -28.7143
  28   2.0000      -1.022819       -27.8323
  29   2.0000      -0.952568       -25.9207
  30   2.0000      -0.916620       -24.9425
  31   2.0000      -0.808084       -21.9891
  32   2.0000      -0.769252       -20.9324
  33   2.0000      -0.739450       -20.1215
  34   2.0000      -0.702765       -19.1232
  35   2.0000      -0.683777       -18.6065
  36   2.0000      -0.637620       -17.3505
  37   2.0000      -0.629046       -17.1172
  38   2.0000      -0.595957       -16.2168
  39   2.0000      -0.559107       -15.2141
  40   2.0000      -0.543774       -14.7968
  41   2.0000      -0.508462       -13.8359
  42   2.0000      -0.465815       -12.6755
  43   2.0000      -0.451849       -12.2954
  44   2.0000      -0.438705       -11.9378
  45   2.0000      -0.428977       -11.6731
  46   2.0000      -0.416344       -11.3293
  47   2.0000      -0.411616       -11.2006
  48   2.0000      -0.400556       -10.8997
  49   2.0000      -0.393410       -10.7052
  50   2.0000      -0.390073       -10.6144
  51   2.0000      -0.379097       -10.3158
  52   2.0000      -0.372169       -10.1272
  53   2.0000      -0.361544        -9.8381
  54   2.0000      -0.352404        -9.5894
  55   2.0000      -0.335360        -9.1256
  56   2.0000      -0.330643        -8.9973
  57   2.0000      -0.321466        -8.7475
  58   2.0000      -0.305935        -8.3249
  59   2.0000      -0.296693        -8.0734
  60   2.0000      -0.291634        -7.9358
  61   2.0000      -0.269924        -7.3450
  62   2.0000      -0.262432        -7.1411
  63   2.0000      -0.255989        -6.9658
  64   2.0000      -0.241147        -6.5619
  65   2.0000      -0.215777        -5.8716
  66   0.0000      -0.066691        -1.8147
  67   0.0000      -0.030145        -0.8203
  68   0.0000      -0.024887        -0.6772
  69   0.0000       0.058199         1.5837
  70   0.0000       0.078324         2.1313

MULLIKEN ATOMIC CHARGES
-----------------------
   0 C :   -0.547277
   1 C :   -0.251829
   2 C :   -0.057657
   3 H :    0.209871
   4 C :   -0.588963
   5 N :    0.196278
   6 C :    0.226300
   7 O :   -0.497194
   8 C :   -0.199995
   9 C :    0.244719
  10 N :   -0.031331
  11 C :    0.269357
  12 O :   -0.539087
  13 C :   -0.615727
  14 Br:   -0.110830
  15 H :    0.163564
  16 H :    0.162683
  17 H :    0.161691
  18 H :    0.165133
  19 H :    0.171210
  20 H :    0.188487
  21 H :    0.174684
  22 H :    0.170561
  23 H :    0.338374
  24 H :    0.208116
  25 H :    0.181267
  26 H :    0.207597
Sum of atomic charges:    0.0000000

LOEWDIN ATOMIC CHARGES
----------------------
   0 C :   -0.421389
   1 C :   -0.264960
   2 C :    0.047185
   3 H :    0.221855
   4 C :   -0.366957
   5 N :   -0.613571
   6 C :    0.357760
   7 O :   -0.534646
   8 C :   -0.203007
   9 C :    0.180658
  10 N :   -0.478118
  11 C :    0.467912
  12 O :   -0.481154
  13 C :   -0.344398
  14 Br:    0.237141
  15 H :    0.157295
  16 H :    0.155630
  17 H :    0.155261
  18 H :    0.168684
  19 H :    0.174469
  20 H :    0.174498
  21 H :    0.165784
  22 H :    0.166403
  23 H :    0.317838
  24 H :    0.192041
  25 H :    0.175928
  26 H :    0.191857

  Mayer bond orders larger than 0.100000
B(  0-C ,  1-C ) :   0.8877 B(  0-C , 15-H ) :   0.9681 B(  0-C , 16-H ) :   0.9875
B(  0-C , 17-H ) :   0.9768 B(  1-C ,  2-C ) :   0.8706 B(  1-C , 18-H ) :   0.9737
B(  1-C , 19-H ) :   0.9463 B(  2-C ,  3-H ) :   0.9573 B(  2-C ,  4-C ) :   0.8683
B(  2-C ,  5-N ) :   0.8644 B(  4-C , 20-H ) :   0.9777 B(  4-C , 21-H ) :   0.9630
B(  4-C , 22-H ) :   0.9679 B(  5-N ,  6-C ) :   1.1266 B(  5-N , 11-C ) :   1.1340
B(  6-C ,  7-O ) :   1.8702 B(  6-C ,  8-C ) :   0.9697 B(  8-C ,  9-C ) :   1.4648
B(  8-C , 14-Br) :   1.1459 B(  9-C , 10-N ) :   1.1521 B(  9-C , 13-C ) :   0.8557
B( 10-N , 11-C ) :   1.0743 B( 10-N , 23-H ) :   0.8807 B( 11-C , 12-O ) :   1.8366
B( 13-C , 24-H ) :   0.9465 B( 13-C , 25-H ) :   0.9666 B( 13-C , 26-H ) :   0.9467

Dispersion correction           -0.011242661
FINAL SINGLE POINT ENERGY     -3184.801340622184

DIPOLE MOMENT
-------------

Method             : SCF
Type of density    : Electron Density
Multiplicity       :   1
Irrep              :   0
Energy             : -3184.8115723875721415 Eh
Relativity type    :
Basis              : AO
                                X                 Y                 Z
Electronic contribution:     47.231829554      -2.862103818       2.214574705
Nuclear contribution   :    -46.500767904       5.066887558      -1.937302714
                        -----------------------------------------
Total Dipole Moment    :      0.731061650       2.204783740       0.277271991
                        -----------------------------------------
Magnitude (a.u.)       :      2.339316616
Magnitude (Debye)      :      5.946070297

Rotational constants in cm-1:             0.027924             0.011205             0.008663
Rotational constants in MHz :           837.153291           335.920147           259.700585

                             ****ORCA TERMINATED NORMALLY****
TOTAL RUN TIME: 0 days 0 hours 1 minutes 41 seconds 979 msec
