                         Program Version 6.0.0  -   RELEASE  -
|  1> ! pbe def2-sv(p) def2/J RI DEFGRID1 loosescf d4 GCP(DFT/SV(P)) printgap
|  2> %output
|  3>     printlevel normal
|  4> end
|  5> * xyz 0 1
|  6> C -1.2098109481 0.1847221216 -0.4807051506
|  7> C -0.0456352353 0.4323672468 0.4959504347
|  8> C 0.9600223325 -0.735575477 0.533987145
|  9> O 1.8341269907 -0.7591068692 -0.5684400202
| 10> O 0.5717371368 1.6329778857 0.087987207
| 11> O -2.1776725301 -0.7007857715 0.0224108257
| 12> H -0.8281075457 -0.1546847457 -1.4513269236
| 13> H -1.7194942229 1.1383591949 -0.6345427215
| 14> H -0.4798959142 0.5440971583 1.5029647729
| 15> H 0.4128483743 -1.6842905576 0.6187027203
| 16> H 1.6066895107 -0.6385978573 1.4095400767
| 17> H 1.327150299 -0.7090721059 -1.3903787313
| 18> H 1.3896420653 1.7625419847 0.5889919682
| 19> H -1.8106956121 -1.5939033608 0.0819978341
| 20> *
| 21>
| 22>                          ****END OF INPUT****

CARTESIAN COORDINATES (ANGSTROEM)
---------------------------------
  C     -1.209811    0.184722   -0.480705
  C     -0.045635    0.432367    0.495950
  C      0.960022   -0.735575    0.533987
  O      1.834127   -0.759107   -0.568440
  O      0.571737    1.632978    0.087987
  O     -2.177673   -0.700786    0.022411
  H     -0.828108   -0.154685   -1.451327
  H     -1.719494    1.138359   -0.634543
  H     -0.479896    0.544097    1.502965
  H      0.412848   -1.684291    0.618703
  H      1.606690   -0.638598    1.409540
  H      1.327150   -0.709072   -1.390379
  H      1.389642    1.762542    0.588992
  H     -1.810696   -1.593903    0.081998

 Total Charge           Charge          ....    0
 Multiplicity           Mult            ....    1
 Number of Electrons    NEL             ....   50
 Basis Dimension        Dim             ....  100

ORBITAL ENERGIES
----------------

  NO   OCC          E(Eh)            E(eV)
   0   2.0000     -18.755058      -510.3511
   1   2.0000     -18.753077      -510.2972
   2   2.0000     -18.751998      -510.2678
   3   2.0000      -9.940970      -270.5075
   4   2.0000      -9.940889      -270.5053
   5   2.0000      -9.936289      -270.3802
   6   2.0000      -0.943016       -25.6608
   7   2.0000      -0.928407       -25.2633
   8   2.0000      -0.916246       -24.9323
   9   2.0000      -0.681197       -18.5363
  10   2.0000      -0.621465       -16.9109
  11   2.0000      -0.545216       -14.8361
  12   2.0000      -0.484493       -13.1837
  13   2.0000      -0.476292       -12.9606
  14   2.0000      -0.426600       -11.6084
  15   2.0000      -0.418696       -11.3933
  16   2.0000      -0.408989       -11.1292
  17   2.0000      -0.370083       -10.0705
  18   2.0000      -0.357655        -9.7323
  19   2.0000      -0.301390        -8.2012
  20   2.0000      -0.293997        -8.0001
  21   2.0000      -0.277828        -7.5601
  22   2.0000      -0.231108        -6.2888
  23   2.0000      -0.224616        -6.1121
  24   2.0000      -0.217471        -5.9177
  25   0.0000       0.004343         0.1182
  26   0.0000       0.025203         0.6858
  27   0.0000       0.034645         0.9427
  28   0.0000       0.074711         2.0330
  29   0.0000       0.094606         2.5744

MULLIKEN ATOMIC CHARGES
-----------------------
   0 C :    0.027654
   1 C :   -0.027527
   2 C :    0.004296
   3 O :   -0.427201
   4 O :   -0.415846
   5 O :   -0.428641
   6 H :    0.053053
   7 H :    0.106728
   8 H :    0.068177
   9 H :    0.053357
  10 H :    0.090761
  11 H :    0.296948
  12 H :    0.301635
  13 H :    0.296606
Sum of atomic charges:   -0.0000000

LOEWDIN ATOMIC CHARGES
----------------------
   0 C :   -0.128179
   1 C :   -0.102703
   2 C :   -0.140678
   3 O :   -0.334179
   4 O :   -0.323753
   5 O :   -0.329976
   6 H :    0.087401
   7 H :    0.123787
   8 H :    0.101679
   9 H :    0.087783
  10 H :    0.112531
  11 H :    0.279718
  12 H :    0.287264
  13 H :    0.279305

  Mayer bond orders larger than 0.100000
B(  0-C ,  1-C ) :   1.0255 B(  0-C ,  5-O ) :   1.0731 B(  0-C ,  6-H ) :   0.9125
B(  0-C ,  7-H ) :   0.9214 B(  1-C ,  2-C ) :   1.0270 B(  1-C ,  4-O ) :   1.0747
B(  1-C ,  8-H ) :   0.8940 B(  2-C ,  3-O ) :   1.0803 B(  2-C ,  9-H ) :   0.9064
B(  2-C , 10-H ) :   0.9212 B(  3-O , 11-H ) :   0.8453 B(  4-O , 12-H ) :   0.8475
B(  5-O , 13-H ) :   0.8474

Dispersion correction           -0.009239410
FINAL SINGLE POINT ENERGY      -344.002871550835

DIPOLE MOMENT
-------------

Method             : SCF
Type of density    : Electron Density
Multiplicity       :   1
Irrep              :   0
Energy             :  -344.0760379188735669 Eh
Relativity type    :
Basis              : AO
                                X                 Y                 Z
Electronic contribution:      0.341559074       0.823389951      -0.499163133
Nuclear contribution   :     -0.092176248      -1.250407177       0.674263486
                        -----------------------------------------
Total Dipole Moment    :      0.249382826      -0.427017226       0.175100353
                        -----------------------------------------
Magnitude (a.u.)       :      0.524590925
Magnitude (Debye)      :      1.333404165

Rotational constants in cm-1:             0.162805             0.083866             0.065353
Rotational constants in MHz :          4880.759621          2514.243417          1959.240958

                             ****ORCA TERMINATED NORMALLY****
TOTAL RUN TIME: 0 days 0 hours 0 minutes 6 seconds 849 msec
