                         Program Version 6.0.0  -   RELEASE  -
|  1> ! r2scan-3c def2/J RI DEFGRID2 scfconv6 printgap
|  2> %output
|  3>     printlevel normal
|  4> end
|  5> * xyz 0 1
|  6> C -3.183525155 0.5745718893 0.0263807571
|  7> C -1.7824802763 0.2963849615 -0.502108606
|  8> C -0.812681116 -0.0318540615 0.6408514781
|  9> C 0.5410305621 -0.3814652647 0.0839485915
| 10> O 0.7746440198 -1.3514894008 -0.6075026264
| 11> O 1.4538294051 0.5190979951 0.4252782173
| 12> C 2.8007690379 0.3604811295 -0.0328642372
| 13> H -3.5728130609 -0.2944743715 0.5504202308
| 14> H -3.1702075401 1.4160300281 0.7142107886
| 15> H -3.8537108096 0.8104916061 -0.7955887866
| 16> H -1.4142108279 1.1688862884 -1.0453451556
| 17> H -1.8035967073 -0.5464143313 -1.1957976009
| 18> H -1.1886335026 -0.8965634899 1.1895264888
| 19> H -0.7104979447 0.8173649933 1.3148953301
| 20> H 3.0471887276 1.2242766815 -0.6473796723
| 21> H 2.8878433592 -0.5588351583 -0.6129064507
| 22> H 3.4438941939 0.3232122579 0.8440746798
| 23> *
| 24>
| 25>                          ****END OF INPUT****

CARTESIAN COORDINATES (ANGSTROEM)
---------------------------------
  C     -3.183525    0.574572    0.026381
  C     -1.782480    0.296385   -0.502109
  C     -0.812681   -0.031854    0.640851
  C      0.541031   -0.381465    0.083949
  O      0.774644   -1.351489   -0.607503
  O      1.453829    0.519098    0.425278
  C      2.800769    0.360481   -0.032864
  H     -3.572813   -0.294474    0.550420
  H     -3.170208    1.416030    0.714211
  H     -3.853711    0.810492   -0.795589
  H     -1.414211    1.168886   -1.045345
  H     -1.803597   -0.546414   -1.195798
  H     -1.188634   -0.896563    1.189526
  H     -0.710498    0.817365    1.314895
  H      3.047189    1.224277   -0.647380
  H      2.887843   -0.558835   -0.612906
  H      3.443894    0.323212    0.844075

 Total Charge           Charge          ....    0
 Multiplicity           Mult            ....    1
 Number of Electrons    NEL             ....   56
 Basis Dimension        Dim             ....  193

ORBITAL ENERGIES
----------------

  NO   OCC          E(Eh)            E(eV)
   0   2.0000     -18.999738      -517.0092
   1   2.0000     -18.927536      -515.0444
   2   2.0000     -10.152630      -276.2671
   3   2.0000     -10.084765      -274.4204
   4   2.0000     -10.041389      -273.2401
   5   2.0000     -10.036921      -273.1185
   6   2.0000     -10.022747      -272.7328
   7   2.0000      -1.072452       -29.1829
   8   2.0000      -0.975825       -26.5535
   9   2.0000      -0.772448       -21.0194
  10   2.0000      -0.713916       -19.4266
  11   2.0000      -0.661197       -17.9921
  12   2.0000      -0.571297       -15.5458
  13   2.0000      -0.532043       -14.4776
  14   2.0000      -0.470157       -12.7936
  15   2.0000      -0.455724       -12.4009
  16   2.0000      -0.448302       -12.1989
  17   2.0000      -0.426824       -11.6145
  18   2.0000      -0.398792       -10.8517
  19   2.0000      -0.391483       -10.6528
  20   2.0000      -0.369361       -10.0508
  21   2.0000      -0.351962        -9.5774
  22   2.0000      -0.333033        -9.0623
  23   2.0000      -0.316288        -8.6066
  24   2.0000      -0.310112        -8.4386
  25   2.0000      -0.306745        -8.3469
  26   2.0000      -0.271333        -7.3833
  27   2.0000      -0.237297        -6.4572
  28   0.0000      -0.014706        -0.4002
  29   0.0000       0.068387         1.8609
  30   0.0000       0.098720         2.6863
  31   0.0000       0.103068         2.8046
  32   0.0000       0.131543         3.5795

MULLIKEN ATOMIC CHARGES
-----------------------
   0 C :   -0.470385
   1 C :   -0.229607
   2 C :   -0.333650
   3 C :    0.425597
   4 O :   -0.441923
   5 O :   -0.196001
   6 C :   -0.305719
   7 H :    0.145638
   8 H :    0.143055
   9 H :    0.150735
  10 H :    0.138619
  11 H :    0.165491
  12 H :    0.162332
  13 H :    0.159853
  14 H :    0.147907
  15 H :    0.190284
  16 H :    0.147775
Sum of atomic charges:   -0.0000000

LOEWDIN ATOMIC CHARGES
----------------------
   0 C :   -0.420043
   1 C :   -0.288368
   2 C :   -0.229281
   3 C :    0.357639
   4 O :   -0.442496
   5 O :   -0.602392
   6 C :   -0.046595
   7 H :    0.151060
   8 H :    0.150349
   9 H :    0.153196
  10 H :    0.155589
  11 H :    0.165125
  12 H :    0.179176
  13 H :    0.176690
  14 H :    0.173178
  15 H :    0.193590
  16 H :    0.173582

  Mayer bond orders larger than 0.100000
B(  0-C ,  1-C ) :   0.8928 B(  0-C ,  7-H ) :   0.9866 B(  0-C ,  8-H ) :   0.9811
B(  0-C ,  9-H ) :   0.9728 B(  1-C ,  2-C ) :   0.9269 B(  1-C , 10-H ) :   0.9577
B(  1-C , 11-H ) :   0.9641 B(  2-C ,  3-C ) :   0.9796 B(  2-C , 12-H ) :   0.9641
B(  2-C , 13-H ) :   0.9762 B(  3-C ,  4-O ) :   1.8329 B(  3-C ,  5-O ) :   1.0545
B(  5-O ,  6-C ) :   0.8413 B(  6-C , 14-H ) :   0.9641 B(  6-C , 15-H ) :   0.9676
B(  6-C , 16-H ) :   0.9646

Dispersion correction           -0.003916094
FINAL SINGLE POINT ENERGY      -346.929787880335

DIPOLE MOMENT
-------------

Method             : SCF
Type of density    : Electron Density
Multiplicity       :   1
Irrep              :   0
Energy             :  -346.9366541074703036 Eh
Relativity type    :
Basis              : AO
                                X                 Y                 Z
Electronic contribution:      5.969478364      -2.550690279       0.027956414
Nuclear contribution   :     -5.910009459       3.237446101       0.293862208
                        -----------------------------------------
Total Dipole Moment    :      0.059468904       0.686755822       0.321818622
                        -----------------------------------------
Magnitude (a.u.)       :      0.760747879
Magnitude (Debye)      :      1.933667437

Rotational constants in cm-1:             0.230426             0.041654             0.038269
Rotational constants in MHz :          6907.993644          1248.749692          1147.287770

                             ****ORCA TERMINATED NORMALLY****
TOTAL RUN TIME: 0 days 0 hours 0 minutes 22 seconds 75 msec
