                         Program Version 6.0.0  -   RELEASE  -
|  1> ! r2scan-3c def2/J RI DEFGRID2 scfconv6 printgap
|  2> %output
|  3>     printlevel normal
|  4> end
|  5> %cpcm
|  6>     smd true
|  7>     smdsolvent "water"
|  8> end
|  9> * xyz 0 1
| 10> C -3.183525155 0.5745718893 0.0263807571
| 11> C -1.7824802763 0.2963849615 -0.502108606
| 12> C -0.812681116 -0.0318540615 0.6408514781
| 13> C 0.5410305621 -0.3814652647 0.0839485915
| 14> O 0.7746440198 -1.3514894008 -0.6075026264
| 15> O 1.4538294051 0.5190979951 0.4252782173
| 16> C 2.8007690379 0.3604811295 -0.0328642372
| 17> H -3.5728130609 -0.2944743715 0.5504202308
| 18> H -3.1702075401 1.4160300281 0.7142107886
| 19> H -3.8537108096 0.8104916061 -0.7955887866
| 20> H -1.4142108279 1.1688862884 -1.0453451556
| 21> H -1.8035967073 -0.5464143313 -1.1957976009
| 22> H -1.1886335026 -0.8965634899 1.1895264888
| 23> H -0.7104979447 0.8173649933 1.3148953301
| 24> H 3.0471887276 1.2242766815 -0.6473796723
| 25> H 2.8878433592 -0.5588351583 -0.6129064507
| 26> H 3.4438941939 0.3232122579 0.8440746798
| 27> *
| 28>
| 29>                          ****END OF INPUT****

CARTESIAN COORDINATES (ANGSTROEM)
---------------------------------
  C     -3.183525    0.574572    0.026381
  C     -1.782480    0.296385   -0.502109
  C     -0.812681   -0.031854    0.640851
  C      0.541031   -0.381465    0.083949
  O      0.774644   -1.351489   -0.607503
  O      1.453829    0.519098    0.425278
  C      2.800769    0.360481   -0.032864
  H     -3.572813   -0.294474    0.550420
  H     -3.170208    1.416030    0.714211
  H     -3.853711    0.810492   -0.795589
  H     -1.414211    1.168886   -1.045345
  H     -1.803597   -0.546414   -1.195798
  H     -1.188634   -0.896563    1.189526
  H     -0.710498    0.817365    1.314895
  H      3.047189    1.224277   -0.647380
  H      2.887843   -0.558835   -0.612906
  H      3.443894    0.323212    0.844075

 Total Charge           Charge          ....    0
 Multiplicity           Mult            ....    1
 Number of Electrons    NEL             ....   56
 Basis Dimension        Dim             ....  193

ORBITAL ENERGIES
----------------

  NO   OCC          E(Eh)            E(eV)
   0   2.0000     -19.004997      -517.1523
   1   2.0000     -18.942668      -515.4562
   2   2.0000     -10.162525      -276.5364
   3   2.0000     -10.074726      -274.1472
   4   2.0000     -10.035030      -273.0671
   5   2.0000     -10.029253      -272.9098
   6   2.0000     -10.011718      -272.4327
   7   2.0000      -1.079048       -29.3624
   8   2.0000      -0.989024       -26.9127
   9   2.0000      -0.766517       -20.8580
  10   2.0000      -0.708572       -19.2812
  11   2.0000      -0.653650       -17.7867
  12   2.0000      -0.563626       -15.3370
  13   2.0000      -0.529927       -14.4201
  14   2.0000      -0.471083       -12.8188
  15   2.0000      -0.458536       -12.4774
  16   2.0000      -0.450152       -12.2492
  17   2.0000      -0.425333       -11.5739
  18   2.0000      -0.392462       -10.6794
  19   2.0000      -0.388948       -10.5838
  20   2.0000      -0.364832        -9.9276
  21   2.0000      -0.346597        -9.4314
  22   2.0000      -0.328471        -8.9382
  23   2.0000      -0.314461        -8.5569
  24   2.0000      -0.305068        -8.3013
  25   2.0000      -0.298227        -8.1152
  26   2.0000      -0.278441        -7.5768
  27   2.0000      -0.252838        -6.8801
  28   0.0000      -0.022118        -0.6019
  29   0.0000       0.073229         1.9927
  30   0.0000       0.106290         2.8923
  31   0.0000       0.113617         3.0917
  32   0.0000       0.139903         3.8070

MULLIKEN ATOMIC CHARGES
-----------------------
   0 C :   -0.515187
   1 C :   -0.225845
   2 C :   -0.353670
   3 C :    0.460841
   4 O :   -0.524975
   5 O :   -0.213282
   6 C :   -0.318582
   7 H :    0.159023
   8 H :    0.157923
   9 H :    0.161842
  10 H :    0.155574
  11 H :    0.159185
  12 H :    0.186717
  13 H :    0.175288
  14 H :    0.175580
  15 H :    0.184507
  16 H :    0.175060
Sum of atomic charges:   -0.0000000

LOEWDIN ATOMIC CHARGES
----------------------
   0 C :   -0.425429
   1 C :   -0.287628
   2 C :   -0.226938
   3 C :    0.366824
   4 O :   -0.503538
   5 O :   -0.604202
   6 C :   -0.040816
   7 H :    0.154642
   8 H :    0.154866
   9 H :    0.156156
  10 H :    0.160683
  11 H :    0.161864
  12 H :    0.187724
  13 H :    0.184183
  14 H :    0.184651
  15 H :    0.191975
  16 H :    0.184984

  Mayer bond orders larger than 0.100000
B(  0-C ,  1-C ) :   0.8878 B(  0-C ,  7-H ) :   0.9836 B(  0-C ,  8-H ) :   0.9788
B(  0-C ,  9-H ) :   0.9697 B(  1-C ,  2-C ) :   0.9141 B(  1-C , 10-H ) :   0.9561
B(  1-C , 11-H ) :   0.9652 B(  2-C ,  3-C ) :   0.9799 B(  2-C , 12-H ) :   0.9562
B(  2-C , 13-H ) :   0.9683 B(  3-C ,  4-O ) :   1.7684 B(  3-C ,  5-O ) :   1.0794
B(  5-O ,  6-C ) :   0.8290 B(  6-C , 14-H ) :   0.9548 B(  6-C , 15-H ) :   0.9640
B(  6-C , 16-H ) :   0.9552

Dispersion correction           -0.003916094
FINAL SINGLE POINT ENERGY      -346.934072352690

DIPOLE MOMENT
-------------

Method             : SCF
Type of density    : Electron Density
Multiplicity       :   1
Irrep              :   0
Energy             :  -346.9409385798249446 Eh
Relativity type    :
Basis              : AO
                                X                 Y                 Z
Electronic contribution:      5.992570207      -2.251458920       0.212078042
Nuclear contribution   :     -5.910009459       3.237446101       0.293862208
                        -----------------------------------------
Total Dipole Moment    :      0.082560747       0.985987181       0.505940250
                        -----------------------------------------
Magnitude (a.u.)       :      1.111288682
Magnitude (Debye)      :      2.824671349

Rotational constants in cm-1:             0.230426             0.041654             0.038269
Rotational constants in MHz :          6907.993644          1248.749692          1147.287770

                             ****ORCA TERMINATED NORMALLY****
TOTAL RUN TIME: 0 days 0 hours 0 minutes 31 seconds 650 msec
