                         Program Version 6.0.0  -   RELEASE  -
|  1> ! pbe def2-sv(p) def2/J RI DEFGRID1 loosescf d4 GCP(DFT/SV(P)) printgap
|  2> %output
|  3>     printlevel normal
|  4> end
|  5> * xyz 0 1
|  6> C -3.8883506151 -0.6303296701 -1.6923335338
|  7> C -3.0083284151 -1.5722140496 -0.8796397912
|  8> C -2.4651571058 -1.0138326339 0.4448453538
|  9> H -1.9872159636 -1.8555955524 0.9615139624
| 10> C -3.5322454861 -0.4430302937 1.3679503783
| 11> N -1.3427446531 -0.0789117978 0.2130773562
| 12> C -0.0733165189 -0.6632977781 0.2391075535
| 13> O 0.0670474676 -1.8635897235 0.4078426207
| 14> C 1.0354400731 0.2470941028 0.0645130227
| 15> C 0.8638991913 1.577870814 -0.1343964447
| 16> N -0.420977507 2.0263863156 -0.1770078094
| 17> C -1.5531120166 1.2553306921 -0.0409864693
| 18> O -2.6435347742 1.7822834789 -0.1499240242
| 19> C 1.9333940723 2.5874243939 -0.3237876343
| 20> Br 2.7524784646 -0.5675799859 0.1301883327
| 21> H -3.3764841896 0.3007025959 -1.9175869368
| 22> H -4.1599859446 -1.1096437915 -2.6294976152
| 23> H -4.799882889 -0.393333035 -1.1522664126
| 24> H -3.5815582729 -2.4683626121 -0.6364556521
| 25> H -2.1518417922 -1.8883649075 -1.4815203244
| 26> H -4.2567586009 -1.2250329567 1.5746626441
| 27> H -3.0835752952 -0.1266221055 2.3068377249
| 28> H -4.0387207121 0.4057327239 0.9220971034
| 29> H -0.5954027491 3.0117783761 -0.3507803735
| 30> H 1.7595444817 3.440609902 0.3271846002
| 31> H 1.9265184521 2.9395621061 -1.3539409734
| 32> H 2.9093344548 2.1634188392 -0.1093824481
| 33> *
| 34>
| 35>                          ****END OF INPUT****

CARTESIAN COORDINATES (ANGSTROEM)
---------------------------------
  C     -3.888351   -0.630330   -1.692334
  C     -3.008328   -1.572214   -0.879640
  C     -2.465157   -1.013833    0.444845
  H     -1.987216   -1.855596    0.961514
  C     -3.532245   -0.443030    1.367950
  N     -1.342745   -0.078912    0.213077
  C     -0.073317   -0.663298    0.239108
  O      0.067047   -1.863590    0.407843
  C      1.035440    0.247094    0.064513
  C      0.863899    1.577871   -0.134396
  N     -0.420978    2.026386   -0.177008
  C     -1.553112    1.255331   -0.040986
  O     -2.643535    1.782283   -0.149924
  C      1.933394    2.587424   -0.323788
  Br     2.752478   -0.567580    0.130188
  H     -3.376484    0.300703   -1.917587
  H     -4.159986   -1.109644   -2.629498
  H     -4.799883   -0.393333   -1.152266
  H     -3.581558   -2.468363   -0.636456
  H     -2.151842   -1.888365   -1.481520
  H     -4.256759   -1.225033    1.574663
  H     -3.083575   -0.126622    2.306838
  H     -4.038721    0.405733    0.922097
  H     -0.595403    3.011778   -0.350780
  H      1.759544    3.440610    0.327185
  H      1.926518    2.939562   -1.353941
  H      2.909334    2.163419   -0.109382

 Total Charge           Charge          ....    0
 Multiplicity           Mult            ....    1
 Number of Electrons    NEL             ....  132
 Basis Dimension        Dim             ....  240

ORBITAL ENERGIES
----------------

  NO   OCC          E(Eh)            E(eV)
   0   2.0000    -480.941747    -13087.0903
   1   2.0000     -61.783480     -1681.2140
   2   2.0000     -55.714182     -1516.0600
   3   2.0000     -55.711048     -1515.9747
   4   2.0000     -55.710824     -1515.9686
   5   2.0000     -18.733532      -509.7653
   6   2.0000     -18.729919      -509.6670
   7   2.0000     -14.061577      -382.6350
   8   2.0000     -14.060010      -382.5923
   9   2.0000     -10.032272      -272.9920
  10   2.0000     -10.001712      -272.1604
  11   2.0000      -9.979675      -271.5608
  12   2.0000      -9.951910      -270.8052
  13   2.0000      -9.932494      -270.2769
  14   2.0000      -9.918650      -269.9002
  15   2.0000      -9.885957      -269.0106
  16   2.0000      -9.871678      -268.6220
  17   2.0000      -9.866565      -268.4829
  18   2.0000      -8.408854      -228.8166
  19   2.0000      -6.291318      -171.1955
  20   2.0000      -6.276383      -170.7891
  21   2.0000      -6.275820      -170.7737
  22   2.0000      -2.492339       -67.8200
  23   2.0000      -2.488678       -67.7204
  24   2.0000      -2.488317       -67.7105
  25   2.0000      -2.477076       -67.4047
  26   2.0000      -2.477052       -67.4040
  27   2.0000      -0.986928       -26.8557
  28   2.0000      -0.947850       -25.7923
  29   2.0000      -0.896232       -24.3877
  30   2.0000      -0.859564       -23.3899
  31   2.0000      -0.766686       -20.8626
  32   2.0000      -0.728178       -19.8147
  33   2.0000      -0.707222       -19.2445
  34   2.0000      -0.667463       -18.1626
  35   2.0000      -0.648172       -17.6376
  36   2.0000      -0.615934       -16.7604
  37   2.0000      -0.593221       -16.1424
  38   2.0000      -0.572177       -15.5697
  39   2.0000      -0.531520       -14.4634
  40   2.0000      -0.527344       -14.3498
  41   2.0000      -0.488481       -13.2922
  42   2.0000      -0.454205       -12.3596
  43   2.0000      -0.432731       -11.7752
  44   2.0000      -0.419176       -11.4064
  45   2.0000      -0.411990       -11.2108
  46   2.0000      -0.405061       -11.0223
  47   2.0000      -0.387131       -10.5344
  48   2.0000      -0.386350       -10.5131
  49   2.0000      -0.382831       -10.4174
  50   2.0000      -0.371694       -10.1143
  51   2.0000      -0.369039       -10.0421
  52   2.0000      -0.359980        -9.7956
  53   2.0000      -0.346763        -9.4359
  54   2.0000      -0.341470        -9.2919
  55   2.0000      -0.334235        -9.0950
  56   2.0000      -0.319773        -8.7015
  57   2.0000      -0.301338        -8.1998
  58   2.0000      -0.291503        -7.9322
  59   2.0000      -0.287579        -7.8254
  60   2.0000      -0.273894        -7.4530
  61   2.0000      -0.253434        -6.8963
  62   2.0000      -0.240438        -6.5427
  63   2.0000      -0.231904        -6.3104
  64   2.0000      -0.215213        -5.8562
  65   2.0000      -0.205862        -5.6018
  66   0.0000      -0.073462        -1.9990
  67   0.0000      -0.032484        -0.8839
  68   0.0000      -0.024131        -0.6566
  69   0.0000       0.016881         0.4594
  70   0.0000       0.041227         1.1218

MULLIKEN ATOMIC CHARGES
-----------------------
   0 C :   -0.284217
   1 C :   -0.157020
   2 C :   -0.063211
   3 H :    0.108606
   4 C :   -0.253969
   5 N :   -0.245964
   6 C :    0.181769
   7 O :   -0.177441
   8 C :   -0.192575
   9 C :    0.018847
  10 N :   -0.205655
  11 C :    0.176928
  12 O :   -0.206401
  13 C :   -0.214744
  14 Br:    0.009815
  15 H :    0.121451
  16 H :    0.098107
  17 H :    0.104216
  18 H :    0.090789
  19 H :    0.095119
  20 H :    0.102935
  21 H :    0.099685
  22 H :    0.146910
  23 H :    0.246326
  24 H :    0.125314
  25 H :    0.137902
  26 H :    0.136479
Sum of atomic charges:   -0.0000000

LOEWDIN ATOMIC CHARGES
----------------------
   0 C :   -0.347300
   1 C :   -0.226488
   2 C :   -0.077011
   3 H :    0.136736
   4 C :   -0.345074
   5 N :   -0.004804
   6 C :    0.020450
   7 O :   -0.167794
   8 C :   -0.216529
   9 C :   -0.004974
  10 N :   -0.088635
  11 C :    0.040276
  12 O :   -0.189308
  13 C :   -0.334312
  14 Br:    0.138293
  15 H :    0.121342
  16 H :    0.118231
  17 H :    0.119748
  18 H :    0.122429
  19 H :    0.121384
  20 H :    0.125758
  21 H :    0.122053
  22 H :    0.131813
  23 H :    0.254155
  24 H :    0.140630
  25 H :    0.147709
  26 H :    0.141221

  Mayer bond orders larger than 0.100000
B(  0-C ,  1-C ) :   1.1575 B(  0-C , 15-H ) :   0.9415 B(  0-C , 16-H ) :   0.9466
B(  0-C , 17-H ) :   0.9483 B(  1-C ,  2-C ) :   1.0991 B(  1-C , 18-H ) :   0.9211
B(  1-C , 19-H ) :   0.9182 B(  2-C ,  3-H ) :   0.8705 B(  2-C ,  4-C ) :   1.1168
B(  2-C ,  5-N ) :   0.9115 B(  4-C , 20-H ) :   0.9406 B(  4-C , 21-H ) :   0.9440
B(  4-C , 22-H ) :   0.9163 B(  5-N ,  6-C ) :   1.0334 B(  5-N , 11-C ) :   1.0859
B(  6-C ,  7-O ) :   2.0824 B(  6-C ,  8-C ) :   1.0431 B(  8-C ,  9-C ) :   1.6264
B(  8-C , 14-Br) :   1.0582 B(  9-C , 10-N ) :   1.1877 B(  9-C , 13-C ) :   1.1599
B( 10-N , 11-C ) :   1.0877 B( 10-N , 23-H ) :   0.8383 B( 11-C , 12-O ) :   2.0091
B( 13-C , 24-H ) :   0.9204 B( 13-C , 25-H ) :   0.9178 B( 13-C , 26-H ) :   0.9086

Dispersion correction           -0.034116343
FINAL SINGLE POINT ENERGY     -3182.938925676036

DIPOLE MOMENT
-------------

Method             : SCF
Type of density    : Electron Density
Multiplicity       :   1
Irrep              :   0
Energy             : -3183.0311528708771220 Eh
Relativity type    :
Basis              : AO
                                X                 Y                 Z
Electronic contribution:     49.867390650      -6.833657073       4.321351680
Nuclear contribution   :    -49.467926287       8.276800551      -4.525107963
                        -----------------------------------------
Total Dipole Moment    :      0.399464363       1.443143478      -0.203756283
                        -----------------------------------------
Magnitude (a.u.)       :      1.511208621
Magnitude (Debye)      :      3.841187051

Rotational constants in cm-1:             0.032196             0.010613             0.008786
Rotational constants in MHz :           965.202603           318.181344           263.400816

                             ****ORCA TERMINATED NORMALLY****
TOTAL RUN TIME: 0 days 0 hours 0 minutes 19 seconds 107 msec
