                         Program Version 6.0.0  -   RELEASE  -
|  1> ! r2scan-3c def2/J RI DEFGRID2 scfconv6 printgap
|  2> %output
|  3>     printlevel normal
|  4> end
|  5> * xyz 0 1
|  6> C -2.2479641715 1.1503695633 -0.3932382289
|  7> C -1.8383226063 0.0340590011 0.5719972449
|  8> C -0.5403311513 -0.5755359414 0.1088987666
|  9> O -0.4474129091 -1.6021411749 -0.533833563
| 10> O 0.4974491819 0.1665910193 0.4621677128
| 11> C 1.8147859346 -0.2323452449 0.0461362517
| 12> C 2.6467761362 1.0137369646 -0.1968005475
| 13> H -2.3627511481 0.7555751741 -1.3999684087
| 14> H -3.1936507098 1.5793316515 -0.0763112149
| 15> H -1.4929580926 1.931860119 -0.4061747893
| 16> H -2.5979058143 -0.7464554726 0.5898903227
| 17> H -1.6966364132 0.4446553239 1.5707548381
| 18> H 2.2419196165 -0.8431302953 0.8472720625
| 19> H 1.7236525736 -0.8470889166 -0.8550126759
| 20> H 2.220247538 1.6014099052 -1.0047435051
| 21> H 2.6734210634 1.6210820594 0.7030102423
| 22> H 3.6573328517 0.7228576048 -0.4636252613
| 23> *
| 24>
| 25>                          ****END OF INPUT****

CARTESIAN COORDINATES (ANGSTROEM)
---------------------------------
  C     -2.247964    1.150370   -0.393238
  C     -1.838323    0.034059    0.571997
  C     -0.540331   -0.575536    0.108899
  O     -0.447413   -1.602141   -0.533834
  O      0.497449    0.166591    0.462168
  C      1.814786   -0.232345    0.046136
  C      2.646776    1.013737   -0.196801
  H     -2.362751    0.755575   -1.399968
  H     -3.193651    1.579332   -0.076311
  H     -1.492958    1.931860   -0.406175
  H     -2.597906   -0.746455    0.589890
  H     -1.696636    0.444655    1.570755
  H      2.241920   -0.843130    0.847272
  H      1.723653   -0.847089   -0.855013
  H      2.220248    1.601410   -1.004744
  H      2.673421    1.621082    0.703010
  H      3.657333    0.722858   -0.463625

 Total Charge           Charge          ....    0
 Multiplicity           Mult            ....    1
 Number of Electrons    NEL             ....   56
 Basis Dimension        Dim             ....  193

ORBITAL ENERGIES
----------------

  NO   OCC          E(Eh)            E(eV)
   0   2.0000     -18.996495      -516.9209
   1   2.0000     -18.925655      -514.9933
   2   2.0000     -10.150493      -276.2090
   3   2.0000     -10.090866      -274.5864
   4   2.0000     -10.043029      -273.2847
   5   2.0000     -10.032494      -272.9981
   6   2.0000     -10.031783      -272.9787
   7   2.0000      -1.071261       -29.1505
   8   2.0000      -0.973338       -26.4859
   9   2.0000      -0.767072       -20.8731
  10   2.0000      -0.733184       -19.9509
  11   2.0000      -0.639108       -17.3910
  12   2.0000      -0.595942       -16.2164
  13   2.0000      -0.532509       -14.4903
  14   2.0000      -0.465059       -12.6549
  15   2.0000      -0.462210       -12.5774
  16   2.0000      -0.440296       -11.9811
  17   2.0000      -0.410773       -11.1777
  18   2.0000      -0.398838       -10.8529
  19   2.0000      -0.383673       -10.4403
  20   2.0000      -0.373861       -10.1733
  21   2.0000      -0.350103        -9.5268
  22   2.0000      -0.343138        -9.3373
  23   2.0000      -0.326864        -8.8944
  24   2.0000      -0.325675        -8.8621
  25   2.0000      -0.308455        -8.3935
  26   2.0000      -0.269844        -7.3428
  27   2.0000      -0.231826        -6.3083
  28   0.0000      -0.013227        -0.3599
  29   0.0000       0.074255         2.0206
  30   0.0000       0.095062         2.5868
  31   0.0000       0.119247         3.2449
  32   0.0000       0.121653         3.3103

MULLIKEN ATOMIC CHARGES
-----------------------
   0 C :   -0.472981
   1 C :   -0.293148
   2 C :    0.411267
   3 O :   -0.432372
   4 O :   -0.174375
   5 C :   -0.152646
   6 C :   -0.443056
   7 H :    0.158147
   8 H :    0.153367
   9 H :    0.156956
  10 H :    0.162936
  11 H :    0.151548
  12 H :    0.144490
  13 H :    0.178486
  14 H :    0.151231
  15 H :    0.152975
  16 H :    0.147175
Sum of atomic charges:   -0.0000000

LOEWDIN ATOMIC CHARGES
----------------------
   0 C :   -0.392939
   1 C :   -0.236425
   2 C :    0.356001
   3 O :   -0.434435
   4 O :   -0.598058
   5 C :    0.032834
   6 C :   -0.387490
   7 H :    0.158918
   8 H :    0.153010
   9 H :    0.157900
  10 H :    0.174421
  11 H :    0.173846
  12 H :    0.174706
  13 H :    0.191547
  14 H :    0.157997
  15 H :    0.158735
  16 H :    0.159432

  Mayer bond orders larger than 0.100000
B(  0-C ,  1-C ) :   0.8949 B(  0-C ,  7-H ) :   0.9746 B(  0-C ,  8-H ) :   0.9706
B(  0-C ,  9-H ) :   0.9771 B(  1-C ,  2-C ) :   0.9581 B(  1-C , 10-H ) :   0.9787
B(  1-C , 11-H ) :   0.9693 B(  2-C ,  3-O ) :   1.8397 B(  2-C ,  4-O ) :   1.0535
B(  4-O ,  5-C ) :   0.7887 B(  5-C ,  6-C ) :   0.9455 B(  5-C , 12-H ) :   0.9490
B(  5-C , 13-H ) :   0.9642 B(  6-C , 14-H ) :   0.9733 B(  6-C , 15-H ) :   0.9694
B(  6-C , 16-H ) :   0.9679

Dispersion correction           -0.003933904
FINAL SINGLE POINT ENERGY      -346.935044728469

DIPOLE MOMENT
-------------

Method             : SCF
Type of density    : Electron Density
Multiplicity       :   1
Irrep              :   0
Energy             :  -346.9415079016843038 Eh
Relativity type    :
Basis              : AO
                                X                 Y                 Z
Electronic contribution:     -0.816351478      -5.016550765       0.778614404
Nuclear contribution   :      1.100903753       5.814207448      -0.465369348
                        -----------------------------------------
Total Dipole Moment    :      0.284552274       0.797656683       0.313245056
                        -----------------------------------------
Magnitude (a.u.)       :      0.902966581
Magnitude (Debye)      :      2.295158649

Rotational constants in cm-1:             0.151551             0.052665             0.043594
Rotational constants in MHz :          4543.392164          1578.846259          1306.929932

                             ****ORCA TERMINATED NORMALLY****
TOTAL RUN TIME: 0 days 0 hours 0 minutes 22 seconds 555 msec
