                         Program Version 6.0.0  -   RELEASE  -
|  1> ! r2scan-3c def2/J RI DEFGRID2 scfconv6 printgap
|  2> %output
|  3>     printlevel normal
|  4> end
|  5> %cpcm
|  6>     smd true
|  7>     smdsolvent "water"
|  8> end
|  9> * xyz 0 1
| 10> C -2.2479641715 1.1503695633 -0.3932382289
| 11> C -1.8383226063 0.0340590011 0.5719972449
| 12> C -0.5403311513 -0.5755359414 0.1088987666
| 13> O -0.4474129091 -1.6021411749 -0.533833563
| 14> O 0.4974491819 0.1665910193 0.4621677128
| 15> C 1.8147859346 -0.2323452449 0.0461362517
| 16> C 2.6467761362 1.0137369646 -0.1968005475
| 17> H -2.3627511481 0.7555751741 -1.3999684087
| 18> H -3.1936507098 1.5793316515 -0.0763112149
| 19> H -1.4929580926 1.931860119 -0.4061747893
| 20> H -2.5979058143 -0.7464554726 0.5898903227
| 21> H -1.6966364132 0.4446553239 1.5707548381
| 22> H 2.2419196165 -0.8431302953 0.8472720625
| 23> H 1.7236525736 -0.8470889166 -0.8550126759
| 24> H 2.220247538 1.6014099052 -1.0047435051
| 25> H 2.6734210634 1.6210820594 0.7030102423
| 26> H 3.6573328517 0.7228576048 -0.4636252613
| 27> *
| 28>
| 29>                          ****END OF INPUT****

CARTESIAN COORDINATES (ANGSTROEM)
---------------------------------
  C     -2.247964    1.150370   -0.393238
  C     -1.838323    0.034059    0.571997
  C     -0.540331   -0.575536    0.108899
  O     -0.447413   -1.602141   -0.533834
  O      0.497449    0.166591    0.462168
  C      1.814786   -0.232345    0.046136
  C      2.646776    1.013737   -0.196801
  H     -2.362751    0.755575   -1.399968
  H     -3.193651    1.579332   -0.076311
  H     -1.492958    1.931860   -0.406175
  H     -2.597906   -0.746455    0.589890
  H     -1.696636    0.444655    1.570755
  H      2.241920   -0.843130    0.847272
  H      1.723653   -0.847089   -0.855013
  H      2.220248    1.601410   -1.004744
  H      2.673421    1.621082    0.703010
  H      3.657333    0.722858   -0.463625

 Total Charge           Charge          ....    0
 Multiplicity           Mult            ....    1
 Number of Electrons    NEL             ....   56
 Basis Dimension        Dim             ....  193

ORBITAL ENERGIES
----------------

  NO   OCC          E(Eh)            E(eV)
   0   2.0000     -19.002338      -517.0799
   1   2.0000     -18.942609      -515.4546
   2   2.0000     -10.161873      -276.5186
   3   2.0000     -10.083056      -274.3739
   4   2.0000     -10.037430      -273.1324
   5   2.0000     -10.022175      -272.7173
   6   2.0000     -10.018607      -272.6202
   7   2.0000      -1.078906       -29.3585
   8   2.0000      -0.988076       -26.8869
   9   2.0000      -0.762603       -20.7515
  10   2.0000      -0.724552       -19.7161
  11   2.0000      -0.632644       -17.2151
  12   2.0000      -0.588929       -16.0256
  13   2.0000      -0.530852       -14.4452
  14   2.0000      -0.467927       -12.7329
  15   2.0000      -0.458870       -12.4865
  16   2.0000      -0.449500       -12.2315
  17   2.0000      -0.409394       -11.1402
  18   2.0000      -0.396522       -10.7899
  19   2.0000      -0.378418       -10.2973
  20   2.0000      -0.362625        -9.8675
  21   2.0000      -0.341250        -9.2859
  22   2.0000      -0.339109        -9.2276
  23   2.0000      -0.325070        -8.8456
  24   2.0000      -0.318087        -8.6556
  25   2.0000      -0.308858        -8.4045
  26   2.0000      -0.276219        -7.5163
  27   2.0000      -0.248601        -6.7648
  28   0.0000      -0.022028        -0.5994
  29   0.0000       0.077705         2.1145
  30   0.0000       0.104670         2.8482
  31   0.0000       0.127293         3.4638
  32   0.0000       0.131114         3.5678

MULLIKEN ATOMIC CHARGES
-----------------------
   0 C :   -0.493056
   1 C :   -0.308900
   2 C :    0.449861
   3 O :   -0.520015
   4 O :   -0.190314
   5 C :   -0.146630
   6 C :   -0.487002
   7 H :    0.164592
   8 H :    0.172513
   9 H :    0.166096
  10 H :    0.173535
  11 H :    0.174980
  12 H :    0.170674
  13 H :    0.175436
  14 H :    0.164763
  15 H :    0.164997
  16 H :    0.168469
Sum of atomic charges:    0.0000000

LOEWDIN ATOMIC CHARGES
----------------------
   0 C :   -0.394046
   1 C :   -0.233808
   2 C :    0.365303
   3 O :   -0.497372
   4 O :   -0.598348
   5 C :    0.036941
   6 C :   -0.390441
   7 H :    0.160648
   8 H :    0.160318
   9 H :    0.160900
  10 H :    0.178810
  11 H :    0.183770
  12 H :    0.184403
  13 H :    0.191310
  14 H :    0.161454
  15 H :    0.162235
  16 H :    0.167922

  Mayer bond orders larger than 0.100000
B(  0-C ,  1-C ) :   0.8876 B(  0-C ,  7-H ) :   0.9712 B(  0-C ,  8-H ) :   0.9657
B(  0-C ,  9-H ) :   0.9731 B(  1-C ,  2-C ) :   0.9575 B(  1-C , 10-H ) :   0.9744
B(  1-C , 11-H ) :   0.9597 B(  2-C ,  3-O ) :   1.7663 B(  2-C ,  4-O ) :   1.0833
B(  4-O ,  5-C ) :   0.7770 B(  5-C ,  6-C ) :   0.9428 B(  5-C , 12-H ) :   0.9400
B(  5-C , 13-H ) :   0.9598 B(  6-C , 14-H ) :   0.9710 B(  6-C , 15-H ) :   0.9666
B(  6-C , 16-H ) :   0.9617

Dispersion correction           -0.003933904
FINAL SINGLE POINT ENERGY      -346.940403071396

DIPOLE MOMENT
-------------

Method             : SCF
Type of density    : Electron Density
Multiplicity       :   1
Irrep              :   0
Energy             :  -346.9468662446115559 Eh
Relativity type    :
Basis              : AO
                                X                 Y                 Z
Electronic contribution:     -0.732172360      -4.718545738       0.932181197
Nuclear contribution   :      1.100903753       5.814207448      -0.465369348
                        -----------------------------------------
Total Dipole Moment    :      0.368731393       1.095661710       0.466811849
                        -----------------------------------------
Magnitude (a.u.)       :      1.246736029
Magnitude (Debye)      :      3.168951144

Rotational constants in cm-1:             0.151551             0.052665             0.043594
Rotational constants in MHz :          4543.392164          1578.846259          1306.929932

                             ****ORCA TERMINATED NORMALLY****
TOTAL RUN TIME: 0 days 0 hours 0 minutes 25 seconds 612 msec
