                         Program Version 6.0.0  -   RELEASE  -
|  1> ! r2scan-3c def2/J RI DEFGRID2 scfconv6 printgap
|  2> %output
|  3>     printlevel normal
|  4> end
|  5> * xyz 0 1
|  6> C 2.0427508177 0.409452714 1.0059256768
|  7> C 1.2356226299 0.793884444 -0.2318992882
|  8> C 0.2383466594 -0.256276747 -0.7596490297
|  9> H 0.1152174826 -0.0498124503 -1.8308297876
| 10> C 0.79119921 -1.6773286485 -0.6477132685
| 11> C -1.1837583794 -0.1642473181 -0.161834106
| 12> C -1.2343439281 -0.1759863944 1.3638023511
| 13> C -1.9278293658 1.0639361682 -0.6885925632
| 14> H 2.6628859225 1.2527957665 1.3042211461
| 15> H 1.4033910461 0.1480368482 1.8422876978
| 16> H 2.6995041355 -0.4304465748 0.7973487983
| 17> H 1.9476283807 1.0108408655 -1.0326563076
| 18> H 0.6967908626 1.7205337479 -0.0286571333
| 19> H 1.7750064165 -1.7359612974 -1.1075155376
| 20> H 0.8744222949 -1.991035604 0.3885817934
| 21> H 0.1338422903 -2.3749112142 -1.1625694233
| 22> H -1.7233332158 -1.0502996325 -0.5190987961
| 23> H -0.8007994031 0.7329962283 1.7721055327
| 24> H -0.7069005871 -1.0355653576 1.7681565682
| 25> H -2.2696859192 -0.2317498277 1.6946115629
| 26> H -1.9452433507 1.067759808 -1.7761660831
| 27> H -1.4551589058 1.9829915293 -0.3504408235
| 28> H -2.9545796431 1.062070647 -0.3298303497
| 29> *
| 30>
| 31>                          ****END OF INPUT****

CARTESIAN COORDINATES (ANGSTROEM)
---------------------------------
  C      2.042751    0.409453    1.005926
  C      1.235623    0.793884   -0.231899
  C      0.238347   -0.256277   -0.759649
  H      0.115217   -0.049812   -1.830830
  C      0.791199   -1.677329   -0.647713
  C     -1.183758   -0.164247   -0.161834
  C     -1.234344   -0.175986    1.363802
  C     -1.927829    1.063936   -0.688593
  H      2.662886    1.252796    1.304221
  H      1.403391    0.148037    1.842288
  H      2.699504   -0.430447    0.797349
  H      1.947628    1.010841   -1.032656
  H      0.696791    1.720534   -0.028657
  H      1.775006   -1.735961   -1.107516
  H      0.874422   -1.991036    0.388582
  H      0.133842   -2.374911   -1.162569
  H     -1.723333   -1.050300   -0.519099
  H     -0.800799    0.732996    1.772106
  H     -0.706901   -1.035565    1.768157
  H     -2.269686   -0.231750    1.694612
  H     -1.945243    1.067760   -1.776166
  H     -1.455159    1.982992   -0.350441
  H     -2.954580    1.062071   -0.329830

 Total Charge           Charge          ....    0
 Multiplicity           Mult            ....    1
 Number of Electrons    NEL             ....   58
 Basis Dimension        Dim             ....  213

ORBITAL ENERGIES
----------------

  NO   OCC          E(Eh)            E(eV)
   0   2.0000     -10.028692      -272.8946
   1   2.0000     -10.027050      -272.8499
   2   2.0000     -10.020630      -272.6752
   3   2.0000     -10.012639      -272.4578
   4   2.0000     -10.011728      -272.4330
   5   2.0000     -10.011697      -272.4321
   6   2.0000     -10.011574      -272.4288
   7   2.0000      -0.787221       -21.4214
   8   2.0000      -0.726465       -19.7681
   9   2.0000      -0.683007       -18.5856
  10   2.0000      -0.648222       -17.6390
  11   2.0000      -0.607927       -16.5425
  12   2.0000      -0.559678       -15.2296
  13   2.0000      -0.492973       -13.4145
  14   2.0000      -0.444610       -12.0985
  15   2.0000      -0.423479       -11.5234
  16   2.0000      -0.412270       -11.2184
  17   2.0000      -0.383939       -10.4475
  18   2.0000      -0.378782       -10.3072
  19   2.0000      -0.356076        -9.6893
  20   2.0000      -0.352045        -9.5796
  21   2.0000      -0.345052        -9.3893
  22   2.0000      -0.342458        -9.3187
  23   2.0000      -0.317531        -8.6405
  24   2.0000      -0.308544        -8.3959
  25   2.0000      -0.307855        -8.3772
  26   2.0000      -0.276672        -7.5286
  27   2.0000      -0.273868        -7.4523
  28   2.0000      -0.265461        -7.2236
  29   0.0000       0.078149         2.1265
  30   0.0000       0.103887         2.8269
  31   0.0000       0.114595         3.1183
  32   0.0000       0.121937         3.3181
  33   0.0000       0.126707         3.4479

MULLIKEN ATOMIC CHARGES
-----------------------
   0 C :   -0.488045
   1 C :   -0.298868
   2 C :   -0.015777
   3 H :    0.152036
   4 C :   -0.538872
   5 C :   -0.039483
   6 C :   -0.536225
   7 C :   -0.499916
   8 H :    0.145460
   9 H :    0.163350
  10 H :    0.151517
  11 H :    0.148553
  12 H :    0.143473
  13 H :    0.155672
  14 H :    0.160831
  15 H :    0.146890
  16 H :    0.145857
  17 H :    0.158294
  18 H :    0.156699
  19 H :    0.145815
  20 H :    0.146568
  21 H :    0.148971
  22 H :    0.147200
Sum of atomic charges:    0.0000000

LOEWDIN ATOMIC CHARGES
----------------------
   0 C :   -0.425520
   1 C :   -0.310295
   2 C :   -0.235549
   3 H :    0.159467
   4 C :   -0.414629
   5 C :   -0.239191
   6 C :   -0.416618
   7 C :   -0.417082
   8 H :    0.151155
   9 H :    0.152277
  10 H :    0.150859
  11 H :    0.156158
  12 H :    0.154945
  13 H :    0.154307
  14 H :    0.153558
  15 H :    0.153207
  16 H :    0.157024
  17 H :    0.153569
  18 H :    0.152522
  19 H :    0.153385
  20 H :    0.152698
  21 H :    0.150951
  22 H :    0.152801

  Mayer bond orders larger than 0.100000
B(  0-C ,  1-C ) :   0.8774 B(  0-C ,  8-H ) :   0.9718 B(  0-C ,  9-H ) :   0.9823
B(  0-C , 10-H ) :   0.9717 B(  1-C ,  2-C ) :   0.8468 B(  1-C , 11-H ) :   0.9659
B(  1-C , 12-H ) :   0.9945 B(  2-C ,  3-H ) :   0.9962 B(  2-C ,  4-C ) :   0.8850
B(  2-C ,  5-C ) :   0.8777 B(  4-C , 13-H ) :   0.9827 B(  4-C , 14-H ) :   0.9770
B(  4-C , 15-H ) :   0.9757 B(  5-C ,  6-C ) :   0.8622 B(  5-C ,  7-C ) :   0.9231
B(  5-C , 16-H ) :   0.9813 B(  6-C , 17-H ) :   0.9791 B(  6-C , 18-H ) :   0.9825
B(  6-C , 19-H ) :   0.9658 B(  7-C , 20-H ) :   0.9797 B(  7-C , 21-H ) :   0.9808
B(  7-C , 22-H ) :   0.9775

Dispersion correction           -0.006725284
FINAL SINGLE POINT ENERGY      -276.282768423676

DIPOLE MOMENT
-------------

Method             : SCF
Type of density    : Electron Density
Multiplicity       :   1
Irrep              :   0
Energy             :  -276.2873882933397454 Eh
Relativity type    :
Basis              : AO
                                X                 Y                 Z
Electronic contribution:     -0.443015409      -0.081726996      -1.394198894
Nuclear contribution   :      0.424975692       0.073405018       1.341147610
                        -----------------------------------------
Total Dipole Moment    :     -0.018039718      -0.008321979      -0.053051284
                        -----------------------------------------
Magnitude (a.u.)       :      0.056649144
Magnitude (Debye)      :      0.143990681

Rotational constants in cm-1:             0.105022             0.060281             0.056110
Rotational constants in MHz :          3148.469444          1807.192267          1682.127476

                             ****ORCA TERMINATED NORMALLY****
TOTAL RUN TIME: 0 days 0 hours 0 minutes 23 seconds 566 msec
