                         Program Version 6.0.0  -   RELEASE  -
|  1> ! r2scan-3c def2/J RI DEFGRID2 scfconv6 printgap
|  2> %output
|  3>     printlevel normal
|  4> end
|  5> %cpcm
|  6>     smd true
|  7>     smdsolvent "water"
|  8> end
|  9> * xyz 0 1
| 10> C 2.0427508177 0.409452714 1.0059256768
| 11> C 1.2356226299 0.793884444 -0.2318992882
| 12> C 0.2383466594 -0.256276747 -0.7596490297
| 13> H 0.1152174826 -0.0498124503 -1.8308297876
| 14> C 0.79119921 -1.6773286485 -0.6477132685
| 15> C -1.1837583794 -0.1642473181 -0.161834106
| 16> C -1.2343439281 -0.1759863944 1.3638023511
| 17> C -1.9278293658 1.0639361682 -0.6885925632
| 18> H 2.6628859225 1.2527957665 1.3042211461
| 19> H 1.4033910461 0.1480368482 1.8422876978
| 20> H 2.6995041355 -0.4304465748 0.7973487983
| 21> H 1.9476283807 1.0108408655 -1.0326563076
| 22> H 0.6967908626 1.7205337479 -0.0286571333
| 23> H 1.7750064165 -1.7359612974 -1.1075155376
| 24> H 0.8744222949 -1.991035604 0.3885817934
| 25> H 0.1338422903 -2.3749112142 -1.1625694233
| 26> H -1.7233332158 -1.0502996325 -0.5190987961
| 27> H -0.8007994031 0.7329962283 1.7721055327
| 28> H -0.7069005871 -1.0355653576 1.7681565682
| 29> H -2.2696859192 -0.2317498277 1.6946115629
| 30> H -1.9452433507 1.067759808 -1.7761660831
| 31> H -1.4551589058 1.9829915293 -0.3504408235
| 32> H -2.9545796431 1.062070647 -0.3298303497
| 33> *
| 34>
| 35>                          ****END OF INPUT****

CARTESIAN COORDINATES (ANGSTROEM)
---------------------------------
  C      2.042751    0.409453    1.005926
  C      1.235623    0.793884   -0.231899
  C      0.238347   -0.256277   -0.759649
  H      0.115217   -0.049812   -1.830830
  C      0.791199   -1.677329   -0.647713
  C     -1.183758   -0.164247   -0.161834
  C     -1.234344   -0.175986    1.363802
  C     -1.927829    1.063936   -0.688593
  H      2.662886    1.252796    1.304221
  H      1.403391    0.148037    1.842288
  H      2.699504   -0.430447    0.797349
  H      1.947628    1.010841   -1.032656
  H      0.696791    1.720534   -0.028657
  H      1.775006   -1.735961   -1.107516
  H      0.874422   -1.991036    0.388582
  H      0.133842   -2.374911   -1.162569
  H     -1.723333   -1.050300   -0.519099
  H     -0.800799    0.732996    1.772106
  H     -0.706901   -1.035565    1.768157
  H     -2.269686   -0.231750    1.694612
  H     -1.945243    1.067760   -1.776166
  H     -1.455159    1.982992   -0.350441
  H     -2.954580    1.062071   -0.329830

 Total Charge           Charge          ....    0
 Multiplicity           Mult            ....    1
 Number of Electrons    NEL             ....   58
 Basis Dimension        Dim             ....  213

ORBITAL ENERGIES
----------------

  NO   OCC          E(Eh)            E(eV)
   0   2.0000     -10.020747      -272.6784
   1   2.0000     -10.019101      -272.6336
   2   2.0000     -10.012706      -272.4596
   3   2.0000     -10.004374      -272.2329
   4   2.0000     -10.003946      -272.2212
   5   2.0000     -10.003901      -272.2200
   6   2.0000     -10.003631      -272.2126
   7   2.0000      -0.779285       -21.2054
   8   2.0000      -0.718903       -19.5623
   9   2.0000      -0.675639       -18.3851
  10   2.0000      -0.640586       -17.4312
  11   2.0000      -0.600744       -16.3471
  12   2.0000      -0.552248       -15.0274
  13   2.0000      -0.485370       -13.2076
  14   2.0000      -0.436513       -11.8781
  15   2.0000      -0.415806       -11.3147
  16   2.0000      -0.404392       -11.0041
  17   2.0000      -0.376369       -10.2415
  18   2.0000      -0.371285       -10.1032
  19   2.0000      -0.348187        -9.4747
  20   2.0000      -0.344083        -9.3630
  21   2.0000      -0.337589        -9.1863
  22   2.0000      -0.334816        -9.1108
  23   2.0000      -0.309841        -8.4312
  24   2.0000      -0.300606        -8.1799
  25   2.0000      -0.300170        -8.1681
  26   2.0000      -0.269010        -7.3201
  27   2.0000      -0.265973        -7.2375
  28   2.0000      -0.257427        -7.0050
  29   0.0000       0.086849         2.3633
  30   0.0000       0.110319         3.0019
  31   0.0000       0.122711         3.3391
  32   0.0000       0.129469         3.5230
  33   0.0000       0.133428         3.6308

MULLIKEN ATOMIC CHARGES
-----------------------
   0 C :   -0.522003
   1 C :   -0.310793
   2 C :   -0.010244
   3 H :    0.158654
   4 C :   -0.578073
   5 C :   -0.024408
   6 C :   -0.571235
   7 C :   -0.550301
   8 H :    0.154125
   9 H :    0.170678
  10 H :    0.159256
  11 H :    0.155460
  12 H :    0.154254
  13 H :    0.164945
  14 H :    0.171248
  15 H :    0.157257
  16 H :    0.152499
  17 H :    0.167970
  18 H :    0.167258
  19 H :    0.155585
  20 H :    0.157143
  21 H :    0.162858
  22 H :    0.157866
Sum of atomic charges:    0.0000000

LOEWDIN ATOMIC CHARGES
----------------------
   0 C :   -0.432894
   1 C :   -0.313001
   2 C :   -0.234656
   3 H :    0.161192
   4 C :   -0.422691
   5 C :   -0.237663
   6 C :   -0.424349
   7 C :   -0.426612
   8 H :    0.152641
   9 H :    0.154211
  10 H :    0.152390
  11 H :    0.157385
  12 H :    0.157833
  13 H :    0.156408
  14 H :    0.156060
  15 H :    0.155009
  16 H :    0.158671
  17 H :    0.156150
  18 H :    0.155535
  19 H :    0.154831
  20 H :    0.154658
  21 H :    0.154074
  22 H :    0.154819

  Mayer bond orders larger than 0.100000
B(  0-C ,  1-C ) :   0.8705 B(  0-C ,  8-H ) :   0.9703 B(  0-C ,  9-H ) :   0.9803
B(  0-C , 10-H ) :   0.9706 B(  1-C ,  2-C ) :   0.8442 B(  1-C , 11-H ) :   0.9669
B(  1-C , 12-H ) :   0.9935 B(  2-C ,  3-H ) :   0.9966 B(  2-C ,  4-C ) :   0.8794
B(  2-C ,  5-C ) :   0.8747 B(  4-C , 13-H ) :   0.9791 B(  4-C , 14-H ) :   0.9749
B(  4-C , 15-H ) :   0.9746 B(  5-C ,  6-C ) :   0.8578 B(  5-C ,  7-C ) :   0.9113
B(  5-C , 16-H ) :   0.9826 B(  6-C , 17-H ) :   0.9773 B(  6-C , 18-H ) :   0.9781
B(  6-C , 19-H ) :   0.9649 B(  7-C , 20-H ) :   0.9775 B(  7-C , 21-H ) :   0.9792
B(  7-C , 22-H ) :   0.9757

Dispersion correction           -0.006725284
FINAL SINGLE POINT ENERGY      -276.279061130744

DIPOLE MOMENT
-------------

Method             : SCF
Type of density    : Electron Density
Multiplicity       :   1
Irrep              :   0
Energy             :  -276.2836810004079666 Eh
Relativity type    :
Basis              : AO
                                X                 Y                 Z
Electronic contribution:     -0.444109582      -0.080885834      -1.401148482
Nuclear contribution   :      0.424975692       0.073405018       1.341147610
                        -----------------------------------------
Total Dipole Moment    :     -0.019133890      -0.007480816      -0.060000872
                        -----------------------------------------
Magnitude (a.u.)       :      0.063420604
Magnitude (Debye)      :      0.161202365

Rotational constants in cm-1:             0.105022             0.060281             0.056110
Rotational constants in MHz :          3148.469444          1807.192267          1682.127476

                             ****ORCA TERMINATED NORMALLY****
TOTAL RUN TIME: 0 days 0 hours 0 minutes 27 seconds 376 msec
