                         Program Version 6.0.0  -   RELEASE  -
|  1> ! pbe def2-sv(p) def2/J RI DEFGRID1 loosescf d4 GCP(DFT/SV(P)) printgap
|  2> %output
|  3>     printlevel normal
|  4> end
|  5> * xyz 0 1
|  6> C 2.9159122472 0.2566692956 1.7427658122
|  7> C 3.099616886 -0.8726774871 0.7263750008
|  8> C 3.2510316696 -0.3054319465 -0.6650899162
|  9> O 4.3215090834 -0.3223088986 -1.2621468063
| 10> N 2.1877252243 0.316551091 -1.2314360072
| 11> C 0.8655974864 0.4414819467 -0.7816295579
| 12> C 0.2665963667 1.7008748315 -0.7740096703
| 13> C -1.0400164518 1.8531815964 -0.3538956983
| 14> C -1.7713915029 0.7495584402 0.0592288628
| 15> C -1.1893946628 -0.512335174 0.0240998193
| 16> C 0.1176220551 -0.6701440796 -0.4035116281
| 17> Cl -2.1025770399 -1.9081658559 0.4962095394
| 18> Cl -3.4077492555 0.9431199676 0.5970475319
| 19> H 2.8973665307 -0.1569594587 2.7469276168
| 20> H 1.9834758076 0.7874804777 1.5689607629
| 21> H 3.7402290109 0.9626556498 1.6753848081
| 22> H 2.2586457034 -1.5585917495 0.7835736698
| 23> H 4.0158377281 -1.4220212933 0.9467394034
| 24> H 2.4212695285 0.8473149084 -2.0637640791
| 25> H 0.8302333755 2.5636233214 -1.0896994812
| 26> H -1.5010818644 2.8265656372 -0.3386729158
| 27> H 0.5329847753 -1.6617525058 -0.463808918
| 28> *
| 29>
| 30>                          ****END OF INPUT****

CARTESIAN COORDINATES (ANGSTROEM)
---------------------------------
  C      2.915912    0.256669    1.742766
  C      3.099617   -0.872677    0.726375
  C      3.251032   -0.305432   -0.665090
  O      4.321509   -0.322309   -1.262147
  N      2.187725    0.316551   -1.231436
  C      0.865597    0.441482   -0.781630
  C      0.266596    1.700875   -0.774010
  C     -1.040016    1.853182   -0.353896
  C     -1.771392    0.749558    0.059229
  C     -1.189395   -0.512335    0.024100
  C      0.117622   -0.670144   -0.403512
  Cl    -2.102577   -1.908166    0.496210
  Cl    -3.407749    0.943120    0.597048
  H      2.897367   -0.156959    2.746928
  H      1.983476    0.787480    1.568961
  H      3.740229    0.962656    1.675385
  H      2.258646   -1.558592    0.783574
  H      4.015838   -1.422021    0.946739
  H      2.421270    0.847315   -2.063764
  H      0.830233    2.563623   -1.089699
  H     -1.501082    2.826566   -0.338673
  H      0.532985   -1.661753   -0.463809

 Total Charge           Charge          ....    0
 Multiplicity           Mult            ....    1
 Number of Electrons    NEL             ....  112
 Basis Dimension        Dim             ....  208

ORBITAL ENERGIES
----------------

  NO   OCC          E(Eh)            E(eV)
   0   2.0000    -100.655402     -2738.9727
   1   2.0000    -100.653581     -2738.9232
   2   2.0000     -18.722433      -509.4633
   3   2.0000     -14.037396      -381.9770
   4   2.0000      -9.992760      -271.9168
   5   2.0000      -9.975683      -271.4521
   6   2.0000      -9.971052      -271.3261
   7   2.0000      -9.964121      -271.1375
   8   2.0000      -9.925890      -270.0972
   9   2.0000      -9.925314      -270.0815
  10   2.0000      -9.921358      -269.9739
  11   2.0000      -9.901612      -269.4366
  12   2.0000      -9.890933      -269.1460
  13   2.0000      -9.191118      -250.1030
  14   2.0000      -9.189263      -250.0526
  15   2.0000      -7.022709      -191.0976
  16   2.0000      -7.020874      -191.0477
  17   2.0000      -7.011148      -190.7830
  18   2.0000      -7.010259      -190.7588
  19   2.0000      -7.009255      -190.7315
  20   2.0000      -7.008438      -190.7093
  21   2.0000      -0.943726       -25.6801
  22   2.0000      -0.867196       -23.5976
  23   2.0000      -0.843419       -22.9506
  24   2.0000      -0.792044       -21.5526
  25   2.0000      -0.769711       -20.9449
  26   2.0000      -0.711299       -19.3554
  27   2.0000      -0.693223       -18.8636
  28   2.0000      -0.672315       -18.2946
  29   2.0000      -0.601175       -16.3588
  30   2.0000      -0.578097       -15.7308
  31   2.0000      -0.570790       -15.5320
  32   2.0000      -0.535172       -14.5628
  33   2.0000      -0.503305       -13.6956
  34   2.0000      -0.465230       -12.6595
  35   2.0000      -0.456620       -12.4253
  36   2.0000      -0.433679       -11.8010
  37   2.0000      -0.423505       -11.5242
  38   2.0000      -0.411428       -11.1955
  39   2.0000      -0.403366       -10.9761
  40   2.0000      -0.394444       -10.7334
  41   2.0000      -0.386511       -10.5175
  42   2.0000      -0.373082       -10.1521
  43   2.0000      -0.359653        -9.7867
  44   2.0000      -0.351354        -9.5608
  45   2.0000      -0.334568        -9.1041
  46   2.0000      -0.331458        -9.0194
  47   2.0000      -0.317623        -8.6430
  48   2.0000      -0.314042        -8.5455
  49   2.0000      -0.307466        -8.3666
  50   2.0000      -0.292901        -7.9702
  51   2.0000      -0.269814        -7.3420
  52   2.0000      -0.259180        -7.0526
  53   2.0000      -0.241968        -6.5843
  54   2.0000      -0.214154        -5.8274
  55   2.0000      -0.204211        -5.5569
  56   0.0000      -0.068538        -1.8650
  57   0.0000      -0.066661        -1.8139
  58   0.0000      -0.027668        -0.7529
  59   0.0000      -0.012175        -0.3313
  60   0.0000       0.027772         0.7557

MULLIKEN ATOMIC CHARGES
-----------------------
   0 C :   -0.310258
   1 C :   -0.175339
   2 C :    0.036221
   3 O :   -0.206105
   4 N :   -0.200621
   5 C :    0.177117
   6 C :   -0.094477
   7 C :   -0.109874
   8 C :    0.088124
   9 C :    0.071228
  10 C :   -0.154576
  11 Cl:   -0.048720
  12 Cl:   -0.051896
  13 H :    0.116316
  14 H :    0.132727
  15 H :    0.116298
  16 H :    0.104982
  17 H :    0.105236
  18 H :    0.236499
  19 H :    0.047636
  20 H :    0.060073
  21 H :    0.059408
Sum of atomic charges:   -0.0000000

LOEWDIN ATOMIC CHARGES
----------------------
   0 C :   -0.334572
   1 C :   -0.254998
   2 C :    0.028584
   3 O :   -0.191716
   4 N :   -0.116660
   5 C :   -0.007923
   6 C :   -0.132417
   7 C :   -0.124636
   8 C :   -0.160423
   9 C :   -0.147515
  10 C :   -0.144546
  11 Cl:    0.147815
  12 Cl:    0.144182
  13 H :    0.126514
  14 H :    0.123373
  15 H :    0.125866
  16 H :    0.128192
  17 H :    0.137575
  18 H :    0.243506
  19 H :    0.132606
  20 H :    0.137939
  21 H :    0.139254

  Mayer bond orders larger than 0.100000
B(  0-C ,  1-C ) :   1.1281 B(  0-C , 13-H ) :   0.9483 B(  0-C , 14-H ) :   0.9456
B(  0-C , 15-H ) :   0.9517 B(  1-C ,  2-C ) :   1.0391 B(  1-C , 16-H ) :   0.8916
B(  1-C , 17-H ) :   0.9040 B(  2-C ,  3-O ) :   2.1076 B(  2-C ,  4-N ) :   1.1558
B(  4-N ,  5-C ) :   0.9906 B(  4-N , 18-H ) :   0.8417 B(  5-C ,  6-C ) :   1.3417
B(  5-C , 10-C ) :   1.3240 B(  6-C ,  7-C ) :   1.3385 B(  6-C , 19-H ) :   0.9693
B(  7-C ,  8-C ) :   1.3707 B(  7-C , 20-H ) :   0.9636 B(  8-C ,  9-C ) :   1.4149
B(  8-C , 12-Cl) :   1.0383 B(  9-C , 10-C ) :   1.3638 B(  9-C , 11-Cl) :   1.0365
B( 10-C , 21-H ) :   0.9573

Dispersion correction           -0.029384752
FINAL SINGLE POINT ENERGY     -1397.087113853818

DIPOLE MOMENT
-------------

Method             : SCF
Type of density    : Electron Density
Multiplicity       :   1
Irrep              :   0
Energy             : -1397.1454865339278513 Eh
Relativity type    :
Basis              : AO
                                X                 Y                 Z
Electronic contribution:    -24.083620580      -3.692056575      -1.870906572
Nuclear contribution   :     23.588838698       4.283455739       2.039996746
                        -----------------------------------------
Total Dipole Moment    :     -0.494781881       0.591399164       0.169090174
                        -----------------------------------------
Magnitude (a.u.)       :      0.789400766
Magnitude (Debye)      :      2.006497287

Rotational constants in cm-1:             0.039679             0.010830             0.009689
Rotational constants in MHz :          1189.558917           324.679413           290.454064

                             ****ORCA TERMINATED NORMALLY****
TOTAL RUN TIME: 0 days 0 hours 0 minutes 17 seconds 696 msec
