                         Program Version 6.0.0  -   RELEASE  -
|  1> ! r2scan-3c def2/J RI DEFGRID2 scfconv6 printgap
|  2> %output
|  3>     printlevel normal
|  4> end
|  5> * xyz 0 1
|  6> C 2.3515383463 -0.2890183828 -0.0553991638
|  7> C 0.8495815953 -0.5429132168 0.0052319819
|  8> C 0.0642334931 0.7642685991 -0.0468486552
|  9> C -1.4253733338 0.6216634721 0.0082647275
| 10> C -2.1130460081 -0.5018926418 0.0941152182
| 11> H 2.6686247257 0.3278152335 0.7827376421
| 12> H 2.6150814678 0.2244552398 -0.977549277
| 13> H 2.8991842026 -1.2274853564 -0.0168849772
| 14> H 0.5558752823 -1.1757826339 -0.8345085964
| 15> H 0.6097536928 -1.0729868807 0.9290360654
| 16> H 0.3196817942 1.3016666303 -0.9659371232
| 17> H 0.3744217837 1.4041749719 0.785676004
| 18> H -1.9561388392 1.5658318473 -0.0292461501
| 19> H -3.1893992081 -0.4996043662 0.1279063136
| 20> H -1.6432006882 -1.4690074754 0.1348507727
| 21> *
| 22>
| 23>                          ****END OF INPUT****

CARTESIAN COORDINATES (ANGSTROEM)
---------------------------------
  C      2.351538   -0.289018   -0.055399
  C      0.849582   -0.542913    0.005232
  C      0.064233    0.764269   -0.046849
  C     -1.425373    0.621663    0.008265
  C     -2.113046   -0.501893    0.094115
  H      2.668625    0.327815    0.782738
  H      2.615081    0.224455   -0.977549
  H      2.899184   -1.227485   -0.016885
  H      0.555875   -1.175783   -0.834509
  H      0.609754   -1.072987    0.929036
  H      0.319682    1.301667   -0.965937
  H      0.374422    1.404175    0.785676
  H     -1.956139    1.565832   -0.029246
  H     -3.189399   -0.499604    0.127906
  H     -1.643201   -1.469007    0.134851

 Total Charge           Charge          ....    0
 Multiplicity           Mult            ....    1
 Number of Electrons    NEL             ....   40
 Basis Dimension        Dim             ....  145

ORBITAL ENERGIES
----------------

  NO   OCC          E(Eh)            E(eV)
   0   2.0000     -10.032020      -272.9851
   1   2.0000     -10.031284      -272.9651
   2   2.0000     -10.026142      -272.8252
   3   2.0000     -10.017496      -272.5899
   4   2.0000     -10.014714      -272.5142
   5   2.0000      -0.775914       -21.1137
   6   2.0000      -0.719323       -19.5738
   7   2.0000      -0.645992       -17.5783
   8   2.0000      -0.572626       -15.5820
   9   2.0000      -0.505302       -13.7500
  10   2.0000      -0.436808       -11.8862
  11   2.0000      -0.434854       -11.8330
  12   2.0000      -0.405932       -11.0460
  13   2.0000      -0.364219        -9.9109
  14   2.0000      -0.357763        -9.7352
  15   2.0000      -0.342272        -9.3137
  16   2.0000      -0.308635        -8.3984
  17   2.0000      -0.303989        -8.2720
  18   2.0000      -0.290366        -7.9012
  19   2.0000      -0.234858        -6.3908
  20   0.0000      -0.006637        -0.1806
  21   0.0000       0.095671         2.6033
  22   0.0000       0.113530         3.0893
  23   0.0000       0.125244         3.4081
  24   0.0000       0.146984         3.9996

MULLIKEN ATOMIC CHARGES
-----------------------
   0 C :   -0.462819
   1 C :   -0.286211
   2 C :   -0.214891
   3 C :   -0.144175
   4 C :   -0.324510
   5 H :    0.140250
   6 H :    0.140281
   7 H :    0.147616
   8 H :    0.146613
   9 H :    0.146709
  10 H :    0.142754
  11 H :    0.142671
  12 H :    0.147699
  13 H :    0.137896
  14 H :    0.140117
Sum of atomic charges:    0.0000000

LOEWDIN ATOMIC CHARGES
----------------------
   0 C :   -0.423411
   1 C :   -0.315548
   2 C :   -0.302015
   3 C :   -0.192199
   4 C :   -0.325828
   5 H :    0.149978
   6 H :    0.149982
   7 H :    0.150617
   8 H :    0.154580
   9 H :    0.154588
  10 H :    0.164195
  11 H :    0.164167
  12 H :    0.158846
  13 H :    0.156345
  14 H :    0.155703

  Mayer bond orders larger than 0.100000
B(  0-C ,  1-C ) :   0.9123 B(  0-C ,  5-H ) :   0.9818 B(  0-C ,  6-H ) :   0.9818
B(  0-C ,  7-H ) :   0.9764 B(  1-C ,  2-C ) :   0.9052 B(  1-C ,  8-H ) :   0.9690
B(  1-C ,  9-H ) :   0.9693 B(  2-C ,  3-C ) :   0.9545 B(  2-C , 10-H ) :   0.9653
B(  2-C , 11-H ) :   0.9655 B(  3-C ,  4-C ) :   1.9435 B(  3-C , 12-H ) :   0.9383
B(  4-C , 13-H ) :   0.9609 B(  4-C , 14-H ) :   0.9666

Dispersion correction           -0.003274110
FINAL SINGLE POINT ENERGY      -196.457962498884

DIPOLE MOMENT
-------------

Method             : SCF
Type of density    : Electron Density
Multiplicity       :   1
Irrep              :   0
Energy             :  -196.4605937332782730 Eh
Relativity type    :
Basis              : AO
                                X                 Y                 Z
Electronic contribution:     -2.884467407       0.667512727       0.049815117
Nuclear contribution   :      3.052701288      -0.582532037      -0.059967287
                        -----------------------------------------
Total Dipole Moment    :      0.168233881       0.084980690      -0.010152170
                        -----------------------------------------
Magnitude (a.u.)       :      0.188752279
Magnitude (Debye)      :      0.479770166

Rotational constants in cm-1:             0.469912             0.084596             0.074673
Rotational constants in MHz :         14087.617194          2536.132024          2238.630689

                             ****ORCA TERMINATED NORMALLY****
TOTAL RUN TIME: 0 days 0 hours 0 minutes 12 seconds 800 msec
