                         Program Version 6.0.0  -   RELEASE  -
|  1> ! r2scan-3c def2/J RI DEFGRID2 scfconv6 printgap
|  2> %output
|  3>     printlevel normal
|  4> end
|  5> %cpcm
|  6>     smd true
|  7>     smdsolvent "water"
|  8> end
|  9> * xyz 0 1
| 10> C 2.3515383463 -0.2890183828 -0.0553991638
| 11> C 0.8495815953 -0.5429132168 0.0052319819
| 12> C 0.0642334931 0.7642685991 -0.0468486552
| 13> C -1.4253733338 0.6216634721 0.0082647275
| 14> C -2.1130460081 -0.5018926418 0.0941152182
| 15> H 2.6686247257 0.3278152335 0.7827376421
| 16> H 2.6150814678 0.2244552398 -0.977549277
| 17> H 2.8991842026 -1.2274853564 -0.0168849772
| 18> H 0.5558752823 -1.1757826339 -0.8345085964
| 19> H 0.6097536928 -1.0729868807 0.9290360654
| 20> H 0.3196817942 1.3016666303 -0.9659371232
| 21> H 0.3744217837 1.4041749719 0.785676004
| 22> H -1.9561388392 1.5658318473 -0.0292461501
| 23> H -3.1893992081 -0.4996043662 0.1279063136
| 24> H -1.6432006882 -1.4690074754 0.1348507727
| 25> *
| 26>
| 27>                          ****END OF INPUT****

CARTESIAN COORDINATES (ANGSTROEM)
---------------------------------
  C      2.351538   -0.289018   -0.055399
  C      0.849582   -0.542913    0.005232
  C      0.064233    0.764269   -0.046849
  C     -1.425373    0.621663    0.008265
  C     -2.113046   -0.501893    0.094115
  H      2.668625    0.327815    0.782738
  H      2.615081    0.224455   -0.977549
  H      2.899184   -1.227485   -0.016885
  H      0.555875   -1.175783   -0.834509
  H      0.609754   -1.072987    0.929036
  H      0.319682    1.301667   -0.965937
  H      0.374422    1.404175    0.785676
  H     -1.956139    1.565832   -0.029246
  H     -3.189399   -0.499604    0.127906
  H     -1.643201   -1.469007    0.134851

 Total Charge           Charge          ....    0
 Multiplicity           Mult            ....    1
 Number of Electrons    NEL             ....   40
 Basis Dimension        Dim             ....  145

ORBITAL ENERGIES
----------------

  NO   OCC          E(Eh)            E(eV)
   0   2.0000     -10.030501      -272.9438
   1   2.0000     -10.023084      -272.7420
   2   2.0000     -10.017673      -272.5947
   3   2.0000     -10.012112      -272.4434
   4   2.0000     -10.008336      -272.3407
   5   2.0000      -0.770503       -20.9664
   6   2.0000      -0.714466       -19.4416
   7   2.0000      -0.640171       -17.4199
   8   2.0000      -0.565467       -15.3871
   9   2.0000      -0.500102       -13.6085
  10   2.0000      -0.430834       -11.7236
  11   2.0000      -0.428409       -11.6576
  12   2.0000      -0.400089       -10.8870
  13   2.0000      -0.356146        -9.6912
  14   2.0000      -0.351019        -9.5517
  15   2.0000      -0.336162        -9.1474
  16   2.0000      -0.301007        -8.1908
  17   2.0000      -0.295143        -8.0313
  18   2.0000      -0.283590        -7.7169
  19   2.0000      -0.236317        -6.4305
  20   0.0000      -0.007299        -0.1986
  21   0.0000       0.102742         2.7958
  22   0.0000       0.121132         3.2962
  23   0.0000       0.133351         3.6287
  24   0.0000       0.153997         4.1905

MULLIKEN ATOMIC CHARGES
-----------------------
   0 C :   -0.505020
   1 C :   -0.271677
   2 C :   -0.237918
   3 C :   -0.172354
   4 C :   -0.402822
   5 H :    0.152610
   6 H :    0.152584
   7 H :    0.157322
   8 H :    0.151172
   9 H :    0.151262
  10 H :    0.161656
  11 H :    0.161607
  12 H :    0.173072
  13 H :    0.163752
  14 H :    0.164755
Sum of atomic charges:   -0.0000000

LOEWDIN ATOMIC CHARGES
----------------------
   0 C :   -0.431407
   1 C :   -0.316258
   2 C :   -0.305167
   3 C :   -0.197184
   4 C :   -0.352224
   5 H :    0.152992
   6 H :    0.152977
   7 H :    0.152689
   8 H :    0.155952
   9 H :    0.155946
  10 H :    0.170749
  11 H :    0.170734
  12 H :    0.166398
  13 H :    0.161932
  14 H :    0.161871

  Mayer bond orders larger than 0.100000
B(  0-C ,  1-C ) :   0.9051 B(  0-C ,  5-H ) :   0.9794 B(  0-C ,  6-H ) :   0.9793
B(  0-C ,  7-H ) :   0.9740 B(  1-C ,  2-C ) :   0.9000 B(  1-C ,  8-H ) :   0.9674
B(  1-C ,  9-H ) :   0.9678 B(  2-C ,  3-C ) :   0.9355 B(  2-C , 10-H ) :   0.9625
B(  2-C , 11-H ) :   0.9628 B(  3-C ,  4-C ) :   1.9024 B(  3-C , 12-H ) :   0.9401
B(  4-C , 13-H ) :   0.9613 B(  4-C , 14-H ) :   0.9672

Dispersion correction           -0.003274110
FINAL SINGLE POINT ENERGY      -196.456326866213

DIPOLE MOMENT
-------------

Method             : SCF
Type of density    : Electron Density
Multiplicity       :   1
Irrep              :   0
Energy             :  -196.4589581006077879 Eh
Relativity type    :
Basis              : AO
                                X                 Y                 Z
Electronic contribution:     -2.818836075       0.735564756       0.043978246
Nuclear contribution   :      3.052701288      -0.582532037      -0.059967287
                        -----------------------------------------
Total Dipole Moment    :      0.233865214       0.153032718      -0.015989041
                        -----------------------------------------
Magnitude (a.u.)       :      0.279942138
Magnitude (Debye)      :      0.711556366

Rotational constants in cm-1:             0.469912             0.084596             0.074673
Rotational constants in MHz :         14087.617194          2536.132024          2238.630689

                             ****ORCA TERMINATED NORMALLY****
TOTAL RUN TIME: 0 days 0 hours 0 minutes 15 seconds 132 msec
