                         Program Version 6.0.0  -   RELEASE  -
|  1> ! pbe def2-sv(p) def2/J RI DEFGRID1 loosescf d4 GCP(DFT/SV(P)) printgap
|  2> %output
|  3>     printlevel normal
|  4> end
|  5> * xyz 0 1
|  6> C 2.0519330419 -1.0167187741 -0.1446396778
|  7> O 0.8297460238 -0.6336705945 -0.7938640151
|  8> S -0.073765374 0.4564721029 -0.1062661741
|  9> O -0.2849299786 1.5314066898 -1.0231492341
| 10> O 0.4512939356 0.773134706 1.189994286
| 11> O -1.4475243394 -0.2771025651 0.0165724354
| 12> C -1.4702374544 -1.3697961008 0.9477137368
| 13> H 2.5977189889 -1.6021600784 -0.8805539641
| 14> H 1.8292381063 -1.6081418576 0.7423207376
| 15> H 2.6082628046 -0.1266805531 0.1413287749
| 16> H -0.9261782425 -1.0730096122 1.8438116997
| 17> H -1.0103511252 -2.2420939747 0.4843051857
| 18> H -2.5181419524 -1.5550862513 1.1696610347
| 19> *
| 20>
| 21>                          ****END OF INPUT****

CARTESIAN COORDINATES (ANGSTROEM)
---------------------------------
  C      2.051933   -1.016719   -0.144640
  O      0.829746   -0.633671   -0.793864
  S     -0.073765    0.456472   -0.106266
  O     -0.284930    1.531407   -1.023149
  O      0.451294    0.773135    1.189994
  O     -1.447524   -0.277103    0.016572
  C     -1.470237   -1.369796    0.947714
  H      2.597719   -1.602160   -0.880554
  H      1.829238   -1.608142    0.742321
  H      2.608263   -0.126681    0.141329
  H     -0.926178   -1.073010    1.843812
  H     -1.010351   -2.242094    0.484305
  H     -2.518142   -1.555086    1.169661

 Total Charge           Charge          ....    0
 Multiplicity           Mult            ....    1
 Number of Electrons    NEL             ....   66
 Basis Dimension        Dim             ....  114

ORBITAL ENERGIES
----------------

  NO   OCC          E(Eh)            E(eV)
   0   2.0000     -88.285349     -2402.3665
   1   2.0000     -18.821963      -512.1717
   2   2.0000     -18.820014      -512.1186
   3   2.0000     -18.757092      -510.4064
   4   2.0000     -18.746086      -510.1069
   5   2.0000      -9.964974      -271.1607
   6   2.0000      -9.963284      -271.1147
   7   2.0000      -7.895838      -214.8567
   8   2.0000      -5.923563      -161.1884
   9   2.0000      -5.922806      -161.1677
  10   2.0000      -5.920016      -161.0918
  11   2.0000      -1.100982       -29.9593
  12   2.0000      -0.986097       -26.8331
  13   2.0000      -0.956512       -26.0280
  14   2.0000      -0.925020       -25.1711
  15   2.0000      -0.701994       -19.1022
  16   2.0000      -0.666957       -18.1488
  17   2.0000      -0.556791       -15.1511
  18   2.0000      -0.524452       -14.2711
  19   2.0000      -0.466930       -12.7058
  20   2.0000      -0.462228       -12.5779
  21   2.0000      -0.437577       -11.9071
  22   2.0000      -0.435512       -11.8509
  23   2.0000      -0.426724       -11.6118
  24   2.0000      -0.389047       -10.5865
  25   2.0000      -0.358558        -9.7568
  26   2.0000      -0.346577        -9.4308
  27   2.0000      -0.315972        -8.5980
  28   2.0000      -0.310539        -8.4502
  29   2.0000      -0.309935        -8.4338
  30   2.0000      -0.277587        -7.5535
  31   2.0000      -0.265184        -7.2160
  32   2.0000      -0.251163        -6.8345
  33   0.0000       0.010940         0.2977
  34   0.0000       0.028944         0.7876
  35   0.0000       0.053344         1.4516
  36   0.0000       0.060875         1.6565
  37   0.0000       0.073251         1.9933

MULLIKEN ATOMIC CHARGES
-----------------------
   0 C :   -0.115117
   1 O :   -0.388432
   2 S :    0.937884
   3 O :   -0.360004
   4 O :   -0.396566
   5 O :   -0.353520
   6 C :   -0.135586
   7 H :    0.139197
   8 H :    0.120959
   9 H :    0.141402
  10 H :    0.137721
  11 H :    0.126983
  12 H :    0.145078
Sum of atomic charges:    0.0000000

LOEWDIN ATOMIC CHARGES
----------------------
   0 C :   -0.213974
   1 O :   -0.277440
   2 S :    1.117994
   3 O :   -0.431254
   4 O :   -0.449597
   5 O :   -0.253854
   6 C :   -0.228157
   7 H :    0.130340
   8 H :    0.113683
   9 H :    0.123337
  10 H :    0.119346
  11 H :    0.116048
  12 H :    0.133528

  Mayer bond orders larger than 0.100000
B(  0-C ,  1-O ) :   0.9008 B(  0-C ,  7-H ) :   0.9527 B(  0-C ,  8-H ) :   0.9550
B(  0-C ,  9-H ) :   0.9504 B(  1-O ,  2-S ) :   1.0162 B(  2-S ,  3-O ) :   1.8650
B(  2-S ,  4-O ) :   1.7526 B(  2-S ,  5-O ) :   1.0526 B(  5-O ,  6-C ) :   0.9050
B(  6-C , 10-H ) :   0.9337 B(  6-C , 11-H ) :   0.9506 B(  6-C , 12-H ) :   0.9556

Dispersion correction           -0.011831423
FINAL SINGLE POINT ENERGY      -777.742216811153

DIPOLE MOMENT
-------------

Method             : SCF
Type of density    : Electron Density
Multiplicity       :   1
Irrep              :   0
Energy             :  -777.8011122670582154 Eh
Relativity type    :
Basis              : AO
                                X                 Y                 Z
Electronic contribution:     -2.045905654       5.985648024      -2.739860628
Nuclear contribution   :      2.416431370      -7.692203722       3.278432435
                        -----------------------------------------
Total Dipole Moment    :      0.370525715      -1.706555698       0.538571806
                        -----------------------------------------
Magnitude (a.u.)       :      1.827479479
Magnitude (Debye)      :      4.645083685

Rotational constants in cm-1:             0.098344             0.080578             0.060925
Rotational constants in MHz :          2948.272744          2415.658073          1826.487674

                             ****ORCA TERMINATED NORMALLY****
TOTAL RUN TIME: 0 days 0 hours 0 minutes 7 seconds 461 msec
