                         Program Version 6.0.0  -   RELEASE  -
|  1> ! pbe def2-sv(p) def2/J RI DEFGRID1 loosescf d4 GCP(DFT/SV(P)) printgap
|  2> %output
|  3>     printlevel normal
|  4> end
|  5> * xyz 0 1
|  6> C 2.8305330688 -0.3540314465 0.1383811636
|  7> C 1.4204566476 -0.5602236286 -0.4037875976
|  8> C 0.413395014 0.3396095727 0.3084494101
|  9> C -0.9946446646 0.2789622627 -0.2971868247
| 10> H -0.930656584 0.504298499 -1.3755243988
| 11> C -1.6510146628 -1.0859437916 -0.1177346635
| 12> O -1.8532503048 1.2283360445 0.3201325076
| 13> H 2.8641539003 -0.5755927031 1.2025046938
| 14> H 3.1506876104 0.6751635372 -0.0074052594
| 15> H 3.5334607494 -1.0078222713 -0.371525946
| 16> H 1.4057521091 -0.3392195192 -1.4735533889
| 17> H 1.1376841323 -1.6053855976 -0.2743746273
| 18> H 0.3512542661 0.0658673964 1.3639662633
| 19> H 0.7695036632 1.3724042381 0.2538158891
| 20> H -1.1245876429 -1.8409889976 -0.6914117332
| 21> H -1.6507160414 -1.3591443197 0.9340693413
| 22> H -2.6813833364 -1.0332833985 -0.4590662531
| 23> H -1.4635275546 2.1097538973 0.2483464431
| 24> *
| 25>
| 26>                          ****END OF INPUT****

CARTESIAN COORDINATES (ANGSTROEM)
---------------------------------
  C      2.830533   -0.354031    0.138381
  C      1.420457   -0.560224   -0.403788
  C      0.413395    0.339610    0.308449
  C     -0.994645    0.278962   -0.297187
  H     -0.930657    0.504298   -1.375524
  C     -1.651015   -1.085944   -0.117735
  O     -1.853250    1.228336    0.320133
  H      2.864154   -0.575593    1.202505
  H      3.150688    0.675164   -0.007405
  H      3.533461   -1.007822   -0.371526
  H      1.405752   -0.339220   -1.473553
  H      1.137684   -1.605386   -0.274375
  H      0.351254    0.065867    1.363966
  H      0.769504    1.372404    0.253816
  H     -1.124588   -1.840989   -0.691412
  H     -1.650716   -1.359144    0.934069
  H     -2.681383   -1.033283   -0.459066
  H     -1.463528    2.109754    0.248346

 Total Charge           Charge          ....    0
 Multiplicity           Mult            ....    1
 Number of Electrons    NEL             ....   50
 Basis Dimension        Dim             ....  108

ORBITAL ENERGIES
----------------

  NO   OCC          E(Eh)            E(eV)
   0   2.0000     -18.733598      -509.7671
   1   2.0000      -9.933534      -270.3052
   2   2.0000      -9.887051      -269.0403
   3   2.0000      -9.881937      -268.9012
   4   2.0000      -9.875224      -268.7185
   5   2.0000      -9.869150      -268.5532
   6   2.0000      -0.911223       -24.7957
   7   2.0000      -0.720126       -19.5956
   8   2.0000      -0.667336       -18.1591
   9   2.0000      -0.608452       -16.5568
  10   2.0000      -0.538271       -14.6471
  11   2.0000      -0.510692       -13.8966
  12   2.0000      -0.458634       -12.4801
  13   2.0000      -0.423800       -11.5322
  14   2.0000      -0.400325       -10.8934
  15   2.0000      -0.374326       -10.1859
  16   2.0000      -0.349042        -9.4979
  17   2.0000      -0.337985        -9.1970
  18   2.0000      -0.332150        -9.0383
  19   2.0000      -0.320321        -8.7164
  20   2.0000      -0.310084        -8.4378
  21   2.0000      -0.293358        -7.9827
  22   2.0000      -0.288456        -7.8493
  23   2.0000      -0.262261        -7.1365
  24   2.0000      -0.207146        -5.6367
  25   0.0000       0.028879         0.7858
  26   0.0000       0.045961         1.2507
  27   0.0000       0.064883         1.7656
  28   0.0000       0.067187         1.8283
  29   0.0000       0.084587         2.3017

MULLIKEN ATOMIC CHARGES
-----------------------
   0 C :   -0.257682
   1 C :   -0.212564
   2 C :   -0.169539
   3 C :    0.034827
   4 H :    0.053880
   5 C :   -0.252946
   6 O :   -0.428112
   7 H :    0.098720
   8 H :    0.097193
   9 H :    0.102124
  10 H :    0.084423
  11 H :    0.096859
  12 H :    0.083175
  13 H :    0.064325
  14 H :    0.106191
  15 H :    0.097869
  16 H :    0.109549
  17 H :    0.291708
Sum of atomic charges:    0.0000000

LOEWDIN ATOMIC CHARGES
----------------------
   0 C :   -0.338511
   1 C :   -0.235779
   2 C :   -0.240090
   3 C :   -0.056249
   4 H :    0.092488
   5 C :   -0.341006
   6 O :   -0.337211
   7 H :    0.117925
   8 H :    0.116026
   9 H :    0.118787
  10 H :    0.114031
  11 H :    0.116813
  12 H :    0.117388
  13 H :    0.107055
  14 H :    0.121597
  15 H :    0.121769
  16 H :    0.126084
  17 H :    0.278883

  Mayer bond orders larger than 0.100000
B(  0-C ,  1-C ) :   1.1511 B(  0-C ,  7-H ) :   0.9548 B(  0-C ,  8-H ) :   0.9549
B(  0-C ,  9-H ) :   0.9526 B(  1-C ,  2-C ) :   1.1126 B(  1-C , 10-H ) :   0.9253
B(  1-C , 11-H ) :   0.9212 B(  2-C ,  3-C ) :   1.0704 B(  2-C , 12-H ) :   0.9093
B(  2-C , 13-H ) :   0.9172 B(  3-C ,  4-H ) :   0.9098 B(  3-C ,  5-C ) :   1.1122
B(  3-C ,  6-O ) :   1.0582 B(  5-C , 14-H ) :   0.9424 B(  5-C , 15-H ) :   0.9446
B(  5-C , 16-H ) :   0.9432 B(  6-O , 17-H ) :   0.8530

Dispersion correction           -0.012333347
FINAL SINGLE POINT ENERGY      -272.305385032868

DIPOLE MOMENT
-------------

Method             : SCF
Type of density    : Electron Density
Multiplicity       :   1
Irrep              :   0
Energy             :  -272.3751219361741391 Eh
Relativity type    :
Basis              : AO
                                X                 Y                 Z
Electronic contribution:     -4.480037846       2.985839485       0.369062270
Nuclear contribution   :      5.002578746      -2.828111764      -0.605204593
                        -----------------------------------------
Total Dipole Moment    :      0.522540900       0.157727721      -0.236142324
                        -----------------------------------------
Magnitude (a.u.)       :      0.594718609
Magnitude (Debye)      :      1.511654570

Rotational constants in cm-1:             0.234622             0.057909             0.049944
Rotational constants in MHz :          7033.783225          1736.073718          1497.284718

                             ****ORCA TERMINATED NORMALLY****
TOTAL RUN TIME: 0 days 0 hours 0 minutes 7 seconds 606 msec
