                         Program Version 6.0.0  -   RELEASE  -
|  1> ! r2scan-3c def2/J RI DEFGRID2 scfconv6 printgap
|  2> %output
|  3>     printlevel normal
|  4> end
|  5> * xyz 0 1
|  6> C -2.0840284102 0.6222931176 -0.6679220418
|  7> C -1.3936925886 0.3202119829 0.6589191469
|  8> C 0.0366048559 -0.2315643559 0.5249193829
|  9> C 0.9630445543 0.7081566345 -0.2577654417
| 10> C 2.4240507842 0.2945379134 -0.1205410864
| 11> O 0.0470970304 -1.5401925587 -0.0179220568
| 12> H -3.0975954698 0.9672639287 -0.4796226652
| 13> H -1.5577898247 1.3995536497 -1.2152140533
| 14> H -2.1454322912 -0.2678401269 -1.2895136396
| 15> H -1.3499525635 1.2287062291 1.2612955475
| 16> H -1.9810356879 -0.418847013 1.2084926743
| 17> H 0.4424279031 -0.3639086125 1.5357373045
| 18> H 0.6829107152 0.6905438345 -1.3127716425
| 19> H 0.8287801469 1.7240959205 0.1156201135
| 20> H 2.5453377039 -0.747245425 -0.4086219071
| 21> H 3.0571482404 0.9096767912 -0.7547047054
| 22> H 2.7546088796 0.4024809402 0.9099597457
| 23> H -0.2832676063 -1.4966169118 -0.9260403155
| 24> *
| 25>
| 26>                          ****END OF INPUT****

CARTESIAN COORDINATES (ANGSTROEM)
---------------------------------
  C     -2.084028    0.622293   -0.667922
  C     -1.393693    0.320212    0.658919
  C      0.036605   -0.231564    0.524919
  C      0.963045    0.708157   -0.257765
  C      2.424051    0.294538   -0.120541
  O      0.047097   -1.540193   -0.017922
  H     -3.097595    0.967264   -0.479623
  H     -1.557790    1.399554   -1.215214
  H     -2.145432   -0.267840   -1.289514
  H     -1.349953    1.228706    1.261296
  H     -1.981036   -0.418847    1.208493
  H      0.442428   -0.363909    1.535737
  H      0.682911    0.690544   -1.312772
  H      0.828780    1.724096    0.115620
  H      2.545338   -0.747245   -0.408622
  H      3.057148    0.909677   -0.754705
  H      2.754609    0.402481    0.909960
  H     -0.283268   -1.496617   -0.926040

 Total Charge           Charge          ....    0
 Multiplicity           Mult            ....    1
 Number of Electrons    NEL             ....   50
 Basis Dimension        Dim             ....  179

ORBITAL ENERGIES
----------------

  NO   OCC          E(Eh)            E(eV)
   0   2.0000     -18.944156      -515.4967
   1   2.0000     -10.076587      -274.1979
   2   2.0000     -10.026087      -272.8237
   3   2.0000     -10.025600      -272.8104
   4   2.0000     -10.023332      -272.7487
   5   2.0000     -10.013488      -272.4809
   6   2.0000      -0.983109       -26.7518
   7   2.0000      -0.758816       -20.6484
   8   2.0000      -0.720904       -19.6168
   9   2.0000      -0.643459       -17.5094
  10   2.0000      -0.582823       -15.8594
  11   2.0000      -0.546603       -14.8738
  12   2.0000      -0.447117       -12.1667
  13   2.0000      -0.441903       -12.0248
  14   2.0000      -0.420310       -11.4372
  15   2.0000      -0.409250       -11.1363
  16   2.0000      -0.383137       -10.4257
  17   2.0000      -0.357793        -9.7361
  18   2.0000      -0.336180        -9.1479
  19   2.0000      -0.333149        -9.0655
  20   2.0000      -0.323191        -8.7945
  21   2.0000      -0.310260        -8.4426
  22   2.0000      -0.299690        -8.1550
  23   2.0000      -0.277817        -7.5598
  24   2.0000      -0.231965        -6.3121
  25   0.0000       0.061058         1.6615
  26   0.0000       0.102626         2.7926
  27   0.0000       0.113747         3.0952
  28   0.0000       0.114976         3.1286
  29   0.0000       0.124024         3.3749

MULLIKEN ATOMIC CHARGES
-----------------------
   0 C :   -0.512033
   1 C :   -0.236478
   2 C :   -0.002438
   3 C :   -0.242127
   4 C :   -0.501148
   5 O :   -0.419373
   6 H :    0.152945
   7 H :    0.157498
   8 H :    0.138486
   9 H :    0.138044
  10 H :    0.155423
  11 H :    0.144688
  12 H :    0.139062
  13 H :    0.142326
  14 H :    0.166609
  15 H :    0.144612
  16 H :    0.143456
  17 H :    0.290449
Sum of atomic charges:    0.0000000

LOEWDIN ATOMIC CHARGES
----------------------
   0 C :   -0.425518
   1 C :   -0.296045
   2 C :    0.046466
   3 C :   -0.295655
   4 C :   -0.419946
   5 O :   -0.608778
   6 H :    0.154622
   7 H :    0.152504
   8 H :    0.146258
   9 H :    0.157178
  10 H :    0.163176
  11 H :    0.183374
  12 H :    0.156184
  13 H :    0.158731
  14 H :    0.161415
  15 H :    0.148722
  16 H :    0.151216
  17 H :    0.266096

  Mayer bond orders larger than 0.100000
B(  0-C ,  1-C ) :   0.8618 B(  0-C ,  6-H ) :   0.9683 B(  0-C ,  7-H ) :   0.9788
B(  0-C ,  8-H ) :   0.9829 B(  1-C ,  2-C ) :   0.9150 B(  1-C ,  9-H ) :   0.9807
B(  1-C , 10-H ) :   0.9808 B(  2-C ,  3-C ) :   0.9264 B(  2-C ,  5-O ) :   0.9116
B(  2-C , 11-H ) :   0.9721 B(  3-C ,  4-C ) :   0.9077 B(  3-C , 12-H ) :   0.9608
B(  3-C , 13-H ) :   0.9679 B(  4-C , 14-H ) :   0.9767 B(  4-C , 15-H ) :   0.9758
B(  4-C , 16-H ) :   0.9837 B(  5-O , 17-H ) :   0.8949

Dispersion correction           -0.004322221
FINAL SINGLE POINT ENERGY      -272.902255083679

DIPOLE MOMENT
-------------

Method             : SCF
Type of density    : Electron Density
Multiplicity       :   1
Irrep              :   0
Energy             :  -272.9075487157949738 Eh
Relativity type    :
Basis              : AO
                                X                 Y                 Z
Electronic contribution:     -0.112018041      -3.223433158       1.014905422
Nuclear contribution   :     -0.096738596       3.755937605      -1.271837514
                        -----------------------------------------
Total Dipole Moment    :     -0.208756638       0.532504447      -0.256932092
                        -----------------------------------------
Magnitude (a.u.)       :      0.627020270
Magnitude (Debye)      :      1.593758869

Rotational constants in cm-1:             0.184766             0.072711             0.062492
Rotational constants in MHz :          5539.134972          2179.833849          1873.458777

                             ****ORCA TERMINATED NORMALLY****
TOTAL RUN TIME: 0 days 0 hours 0 minutes 23 seconds 708 msec
