                         Program Version 6.0.0  -   RELEASE  -
|  1> ! r2scan-3c def2/J RI DEFGRID2 scfconv6 printgap
|  2> %output
|  3>     printlevel normal
|  4> end
|  5> %cpcm
|  6>     smd true
|  7>     smdsolvent "water"
|  8> end
|  9> * xyz 0 1
| 10> C -2.0840284102 0.6222931176 -0.6679220418
| 11> C -1.3936925886 0.3202119829 0.6589191469
| 12> C 0.0366048559 -0.2315643559 0.5249193829
| 13> C 0.9630445543 0.7081566345 -0.2577654417
| 14> C 2.4240507842 0.2945379134 -0.1205410864
| 15> O 0.0470970304 -1.5401925587 -0.0179220568
| 16> H -3.0975954698 0.9672639287 -0.4796226652
| 17> H -1.5577898247 1.3995536497 -1.2152140533
| 18> H -2.1454322912 -0.2678401269 -1.2895136396
| 19> H -1.3499525635 1.2287062291 1.2612955475
| 20> H -1.9810356879 -0.418847013 1.2084926743
| 21> H 0.4424279031 -0.3639086125 1.5357373045
| 22> H 0.6829107152 0.6905438345 -1.3127716425
| 23> H 0.8287801469 1.7240959205 0.1156201135
| 24> H 2.5453377039 -0.747245425 -0.4086219071
| 25> H 3.0571482404 0.9096767912 -0.7547047054
| 26> H 2.7546088796 0.4024809402 0.9099597457
| 27> H -0.2832676063 -1.4966169118 -0.9260403155
| 28> *
| 29>
| 30>                          ****END OF INPUT****

CARTESIAN COORDINATES (ANGSTROEM)
---------------------------------
  C     -2.084028    0.622293   -0.667922
  C     -1.393693    0.320212    0.658919
  C      0.036605   -0.231564    0.524919
  C      0.963045    0.708157   -0.257765
  C      2.424051    0.294538   -0.120541
  O      0.047097   -1.540193   -0.017922
  H     -3.097595    0.967264   -0.479623
  H     -1.557790    1.399554   -1.215214
  H     -2.145432   -0.267840   -1.289514
  H     -1.349953    1.228706    1.261296
  H     -1.981036   -0.418847    1.208493
  H      0.442428   -0.363909    1.535737
  H      0.682911    0.690544   -1.312772
  H      0.828780    1.724096    0.115620
  H      2.545338   -0.747245   -0.408622
  H      3.057148    0.909677   -0.754705
  H      2.754609    0.402481    0.909960
  H     -0.283268   -1.496617   -0.926040

 Total Charge           Charge          ....    0
 Multiplicity           Mult            ....    1
 Number of Electrons    NEL             ....   50
 Basis Dimension        Dim             ....  179

ORBITAL ENERGIES
----------------

  NO   OCC          E(Eh)            E(eV)
   0   2.0000     -18.947825      -515.5965
   1   2.0000     -10.071235      -274.0522
   2   2.0000     -10.016641      -272.5667
   3   2.0000     -10.016193      -272.5545
   4   2.0000     -10.009783      -272.3800
   5   2.0000     -10.007944      -272.3300
   6   2.0000      -0.985578       -26.8189
   7   2.0000      -0.750832       -20.4312
   8   2.0000      -0.712053       -19.3759
   9   2.0000      -0.635926       -17.3044
  10   2.0000      -0.574732       -15.6393
  11   2.0000      -0.540845       -14.7171
  12   2.0000      -0.441391       -12.0109
  13   2.0000      -0.436027       -11.8649
  14   2.0000      -0.413386       -11.2488
  15   2.0000      -0.399986       -10.8842
  16   2.0000      -0.376280       -10.2391
  17   2.0000      -0.352439        -9.5903
  18   2.0000      -0.329656        -8.9704
  19   2.0000      -0.326708        -8.8902
  20   2.0000      -0.314158        -8.5487
  21   2.0000      -0.302863        -8.2413
  22   2.0000      -0.292548        -7.9606
  23   2.0000      -0.274308        -7.4643
  24   2.0000      -0.234749        -6.3878
  25   0.0000       0.077250         2.1021
  26   0.0000       0.116361         3.1663
  27   0.0000       0.120912         3.2902
  28   0.0000       0.123207         3.3526
  29   0.0000       0.134547         3.6612

MULLIKEN ATOMIC CHARGES
-----------------------
   0 C :   -0.533108
   1 C :   -0.272148
   2 C :    0.019242
   3 C :   -0.252154
   4 C :   -0.542622
   5 O :   -0.509934
   6 H :    0.161466
   7 H :    0.164824
   8 H :    0.158279
   9 H :    0.154404
  10 H :    0.155724
  11 H :    0.154724
  12 H :    0.160028
  13 H :    0.156860
  14 H :    0.158913
  15 H :    0.157740
  16 H :    0.158591
  17 H :    0.349170
Sum of atomic charges:   -0.0000000

LOEWDIN ATOMIC CHARGES
----------------------
   0 C :   -0.430717
   1 C :   -0.296698
   2 C :    0.046000
   3 C :   -0.294158
   4 C :   -0.428801
   5 O :   -0.647090
   6 H :    0.155608
   7 H :    0.155601
   8 H :    0.153664
   9 H :    0.163112
  10 H :    0.161464
  11 H :    0.185873
  12 H :    0.163637
  13 H :    0.164636
  14 H :    0.156201
  15 H :    0.152810
  16 H :    0.154244
  17 H :    0.284616

  Mayer bond orders larger than 0.100000
B(  0-C ,  1-C ) :   0.8704 B(  0-C ,  6-H ) :   0.9678 B(  0-C ,  7-H ) :   0.9746
B(  0-C ,  8-H ) :   0.9760 B(  1-C ,  2-C ) :   0.9141 B(  1-C ,  9-H ) :   0.9786
B(  1-C , 10-H ) :   0.9837 B(  2-C ,  3-C ) :   0.9233 B(  2-C ,  5-O ) :   0.8914
B(  2-C , 11-H ) :   0.9718 B(  3-C ,  4-C ) :   0.8884 B(  3-C , 12-H ) :   0.9599
B(  3-C , 13-H ) :   0.9644 B(  4-C , 14-H ) :   0.9799 B(  4-C , 15-H ) :   0.9721
B(  4-C , 16-H ) :   0.9820 B(  5-O , 17-H ) :   0.8674

Dispersion correction           -0.004322221
FINAL SINGLE POINT ENERGY      -272.908397441176

DIPOLE MOMENT
-------------

Method             : SCF
Type of density    : Electron Density
Multiplicity       :   1
Irrep              :   0
Energy             :  -272.9136910732921137 Eh
Relativity type    :
Basis              : AO
                                X                 Y                 Z
Electronic contribution:     -0.192969672      -2.977553872       0.864787252
Nuclear contribution   :     -0.096738596       3.755937605      -1.271837514
                        -----------------------------------------
Total Dipole Moment    :     -0.289708269       0.778383733      -0.407050262
                        -----------------------------------------
Magnitude (a.u.)       :      0.924933529
Magnitude (Debye)      :      2.350994193

Rotational constants in cm-1:             0.184766             0.072711             0.062492
Rotational constants in MHz :          5539.134972          2179.833849          1873.458777

                             ****ORCA TERMINATED NORMALLY****
TOTAL RUN TIME: 0 days 0 hours 0 minutes 27 seconds 825 msec
