                         Program Version 6.0.0  -   RELEASE  -
|  1> ! r2scan-3c def2/J RI DEFGRID2 scfconv6 printgap
|  2> %output
|  3>     printlevel normal
|  4> end
|  5> * xyz 0 1
|  6> C -3.2153444794 0.4964468073 0.0996907591
|  7> C -1.8766146956 -0.2079491505 0.27589119
|  8> C -0.7355973149 0.5978300188 -0.3550280406
|  9> C 0.5648975792 -0.1537996009 -0.2562579865
| 10> O 0.7424343476 -1.2882852537 -0.649271798
| 11> O 1.5045998224 0.5753070783 0.3336044795
| 12> C 2.8085004898 0.0125194853 0.5124195415
| 13> H -3.1919165148 1.4786933961 0.564512009
| 14> H -3.446575498 0.6186259727 -0.95534552
| 15> H -4.0082708192 -0.085293671 0.5614622414
| 16> H -1.9059323936 -1.1947572531 -0.1902000364
| 17> H -1.6718802048 -0.3476375746 1.339164504
| 18> H -0.6211215572 1.5651676668 0.1324287552
| 19> H -0.9518194377 0.7510428957 -1.4142359808
| 20> H 3.4657113253 0.3951225121 -0.2679102735
| 21> H 2.7545298516 -1.0750670692 0.451615187
| 22> H 3.1537196318 0.3332903213 1.4918321256
| 23> *
| 24>
| 25>                          ****END OF INPUT****

CARTESIAN COORDINATES (ANGSTROEM)
---------------------------------
  C     -3.215344    0.496447    0.099691
  C     -1.876615   -0.207949    0.275891
  C     -0.735597    0.597830   -0.355028
  C      0.564898   -0.153800   -0.256258
  O      0.742434   -1.288285   -0.649272
  O      1.504600    0.575307    0.333604
  C      2.808500    0.012519    0.512420
  H     -3.191917    1.478693    0.564512
  H     -3.446575    0.618626   -0.955346
  H     -4.008271   -0.085294    0.561462
  H     -1.905932   -1.194757   -0.190200
  H     -1.671880   -0.347638    1.339165
  H     -0.621122    1.565168    0.132429
  H     -0.951819    0.751043   -1.414236
  H      3.465711    0.395123   -0.267910
  H      2.754530   -1.075067    0.451615
  H      3.153720    0.333290    1.491832

 Total Charge           Charge          ....    0
 Multiplicity           Mult            ....    1
 Number of Electrons    NEL             ....   56
 Basis Dimension        Dim             ....  193

ORBITAL ENERGIES
----------------

  NO   OCC          E(Eh)            E(eV)
   0   2.0000     -19.000095      -517.0189
   1   2.0000     -18.927841      -515.0527
   2   2.0000     -10.152531      -276.2644
   3   2.0000     -10.085562      -274.4421
   4   2.0000     -10.041753      -273.2500
   5   2.0000     -10.034985      -273.0658
   6   2.0000     -10.022083      -272.7147
   7   2.0000      -1.072721       -29.1902
   8   2.0000      -0.976056       -26.5598
   9   2.0000      -0.771550       -20.9949
  10   2.0000      -0.714033       -19.4298
  11   2.0000      -0.661029       -17.9875
  12   2.0000      -0.570881       -15.5345
  13   2.0000      -0.531175       -14.4540
  14   2.0000      -0.469988       -12.7890
  15   2.0000      -0.457833       -12.4583
  16   2.0000      -0.446248       -12.1430
  17   2.0000      -0.427860       -11.6427
  18   2.0000      -0.397393       -10.8136
  19   2.0000      -0.392235       -10.6732
  20   2.0000      -0.370507       -10.0820
  21   2.0000      -0.348115        -9.4727
  22   2.0000      -0.333941        -9.0870
  23   2.0000      -0.316548        -8.6137
  24   2.0000      -0.309698        -8.4273
  25   2.0000      -0.305440        -8.3115
  26   2.0000      -0.272540        -7.4162
  27   2.0000      -0.237466        -6.4618
  28   0.0000      -0.014903        -0.4055
  29   0.0000       0.068468         1.8631
  30   0.0000       0.097647         2.6571
  31   0.0000       0.103970         2.8292
  32   0.0000       0.130689         3.5562

MULLIKEN ATOMIC CHARGES
-----------------------
   0 C :   -0.469752
   1 C :   -0.229429
   2 C :   -0.334657
   3 C :    0.416187
   4 O :   -0.439113
   5 O :   -0.194953
   6 C :   -0.301597
   7 H :    0.142274
   8 H :    0.144868
   9 H :    0.150638
  10 H :    0.167699
  11 H :    0.137789
  12 H :    0.162668
  13 H :    0.164682
  14 H :    0.149952
  15 H :    0.184408
  16 H :    0.148337
Sum of atomic charges:    0.0000000

LOEWDIN ATOMIC CHARGES
----------------------
   0 C :   -0.420736
   1 C :   -0.290070
   2 C :   -0.229901
   3 C :    0.358300
   4 O :   -0.439739
   5 O :   -0.603423
   6 C :   -0.046402
   7 H :    0.150133
   8 H :    0.150724
   9 H :    0.153142
  10 H :    0.166697
  11 H :    0.155608
  12 H :    0.177187
  13 H :    0.180267
  14 H :    0.172710
  15 H :    0.190737
  16 H :    0.174765

  Mayer bond orders larger than 0.100000
B(  0-C ,  1-C ) :   0.8899 B(  0-C ,  7-H ) :   0.9799 B(  0-C ,  8-H ) :   0.9873
B(  0-C ,  9-H ) :   0.9736 B(  1-C ,  2-C ) :   0.9240 B(  1-C , 10-H ) :   0.9641
B(  1-C , 11-H ) :   0.9586 B(  2-C ,  3-C ) :   0.9840 B(  2-C , 12-H ) :   0.9780
B(  2-C , 13-H ) :   0.9576 B(  3-C ,  4-O ) :   1.8196 B(  3-C ,  5-O ) :   1.0583
B(  5-O ,  6-C ) :   0.8422 B(  6-C , 14-H ) :   0.9604 B(  6-C , 15-H ) :   0.9665
B(  6-C , 16-H ) :   0.9687

Dispersion correction           -0.003905816
FINAL SINGLE POINT ENERGY      -346.930316499852

DIPOLE MOMENT
-------------

Method             : SCF
Type of density    : Electron Density
Multiplicity       :   1
Irrep              :   0
Energy             :  -346.9371698996342843 Eh
Relativity type    :
Basis              : AO
                                X                 Y                 Z
Electronic contribution:      6.087847270      -1.639897176      -1.247735984
Nuclear contribution   :     -5.993054315       2.277794700       1.602703322
                        -----------------------------------------
Total Dipole Moment    :      0.094792955       0.637897524       0.354967338
                        -----------------------------------------
Magnitude (a.u.)       :      0.736139095
Magnitude (Debye)      :      1.871116878

Rotational constants in cm-1:             0.244571             0.041012             0.037611
Rotational constants in MHz :          7332.067751          1229.495247          1127.542890

                             ****ORCA TERMINATED NORMALLY****
TOTAL RUN TIME: 0 days 0 hours 0 minutes 24 seconds 764 msec
