                         Program Version 6.0.0  -   RELEASE  -
|  1> ! r2scan-3c def2/J RI DEFGRID2 scfconv6 printgap
|  2> %output
|  3>     printlevel normal
|  4> end
|  5> %cpcm
|  6>     smd true
|  7>     smdsolvent "water"
|  8> end
|  9> * xyz 0 1
| 10> C -3.2153444794 0.4964468073 0.0996907591
| 11> C -1.8766146956 -0.2079491505 0.27589119
| 12> C -0.7355973149 0.5978300188 -0.3550280406
| 13> C 0.5648975792 -0.1537996009 -0.2562579865
| 14> O 0.7424343476 -1.2882852537 -0.649271798
| 15> O 1.5045998224 0.5753070783 0.3336044795
| 16> C 2.8085004898 0.0125194853 0.5124195415
| 17> H -3.1919165148 1.4786933961 0.564512009
| 18> H -3.446575498 0.6186259727 -0.95534552
| 19> H -4.0082708192 -0.085293671 0.5614622414
| 20> H -1.9059323936 -1.1947572531 -0.1902000364
| 21> H -1.6718802048 -0.3476375746 1.339164504
| 22> H -0.6211215572 1.5651676668 0.1324287552
| 23> H -0.9518194377 0.7510428957 -1.4142359808
| 24> H 3.4657113253 0.3951225121 -0.2679102735
| 25> H 2.7545298516 -1.0750670692 0.451615187
| 26> H 3.1537196318 0.3332903213 1.4918321256
| 27> *
| 28>
| 29>                          ****END OF INPUT****

CARTESIAN COORDINATES (ANGSTROEM)
---------------------------------
  C     -3.215344    0.496447    0.099691
  C     -1.876615   -0.207949    0.275891
  C     -0.735597    0.597830   -0.355028
  C      0.564898   -0.153800   -0.256258
  O      0.742434   -1.288285   -0.649272
  O      1.504600    0.575307    0.333604
  C      2.808500    0.012519    0.512420
  H     -3.191917    1.478693    0.564512
  H     -3.446575    0.618626   -0.955346
  H     -4.008271   -0.085294    0.561462
  H     -1.905932   -1.194757   -0.190200
  H     -1.671880   -0.347638    1.339165
  H     -0.621122    1.565168    0.132429
  H     -0.951819    0.751043   -1.414236
  H      3.465711    0.395123   -0.267910
  H      2.754530   -1.075067    0.451615
  H      3.153720    0.333290    1.491832

 Total Charge           Charge          ....    0
 Multiplicity           Mult            ....    1
 Number of Electrons    NEL             ....   56
 Basis Dimension        Dim             ....  193

ORBITAL ENERGIES
----------------

  NO   OCC          E(Eh)            E(eV)
   0   2.0000     -19.004952      -517.1510
   1   2.0000     -18.943060      -515.4669
   2   2.0000     -10.162493      -276.5355
   3   2.0000     -10.075125      -274.1581
   4   2.0000     -10.035199      -273.0716
   5   2.0000     -10.028072      -272.8777
   6   2.0000     -10.011451      -272.4254
   7   2.0000      -1.079154       -29.3653
   8   2.0000      -0.989096       -26.9147
   9   2.0000      -0.765868       -20.8403
  10   2.0000      -0.708765       -19.2865
  11   2.0000      -0.653534       -17.7836
  12   2.0000      -0.563720       -15.3396
  13   2.0000      -0.528990       -14.3946
  14   2.0000      -0.470832       -12.8120
  15   2.0000      -0.459178       -12.4949
  16   2.0000      -0.450671       -12.2634
  17   2.0000      -0.425449       -11.5770
  18   2.0000      -0.392406       -10.6779
  19   2.0000      -0.388114       -10.5611
  20   2.0000      -0.365941        -9.9578
  21   2.0000      -0.343731        -9.3534
  22   2.0000      -0.329793        -8.9741
  23   2.0000      -0.314451        -8.5567
  24   2.0000      -0.305006        -8.2996
  25   2.0000      -0.297056        -8.0833
  26   2.0000      -0.279713        -7.6114
  27   2.0000      -0.253019        -6.8850
  28   0.0000      -0.022181        -0.6036
  29   0.0000       0.073427         1.9980
  30   0.0000       0.105292         2.8651
  31   0.0000       0.114164         3.1066
  32   0.0000       0.140138         3.8134

MULLIKEN ATOMIC CHARGES
-----------------------
   0 C :   -0.514935
   1 C :   -0.228189
   2 C :   -0.352508
   3 C :    0.454773
   4 O :   -0.523056
   5 O :   -0.211608
   6 C :   -0.319861
   7 H :    0.157279
   8 H :    0.158694
   9 H :    0.161281
  10 H :    0.158114
  11 H :    0.155440
  12 H :    0.177415
  13 H :    0.192553
  14 H :    0.177738
  15 H :    0.181726
  16 H :    0.175145
Sum of atomic charges:    0.0000000

LOEWDIN ATOMIC CHARGES
----------------------
   0 C :   -0.425890
   1 C :   -0.290089
   2 C :   -0.227117
   3 C :    0.367957
   4 O :   -0.500971
   5 O :   -0.605026
   6 C :   -0.041418
   7 H :    0.154743
   8 H :    0.154508
   9 H :    0.155880
  10 H :    0.162283
  11 H :    0.160465
  12 H :    0.184548
  13 H :    0.190275
  14 H :    0.183251
  15 H :    0.190093
  16 H :    0.186509

  Mayer bond orders larger than 0.100000
B(  0-C ,  1-C ) :   0.8870 B(  0-C ,  7-H ) :   0.9779 B(  0-C ,  8-H ) :   0.9840
B(  0-C ,  9-H ) :   0.9705 B(  1-C ,  2-C ) :   0.9114 B(  1-C , 10-H ) :   0.9650
B(  1-C , 11-H ) :   0.9581 B(  2-C ,  3-C ) :   0.9851 B(  2-C , 12-H ) :   0.9704
B(  2-C , 13-H ) :   0.9472 B(  3-C ,  4-O ) :   1.7568 B(  3-C ,  5-O ) :   1.0837
B(  5-O ,  6-C ) :   0.8283 B(  6-C , 14-H ) :   0.9519 B(  6-C , 15-H ) :   0.9629
B(  6-C , 16-H ) :   0.9590

Dispersion correction           -0.003905816
FINAL SINGLE POINT ENERGY      -346.934728702828

DIPOLE MOMENT
-------------

Method             : SCF
Type of density    : Electron Density
Multiplicity       :   1
Irrep              :   0
Energy             :  -346.9415821026101980 Eh
Relativity type    :
Basis              : AO
                                X                 Y                 Z
Electronic contribution:      6.122880450      -1.313364474      -1.115611673
Nuclear contribution   :     -5.993054315       2.277794700       1.602703322
                        -----------------------------------------
Total Dipole Moment    :      0.129826135       0.964430226       0.487091649
                        -----------------------------------------
Magnitude (a.u.)       :      1.088227348
Magnitude (Debye)      :      2.766054096

Rotational constants in cm-1:             0.244571             0.041012             0.037611
Rotational constants in MHz :          7332.067751          1229.495247          1127.542890

                             ****ORCA TERMINATED NORMALLY****
TOTAL RUN TIME: 0 days 0 hours 0 minutes 31 seconds 951 msec
