                         Program Version 6.0.0  -   RELEASE  -
|  1> ! r2scan-3c def2/J RI DEFGRID2 scfconv6 printgap
|  2> %output
|  3>     printlevel normal
|  4> end
|  5> * xyz 0 1
|  6> C -3.4479139902 -0.1849260759 -0.3589840037
|  7> C -1.9592006129 0.1143670528 -0.4972712855
|  8> C -1.2077953701 -0.2323692493 0.7874175388
|  9> C 0.3174050054 -0.1146096203 0.7222531533
| 10> C 1.0056058248 -1.1542459424 -0.174855719
| 11> C 2.3496280035 -0.5262398252 -0.589688801
| 12> C 2.3446811061 0.8992725212 -0.0166914286
| 13> C 0.8666969533 1.2126909192 0.1970860931
| 14> H -3.875421448 0.3832286548 0.464263116
| 15> H -3.9775276613 0.0799500933 -1.2710043534
| 16> H -3.6083569057 -1.2428530114 -0.1630563103
| 17> H -1.5576533637 -0.4595323451 -1.334081184
| 18> H -1.83102739 1.1738743293 -0.7242035587
| 19> H -1.5708223643 0.42172734 1.5844410781
| 20> H -1.4537096985 -1.2592598352 1.0712537246
| 21> H 0.6944388617 -0.2476152472 1.7433881149
| 22> H 1.1416299355 -2.0996335175 0.3490858913
| 23> H 0.3956594938 -1.3501382765 -1.0559559893
| 24> H 3.1944203477 -1.0982009444 -0.2079661388
| 25> H 2.4355438685 -0.4975368244 -1.6757787103
| 26> H 2.8652853699 0.9203560889 0.942088634
| 27> H 2.8312175036 1.6114452755 -0.6815453303
| 28> H 0.7060845946 2.0366823624 0.8909480869
| 29> H 0.4033302186 1.461387493 -0.7573046804
| 30> *
| 31>
| 32>                          ****END OF INPUT****

CARTESIAN COORDINATES (ANGSTROEM)
---------------------------------
  C     -3.447914   -0.184926   -0.358984
  C     -1.959201    0.114367   -0.497271
  C     -1.207795   -0.232369    0.787418
  C      0.317405   -0.114610    0.722253
  C      1.005606   -1.154246   -0.174856
  C      2.349628   -0.526240   -0.589689
  C      2.344681    0.899273   -0.016691
  C      0.866697    1.212691    0.197086
  H     -3.875421    0.383229    0.464263
  H     -3.977528    0.079950   -1.271004
  H     -3.608357   -1.242853   -0.163056
  H     -1.557653   -0.459532   -1.334081
  H     -1.831027    1.173874   -0.724204
  H     -1.570822    0.421727    1.584441
  H     -1.453710   -1.259260    1.071254
  H      0.694439   -0.247615    1.743388
  H      1.141630   -2.099634    0.349086
  H      0.395659   -1.350138   -1.055956
  H      3.194420   -1.098201   -0.207966
  H      2.435544   -0.497537   -1.675779
  H      2.865285    0.920356    0.942089
  H      2.831218    1.611445   -0.681545
  H      0.706085    2.036682    0.890948
  H      0.403330    1.461387   -0.757305

 Total Charge           Charge          ....    0
 Multiplicity           Mult            ....    1
 Number of Electrons    NEL             ....   64
 Basis Dimension        Dim             ....  232

ORBITAL ENERGIES
----------------

  NO   OCC          E(Eh)            E(eV)
   0   2.0000     -10.024470      -272.7797
   1   2.0000     -10.020735      -272.6781
   2   2.0000     -10.018804      -272.6255
   3   2.0000     -10.017534      -272.5909
   4   2.0000     -10.017275      -272.5839
   5   2.0000     -10.015769      -272.5429
   6   2.0000     -10.015345      -272.5314
   7   2.0000     -10.013570      -272.4831
   8   2.0000      -0.804704       -21.8971
   9   2.0000      -0.748883       -20.3782
  10   2.0000      -0.686916       -18.6919
  11   2.0000      -0.670451       -18.2439
  12   2.0000      -0.617595       -16.8056
  13   2.0000      -0.562330       -15.3018
  14   2.0000      -0.527198       -14.3458
  15   2.0000      -0.505184       -13.7468
  16   2.0000      -0.448856       -12.2140
  17   2.0000      -0.433699       -11.8016
  18   2.0000      -0.425436       -11.5767
  19   2.0000      -0.390580       -10.6282
  20   2.0000      -0.383928       -10.4472
  21   2.0000      -0.375991       -10.2312
  22   2.0000      -0.355771        -9.6810
  23   2.0000      -0.327514        -8.9121
  24   2.0000      -0.315319        -8.5803
  25   2.0000      -0.305627        -8.3165
  26   2.0000      -0.301068        -8.1925
  27   2.0000      -0.299762        -8.1570
  28   2.0000      -0.282120        -7.6769
  29   2.0000      -0.281086        -7.6487
  30   2.0000      -0.273843        -7.4516
  31   2.0000      -0.267626        -7.2825
  32   0.0000       0.079400         2.1606
  33   0.0000       0.095278         2.5926
  34   0.0000       0.101173         2.7531
  35   0.0000       0.118559         3.2262
  36   0.0000       0.125113         3.4045

MULLIKEN ATOMIC CHARGES
-----------------------
   0 C :   -0.480094
   1 C :   -0.260318
   2 C :   -0.286545
   3 C :   -0.009208
   4 C :   -0.415152
   5 C :   -0.300203
   6 C :   -0.294163
   7 C :   -0.336950
   8 H :    0.141352
   9 H :    0.145526
  10 H :    0.143454
  11 H :    0.140637
  12 H :    0.142156
  13 H :    0.145174
  14 H :    0.142611
  15 H :    0.159873
  16 H :    0.153812
  17 H :    0.157659
  18 H :    0.148990
  19 H :    0.150662
  20 H :    0.147585
  21 H :    0.148651
  22 H :    0.154610
  23 H :    0.159881
Sum of atomic charges:   -0.0000000

LOEWDIN ATOMIC CHARGES
----------------------
   0 C :   -0.423940
   1 C :   -0.319381
   2 C :   -0.298820
   3 C :   -0.224780
   4 C :   -0.300951
   5 C :   -0.305969
   6 C :   -0.303958
   7 C :   -0.297447
   8 H :    0.149879
   9 H :    0.149164
  10 H :    0.149392
  11 H :    0.149900
  12 H :    0.151517
  13 H :    0.157178
  14 H :    0.158448
  15 H :    0.161053
  16 H :    0.156915
  17 H :    0.156079
  18 H :    0.155443
  19 H :    0.155025
  20 H :    0.154226
  21 H :    0.153952
  22 H :    0.158113
  23 H :    0.158963

  Mayer bond orders larger than 0.100000
B(  0-C ,  1-C ) :   0.9045 B(  0-C ,  8-H ) :   0.9824 B(  0-C ,  9-H ) :   0.9759
B(  0-C , 10-H ) :   0.9863 B(  1-C ,  2-C ) :   0.8935 B(  1-C , 11-H ) :   0.9755
B(  1-C , 12-H ) :   0.9630 B(  2-C ,  3-C ) :   0.8822 B(  2-C , 13-H ) :   0.9797
B(  2-C , 14-H ) :   1.0001 B(  3-C ,  4-C ) :   0.9331 B(  3-C ,  7-C ) :   0.8840
B(  3-C , 15-H ) :   0.9714 B(  4-C ,  5-C ) :   0.9124 B(  4-C , 16-H ) :   0.9598
B(  4-C , 17-H ) :   1.0088 B(  5-C ,  6-C ) :   0.9378 B(  5-C , 18-H ) :   0.9708
B(  5-C , 19-H ) :   0.9861 B(  6-C ,  7-C ) :   0.8956 B(  6-C , 20-H ) :   0.9846
B(  6-C , 21-H ) :   0.9562 B(  7-C , 22-H ) :   0.9533 B(  7-C , 23-H ) :   0.9990

Dispersion correction           -0.006966550
FINAL SINGLE POINT ENERGY      -314.380756305497

DIPOLE MOMENT
-------------

Method             : SCF
Type of density    : Electron Density
Multiplicity       :   1
Irrep              :   0
Energy             :  -314.3840599210791993 Eh
Relativity type    :
Basis              : AO
                                X                 Y                 Z
Electronic contribution:      3.006767618       0.167805886       0.798092379
Nuclear contribution   :     -3.008603155      -0.155846110      -0.774385676
                        -----------------------------------------
Total Dipole Moment    :     -0.001835538       0.011959776       0.023706703
                        -----------------------------------------
Magnitude (a.u.)       :      0.026616033
Magnitude (Debye)      :      0.067652580

Rotational constants in cm-1:             0.152307             0.034286             0.032209
Rotational constants in MHz :          4566.051190          1027.871360           965.614717

                             ****ORCA TERMINATED NORMALLY****
TOTAL RUN TIME: 0 days 0 hours 0 minutes 25 seconds 78 msec
