                         Program Version 6.0.0  -   RELEASE  -
|  1> ! r2scan-3c def2/J RI DEFGRID2 scfconv6 printgap
|  2> %output
|  3>     printlevel normal
|  4> end
|  5> %cpcm
|  6>     smd true
|  7>     smdsolvent "water"
|  8> end
|  9> * xyz 0 1
| 10> C -3.4479139902 -0.1849260759 -0.3589840037
| 11> C -1.9592006129 0.1143670528 -0.4972712855
| 12> C -1.2077953701 -0.2323692493 0.7874175388
| 13> C 0.3174050054 -0.1146096203 0.7222531533
| 14> C 1.0056058248 -1.1542459424 -0.174855719
| 15> C 2.3496280035 -0.5262398252 -0.589688801
| 16> C 2.3446811061 0.8992725212 -0.0166914286
| 17> C 0.8666969533 1.2126909192 0.1970860931
| 18> H -3.875421448 0.3832286548 0.464263116
| 19> H -3.9775276613 0.0799500933 -1.2710043534
| 20> H -3.6083569057 -1.2428530114 -0.1630563103
| 21> H -1.5576533637 -0.4595323451 -1.334081184
| 22> H -1.83102739 1.1738743293 -0.7242035587
| 23> H -1.5708223643 0.42172734 1.5844410781
| 24> H -1.4537096985 -1.2592598352 1.0712537246
| 25> H 0.6944388617 -0.2476152472 1.7433881149
| 26> H 1.1416299355 -2.0996335175 0.3490858913
| 27> H 0.3956594938 -1.3501382765 -1.0559559893
| 28> H 3.1944203477 -1.0982009444 -0.2079661388
| 29> H 2.4355438685 -0.4975368244 -1.6757787103
| 30> H 2.8652853699 0.9203560889 0.942088634
| 31> H 2.8312175036 1.6114452755 -0.6815453303
| 32> H 0.7060845946 2.0366823624 0.8909480869
| 33> H 0.4033302186 1.461387493 -0.7573046804
| 34> *
| 35>
| 36>                          ****END OF INPUT****

CARTESIAN COORDINATES (ANGSTROEM)
---------------------------------
  C     -3.447914   -0.184926   -0.358984
  C     -1.959201    0.114367   -0.497271
  C     -1.207795   -0.232369    0.787418
  C      0.317405   -0.114610    0.722253
  C      1.005606   -1.154246   -0.174856
  C      2.349628   -0.526240   -0.589689
  C      2.344681    0.899273   -0.016691
  C      0.866697    1.212691    0.197086
  H     -3.875421    0.383229    0.464263
  H     -3.977528    0.079950   -1.271004
  H     -3.608357   -1.242853   -0.163056
  H     -1.557653   -0.459532   -1.334081
  H     -1.831027    1.173874   -0.724204
  H     -1.570822    0.421727    1.584441
  H     -1.453710   -1.259260    1.071254
  H      0.694439   -0.247615    1.743388
  H      1.141630   -2.099634    0.349086
  H      0.395659   -1.350138   -1.055956
  H      3.194420   -1.098201   -0.207966
  H      2.435544   -0.497537   -1.675779
  H      2.865285    0.920356    0.942089
  H      2.831218    1.611445   -0.681545
  H      0.706085    2.036682    0.890948
  H      0.403330    1.461387   -0.757305

 Total Charge           Charge          ....    0
 Multiplicity           Mult            ....    1
 Number of Electrons    NEL             ....   64
 Basis Dimension        Dim             ....  232

ORBITAL ENERGIES
----------------

  NO   OCC          E(Eh)            E(eV)
   0   2.0000     -10.017478      -272.5894
   1   2.0000     -10.013188      -272.4727
   2   2.0000     -10.011636      -272.4305
   3   2.0000     -10.011292      -272.4211
   4   2.0000     -10.011048      -272.4145
   5   2.0000     -10.008908      -272.3562
   6   2.0000     -10.008423      -272.3430
   7   2.0000     -10.006830      -272.2997
   8   2.0000      -0.798120       -21.7179
   9   2.0000      -0.742137       -20.1946
  10   2.0000      -0.680564       -18.5191
  11   2.0000      -0.664213       -18.0742
  12   2.0000      -0.611277       -16.6337
  13   2.0000      -0.555577       -15.1180
  14   2.0000      -0.521137       -14.1809
  15   2.0000      -0.498502       -13.5649
  16   2.0000      -0.442219       -12.0334
  17   2.0000      -0.427321       -11.6280
  18   2.0000      -0.418339       -11.3836
  19   2.0000      -0.383930       -10.4473
  20   2.0000      -0.377019       -10.2592
  21   2.0000      -0.369560       -10.0562
  22   2.0000      -0.349087        -9.4992
  23   2.0000      -0.320963        -8.7339
  24   2.0000      -0.308355        -8.3908
  25   2.0000      -0.298593        -8.1251
  26   2.0000      -0.295126        -8.0308
  27   2.0000      -0.293259        -7.9800
  28   2.0000      -0.275376        -7.4934
  29   2.0000      -0.274430        -7.4676
  30   2.0000      -0.266925        -7.2634
  31   2.0000      -0.260432        -7.0867
  32   0.0000       0.086952         2.3661
  33   0.0000       0.102519         2.7897
  34   0.0000       0.107981         2.9383
  35   0.0000       0.124407         3.3853
  36   0.0000       0.129961         3.5364

MULLIKEN ATOMIC CHARGES
-----------------------
   0 C :   -0.521240
   1 C :   -0.265981
   2 C :   -0.308098
   3 C :   -0.008611
   4 C :   -0.435084
   5 C :   -0.317672
   6 C :   -0.313550
   7 C :   -0.354913
   8 H :    0.152057
   9 H :    0.155138
  10 H :    0.154507
  11 H :    0.151761
  12 H :    0.150090
  13 H :    0.153946
  14 H :    0.149981
  15 H :    0.167124
  16 H :    0.161469
  17 H :    0.169107
  18 H :    0.156996
  19 H :    0.159083
  20 H :    0.156405
  21 H :    0.155949
  22 H :    0.162244
  23 H :    0.169292
Sum of atomic charges:   -0.0000000

LOEWDIN ATOMIC CHARGES
----------------------
   0 C :   -0.433066
   1 C :   -0.321334
   2 C :   -0.302418
   3 C :   -0.224527
   4 C :   -0.305227
   5 C :   -0.310754
   6 C :   -0.308648
   7 C :   -0.301048
   8 H :    0.151976
   9 H :    0.151306
  10 H :    0.151660
  11 H :    0.152931
  12 H :    0.153519
  13 H :    0.158907
  14 H :    0.159877
  15 H :    0.163088
  16 H :    0.158422
  17 H :    0.158936
  18 H :    0.157046
  19 H :    0.156817
  20 H :    0.156215
  21 H :    0.155348
  22 H :    0.159860
  23 H :    0.161114

  Mayer bond orders larger than 0.100000
B(  0-C ,  1-C ) :   0.8928 B(  0-C ,  8-H ) :   0.9805 B(  0-C ,  9-H ) :   0.9732
B(  0-C , 10-H ) :   0.9840 B(  1-C ,  2-C ) :   0.8887 B(  1-C , 11-H ) :   0.9747
B(  1-C , 12-H ) :   0.9616 B(  2-C ,  3-C ) :   0.8819 B(  2-C , 13-H ) :   0.9784
B(  2-C , 14-H ) :   0.9997 B(  3-C ,  4-C ) :   0.9314 B(  3-C ,  7-C ) :   0.8834
B(  3-C , 15-H ) :   0.9714 B(  4-C ,  5-C ) :   0.9071 B(  4-C , 16-H ) :   0.9584
B(  4-C , 17-H ) :   1.0067 B(  5-C ,  6-C ) :   0.9322 B(  5-C , 18-H ) :   0.9695
B(  5-C , 19-H ) :   0.9853 B(  6-C ,  7-C ) :   0.8929 B(  6-C , 20-H ) :   0.9831
B(  6-C , 21-H ) :   0.9552 B(  7-C , 22-H ) :   0.9517 B(  7-C , 23-H ) :   0.9972

Dispersion correction           -0.006966550
FINAL SINGLE POINT ENERGY      -314.378071292911

DIPOLE MOMENT
-------------

Method             : SCF
Type of density    : Electron Density
Multiplicity       :   1
Irrep              :   0
Energy             :  -314.3813749084923757 Eh
Relativity type    :
Basis              : AO
                                X                 Y                 Z
Electronic contribution:      3.001729765       0.169053065       0.799357464
Nuclear contribution   :     -3.008603155      -0.155846110      -0.774385676
                        -----------------------------------------
Total Dipole Moment    :     -0.006873390       0.013206955       0.024971789
                        -----------------------------------------
Magnitude (a.u.)       :      0.029073311
Magnitude (Debye)      :      0.073898483

Rotational constants in cm-1:             0.152307             0.034286             0.032209
Rotational constants in MHz :          4566.051190          1027.871360           965.614717

                             ****ORCA TERMINATED NORMALLY****
TOTAL RUN TIME: 0 days 0 hours 0 minutes 30 seconds 145 msec
