                         Program Version 6.0.0  -   RELEASE  -
|  1> ! pbe def2-sv(p) def2/J RI DEFGRID1 loosescf d4 GCP(DFT/SV(P)) printgap
|  2> %output
|  3>     printlevel normal
|  4> end
|  5> * xyz 0 1
|  6> C -1.3387389036 -0.3458971854 -0.4666142065
|  7> C 0.0035675119 -0.0329884683 0.2064549293
|  8> C 1.1643373539 -0.685796014 -0.55304065
|  9> O 2.3884847392 -0.6285417062 0.1327646053
| 10> O 0.2227816701 1.3592068547 0.2513026316
| 11> O -2.3502198704 0.2466475685 0.3210856013
| 12> H -1.4735999478 -1.4320142184 -0.5238618134
| 13> H -1.3357982677 0.0750998668 -1.4792262978
| 14> H -0.0314078813 -0.4294691721 1.235010414
| 15> H 1.3258805269 -0.1416422503 -1.48547403
| 16> H 0.9009357412 -1.7270669848 -0.7825233656
| 17> H 2.2911706058 -1.0398141598 1.0035438097
| 18> H -0.5729939371 1.7737198569 0.6180399588
| 19> H -3.212194444 0.0948189784 -0.0884702639
| 20> *
| 21>
| 22>                          ****END OF INPUT****

CARTESIAN COORDINATES (ANGSTROEM)
---------------------------------
  C     -1.338739   -0.345897   -0.466614
  C      0.003568   -0.032988    0.206455
  C      1.164337   -0.685796   -0.553041
  O      2.388485   -0.628542    0.132765
  O      0.222782    1.359207    0.251303
  O     -2.350220    0.246648    0.321086
  H     -1.473600   -1.432014   -0.523862
  H     -1.335798    0.075100   -1.479226
  H     -0.031408   -0.429469    1.235010
  H      1.325881   -0.141642   -1.485474
  H      0.900936   -1.727067   -0.782523
  H      2.291171   -1.039814    1.003544
  H     -0.572994    1.773720    0.618040
  H     -3.212194    0.094819   -0.088470

 Total Charge           Charge          ....    0
 Multiplicity           Mult            ....    1
 Number of Electrons    NEL             ....   50
 Basis Dimension        Dim             ....  100

ORBITAL ENERGIES
----------------

  NO   OCC          E(Eh)            E(eV)
   0   2.0000     -18.761149      -510.5168
   1   2.0000     -18.738194      -509.8922
   2   2.0000     -18.737874      -509.8835
   3   2.0000      -9.937595      -270.4157
   4   2.0000      -9.937535      -270.4141
   5   2.0000      -9.928308      -270.1630
   6   2.0000      -0.940804       -25.6006
   7   2.0000      -0.920675       -25.0528
   8   2.0000      -0.904768       -24.6200
   9   2.0000      -0.684349       -18.6221
  10   2.0000      -0.603883       -16.4325
  11   2.0000      -0.537076       -14.6146
  12   2.0000      -0.483623       -13.1600
  13   2.0000      -0.471671       -12.8348
  14   2.0000      -0.434527       -11.8241
  15   2.0000      -0.409602       -11.1458
  16   2.0000      -0.386394       -10.5143
  17   2.0000      -0.370484       -10.0814
  18   2.0000      -0.346748        -9.4355
  19   2.0000      -0.305631        -8.3166
  20   2.0000      -0.292299        -7.9538
  21   2.0000      -0.263237        -7.1630
  22   2.0000      -0.231219        -6.2918
  23   2.0000      -0.215042        -5.8516
  24   2.0000      -0.207318        -5.6414
  25   0.0000       0.014989         0.4079
  26   0.0000       0.031872         0.8673
  27   0.0000       0.057866         1.5746
  28   0.0000       0.071586         1.9479
  29   0.0000       0.083965         2.2848

MULLIKEN ATOMIC CHARGES
-----------------------
   0 C :   -0.010677
   1 C :   -0.008569
   2 C :    0.059097
   3 O :   -0.426802
   4 O :   -0.424211
   5 O :   -0.440130
   6 H :    0.068368
   7 H :    0.077442
   8 H :    0.050723
   9 H :    0.089219
  10 H :    0.065288
  11 H :    0.292399
  12 H :    0.301087
  13 H :    0.306766
Sum of atomic charges:   -0.0000000

LOEWDIN ATOMIC CHARGES
----------------------
   0 C :   -0.141556
   1 C :   -0.087253
   2 C :   -0.125681
   3 O :   -0.330982
   4 O :   -0.326513
   5 O :   -0.348046
   6 H :    0.097011
   7 H :    0.101262
   8 H :    0.095426
   9 H :    0.119861
  10 H :    0.093250
  11 H :    0.280648
  12 H :    0.281993
  13 H :    0.290580

  Mayer bond orders larger than 0.100000
B(  0-C ,  1-C ) :   1.0526 B(  0-C ,  5-O ) :   1.0790 B(  0-C ,  6-H ) :   0.9096
B(  0-C ,  7-H ) :   0.9103 B(  1-C ,  2-C ) :   1.0359 B(  1-C ,  4-O ) :   1.0727
B(  1-C ,  8-H ) :   0.8868 B(  2-C ,  3-O ) :   1.0859 B(  2-C ,  9-H ) :   0.9065
B(  2-C , 10-H ) :   0.9217 B(  3-O , 11-H ) :   0.8537 B(  4-O , 12-H ) :   0.8386
B(  5-O , 13-H ) :   0.8487

Dispersion correction           -0.008935985
FINAL SINGLE POINT ENERGY      -344.005808609930

DIPOLE MOMENT
-------------

Method             : SCF
Type of density    : Electron Density
Multiplicity       :   1
Irrep              :   0
Energy             :  -344.0786933180175993 Eh
Relativity type    :
Basis              : AO
                                X                 Y                 Z
Electronic contribution:      0.726112430       1.948074875       1.388787540
Nuclear contribution   :     -1.973799721      -2.637108889      -1.399566087
                        -----------------------------------------
Total Dipole Moment    :     -1.247687291      -0.689034014      -0.010778548
                        -----------------------------------------
Magnitude (a.u.)       :      1.425344740
Magnitude (Debye)      :      3.622938409

Rotational constants in cm-1:             0.260623             0.064631             0.056338
Rotational constants in MHz :          7813.290185          1937.596118          1688.974755

                             ****ORCA TERMINATED NORMALLY****
TOTAL RUN TIME: 0 days 0 hours 0 minutes 6 seconds 953 msec
