                         Program Version 6.0.0  -   RELEASE  -
|  1> ! r2scan-3c def2/J RI DEFGRID2 scfconv6 printgap
|  2> %output
|  3>     printlevel normal
|  4> end
|  5> * xyz 0 1
|  6> C -3.3383882049 0.0507600568 -0.6443816878
|  7> C -2.1721355783 0.2786803605 0.3104133977
|  8> C -0.9146229674 -0.4554383401 -0.151041838
|  9> C 0.2756003999 -0.2511047734 0.7908946515
| 10> C 1.4341079609 -1.1976919426 0.4634277053
| 11> C 2.1459127513 -0.5399463482 -0.7218063973
| 12> C 1.8936963316 0.9710212059 -0.5672097778
| 13> C 0.9325929862 1.1224941456 0.6218576383
| 14> H -3.0916380208 0.4128243233 -1.6400404735
| 15> H -3.5716357188 -1.0094691122 -0.7144412966
| 16> H -4.2253237783 0.5756697549 -0.2978498368
| 17> H -1.9714452481 1.3493810559 0.3813713608
| 18> H -2.4466287038 -0.0712497129 1.3085633985
| 19> H -1.1399137722 -1.5235119109 -0.2082293826
| 20> H -0.6493834488 -0.1190619069 -1.1541515278
| 21> H -0.0697335463 -0.3992156693 1.8185212508
| 22> H 2.108528022 -1.2498693614 1.3197621436
| 23> H 1.0971471286 -2.2076806555 0.2338332305
| 24> H 3.2092899704 -0.7751573552 -0.7280425633
| 25> H 1.7225395982 -0.9020766161 -1.6586265849
| 26> H 2.8209629518 1.5133091095 -0.3863515343
| 27> H 1.4495493423 1.3791234265 -1.4748733845
| 28> H 1.4931041469 1.3652477267 1.5257391907
| 29> H 0.2047650727 1.9146797645 0.4574650884
| 30> *
| 31>
| 32>                          ****END OF INPUT****

CARTESIAN COORDINATES (ANGSTROEM)
---------------------------------
  C     -3.338388    0.050760   -0.644382
  C     -2.172136    0.278680    0.310413
  C     -0.914623   -0.455438   -0.151042
  C      0.275600   -0.251105    0.790895
  C      1.434108   -1.197692    0.463428
  C      2.145913   -0.539946   -0.721806
  C      1.893696    0.971021   -0.567210
  C      0.932593    1.122494    0.621858
  H     -3.091638    0.412824   -1.640040
  H     -3.571636   -1.009469   -0.714441
  H     -4.225324    0.575670   -0.297850
  H     -1.971445    1.349381    0.381371
  H     -2.446629   -0.071250    1.308563
  H     -1.139914   -1.523512   -0.208229
  H     -0.649383   -0.119062   -1.154152
  H     -0.069734   -0.399216    1.818521
  H      2.108528   -1.249869    1.319762
  H      1.097147   -2.207681    0.233833
  H      3.209290   -0.775157   -0.728043
  H      1.722540   -0.902077   -1.658627
  H      2.820963    1.513309   -0.386352
  H      1.449549    1.379123   -1.474873
  H      1.493104    1.365248    1.525739
  H      0.204765    1.914680    0.457465

 Total Charge           Charge          ....    0
 Multiplicity           Mult            ....    1
 Number of Electrons    NEL             ....   64
 Basis Dimension        Dim             ....  232

ORBITAL ENERGIES
----------------

  NO   OCC          E(Eh)            E(eV)
   0   2.0000     -10.023893      -272.7640
   1   2.0000     -10.021251      -272.6921
   2   2.0000     -10.018037      -272.6047
   3   2.0000     -10.017845      -272.5994
   4   2.0000     -10.017340      -272.5857
   5   2.0000     -10.016663      -272.5673
   6   2.0000     -10.016157      -272.5535
   7   2.0000     -10.013564      -272.4829
   8   2.0000      -0.806170       -21.9370
   9   2.0000      -0.747708       -20.3462
  10   2.0000      -0.684847       -18.6356
  11   2.0000      -0.671096       -18.2614
  12   2.0000      -0.624874       -17.0037
  13   2.0000      -0.554630       -15.0923
  14   2.0000      -0.524215       -14.2646
  15   2.0000      -0.507853       -13.8194
  16   2.0000      -0.454564       -12.3693
  17   2.0000      -0.441072       -12.0022
  18   2.0000      -0.424382       -11.5480
  19   2.0000      -0.391830       -10.6622
  20   2.0000      -0.386347       -10.5130
  21   2.0000      -0.363513        -9.8917
  22   2.0000      -0.348736        -9.4896
  23   2.0000      -0.337639        -9.1876
  24   2.0000      -0.313880        -8.5411
  25   2.0000      -0.305463        -8.3121
  26   2.0000      -0.301567        -8.2060
  27   2.0000      -0.298334        -8.1181
  28   2.0000      -0.284226        -7.7342
  29   2.0000      -0.283453        -7.7131
  30   2.0000      -0.274446        -7.4681
  31   2.0000      -0.268543        -7.3074
  32   0.0000       0.075951         2.0667
  33   0.0000       0.097507         2.6533
  34   0.0000       0.105513         2.8712
  35   0.0000       0.119707         3.2574
  36   0.0000       0.122563         3.3351

MULLIKEN ATOMIC CHARGES
-----------------------
   0 C :   -0.475030
   1 C :   -0.237673
   2 C :   -0.356687
   3 C :    0.080410
   4 C :   -0.356173
   5 C :   -0.318285
   6 C :   -0.343764
   7 C :   -0.375103
   8 H :    0.142507
   9 H :    0.141823
  10 H :    0.145899
  11 H :    0.133060
  12 H :    0.139225
  13 H :    0.141037
  14 H :    0.146364
  15 H :    0.151527
  16 H :    0.159566
  17 H :    0.150620
  18 H :    0.151061
  19 H :    0.159605
  20 H :    0.152418
  21 H :    0.160512
  22 H :    0.156510
  23 H :    0.150570
Sum of atomic charges:    0.0000000

LOEWDIN ATOMIC CHARGES
----------------------
   0 C :   -0.425105
   1 C :   -0.313087
   2 C :   -0.295186
   3 C :   -0.229178
   4 C :   -0.298008
   5 C :   -0.308732
   6 C :   -0.310636
   7 C :   -0.298909
   8 H :    0.149213
   9 H :    0.149392
  10 H :    0.149422
  11 H :    0.150391
  12 H :    0.151218
  13 H :    0.157606
  14 H :    0.159381
  15 H :    0.160492
  16 H :    0.157177
  17 H :    0.157831
  18 H :    0.155379
  19 H :    0.154930
  20 H :    0.156343
  21 H :    0.154784
  22 H :    0.157721
  23 H :    0.157560

  Mayer bond orders larger than 0.100000
B(  0-C ,  1-C ) :   0.8973 B(  0-C ,  8-H ) :   0.9856 B(  0-C ,  9-H ) :   0.9848
B(  0-C , 10-H ) :   0.9749 B(  1-C ,  2-C ) :   0.9329 B(  1-C , 11-H ) :   0.9696
B(  1-C , 12-H ) :   0.9759 B(  2-C ,  3-C ) :   0.9382 B(  2-C , 13-H ) :   0.9754
B(  2-C , 14-H ) :   0.9756 B(  3-C ,  4-C ) :   0.8743 B(  3-C ,  7-C ) :   0.8621
B(  3-C , 15-H ) :   0.9428 B(  4-C ,  5-C ) :   0.9040 B(  4-C , 16-H ) :   0.9914
B(  4-C , 17-H ) :   0.9737 B(  5-C ,  6-C ) :   0.9190 B(  5-C , 18-H ) :   0.9632
B(  5-C , 19-H ) :   0.9907 B(  6-C ,  7-C ) :   0.9153 B(  6-C , 20-H ) :   0.9715
B(  6-C , 21-H ) :   0.9967 B(  7-C , 22-H ) :   0.9706 B(  7-C , 23-H ) :   0.9774

Dispersion correction           -0.007009853
FINAL SINGLE POINT ENERGY      -314.381537028155

DIPOLE MOMENT
-------------

Method             : SCF
Type of density    : Electron Density
Multiplicity       :   1
Irrep              :   0
Energy             :  -314.3847524557374413 Eh
Relativity type    :
Basis              : AO
                                X                 Y                 Z
Electronic contribution:      2.868367116      -0.235106783       1.180597633
Nuclear contribution   :     -2.870606283       0.237301643      -1.142073640
                        -----------------------------------------
Total Dipole Moment    :     -0.002239167       0.002194860       0.038523993
                        -----------------------------------------
Magnitude (a.u.)       :      0.038651382
Magnitude (Debye)      :      0.098244004

Rotational constants in cm-1:             0.133885             0.035868             0.034131
Rotational constants in MHz :          4013.784302          1075.291267          1023.220139

                             ****ORCA TERMINATED NORMALLY****
TOTAL RUN TIME: 0 days 0 hours 0 minutes 25 seconds 623 msec
