                         Program Version 6.0.0  -   RELEASE  -
|  1> ! r2scan-3c def2/J RI DEFGRID2 scfconv6 printgap
|  2> %output
|  3>     printlevel normal
|  4> end
|  5> %cpcm
|  6>     smd true
|  7>     smdsolvent "water"
|  8> end
|  9> * xyz 0 1
| 10> C -3.3383882049 0.0507600568 -0.6443816878
| 11> C -2.1721355783 0.2786803605 0.3104133977
| 12> C -0.9146229674 -0.4554383401 -0.151041838
| 13> C 0.2756003999 -0.2511047734 0.7908946515
| 14> C 1.4341079609 -1.1976919426 0.4634277053
| 15> C 2.1459127513 -0.5399463482 -0.7218063973
| 16> C 1.8936963316 0.9710212059 -0.5672097778
| 17> C 0.9325929862 1.1224941456 0.6218576383
| 18> H -3.0916380208 0.4128243233 -1.6400404735
| 19> H -3.5716357188 -1.0094691122 -0.7144412966
| 20> H -4.2253237783 0.5756697549 -0.2978498368
| 21> H -1.9714452481 1.3493810559 0.3813713608
| 22> H -2.4466287038 -0.0712497129 1.3085633985
| 23> H -1.1399137722 -1.5235119109 -0.2082293826
| 24> H -0.6493834488 -0.1190619069 -1.1541515278
| 25> H -0.0697335463 -0.3992156693 1.8185212508
| 26> H 2.108528022 -1.2498693614 1.3197621436
| 27> H 1.0971471286 -2.2076806555 0.2338332305
| 28> H 3.2092899704 -0.7751573552 -0.7280425633
| 29> H 1.7225395982 -0.9020766161 -1.6586265849
| 30> H 2.8209629518 1.5133091095 -0.3863515343
| 31> H 1.4495493423 1.3791234265 -1.4748733845
| 32> H 1.4931041469 1.3652477267 1.5257391907
| 33> H 0.2047650727 1.9146797645 0.4574650884
| 34> *
| 35>
| 36>                          ****END OF INPUT****

CARTESIAN COORDINATES (ANGSTROEM)
---------------------------------
  C     -3.338388    0.050760   -0.644382
  C     -2.172136    0.278680    0.310413
  C     -0.914623   -0.455438   -0.151042
  C      0.275600   -0.251105    0.790895
  C      1.434108   -1.197692    0.463428
  C      2.145913   -0.539946   -0.721806
  C      1.893696    0.971021   -0.567210
  C      0.932593    1.122494    0.621858
  H     -3.091638    0.412824   -1.640040
  H     -3.571636   -1.009469   -0.714441
  H     -4.225324    0.575670   -0.297850
  H     -1.971445    1.349381    0.381371
  H     -2.446629   -0.071250    1.308563
  H     -1.139914   -1.523512   -0.208229
  H     -0.649383   -0.119062   -1.154152
  H     -0.069734   -0.399216    1.818521
  H      2.108528   -1.249869    1.319762
  H      1.097147   -2.207681    0.233833
  H      3.209290   -0.775157   -0.728043
  H      1.722540   -0.902077   -1.658627
  H      2.820963    1.513309   -0.386352
  H      1.449549    1.379123   -1.474873
  H      1.493104    1.365248    1.525739
  H      0.204765    1.914680    0.457465

 Total Charge           Charge          ....    0
 Multiplicity           Mult            ....    1
 Number of Electrons    NEL             ....   64
 Basis Dimension        Dim             ....  232

ORBITAL ENERGIES
----------------

  NO   OCC          E(Eh)            E(eV)
   0   2.0000     -10.017026      -272.5771
   1   2.0000     -10.013759      -272.4882
   2   2.0000     -10.011125      -272.4165
   3   2.0000     -10.010946      -272.4117
   4   2.0000     -10.010035      -272.3869
   5   2.0000     -10.009552      -272.3738
   6   2.0000     -10.009489      -272.3720
   7   2.0000     -10.006675      -272.2955
   8   2.0000      -0.799406       -21.7530
   9   2.0000      -0.740699       -20.1554
  10   2.0000      -0.678315       -18.4579
  11   2.0000      -0.664749       -18.0887
  12   2.0000      -0.618210       -16.8224
  13   2.0000      -0.547780       -14.9058
  14   2.0000      -0.518077       -14.0976
  15   2.0000      -0.501108       -13.6359
  16   2.0000      -0.447636       -12.1808
  17   2.0000      -0.434358       -11.8195
  18   2.0000      -0.417104       -11.3500
  19   2.0000      -0.384969       -10.4755
  20   2.0000      -0.379460       -10.3256
  21   2.0000      -0.356597        -9.7035
  22   2.0000      -0.341568        -9.2945
  23   2.0000      -0.330816        -9.0020
  24   2.0000      -0.307051        -8.3553
  25   2.0000      -0.298567        -8.1244
  26   2.0000      -0.295193        -8.0326
  27   2.0000      -0.291854        -7.9418
  28   2.0000      -0.277146        -7.5415
  29   2.0000      -0.276279        -7.5179
  30   2.0000      -0.267279        -7.2730
  31   2.0000      -0.261531        -7.1166
  32   0.0000       0.084417         2.2971
  33   0.0000       0.105104         2.8600
  34   0.0000       0.112594         3.0638
  35   0.0000       0.124439         3.3862
  36   0.0000       0.128157         3.4873

MULLIKEN ATOMIC CHARGES
-----------------------
   0 C :   -0.517447
   1 C :   -0.253310
   2 C :   -0.361118
   3 C :    0.069810
   4 C :   -0.377086
   5 C :   -0.337870
   6 C :   -0.356091
   7 C :   -0.395897
   8 H :    0.154156
   9 H :    0.152874
  10 H :    0.155370
  11 H :    0.144440
  12 H :    0.147728
  13 H :    0.150085
  14 H :    0.155754
  15 H :    0.159216
  16 H :    0.168254
  17 H :    0.159401
  18 H :    0.159075
  19 H :    0.167427
  20 H :    0.160498
  21 H :    0.168477
  22 H :    0.164428
  23 H :    0.161824
Sum of atomic charges:    0.0000000

LOEWDIN ATOMIC CHARGES
----------------------
   0 C :   -0.434047
   1 C :   -0.316036
   2 C :   -0.297860
   3 C :   -0.229658
   4 C :   -0.302512
   5 C :   -0.313117
   6 C :   -0.314630
   7 C :   -0.303305
   8 H :    0.151706
   9 H :    0.151641
  10 H :    0.151486
  11 H :    0.152999
  12 H :    0.152827
  13 H :    0.159517
  14 H :    0.161921
  15 H :    0.162022
  16 H :    0.159105
  17 H :    0.159698
  18 H :    0.156950
  19 H :    0.156626
  20 H :    0.157929
  21 H :    0.157085
  22 H :    0.159311
  23 H :    0.160341

  Mayer bond orders larger than 0.100000
B(  0-C ,  1-C ) :   0.8876 B(  0-C ,  8-H ) :   0.9834 B(  0-C ,  9-H ) :   0.9827
B(  0-C , 10-H ) :   0.9722 B(  1-C ,  2-C ) :   0.9254 B(  1-C , 11-H ) :   0.9697
B(  1-C , 12-H ) :   0.9758 B(  2-C ,  3-C ) :   0.9368 B(  2-C , 13-H ) :   0.9736
B(  2-C , 14-H ) :   0.9719 B(  3-C ,  4-C ) :   0.8733 B(  3-C ,  7-C ) :   0.8605
B(  3-C , 15-H ) :   0.9456 B(  4-C ,  5-C ) :   0.9022 B(  4-C , 16-H ) :   0.9899
B(  4-C , 17-H ) :   0.9722 B(  5-C ,  6-C ) :   0.9148 B(  5-C , 18-H ) :   0.9626
B(  5-C , 19-H ) :   0.9893 B(  6-C ,  7-C ) :   0.9134 B(  6-C , 20-H ) :   0.9710
B(  6-C , 21-H ) :   0.9939 B(  7-C , 22-H ) :   0.9700 B(  7-C , 23-H ) :   0.9750

Dispersion correction           -0.007009853
FINAL SINGLE POINT ENERGY      -314.378896039579

DIPOLE MOMENT
-------------

Method             : SCF
Type of density    : Electron Density
Multiplicity       :   1
Irrep              :   0
Energy             :  -314.3821114671615078 Eh
Relativity type    :
Basis              : AO
                                X                 Y                 Z
Electronic contribution:      2.862938736      -0.228604251       1.183637518
Nuclear contribution   :     -2.870606283       0.237301643      -1.142073640
                        -----------------------------------------
Total Dipole Moment    :     -0.007667547       0.008697392       0.041563878
                        -----------------------------------------
Magnitude (a.u.)       :      0.043150803
Magnitude (Debye)      :      0.109680626

Rotational constants in cm-1:             0.133885             0.035868             0.034131
Rotational constants in MHz :          4013.784302          1075.291267          1023.220139

                             ****ORCA TERMINATED NORMALLY****
TOTAL RUN TIME: 0 days 0 hours 0 minutes 30 seconds 230 msec
