                         Program Version 6.0.0  -   RELEASE  -
|  1> ! r2scan-3c def2/J RI DEFGRID2 scfconv6 printgap
|  2> %output
|  3>     printlevel normal
|  4> end
|  5> * xyz 0 1
|  6> C -1.4486161979 0.0758227491 0.6263052924
|  7> C 0.0646951572 0.3112518108 0.5460010061
|  8> C 0.795200423 -0.9442766946 0.0595897405
|  9> O 2.167219375 -0.624521571 -0.0525819616
| 10> O 0.2735676464 1.38948629 -0.3427987829
| 11> O -1.9980909277 -0.23974267 -0.6285881724
| 12> H -1.9199621396 0.9785601628 1.0343745164
| 13> H -1.6624141173 -0.769326169 1.2818646586
| 14> H 0.4419803847 0.5755343054 1.5454180099
| 15> H 0.3810282328 -1.2432378928 -0.9106292651
| 16> H 0.6355685899 -1.7514762875 0.7833820733
| 17> H 2.651887004 -1.3934079805 -0.3798031961
| 18> H 1.2206033773 1.4292878282 -0.5428779767
| 19> H -1.7605037339 0.4767117472 -1.2373154973
| 20> *
| 21>
| 22>                          ****END OF INPUT****

CARTESIAN COORDINATES (ANGSTROEM)
---------------------------------
  C     -1.448616    0.075823    0.626305
  C      0.064695    0.311252    0.546001
  C      0.795200   -0.944277    0.059590
  O      2.167219   -0.624522   -0.052582
  O      0.273568    1.389486   -0.342799
  O     -1.998091   -0.239743   -0.628588
  H     -1.919962    0.978560    1.034375
  H     -1.662414   -0.769326    1.281865
  H      0.441980    0.575534    1.545418
  H      0.381028   -1.243238   -0.910629
  H      0.635569   -1.751476    0.783382
  H      2.651887   -1.393408   -0.379803
  H      1.220603    1.429288   -0.542878
  H     -1.760504    0.476712   -1.237315

 Total Charge           Charge          ....    0
 Multiplicity           Mult            ....    1
 Number of Electrons    NEL             ....   50
 Basis Dimension        Dim             ....  169

ORBITAL ENERGIES
----------------

  NO   OCC          E(Eh)            E(eV)
   0   2.0000     -18.964238      -516.0431
   1   2.0000     -18.953765      -515.7582
   2   2.0000     -18.946285      -515.5546
   3   2.0000     -10.085667      -274.4450
   4   2.0000     -10.080941      -274.3164
   5   2.0000     -10.078294      -274.2443
   6   2.0000      -1.010481       -27.4966
   7   2.0000      -0.991730       -26.9864
   8   2.0000      -0.975559       -26.5463
   9   2.0000      -0.728335       -19.8190
  10   2.0000      -0.645954       -17.5773
  11   2.0000      -0.567601       -15.4452
  12   2.0000      -0.503823       -13.7097
  13   2.0000      -0.481991       -13.1156
  14   2.0000      -0.467836       -12.7305
  15   2.0000      -0.435781       -11.8582
  16   2.0000      -0.404533       -11.0079
  17   2.0000      -0.390182       -10.6174
  18   2.0000      -0.371281       -10.1031
  19   2.0000      -0.335240        -9.1223
  20   2.0000      -0.313419        -8.5286
  21   2.0000      -0.297745        -8.1021
  22   2.0000      -0.254907        -6.9364
  23   2.0000      -0.244062        -6.6413
  24   2.0000      -0.233840        -6.3631
  25   0.0000       0.042430         1.1546
  26   0.0000       0.065276         1.7763
  27   0.0000       0.098908         2.6914
  28   0.0000       0.109856         2.9893
  29   0.0000       0.134472         3.6592

MULLIKEN ATOMIC CHARGES
-----------------------
   0 C :   -0.188582
   1 C :    0.122337
   2 C :   -0.206026
   3 O :   -0.443395
   4 O :   -0.463134
   5 O :   -0.439088
   6 H :    0.141207
   7 H :    0.135060
   8 H :    0.135166
   9 H :    0.154386
  10 H :    0.120719
  11 H :    0.299271
  12 H :    0.314445
  13 H :    0.317635
Sum of atomic charges:   -0.0000000

LOEWDIN ATOMIC CHARGES
----------------------
   0 C :    0.029051
   1 C :    0.077362
   2 C :    0.023585
   3 O :   -0.624881
   4 O :   -0.591262
   5 O :   -0.603455
   6 H :    0.168003
   7 H :    0.180918
   8 H :    0.173029
   9 H :    0.173764
  10 H :    0.163640
  11 H :    0.270948
  12 H :    0.282834
  13 H :    0.276464

  Mayer bond orders larger than 0.100000
B(  0-C ,  1-C ) :   0.9478 B(  0-C ,  5-O ) :   0.9748 B(  0-C ,  6-H ) :   0.9666
B(  0-C ,  7-H ) :   0.9705 B(  1-C ,  2-C ) :   0.9578 B(  1-C ,  4-O ) :   0.8757
B(  1-C ,  8-H ) :   0.9261 B(  2-C ,  3-O ) :   0.9432 B(  2-C ,  9-H ) :   0.9703
B(  2-C , 10-H ) :   0.9543 B(  3-O , 11-H ) :   0.8978 B(  4-O , 12-H ) :   0.8722
B(  5-O , 13-H ) :   0.8734

Dispersion correction           -0.003027028
FINAL SINGLE POINT ENERGY      -344.728011151552

DIPOLE MOMENT
-------------

Method             : SCF
Type of density    : Electron Density
Multiplicity       :   1
Irrep              :   0
Energy             :  -344.7356935564291120 Eh
Relativity type    :
Basis              : AO
                                X                 Y                 Z
Electronic contribution:      0.630096870       1.152392668      -1.336226130
Nuclear contribution   :     -0.004507454      -1.584612353       1.461865359
                        -----------------------------------------
Total Dipole Moment    :      0.625589416      -0.432219685       0.125639229
                        -----------------------------------------
Magnitude (a.u.)       :      0.770688776
Magnitude (Debye)      :      1.958935189

Rotational constants in cm-1:             0.205605             0.076320             0.066609
Rotational constants in MHz :          6163.892475          2288.003704          1996.888180

                             ****ORCA TERMINATED NORMALLY****
TOTAL RUN TIME: 0 days 0 hours 0 minutes 21 seconds 0 msec
