                         Program Version 6.0.0  -   RELEASE  -
|  1> ! r2scan-3c def2/J RI DEFGRID2 scfconv6 printgap
|  2> %output
|  3>     printlevel normal
|  4> end
|  5> %cpcm
|  6>     smd true
|  7>     smdsolvent "water"
|  8> end
|  9> * xyz 0 1
| 10> C -1.4486161979 0.0758227491 0.6263052924
| 11> C 0.0646951572 0.3112518108 0.5460010061
| 12> C 0.795200423 -0.9442766946 0.0595897405
| 13> O 2.167219375 -0.624521571 -0.0525819616
| 14> O 0.2735676464 1.38948629 -0.3427987829
| 15> O -1.9980909277 -0.23974267 -0.6285881724
| 16> H -1.9199621396 0.9785601628 1.0343745164
| 17> H -1.6624141173 -0.769326169 1.2818646586
| 18> H 0.4419803847 0.5755343054 1.5454180099
| 19> H 0.3810282328 -1.2432378928 -0.9106292651
| 20> H 0.6355685899 -1.7514762875 0.7833820733
| 21> H 2.651887004 -1.3934079805 -0.3798031961
| 22> H 1.2206033773 1.4292878282 -0.5428779767
| 23> H -1.7605037339 0.4767117472 -1.2373154973
| 24> *
| 25>
| 26>                          ****END OF INPUT****

CARTESIAN COORDINATES (ANGSTROEM)
---------------------------------
  C     -1.448616    0.075823    0.626305
  C      0.064695    0.311252    0.546001
  C      0.795200   -0.944277    0.059590
  O      2.167219   -0.624522   -0.052582
  O      0.273568    1.389486   -0.342799
  O     -1.998091   -0.239743   -0.628588
  H     -1.919962    0.978560    1.034375
  H     -1.662414   -0.769326    1.281865
  H      0.441980    0.575534    1.545418
  H      0.381028   -1.243238   -0.910629
  H      0.635569   -1.751476    0.783382
  H      2.651887   -1.393408   -0.379803
  H      1.220603    1.429288   -0.542878
  H     -1.760504    0.476712   -1.237315

 Total Charge           Charge          ....    0
 Multiplicity           Mult            ....    1
 Number of Electrons    NEL             ....   50
 Basis Dimension        Dim             ....  169

ORBITAL ENERGIES
----------------

  NO   OCC          E(Eh)            E(eV)
   0   2.0000     -18.956083      -515.8212
   1   2.0000     -18.955880      -515.8157
   2   2.0000     -18.953951      -515.7632
   3   2.0000     -10.080440      -274.3027
   4   2.0000     -10.073818      -274.1225
   5   2.0000     -10.071236      -274.0523
   6   2.0000      -1.009089       -27.4587
   7   2.0000      -0.990474       -26.9522
   8   2.0000      -0.977395       -26.5963
   9   2.0000      -0.723038       -19.6749
  10   2.0000      -0.639891       -17.4123
  11   2.0000      -0.564989       -15.3741
  12   2.0000      -0.496124       -13.5002
  13   2.0000      -0.476054       -12.9541
  14   2.0000      -0.466900       -12.7050
  15   2.0000      -0.431992       -11.7551
  16   2.0000      -0.401730       -10.9316
  17   2.0000      -0.390278       -10.6200
  18   2.0000      -0.367892       -10.0109
  19   2.0000      -0.335287        -9.1236
  20   2.0000      -0.313989        -8.5441
  21   2.0000      -0.301886        -8.2147
  22   2.0000      -0.251754        -6.8506
  23   2.0000      -0.245885        -6.6909
  24   2.0000      -0.237710        -6.4684
  25   0.0000       0.057873         1.5748
  26   0.0000       0.074828         2.0362
  27   0.0000       0.110404         3.0042
  28   0.0000       0.123549         3.3619
  29   0.0000       0.143268         3.8985

MULLIKEN ATOMIC CHARGES
-----------------------
   0 C :   -0.193962
   1 C :    0.124034
   2 C :   -0.218492
   3 O :   -0.506186
   4 O :   -0.518856
   5 O :   -0.509362
   6 H :    0.152880
   7 H :    0.161752
   8 H :    0.151203
   9 H :    0.153961
  10 H :    0.149852
  11 H :    0.349613
  12 H :    0.348716
  13 H :    0.354848
Sum of atomic charges:    0.0000000

LOEWDIN ATOMIC CHARGES
----------------------
   0 C :    0.029146
   1 C :    0.078166
   2 C :    0.027085
   3 O :   -0.643767
   4 O :   -0.617365
   5 O :   -0.638040
   6 H :    0.173693
   7 H :    0.191311
   8 H :    0.181083
   9 H :    0.174025
  10 H :    0.175229
  11 H :    0.288897
  12 H :    0.292641
  13 H :    0.287896

  Mayer bond orders larger than 0.100000
B(  0-C ,  1-C ) :   0.9562 B(  0-C ,  5-O ) :   0.9531 B(  0-C ,  6-H ) :   0.9591
B(  0-C ,  7-H ) :   0.9635 B(  1-C ,  2-C ) :   0.9534 B(  1-C ,  4-O ) :   0.8632
B(  1-C ,  8-H ) :   0.9175 B(  2-C ,  3-O ) :   0.9348 B(  2-C ,  9-H ) :   0.9696
B(  2-C , 10-H ) :   0.9554 B(  3-O , 11-H ) :   0.8715 B(  4-O , 12-H ) :   0.8562
B(  5-O , 13-H ) :   0.8547

Dispersion correction           -0.003027028
FINAL SINGLE POINT ENERGY      -344.745444487596

DIPOLE MOMENT
-------------

Method             : SCF
Type of density    : Electron Density
Multiplicity       :   1
Irrep              :   0
Energy             :  -344.7531268924732331 Eh
Relativity type    :
Basis              : AO
                                X                 Y                 Z
Electronic contribution:      0.803908676       0.982847896      -1.221462133
Nuclear contribution   :     -0.004507454      -1.584612353       1.461865359
                        -----------------------------------------
Total Dipole Moment    :      0.799401222      -0.601764457       0.240403225
                        -----------------------------------------
Magnitude (a.u.)       :      1.029056114
Magnitude (Debye)      :      2.615652772

Rotational constants in cm-1:             0.205605             0.076320             0.066609
Rotational constants in MHz :          6163.892475          2288.003704          1996.888180

                             ****ORCA TERMINATED NORMALLY****
TOTAL RUN TIME: 0 days 0 hours 0 minutes 23 seconds 631 msec
