                         Program Version 6.0.0  -   RELEASE  -
|  1> ! pbe def2-sv(p) def2/J RI DEFGRID1 loosescf d4 GCP(DFT/SV(P)) printgap
|  2> %output
|  3>     printlevel normal
|  4> end
|  5> * xyz 0 1
|  6> C 1.544994208 0.263359225 -1.1710406609
|  7> C 1.1106046296 -0.2279061805 0.2057718264
|  8> H 0.9347495078 -1.313220884 0.1614442621
|  9> C -0.1348435812 0.4779857442 0.7641801208
| 10> C -1.5074083216 0.1355596999 0.1594644137
| 11> C -1.7483698261 0.7580098524 -1.2145532207
| 12> C -1.7661013119 -1.3694527652 0.1150264444
| 13> O 2.2196712876 0.0088760218 1.0699054511
| 14> H 1.5504386449 1.3493511585 -1.1981395187
| 15> H 2.5557431637 -0.0898860342 -1.3610571699
| 16> H 0.8900469763 -0.1164322169 -1.946175202
| 17> H -0.1857913289 0.2317081227 1.8296317858
| 18> H 0.0272859355 1.5560979133 0.6913088278
| 19> H -2.2419347937 0.5784927447 0.8439193557
| 20> H -1.1748974734 0.2522573068 -1.9849133794
| 21> H -1.4765940706 1.8104016382 -1.2142164194
| 22> H -2.8016359879 0.6768194729 -1.4744070445
| 23> H -1.5739024729 -1.8233137908 1.0844135755
| 24> H -2.8029592096 -1.5594174934 -0.152066469
| 25> H -1.1338571987 -1.8503174105 -0.6271577882
| 26> H 2.0037954637 -0.2909828775 1.9626749363
| 27> *
| 28>
| 29>                          ****END OF INPUT****

CARTESIAN COORDINATES (ANGSTROEM)
---------------------------------
  C      1.544994    0.263359   -1.171041
  C      1.110605   -0.227906    0.205772
  H      0.934750   -1.313221    0.161444
  C     -0.134844    0.477986    0.764180
  C     -1.507408    0.135560    0.159464
  C     -1.748370    0.758010   -1.214553
  C     -1.766101   -1.369453    0.115026
  O      2.219671    0.008876    1.069905
  H      1.550439    1.349351   -1.198140
  H      2.555743   -0.089886   -1.361057
  H      0.890047   -0.116432   -1.946175
  H     -0.185791    0.231708    1.829632
  H      0.027286    1.556098    0.691309
  H     -2.241935    0.578493    0.843919
  H     -1.174897    0.252257   -1.984913
  H     -1.476594    1.810402   -1.214216
  H     -2.801636    0.676819   -1.474407
  H     -1.573902   -1.823314    1.084414
  H     -2.802959   -1.559417   -0.152066
  H     -1.133857   -1.850317   -0.627158
  H      2.003795   -0.290983    1.962675

 Total Charge           Charge          ....    0
 Multiplicity           Mult            ....    1
 Number of Electrons    NEL             ....   58
 Basis Dimension        Dim             ....  126

ORBITAL ENERGIES
----------------

  NO   OCC          E(Eh)            E(eV)
   0   2.0000     -18.732978      -509.7502
   1   2.0000      -9.933796      -270.3123
   2   2.0000      -9.897580      -269.3268
   3   2.0000      -9.881394      -268.8864
   4   2.0000      -9.875281      -268.7201
   5   2.0000      -9.872731      -268.6507
   6   2.0000      -9.868561      -268.5372
   7   2.0000      -0.910022       -24.7630
   8   2.0000      -0.732299       -19.9269
   9   2.0000      -0.671391       -18.2695
  10   2.0000      -0.615730       -16.7549
  11   2.0000      -0.611209       -16.6318
  12   2.0000      -0.531787       -14.4707
  13   2.0000      -0.491906       -13.3854
  14   2.0000      -0.458857       -12.4861
  15   2.0000      -0.415776       -11.3138
  16   2.0000      -0.399704       -10.8765
  17   2.0000      -0.390197       -10.6178
  18   2.0000      -0.371836       -10.1182
  19   2.0000      -0.349960        -9.5229
  20   2.0000      -0.345461        -9.4005
  21   2.0000      -0.329518        -8.9666
  22   2.0000      -0.316686        -8.6175
  23   2.0000      -0.313663        -8.5352
  24   2.0000      -0.295149        -8.0314
  25   2.0000      -0.286669        -7.8007
  26   2.0000      -0.279405        -7.6030
  27   2.0000      -0.262193        -7.1346
  28   2.0000      -0.205620        -5.5952
  29   0.0000       0.021880         0.5954
  30   0.0000       0.044796         1.2190
  31   0.0000       0.057449         1.5633
  32   0.0000       0.068833         1.8730
  33   0.0000       0.086627         2.3572

MULLIKEN ATOMIC CHARGES
-----------------------
   0 C :   -0.235930
   1 C :    0.006077
   2 H :    0.061748
   3 C :   -0.137814
   4 C :   -0.163052
   5 C :   -0.245261
   6 C :   -0.259871
   7 O :   -0.433982
   8 H :    0.094209
   9 H :    0.108191
  10 H :    0.105142
  11 H :    0.060155
  12 H :    0.081388
  13 H :    0.070266
  14 H :    0.101057
  15 H :    0.097115
  16 H :    0.097608
  17 H :    0.095896
  18 H :    0.099066
  19 H :    0.107469
  20 H :    0.290522
Sum of atomic charges:   -0.0000000

LOEWDIN ATOMIC CHARGES
----------------------
   0 C :   -0.340521
   1 C :   -0.054314
   2 H :    0.095960
   3 C :   -0.231645
   4 C :   -0.156499
   5 C :   -0.331418
   6 C :   -0.332656
   7 O :   -0.338599
   8 H :    0.120993
   9 H :    0.126576
  10 H :    0.119568
  11 H :    0.108271
  12 H :    0.117204
  13 H :    0.117328
  14 H :    0.115146
  15 H :    0.117703
  16 H :    0.118519
  17 H :    0.115813
  18 H :    0.119204
  19 H :    0.116007
  20 H :    0.277359

  Mayer bond orders larger than 0.100000
B(  0-C ,  1-C ) :   1.1266 B(  0-C ,  8-H ) :   0.9414 B(  0-C ,  9-H ) :   0.9387
B(  0-C , 10-H ) :   0.9353 B(  1-C ,  2-H ) :   0.9075 B(  1-C ,  3-C ) :   1.0733
B(  1-C ,  7-O ) :   1.0347 B(  3-C ,  4-C ) :   1.0670 B(  3-C , 11-H ) :   0.9108
B(  3-C , 12-H ) :   0.9073 B(  4-C ,  5-C ) :   1.1236 B(  4-C ,  6-C ) :   1.1076
B(  4-C , 13-H ) :   0.8941 B(  5-C , 14-H ) :   0.9399 B(  5-C , 15-H ) :   0.9489
B(  5-C , 16-H ) :   0.9477 B(  6-C , 17-H ) :   0.9512 B(  6-C , 18-H ) :   0.9488
B(  6-C , 19-H ) :   0.9413 B(  7-O , 20-H ) :   0.8526

Dispersion correction           -0.016822122
FINAL SINGLE POINT ENERGY      -311.514463300648

DIPOLE MOMENT
-------------

Method             : SCF
Type of density    : Electron Density
Multiplicity       :   1
Irrep              :   0
Energy             :  -311.5936188454532498 Eh
Relativity type    :
Basis              : AO
                                X                 Y                 Z
Electronic contribution:      4.516586766       0.322207236       3.379484527
Nuclear contribution   :     -5.060829389      -0.551923435      -3.159561692
                        -----------------------------------------
Total Dipole Moment    :     -0.544242623      -0.229716199       0.219922834
                        -----------------------------------------
Magnitude (a.u.)       :      0.630345634
Magnitude (Debye)      :      1.602211272

Rotational constants in cm-1:             0.130058             0.052991             0.046316
Rotational constants in MHz :          3899.044468          1588.616819          1388.522786

                             ****ORCA TERMINATED NORMALLY****
TOTAL RUN TIME: 0 days 0 hours 0 minutes 9 seconds 624 msec
