                         Program Version 6.0.0  -   RELEASE  -
|  1> ! r2scan-3c def2/J RI DEFGRID2 scfconv6 printgap
|  2> %output
|  3>     printlevel normal
|  4> end
|  5> * xyz 0 1
|  6> C -4.0840053857 0.4970641705 0.9478491985
|  7> C -3.449669148 0.5016319642 -0.4351569984
|  8> O -2.0236249444 0.6322334115 -0.3522978626
|  9> C -1.2999562336 -0.4785173034 -0.1950660246
| 10> O -1.7973981987 -1.5917108005 -0.1459231474
| 11> C 0.1434781625 -0.2154470152 -0.1017290345
| 12> C 0.6614720096 1.0784785363 -0.158021337
| 13> C 2.0206835226 1.2872021683 -0.0664695151
| 14> C 2.889859286 0.2059139541 0.0833078718
| 15> C 2.3730462806 -1.0909883675 0.1405919415
| 16> C 1.0162817765 -1.2956776726 0.0491831723
| 17> O 4.2243338914 0.3578700428 0.1768093177
| 18> H -5.1640185566 0.4652702523 0.848119198
| 19> H -3.7542164832 -0.3774565847 1.5044816596
| 20> H -3.7982291467 1.3922331797 1.4935548889
| 21> H -3.7709304186 1.3669418436 -1.0161438077
| 22> H -3.6864160363 -0.424019805 -0.9691790687
| 23> H -0.0115803653 1.9125874586 -0.2739484546
| 24> H 2.4131799391 2.291977304 -0.1109897572
| 25> H 3.0580262605 -1.9151287189 0.2568457799
| 26> H 0.6009215871 -2.2909407177 0.0915562133
| 27> H 4.4793746146 1.2932347591 0.125910268
| 28> *
| 29>
| 30>                          ****END OF INPUT****

CARTESIAN COORDINATES (ANGSTROEM)
---------------------------------
  C     -4.084005    0.497064    0.947849
  C     -3.449669    0.501632   -0.435157
  O     -2.023625    0.632233   -0.352298
  C     -1.299956   -0.478517   -0.195066
  O     -1.797398   -1.591711   -0.145923
  C      0.143478   -0.215447   -0.101729
  C      0.661472    1.078479   -0.158021
  C      2.020684    1.287202   -0.066470
  C      2.889859    0.205914    0.083308
  C      2.373046   -1.090988    0.140592
  C      1.016282   -1.295678    0.049183
  O      4.224334    0.357870    0.176809
  H     -5.164019    0.465270    0.848119
  H     -3.754216   -0.377457    1.504482
  H     -3.798229    1.392233    1.493555
  H     -3.770930    1.366942   -1.016144
  H     -3.686416   -0.424020   -0.969179
  H     -0.011580    1.912587   -0.273948
  H      2.413180    2.291977   -0.110990
  H      3.058026   -1.915129    0.256846
  H      0.600922   -2.290941    0.091556
  H      4.479375    1.293235    0.125910

 Total Charge           Charge          ....    0
 Multiplicity           Mult            ....    1
 Number of Electrons    NEL             ....   88
 Basis Dimension        Dim             ....  293

ORBITAL ENERGIES
----------------

  NO   OCC          E(Eh)            E(eV)
   0   2.0000     -19.002363      -517.0806
   1   2.0000     -18.992807      -516.8206
   2   2.0000     -18.923124      -514.9244
   3   2.0000     -10.150648      -276.2132
   4   2.0000     -10.113800      -275.2105
   5   2.0000     -10.088706      -274.5276
   6   2.0000     -10.050258      -273.4814
   7   2.0000     -10.046763      -273.3863
   8   2.0000     -10.046638      -273.3829
   9   2.0000     -10.046324      -273.3744
  10   2.0000     -10.040865      -273.2258
  11   2.0000     -10.025786      -272.8155
  12   2.0000      -1.066499       -29.0209
  13   2.0000      -1.049133       -28.5483
  14   2.0000      -0.969770       -26.3888
  15   2.0000      -0.836132       -22.7523
  16   2.0000      -0.751920       -20.4608
  17   2.0000      -0.731620       -19.9084
  18   2.0000      -0.720964       -19.6184
  19   2.0000      -0.641468       -17.4552
  20   2.0000      -0.602034       -16.3822
  21   2.0000      -0.593789       -16.1578
  22   2.0000      -0.532447       -14.4886
  23   2.0000      -0.528745       -14.3879
  24   2.0000      -0.497233       -13.5304
  25   2.0000      -0.461858       -12.5678
  26   2.0000      -0.443826       -12.0771
  27   2.0000      -0.428030       -11.6473
  28   2.0000      -0.419227       -11.4077
  29   2.0000      -0.414562       -11.2808
  30   2.0000      -0.403895       -10.9905
  31   2.0000      -0.398546       -10.8450
  32   2.0000      -0.376651       -10.2492
  33   2.0000      -0.375072       -10.2062
  34   2.0000      -0.359218        -9.7748
  35   2.0000      -0.355223        -9.6661
  36   2.0000      -0.337391        -9.1809
  37   2.0000      -0.318712        -8.6726
  38   2.0000      -0.316751        -8.6192
  39   2.0000      -0.303278        -8.2526
  40   2.0000      -0.268386        -7.3031
  41   2.0000      -0.249702        -6.7947
  42   2.0000      -0.235693        -6.4135
  43   2.0000      -0.218895        -5.9564
  44   0.0000      -0.064510        -1.7554
  45   0.0000      -0.042191        -1.1481
  46   0.0000       0.035693         0.9712
  47   0.0000       0.045465         1.2372
  48   0.0000       0.070406         1.9158

MULLIKEN ATOMIC CHARGES
-----------------------
   0 C :   -0.467016
   1 C :   -0.140719
   2 O :   -0.161305
   3 C :    0.366227
   4 O :   -0.441531
   5 C :    0.061813
   6 C :   -0.183533
   7 C :   -0.327249
   8 C :    0.451072
   9 C :   -0.303428
  10 C :   -0.214302
  11 O :   -0.399511
  12 H :    0.146225
  13 H :    0.174517
  14 H :    0.150556
  15 H :    0.146895
  16 H :    0.169357
  17 H :    0.173202
  18 H :    0.139100
  19 H :    0.157604
  20 H :    0.182852
  21 H :    0.319171
Sum of atomic charges:    0.0000000

LOEWDIN ATOMIC CHARGES
----------------------
   0 C :   -0.390555
   1 C :    0.029415
   2 O :   -0.608229
   3 C :    0.386684
   4 O :   -0.450425
   5 C :   -0.053231
   6 C :   -0.100235
   7 C :   -0.170798
   8 C :    0.197987
   9 C :   -0.137529
  10 C :   -0.092362
  11 O :   -0.480215
  12 H :    0.158639
  13 H :    0.165893
  14 H :    0.156411
  15 H :    0.176831
  16 H :    0.189343
  17 H :    0.189274
  18 H :    0.169971
  19 H :    0.182374
  20 H :    0.191776
  21 H :    0.288982

  Mayer bond orders larger than 0.100000
B(  0-C ,  1-C ) :   0.9339 B(  0-C , 12-H ) :   0.9651 B(  0-C , 13-H ) :   0.9724
B(  0-C , 14-H ) :   0.9739 B(  1-C ,  2-O ) :   0.8077 B(  1-C , 15-H ) :   0.9642
B(  1-C , 16-H ) :   0.9697 B(  2-O ,  3-C ) :   1.1545 B(  2-O ,  5-C ) :  -0.1266
B(  3-C ,  4-O ) :   1.8735 B(  3-C ,  5-C ) :   1.0416 B(  4-O ,  5-C ) :  -0.1003
B(  5-C ,  6-C ) :   1.3876 B(  5-C , 10-C ) :   1.4538 B(  6-C ,  7-C ) :   1.3894
B(  6-C , 17-H ) :   0.9411 B(  7-C ,  8-C ) :   1.3079 B(  7-C , 18-H ) :   0.9255
B(  8-C ,  9-C ) :   1.3744 B(  8-C , 11-O ) :   0.9423 B(  9-C , 10-C ) :   1.3516
B(  9-C , 11-O ) :   0.1005 B(  9-C , 19-H ) :   0.9592 B( 10-C , 20-H ) :   0.9422
B( 11-O , 21-H ) :   0.8771

Dispersion correction           -0.007423758
FINAL SINGLE POINT ENERGY      -574.553799815117

DIPOLE MOMENT
-------------

Method             : SCF
Type of density    : Electron Density
Multiplicity       :   1
Irrep              :   0
Energy             :  -574.5571568100590412 Eh
Relativity type    :
Basis              : AO
                                X                 Y                 Z
Electronic contribution:      9.396939607      -2.173073242      -1.824056251
Nuclear contribution   :     -9.032258606       3.476110897       1.824866331
                        -----------------------------------------
Total Dipole Moment    :      0.364681001       1.303037655       0.000810079
                        -----------------------------------------
Magnitude (a.u.)       :      1.353107542
Magnitude (Debye)      :      3.439326043

Rotational constants in cm-1:             0.095936             0.014718             0.013254
Rotational constants in MHz :          2876.094416           441.247464           397.352728

                             ****ORCA TERMINATED NORMALLY****
TOTAL RUN TIME: 0 days 0 hours 0 minutes 42 seconds 985 msec
