                         Program Version 6.0.0  -   RELEASE  -
|  1> ! r2scan-3c def2/J RI DEFGRID2 scfconv6 printgap
|  2> %output
|  3>     printlevel normal
|  4> end
|  5> %cpcm
|  6>     smd true
|  7>     smdsolvent "water"
|  8> end
|  9> * xyz 0 1
| 10> C -4.0840053857 0.4970641705 0.9478491985
| 11> C -3.449669148 0.5016319642 -0.4351569984
| 12> O -2.0236249444 0.6322334115 -0.3522978626
| 13> C -1.2999562336 -0.4785173034 -0.1950660246
| 14> O -1.7973981987 -1.5917108005 -0.1459231474
| 15> C 0.1434781625 -0.2154470152 -0.1017290345
| 16> C 0.6614720096 1.0784785363 -0.158021337
| 17> C 2.0206835226 1.2872021683 -0.0664695151
| 18> C 2.889859286 0.2059139541 0.0833078718
| 19> C 2.3730462806 -1.0909883675 0.1405919415
| 20> C 1.0162817765 -1.2956776726 0.0491831723
| 21> O 4.2243338914 0.3578700428 0.1768093177
| 22> H -5.1640185566 0.4652702523 0.848119198
| 23> H -3.7542164832 -0.3774565847 1.5044816596
| 24> H -3.7982291467 1.3922331797 1.4935548889
| 25> H -3.7709304186 1.3669418436 -1.0161438077
| 26> H -3.6864160363 -0.424019805 -0.9691790687
| 27> H -0.0115803653 1.9125874586 -0.2739484546
| 28> H 2.4131799391 2.291977304 -0.1109897572
| 29> H 3.0580262605 -1.9151287189 0.2568457799
| 30> H 0.6009215871 -2.2909407177 0.0915562133
| 31> H 4.4793746146 1.2932347591 0.125910268
| 32> *
| 33>
| 34>                          ****END OF INPUT****

CARTESIAN COORDINATES (ANGSTROEM)
---------------------------------
  C     -4.084005    0.497064    0.947849
  C     -3.449669    0.501632   -0.435157
  O     -2.023625    0.632233   -0.352298
  C     -1.299956   -0.478517   -0.195066
  O     -1.797398   -1.591711   -0.145923
  C      0.143478   -0.215447   -0.101729
  C      0.661472    1.078479   -0.158021
  C      2.020684    1.287202   -0.066470
  C      2.889859    0.205914    0.083308
  C      2.373046   -1.090988    0.140592
  C      1.016282   -1.295678    0.049183
  O      4.224334    0.357870    0.176809
  H     -5.164019    0.465270    0.848119
  H     -3.754216   -0.377457    1.504482
  H     -3.798229    1.392233    1.493555
  H     -3.770930    1.366942   -1.016144
  H     -3.686416   -0.424020   -0.969179
  H     -0.011580    1.912587   -0.273948
  H      2.413180    2.291977   -0.110990
  H      3.058026   -1.915129    0.256846
  H      0.600922   -2.290941    0.091556
  H      4.479375    1.293235    0.125910

 Total Charge           Charge          ....    0
 Multiplicity           Mult            ....    1
 Number of Electrons    NEL             ....   88
 Basis Dimension        Dim             ....  293

ORBITAL ENERGIES
----------------

  NO   OCC          E(Eh)            E(eV)
   0   2.0000     -18.999661      -517.0071
   1   2.0000     -18.993285      -516.8335
   2   2.0000     -18.940326      -515.3925
   3   2.0000     -10.164400      -276.5874
   4   2.0000     -10.111906      -275.1589
   5   2.0000     -10.083570      -274.3879
   6   2.0000     -10.048406      -273.4310
   7   2.0000     -10.047948      -273.4186
   8   2.0000     -10.047373      -273.4029
   9   2.0000     -10.040678      -273.2207
  10   2.0000     -10.038907      -273.1725
  11   2.0000     -10.017775      -272.5975
  12   2.0000      -1.076076       -29.2815
  13   2.0000      -1.039870       -28.2963
  14   2.0000      -0.985481       -26.8163
  15   2.0000      -0.836159       -22.7530
  16   2.0000      -0.751210       -20.4415
  17   2.0000      -0.729270       -19.8445
  18   2.0000      -0.717929       -19.5359
  19   2.0000      -0.639402       -17.3990
  20   2.0000      -0.596816       -16.2402
  21   2.0000      -0.591864       -16.1054
  22   2.0000      -0.529156       -14.3991
  23   2.0000      -0.523995       -14.2586
  24   2.0000      -0.499205       -13.5841
  25   2.0000      -0.465974       -12.6798
  26   2.0000      -0.445340       -12.1183
  27   2.0000      -0.431548       -11.7430
  28   2.0000      -0.425180       -11.5697
  29   2.0000      -0.413345       -11.2477
  30   2.0000      -0.399135       -10.8610
  31   2.0000      -0.395788       -10.7699
  32   2.0000      -0.375452       -10.2166
  33   2.0000      -0.373497       -10.1634
  34   2.0000      -0.357697        -9.7334
  35   2.0000      -0.352120        -9.5817
  36   2.0000      -0.337175        -9.1750
  37   2.0000      -0.319755        -8.7010
  38   2.0000      -0.313544        -8.5320
  39   2.0000      -0.302597        -8.2341
  40   2.0000      -0.277697        -7.5565
  41   2.0000      -0.254595        -6.9279
  42   2.0000      -0.250247        -6.8096
  43   2.0000      -0.219705        -5.9785
  44   0.0000      -0.070587        -1.9208
  45   0.0000      -0.041772        -1.1367
  46   0.0000       0.030254         0.8233
  47   0.0000       0.072101         1.9620
  48   0.0000       0.079716         2.1692

MULLIKEN ATOMIC CHARGES
-----------------------
   0 C :   -0.494925
   1 C :   -0.141723
   2 O :   -0.175245
   3 C :    0.403835
   4 O :   -0.517626
   5 C :    0.059984
   6 C :   -0.187502
   7 C :   -0.335731
   8 C :    0.412820
   9 C :   -0.346374
  10 C :   -0.246167
  11 O :   -0.431501
  12 H :    0.170307
  13 H :    0.169653
  14 H :    0.165861
  15 H :    0.173925
  16 H :    0.171574
  17 H :    0.196587
  18 H :    0.188992
  19 H :    0.188051
  20 H :    0.196122
  21 H :    0.379085
Sum of atomic charges:    0.0000000

LOEWDIN ATOMIC CHARGES
----------------------
   0 C :   -0.393324
   1 C :    0.034181
   2 O :   -0.608522
   3 C :    0.390291
   4 O :   -0.511031
   5 C :   -0.068798
   6 C :   -0.104234
   7 C :   -0.156476
   8 C :    0.195953
   9 C :   -0.144893
  10 C :   -0.106271
  11 O :   -0.483911
  12 H :    0.167655
  13 H :    0.162343
  14 H :    0.161728
  15 H :    0.188814
  16 H :    0.189939
  17 H :    0.197313
  18 H :    0.190632
  19 H :    0.192051
  20 H :    0.194192
  21 H :    0.312366

  Mayer bond orders larger than 0.100000
B(  0-C ,  1-C ) :   0.9319 B(  0-C , 12-H ) :   0.9596 B(  0-C , 13-H ) :   0.9708
B(  0-C , 14-H ) :   0.9702 B(  1-C ,  2-O ) :   0.7910 B(  1-C , 15-H ) :   0.9539
B(  1-C , 16-H ) :   0.9650 B(  2-O ,  3-C ) :   1.1660 B(  2-O ,  5-C ) :  -0.1106
B(  3-C ,  4-O ) :   1.8132 B(  3-C ,  5-C ) :   1.0499 B(  5-C ,  6-C ) :   1.3190
B(  5-C , 10-C ) :   1.3809 B(  6-C ,  7-C ) :   1.3672 B(  6-C , 17-H ) :   0.9575
B(  7-C ,  8-C ) :   1.3034 B(  7-C , 18-H ) :   0.9494 B(  8-C ,  9-C ) :   1.3263
B(  8-C , 11-O ) :   0.9625 B(  9-C , 10-C ) :   1.3847 B(  9-C , 19-H ) :   0.9606
B( 10-C , 20-H ) :   0.9499 B( 11-O , 21-H ) :   0.8440

Dispersion correction           -0.007423758
FINAL SINGLE POINT ENERGY      -574.566989678317

DIPOLE MOMENT
-------------

Method             : SCF
Type of density    : Electron Density
Multiplicity       :   1
Irrep              :   0
Energy             :  -574.5703466732589959 Eh
Relativity type    :
Basis              : AO
                                X                 Y                 Z
Electronic contribution:      9.695449072      -1.478130427      -1.850212807
Nuclear contribution   :     -9.032258606       3.476110897       1.824866331
                        -----------------------------------------
Total Dipole Moment    :      0.663190466       1.997980470      -0.025346476
                        -----------------------------------------
Magnitude (a.u.)       :      2.105324202
Magnitude (Debye)      :      5.351308847

Rotational constants in cm-1:             0.095936             0.014718             0.013254
Rotational constants in MHz :          2876.094416           441.247464           397.352728

                             ****ORCA TERMINATED NORMALLY****
TOTAL RUN TIME: 0 days 0 hours 0 minutes 53 seconds 653 msec
