                         Program Version 6.0.0  -   RELEASE  -
|  1> ! r2scan-3c def2/J RI DEFGRID2 scfconv6 printgap
|  2> %output
|  3>     printlevel normal
|  4> end
|  5> * xyz 0 1
|  6> C -3.0116377949 0.7376355948 0.16767943
|  7> C -1.808904804 -0.1800138547 0.36868043
|  8> C -1.9816211106 -1.4867191087 -0.4014967644
|  9> C -0.5358032794 0.5357431254 -0.0772169387
| 10> O 0.5962304557 -0.260571266 0.2962540143
| 11> C 1.800043352 0.181932129 -0.0425988125
| 12> O 1.9783509093 1.2244296362 -0.6404420514
| 13> C 2.8829091699 -0.7608510715 0.387798724
| 14> H -3.9198305033 0.2355511989 0.4881942752
| 15> H -3.1141364505 1.0009853732 -0.8822898387
| 16> H -2.9002644033 1.6528680786 0.7432178034
| 17> H -1.7017202986 -0.4090913849 1.4333610847
| 18> H -2.1118967539 -1.2851278861 -1.4624019878
| 19> H -2.8546338064 -2.0235272566 -0.0410876155
| 20> H -1.1063964553 -2.1177057827 -0.2719519995
| 21> H -0.5194296463 0.6832653523 -1.1625768559
| 22> H -0.4406487264 1.5176742708 0.3987840388
| 23> H 2.5202924338 -1.402711597 1.1831992145
| 24> H 3.7535199381 -0.1943466384 0.703524825
| 25> H 3.1656791222 -1.3716767428 -0.4669925365
| 26> *
| 27>
| 28>                          ****END OF INPUT****

CARTESIAN COORDINATES (ANGSTROEM)
---------------------------------
  C     -3.011638    0.737636    0.167679
  C     -1.808905   -0.180014    0.368680
  C     -1.981621   -1.486719   -0.401497
  C     -0.535803    0.535743   -0.077217
  O      0.596230   -0.260571    0.296254
  C      1.800043    0.181932   -0.042599
  O      1.978351    1.224430   -0.640442
  C      2.882909   -0.760851    0.387799
  H     -3.919831    0.235551    0.488194
  H     -3.114136    1.000985   -0.882290
  H     -2.900264    1.652868    0.743218
  H     -1.701720   -0.409091    1.433361
  H     -2.111897   -1.285128   -1.462402
  H     -2.854634   -2.023527   -0.041088
  H     -1.106396   -2.117706   -0.271952
  H     -0.519430    0.683265   -1.162577
  H     -0.440649    1.517674    0.398784
  H      2.520292   -1.402712    1.183199
  H      3.753520   -0.194347    0.703525
  H      3.165679   -1.371677   -0.466993

 Total Charge           Charge          ....    0
 Multiplicity           Mult            ....    1
 Number of Electrons    NEL             ....   64
 Basis Dimension        Dim             ....  222

ORBITAL ENERGIES
----------------

  NO   OCC          E(Eh)            E(eV)
   0   2.0000     -18.997751      -516.9551
   1   2.0000     -18.926991      -515.0296
   2   2.0000     -10.154812      -276.3265
   3   2.0000     -10.086955      -274.4800
   4   2.0000     -10.045617      -273.3551
   5   2.0000     -10.039065      -273.1768
   6   2.0000     -10.026417      -272.8327
   7   2.0000     -10.020618      -272.6749
   8   2.0000      -1.073165       -29.2023
   9   2.0000      -0.974270       -26.5112
  10   2.0000      -0.786374       -21.3983
  11   2.0000      -0.727791       -19.8042
  12   2.0000      -0.662110       -18.0169
  13   2.0000      -0.659064       -17.9340
  14   2.0000      -0.551258       -15.0005
  15   2.0000      -0.534767       -14.5517
  16   2.0000      -0.466905       -12.7051
  17   2.0000      -0.455185       -12.3862
  18   2.0000      -0.443765       -12.0755
  19   2.0000      -0.425895       -11.5892
  20   2.0000      -0.402644       -10.9565
  21   2.0000      -0.398288       -10.8380
  22   2.0000      -0.380275       -10.3478
  23   2.0000      -0.369358       -10.0507
  24   2.0000      -0.359777        -9.7900
  25   2.0000      -0.337675        -9.1886
  26   2.0000      -0.333801        -9.0832
  27   2.0000      -0.315914        -8.5965
  28   2.0000      -0.307043        -8.3551
  29   2.0000      -0.300728        -8.1832
  30   2.0000      -0.271596        -7.3905
  31   2.0000      -0.235059        -6.3963
  32   0.0000      -0.013884        -0.3778
  33   0.0000       0.070314         1.9133
  34   0.0000       0.080131         2.1805
  35   0.0000       0.117982         3.2105
  36   0.0000       0.124351         3.3838

MULLIKEN ATOMIC CHARGES
-----------------------
   0 C :   -0.481946
   1 C :    0.013856
   2 C :   -0.494863
   3 C :   -0.223754
   4 O :   -0.162500
   5 C :    0.408387
   6 O :   -0.420265
   7 C :   -0.527096
   8 H :    0.152179
   9 H :    0.148755
  10 H :    0.148143
  11 H :    0.144640
  12 H :    0.146887
  13 H :    0.148750
  14 H :    0.161880
  15 H :    0.165447
  16 H :    0.153756
  17 H :    0.169255
  18 H :    0.174286
  19 H :    0.174204
Sum of atomic charges:   -0.0000000

LOEWDIN ATOMIC CHARGES
----------------------
   0 C :   -0.409153
   1 C :   -0.219567
   2 C :   -0.408388
   3 C :    0.046282
   4 O :   -0.605303
   5 C :    0.352150
   6 O :   -0.427962
   7 C :   -0.336752
   8 H :    0.157178
   9 H :    0.156282
  10 H :    0.155445
  11 H :    0.164527
  12 H :    0.154977
  13 H :    0.154049
  14 H :    0.163273
  15 H :    0.185735
  16 H :    0.184809
  17 H :    0.173927
  18 H :    0.177258
  19 H :    0.181231

  Mayer bond orders larger than 0.100000
B(  0-C ,  1-C ) :   0.9053 B(  0-C ,  8-H ) :   0.9716 B(  0-C ,  9-H ) :   0.9797
B(  0-C , 10-H ) :   0.9729 B(  1-C ,  2-C ) :   0.9192 B(  1-C ,  3-C ) :   0.9229
B(  1-C , 11-H ) :   0.9473 B(  2-C , 12-H ) :   0.9812 B(  2-C , 13-H ) :   0.9741
B(  2-C , 14-H ) :   0.9697 B(  3-C ,  4-O ) :   0.8186 B(  3-C , 15-H ) :   0.9634
B(  3-C , 16-H ) :   0.9532 B(  4-O ,  5-C ) :   1.0601 B(  5-C ,  6-O ) :   1.8198
B(  5-C ,  7-C ) :   0.9391 B(  7-C , 17-H ) :   0.9833 B(  7-C , 18-H ) :   0.9726
B(  7-C , 19-H ) :   0.9387

Dispersion correction           -0.005081766
FINAL SINGLE POINT ENERGY      -386.238444604905

DIPOLE MOMENT
-------------

Method             : SCF
Type of density    : Electron Density
Multiplicity       :   1
Irrep              :   0
Energy             :  -386.2452271946668247 Eh
Relativity type    :
Basis              : AO
                                X                 Y                 Z
Electronic contribution:      8.131972823       2.807227643      -0.220579976
Nuclear contribution   :     -8.620600905      -3.469911588       0.616882463
                        -----------------------------------------
Total Dipole Moment    :     -0.488628082      -0.662683945       0.396302487
                        -----------------------------------------
Magnitude (a.u.)       :      0.913763139
Magnitude (Debye)      :      2.322601320

Rotational constants in cm-1:             0.149228             0.033022             0.029103
Rotational constants in MHz :          4473.744745           989.979787           872.499650

                             ****ORCA TERMINATED NORMALLY****
TOTAL RUN TIME: 0 days 0 hours 0 minutes 29 seconds 36 msec
