                         Program Version 6.0.0  -   RELEASE  -
|  1> ! r2scan-3c def2/J RI DEFGRID2 scfconv6 printgap
|  2> %output
|  3>     printlevel normal
|  4> end
|  5> %cpcm
|  6>     smd true
|  7>     smdsolvent "water"
|  8> end
|  9> * xyz 0 1
| 10> C -3.0116377949 0.7376355948 0.16767943
| 11> C -1.808904804 -0.1800138547 0.36868043
| 12> C -1.9816211106 -1.4867191087 -0.4014967644
| 13> C -0.5358032794 0.5357431254 -0.0772169387
| 14> O 0.5962304557 -0.260571266 0.2962540143
| 15> C 1.800043352 0.181932129 -0.0425988125
| 16> O 1.9783509093 1.2244296362 -0.6404420514
| 17> C 2.8829091699 -0.7608510715 0.387798724
| 18> H -3.9198305033 0.2355511989 0.4881942752
| 19> H -3.1141364505 1.0009853732 -0.8822898387
| 20> H -2.9002644033 1.6528680786 0.7432178034
| 21> H -1.7017202986 -0.4090913849 1.4333610847
| 22> H -2.1118967539 -1.2851278861 -1.4624019878
| 23> H -2.8546338064 -2.0235272566 -0.0410876155
| 24> H -1.1063964553 -2.1177057827 -0.2719519995
| 25> H -0.5194296463 0.6832653523 -1.1625768559
| 26> H -0.4406487264 1.5176742708 0.3987840388
| 27> H 2.5202924338 -1.402711597 1.1831992145
| 28> H 3.7535199381 -0.1943466384 0.703524825
| 29> H 3.1656791222 -1.3716767428 -0.4669925365
| 30> *
| 31>
| 32>                          ****END OF INPUT****

CARTESIAN COORDINATES (ANGSTROEM)
---------------------------------
  C     -3.011638    0.737636    0.167679
  C     -1.808905   -0.180014    0.368680
  C     -1.981621   -1.486719   -0.401497
  C     -0.535803    0.535743   -0.077217
  O      0.596230   -0.260571    0.296254
  C      1.800043    0.181932   -0.042599
  O      1.978351    1.224430   -0.640442
  C      2.882909   -0.760851    0.387799
  H     -3.919831    0.235551    0.488194
  H     -3.114136    1.000985   -0.882290
  H     -2.900264    1.652868    0.743218
  H     -1.701720   -0.409091    1.433361
  H     -2.111897   -1.285128   -1.462402
  H     -2.854634   -2.023527   -0.041088
  H     -1.106396   -2.117706   -0.271952
  H     -0.519430    0.683265   -1.162577
  H     -0.440649    1.517674    0.398784
  H      2.520292   -1.402712    1.183199
  H      3.753520   -0.194347    0.703525
  H      3.165679   -1.371677   -0.466993

 Total Charge           Charge          ....    0
 Multiplicity           Mult            ....    1
 Number of Electrons    NEL             ....   64
 Basis Dimension        Dim             ....  222

ORBITAL ENERGIES
----------------

  NO   OCC          E(Eh)            E(eV)
   0   2.0000     -19.003320      -517.1066
   1   2.0000     -18.943262      -515.4724
   2   2.0000     -10.165307      -276.6121
   3   2.0000     -10.079713      -274.2829
   4   2.0000     -10.034664      -273.0571
   5   2.0000     -10.030430      -272.9419
   6   2.0000     -10.012126      -272.4438
   7   2.0000     -10.009321      -272.3675
   8   2.0000      -1.080352       -29.3979
   9   2.0000      -0.988496       -26.8983
  10   2.0000      -0.777211       -21.1490
  11   2.0000      -0.722627       -19.6637
  12   2.0000      -0.655143       -17.8274
  13   2.0000      -0.647217       -17.6117
  14   2.0000      -0.544946       -14.8287
  15   2.0000      -0.529933       -14.4202
  16   2.0000      -0.464681       -12.6446
  17   2.0000      -0.462379       -12.5820
  18   2.0000      -0.448139       -12.1945
  19   2.0000      -0.419691       -11.4204
  20   2.0000      -0.398131       -10.8337
  21   2.0000      -0.389049       -10.5866
  22   2.0000      -0.373561       -10.1651
  23   2.0000      -0.360025        -9.7968
  24   2.0000      -0.347987        -9.4692
  25   2.0000      -0.335157        -9.1201
  26   2.0000      -0.334854        -9.1118
  27   2.0000      -0.305436        -8.3113
  28   2.0000      -0.299797        -8.1579
  29   2.0000      -0.292148        -7.9498
  30   2.0000      -0.276784        -7.5317
  31   2.0000      -0.252797        -6.8790
  32   0.0000      -0.021616        -0.5882
  33   0.0000       0.075003         2.0409
  34   0.0000       0.092341         2.5127
  35   0.0000       0.123711         3.3664
  36   0.0000       0.133761         3.6398

MULLIKEN ATOMIC CHARGES
-----------------------
   0 C :   -0.530450
   1 C :    0.022564
   2 C :   -0.534622
   3 C :   -0.238100
   4 O :   -0.176329
   5 C :    0.460965
   6 O :   -0.510941
   7 C :   -0.562364
   8 H :    0.165846
   9 H :    0.162668
  10 H :    0.161134
  11 H :    0.156784
  12 H :    0.162832
  13 H :    0.164097
  14 H :    0.161237
  15 H :    0.179562
  16 H :    0.170696
  17 H :    0.188633
  18 H :    0.190475
  19 H :    0.205313
Sum of atomic charges:   -0.0000000

LOEWDIN ATOMIC CHARGES
----------------------
   0 C :   -0.414936
   1 C :   -0.214619
   2 C :   -0.415672
   3 C :    0.046251
   4 O :   -0.604963
   5 C :    0.363840
   6 O :   -0.493008
   7 C :   -0.334695
   8 H :    0.160790
   9 H :    0.159852
  10 H :    0.159041
  11 H :    0.167920
  12 H :    0.159308
  13 H :    0.158352
  14 H :    0.161479
  15 H :    0.190515
  16 H :    0.190183
  17 H :    0.183137
  18 H :    0.183785
  19 H :    0.193439

  Mayer bond orders larger than 0.100000
B(  0-C ,  1-C ) :   0.8977 B(  0-C ,  8-H ) :   0.9687 B(  0-C ,  9-H ) :   0.9786
B(  0-C , 10-H ) :   0.9699 B(  1-C ,  2-C ) :   0.9105 B(  1-C ,  3-C ) :   0.9363
B(  1-C , 11-H ) :   0.9501 B(  2-C , 12-H ) :   0.9789 B(  2-C , 13-H ) :   0.9718
B(  2-C , 14-H ) :   0.9685 B(  3-C ,  4-O ) :   0.8035 B(  3-C , 15-H ) :   0.9543
B(  3-C , 16-H ) :   0.9440 B(  4-O ,  5-C ) :   1.0910 B(  5-C ,  6-O ) :   1.7447
B(  5-C ,  7-C ) :   0.9399 B(  7-C , 17-H ) :   0.9722 B(  7-C , 18-H ) :   0.9641
B(  7-C , 19-H ) :   0.9258

Dispersion correction           -0.005081766
FINAL SINGLE POINT ENERGY      -386.243801087449

DIPOLE MOMENT
-------------

Method             : SCF
Type of density    : Electron Density
Multiplicity       :   1
Irrep              :   0
Energy             :  -386.2505836772103294 Eh
Relativity type    :
Basis              : AO
                                X                 Y                 Z
Electronic contribution:      7.984250024       2.556785208      -0.076349568
Nuclear contribution   :     -8.620600905      -3.469911588       0.616882463
                        -----------------------------------------
Total Dipole Moment    :     -0.636350881      -0.913126380       0.540532895
                        -----------------------------------------
Magnitude (a.u.)       :      1.237302728
Magnitude (Debye)      :      3.144973600

Rotational constants in cm-1:             0.149228             0.033022             0.029103
Rotational constants in MHz :          4473.744745           989.979787           872.499650

                             ****ORCA TERMINATED NORMALLY****
TOTAL RUN TIME: 0 days 0 hours 0 minutes 37 seconds 629 msec
