                         Program Version 6.0.0  -   RELEASE  -
|  1> ! pbe def2-sv(p) def2/J RI DEFGRID1 loosescf d4 GCP(DFT/SV(P)) printgap
|  2> %output
|  3>     printlevel normal
|  4> end
|  5> * xyz 0 1
|  6> C -1.0216547529 -0.3275490522 -0.4438155515
|  7> C 0.1282870595 0.3801183482 0.2749915501
|  8> C 1.4810082283 -0.0854855634 -0.2871340886
|  9> O 1.6413621647 -1.4578340431 -0.0125971036
| 10> O -0.0301994972 1.7706407166 0.0971180582
| 11> O -2.1787583445 -0.2475634562 0.3584952617
| 12> H -0.7336962015 -1.3735606165 -0.6034787696
| 13> H -1.1777745921 0.1706717943 -1.4082722552
| 14> H 0.0673341024 0.1072284892 1.3368202596
| 15> H 2.2795444811 0.5003128094 0.1865441318
| 16> H 1.4941802006 0.1079477853 -1.3675669544
| 17> H 2.4896421506 -1.7576287525 -0.3689936898
| 18> H 0.5083662488 2.2499960265 0.741116096
| 19> H -2.920337731 -0.6483625526 -0.1150759278
| 20> *
| 21>
| 22>                          ****END OF INPUT****

CARTESIAN COORDINATES (ANGSTROEM)
---------------------------------
  C     -1.021655   -0.327549   -0.443816
  C      0.128287    0.380118    0.274992
  C      1.481008   -0.085486   -0.287134
  O      1.641362   -1.457834   -0.012597
  O     -0.030199    1.770641    0.097118
  O     -2.178758   -0.247563    0.358495
  H     -0.733696   -1.373561   -0.603479
  H     -1.177775    0.170672   -1.408272
  H      0.067334    0.107228    1.336820
  H      2.279544    0.500313    0.186544
  H      1.494180    0.107948   -1.367567
  H      2.489642   -1.757629   -0.368994
  H      0.508366    2.249996    0.741116
  H     -2.920338   -0.648363   -0.115076

 Total Charge           Charge          ....    0
 Multiplicity           Mult            ....    1
 Number of Electrons    NEL             ....   50
 Basis Dimension        Dim             ....  100

ORBITAL ENERGIES
----------------

  NO   OCC          E(Eh)            E(eV)
   0   2.0000     -18.750685      -510.2321
   1   2.0000     -18.742367      -510.0057
   2   2.0000     -18.731844      -509.7194
   3   2.0000      -9.932171      -270.2681
   4   2.0000      -9.930021      -270.2096
   5   2.0000      -9.918008      -269.8827
   6   2.0000      -0.930239       -25.3131
   7   2.0000      -0.918674       -24.9984
   8   2.0000      -0.903507       -24.5857
   9   2.0000      -0.678054       -18.4508
  10   2.0000      -0.598274       -16.2799
  11   2.0000      -0.519014       -14.1231
  12   2.0000      -0.484733       -13.1902
  13   2.0000      -0.460491       -12.5306
  14   2.0000      -0.442799       -12.0492
  15   2.0000      -0.404419       -11.0048
  16   2.0000      -0.368003       -10.0139
  17   2.0000      -0.364764        -9.9257
  18   2.0000      -0.345410        -9.3991
  19   2.0000      -0.292726        -7.9655
  20   2.0000      -0.288446        -7.8490
  21   2.0000      -0.257756        -7.0139
  22   2.0000      -0.222039        -6.0420
  23   2.0000      -0.215290        -5.8583
  24   2.0000      -0.200231        -5.4486
  25   0.0000       0.022362         0.6085
  26   0.0000       0.029702         0.8082
  27   0.0000       0.040374         1.0986
  28   0.0000       0.084079         2.2879
  29   0.0000       0.102974         2.8021

MULLIKEN ATOMIC CHARGES
-----------------------
   0 C :    0.022654
   1 C :    0.004925
   2 C :    0.005493
   3 O :   -0.430313
   4 O :   -0.419942
   5 O :   -0.434965
   6 H :    0.084725
   7 H :    0.066673
   8 H :    0.074757
   9 H :    0.060317
  10 H :    0.069861
  11 H :    0.302302
  12 H :    0.297374
  13 H :    0.296137
Sum of atomic charges:    0.0000000

LOEWDIN ATOMIC CHARGES
----------------------
   0 C :   -0.129258
   1 C :   -0.076126
   2 C :   -0.138117
   3 O :   -0.342765
   4 O :   -0.321478
   5 O :   -0.345483
   6 H :    0.101613
   7 H :    0.099355
   8 H :    0.107739
   9 H :    0.090794
  10 H :    0.096858
  11 H :    0.287774
  12 H :    0.285062
  13 H :    0.284031

  Mayer bond orders larger than 0.100000
B(  0-C ,  1-C ) :   1.0686 B(  0-C ,  5-O ) :   1.0950 B(  0-C ,  6-H ) :   0.9164
B(  0-C ,  7-H ) :   0.9040 B(  1-C ,  2-C ) :   1.0334 B(  1-C ,  4-O ) :   1.0678
B(  1-C ,  8-H ) :   0.9007 B(  2-C ,  3-O ) :   1.0705 B(  2-C ,  9-H ) :   0.9196
B(  2-C , 10-H ) :   0.9095 B(  3-O , 11-H ) :   0.8495 B(  4-O , 12-H ) :   0.8512
B(  5-O , 13-H ) :   0.8539

Dispersion correction           -0.008930337
FINAL SINGLE POINT ENERGY      -344.002235565655

DIPOLE MOMENT
-------------

Method             : SCF
Type of density    : Electron Density
Multiplicity       :   1
Irrep              :   0
Energy             :  -344.0746930001375858 Eh
Relativity type    :
Basis              : AO
                                X                 Y                 Z
Electronic contribution:     -1.110071607       0.405767285       1.122614881
Nuclear contribution   :      1.874727080      -0.602647126      -1.493472699
                        -----------------------------------------
Total Dipole Moment    :      0.764655473      -0.196879841      -0.370857818
                        -----------------------------------------
Magnitude (a.u.)       :      0.872350379
Magnitude (Debye)      :      2.217338450

Rotational constants in cm-1:             0.162762             0.082849             0.059557
Rotational constants in MHz :          4879.491346          2483.736405          1785.463140

                             ****ORCA TERMINATED NORMALLY****
TOTAL RUN TIME: 0 days 0 hours 0 minutes 6 seconds 800 msec
