                         Program Version 6.0.0  -   RELEASE  -
|  1> ! pbe def2-sv(p) def2/J RI DEFGRID1 loosescf d4 GCP(DFT/SV(P)) printgap
|  2> %output
|  3>     printlevel normal
|  4> end
|  5> * xyz 0 1
|  6> C -1.5704097132 1.483389632 0.2771241038
|  7> C -1.1346518292 0.2565293937 -0.5203451609
|  8> C -0.1303429917 -0.6247191135 0.2425925341
|  9> H -0.2706283884 -0.4640085623 1.3163458275
| 10> C -0.352962046 -2.1039949201 -0.0675256185
| 11> C 1.3243944358 -0.2659500806 -0.1006879138
| 12> O 1.68479534 1.0679144577 0.1893005913
| 13> H -2.1920969263 2.1337747344 -0.3340133389
| 14> H -2.1487490751 1.1772839627 1.1462428219
| 15> H -0.713583076 2.0511034745 0.6303319531
| 16> H -0.6989725377 0.5649697072 -1.474030896
| 17> H -2.0218485583 -0.3357093526 -0.7525538571
| 18> H 0.3689047553 -2.7201199473 0.4630120913
| 19> H -0.2428800514 -2.2869065301 -1.134189374
| 20> H -1.3517461032 -2.407294791 0.2348272118
| 21> H 1.512957502 -0.4859307602 -1.1606278382
| 22> H 2.0011010913 -0.8802902749 0.499446157
| 23> H 1.2257970102 1.653676692 -0.4276808789
| 24> *
| 25>
| 26>                          ****END OF INPUT****

CARTESIAN COORDINATES (ANGSTROEM)
---------------------------------
  C     -1.570410    1.483390    0.277124
  C     -1.134652    0.256529   -0.520345
  C     -0.130343   -0.624719    0.242593
  H     -0.270628   -0.464009    1.316346
  C     -0.352962   -2.103995   -0.067526
  C      1.324394   -0.265950   -0.100688
  O      1.684795    1.067914    0.189301
  H     -2.192097    2.133775   -0.334013
  H     -2.148749    1.177284    1.146243
  H     -0.713583    2.051103    0.630332
  H     -0.698973    0.564970   -1.474031
  H     -2.021849   -0.335709   -0.752554
  H      0.368905   -2.720120    0.463012
  H     -0.242880   -2.286907   -1.134189
  H     -1.351746   -2.407295    0.234827
  H      1.512958   -0.485931   -1.160628
  H      2.001101   -0.880290    0.499446
  H      1.225797    1.653677   -0.427681

 Total Charge           Charge          ....    0
 Multiplicity           Mult            ....    1
 Number of Electrons    NEL             ....   50
 Basis Dimension        Dim             ....  108

ORBITAL ENERGIES
----------------

  NO   OCC          E(Eh)            E(eV)
   0   2.0000     -18.740865      -509.9649
   1   2.0000      -9.925345      -270.0824
   2   2.0000      -9.891321      -269.1565
   3   2.0000      -9.887838      -269.0617
   4   2.0000      -9.876122      -268.7429
   5   2.0000      -9.875362      -268.7223
   6   2.0000      -0.917121       -24.9561
   7   2.0000      -0.728905       -19.8345
   8   2.0000      -0.662326       -18.0228
   9   2.0000      -0.599801       -16.3214
  10   2.0000      -0.558778       -15.2051
  11   2.0000      -0.506367       -13.7790
  12   2.0000      -0.463852       -12.6220
  13   2.0000      -0.409212       -11.1352
  14   2.0000      -0.402611       -10.9556
  15   2.0000      -0.377678       -10.2771
  16   2.0000      -0.363999        -9.9049
  17   2.0000      -0.359188        -9.7740
  18   2.0000      -0.332622        -9.0511
  19   2.0000      -0.323404        -8.8003
  20   2.0000      -0.303185        -8.2501
  21   2.0000      -0.290884        -7.9154
  22   2.0000      -0.282086        -7.6760
  23   2.0000      -0.265505        -7.2248
  24   2.0000      -0.210732        -5.7343
  25   0.0000       0.022478         0.6117
  26   0.0000       0.045712         1.2439
  27   0.0000       0.058418         1.5896
  28   0.0000       0.074677         2.0321
  29   0.0000       0.097132         2.6431

MULLIKEN ATOMIC CHARGES
-----------------------
   0 C :   -0.279031
   1 C :   -0.185916
   2 C :   -0.163843
   3 H :    0.077168
   4 C :   -0.256679
   5 C :    0.018677
   6 O :   -0.427355
   7 H :    0.100957
   8 H :    0.104561
   9 H :    0.094083
  10 H :    0.075122
  11 H :    0.085579
  12 H :    0.100267
  13 H :    0.096872
  14 H :    0.105098
  15 H :    0.067314
  16 H :    0.084616
  17 H :    0.302510
Sum of atomic charges:   -0.0000000

LOEWDIN ATOMIC CHARGES
----------------------
   0 C :   -0.345444
   1 C :   -0.231118
   2 C :   -0.174327
   3 H :    0.117860
   4 C :   -0.328684
   5 C :   -0.116257
   6 O :   -0.336008
   7 H :    0.117503
   8 H :    0.119932
   9 H :    0.112200
  10 H :    0.107961
  11 H :    0.117603
  12 H :    0.117867
  13 H :    0.117014
  14 H :    0.119451
  15 H :    0.092926
  16 H :    0.110693
  17 H :    0.280828

  Mayer bond orders larger than 0.100000
B(  0-C ,  1-C ) :   1.1542 B(  0-C ,  7-H ) :   0.9504 B(  0-C ,  8-H ) :   0.9528
B(  0-C ,  9-H ) :   0.9406 B(  1-C ,  2-C ) :   1.0360 B(  1-C , 10-H ) :   0.9234
B(  1-C , 11-H ) :   0.9296 B(  2-C ,  3-H ) :   0.9022 B(  2-C ,  4-C ) :   1.0970
B(  2-C ,  5-C ) :   1.0491 B(  4-C , 12-H ) :   0.9507 B(  4-C , 13-H ) :   0.9478
B(  4-C , 14-H ) :   0.9465 B(  5-C ,  6-O ) :   1.0956 B(  5-C , 15-H ) :   0.9239
B(  5-C , 16-H ) :   0.9301 B(  6-O , 17-H ) :   0.8408

Dispersion correction           -0.013009899
FINAL SINGLE POINT ENERGY      -272.298844639766

DIPOLE MOMENT
-------------

Method             : SCF
Type of density    : Electron Density
Multiplicity       :   1
Irrep              :   0
Energy             :  -272.3689710302806475 Eh
Relativity type    :
Basis              : AO
                                X                 Y                 Z
Electronic contribution:      3.793479392       1.737147721       0.527690930
Nuclear contribution   :     -4.226514605      -1.859964480      -0.928684092
                        -----------------------------------------
Total Dipole Moment    :     -0.433035213      -0.122816759      -0.400993161
                        -----------------------------------------
Magnitude (a.u.)       :      0.602825818
Magnitude (Debye)      :      1.532261459

Rotational constants in cm-1:             0.112443             0.108493             0.061101
Rotational constants in MHz :          3370.964012          3252.524029          1831.771298

                             ****ORCA TERMINATED NORMALLY****
TOTAL RUN TIME: 0 days 0 hours 0 minutes 7 seconds 801 msec
