                         Program Version 6.0.0  -   RELEASE  -
|  1> ! r2scan-3c def2/J RI DEFGRID2 scfconv6 printgap
|  2> %output
|  3>     printlevel normal
|  4> end
|  5> * xyz 0 1
|  6> C -2.4111422871 0.2602067248 1.0250905745
|  7> C -1.788595556 0.614569665 -0.3287806408
|  8> C -0.5276129199 -0.1866613129 -0.5205929354
|  9> O -0.4487200499 -1.2221781488 -1.1507885856
| 10> O 0.5004883617 0.3572421238 0.11250819
| 11> C 1.7632642934 -0.3272700528 0.0567004402
| 12> C 2.8015993946 0.5388329323 0.7428761113
| 13> H -2.6415169261 -0.8016953223 1.0681549868
| 14> H -1.7228861767 0.5030191551 1.8303479713
| 15> H -3.3290752224 0.8230505532 1.1643000612
| 16> H -1.5384297071 1.6742073503 -0.3530923102
| 17> H -2.4785063685 0.3707792989 -1.1356376732
| 18> H 1.6517516832 -1.2974110207 0.5519366
| 19> H 2.0118707729 -0.5085805007 -0.9941887029
| 20> H 2.8792905119 1.4971079081 0.2379598938
| 21> H 2.5183923773 0.7098730794 1.7770916111
| 22> H 3.763674322 0.0383066096 0.7123522219
| 23> *
| 24>
| 25>                          ****END OF INPUT****

CARTESIAN COORDINATES (ANGSTROEM)
---------------------------------
  C     -2.411142    0.260207    1.025091
  C     -1.788596    0.614570   -0.328781
  C     -0.527613   -0.186661   -0.520593
  O     -0.448720   -1.222178   -1.150789
  O      0.500488    0.357242    0.112508
  C      1.763264   -0.327270    0.056700
  C      2.801599    0.538833    0.742876
  H     -2.641517   -0.801695    1.068155
  H     -1.722886    0.503019    1.830348
  H     -3.329075    0.823051    1.164300
  H     -1.538430    1.674207   -0.353092
  H     -2.478506    0.370779   -1.135638
  H      1.651752   -1.297411    0.551937
  H      2.011871   -0.508581   -0.994189
  H      2.879291    1.497108    0.237960
  H      2.518392    0.709873    1.777092
  H      3.763674    0.038307    0.712352

 Total Charge           Charge          ....    0
 Multiplicity           Mult            ....    1
 Number of Electrons    NEL             ....   56
 Basis Dimension        Dim             ....  193

ORBITAL ENERGIES
----------------

  NO   OCC          E(Eh)            E(eV)
   0   2.0000     -18.996264      -516.9146
   1   2.0000     -18.926168      -515.0072
   2   2.0000     -10.149973      -276.1948
   3   2.0000     -10.091812      -274.6122
   4   2.0000     -10.043071      -273.2859
   5   2.0000     -10.032333      -272.9937
   6   2.0000     -10.031645      -272.9749
   7   2.0000      -1.071860       -29.1668
   8   2.0000      -0.972931       -26.4748
   9   2.0000      -0.767202       -20.8766
  10   2.0000      -0.733515       -19.9600
  11   2.0000      -0.638254       -17.3678
  12   2.0000      -0.594254       -16.1705
  13   2.0000      -0.534699       -14.5499
  14   2.0000      -0.470316       -12.7979
  15   2.0000      -0.455499       -12.3948
  16   2.0000      -0.440529       -11.9874
  17   2.0000      -0.410551       -11.1717
  18   2.0000      -0.405143       -11.0245
  19   2.0000      -0.376669       -10.2497
  20   2.0000      -0.372379       -10.1330
  21   2.0000      -0.353995        -9.6327
  22   2.0000      -0.342333        -9.3154
  23   2.0000      -0.327202        -8.9036
  24   2.0000      -0.320737        -8.7277
  25   2.0000      -0.313770        -8.5381
  26   2.0000      -0.270913        -7.3719
  27   2.0000      -0.231307        -6.2942
  28   0.0000      -0.013842        -0.3767
  29   0.0000       0.072210         1.9649
  30   0.0000       0.095683         2.6037
  31   0.0000       0.119050         3.2395
  32   0.0000       0.124167         3.3788

MULLIKEN ATOMIC CHARGES
-----------------------
   0 C :   -0.471432
   1 C :   -0.295870
   2 C :    0.400331
   3 O :   -0.422440
   4 O :   -0.169209
   5 C :   -0.148725
   6 C :   -0.441281
   7 H :    0.158449
   8 H :    0.156619
   9 H :    0.153337
  10 H :    0.152393
  11 H :    0.162854
  12 H :    0.153150
  13 H :    0.160644
  14 H :    0.152587
  15 H :    0.151381
  16 H :    0.147213
Sum of atomic charges:    0.0000000

LOEWDIN ATOMIC CHARGES
----------------------
   0 C :   -0.392577
   1 C :   -0.237039
   2 C :    0.352479
   3 O :   -0.425667
   4 O :   -0.599447
   5 C :    0.034115
   6 C :   -0.386671
   7 H :    0.159079
   8 H :    0.157826
   9 H :    0.152977
  10 H :    0.173688
  11 H :    0.174516
  12 H :    0.177558
  13 H :    0.181208
  14 H :    0.159389
  15 H :    0.158963
  16 H :    0.159603

  Mayer bond orders larger than 0.100000
B(  0-C ,  1-C ) :   0.8969 B(  0-C ,  7-H ) :   0.9742 B(  0-C ,  8-H ) :   0.9775
B(  0-C ,  9-H ) :   0.9707 B(  1-C ,  2-C ) :   0.9516 B(  1-C , 10-H ) :   0.9732
B(  1-C , 11-H ) :   0.9763 B(  2-C ,  3-O ) :   1.8228 B(  2-C ,  4-O ) :   1.0601
B(  4-O ,  5-C ) :   0.8093 B(  5-C ,  6-C ) :   0.9408 B(  5-C , 12-H ) :   0.9495
B(  5-C , 13-H ) :   0.9572 B(  6-C , 14-H ) :   0.9731 B(  6-C , 15-H ) :   0.9710
B(  6-C , 16-H ) :   0.9681

Dispersion correction           -0.003899560
FINAL SINGLE POINT ENERGY      -346.936060535953

DIPOLE MOMENT
-------------

Method             : SCF
Type of density    : Electron Density
Multiplicity       :   1
Irrep              :   0
Energy             :  -346.9424614789294310 Eh
Relativity type    :
Basis              : AO
                                X                 Y                 Z
Electronic contribution:     -0.767740263      -2.169444135      -3.974058929
Nuclear contribution   :      1.046416102       2.809799745       4.543371493
                        -----------------------------------------
Total Dipole Moment    :      0.278675839       0.640355610       0.569312563
                        -----------------------------------------
Magnitude (a.u.)       :      0.901017384
Magnitude (Debye)      :      2.290204184

Rotational constants in cm-1:             0.164787             0.050047             0.042171
Rotational constants in MHz :          4940.185019          1500.381804          1264.260115

                             ****ORCA TERMINATED NORMALLY****
TOTAL RUN TIME: 0 days 0 hours 0 minutes 20 seconds 326 msec
