                         Program Version 6.0.0  -   RELEASE  -
|  1> ! r2scan-3c def2/J RI DEFGRID2 scfconv6 printgap
|  2> %output
|  3>     printlevel normal
|  4> end
|  5> %cpcm
|  6>     smd true
|  7>     smdsolvent "water"
|  8> end
|  9> * xyz 0 1
| 10> C -2.4111422871 0.2602067248 1.0250905745
| 11> C -1.788595556 0.614569665 -0.3287806408
| 12> C -0.5276129199 -0.1866613129 -0.5205929354
| 13> O -0.4487200499 -1.2221781488 -1.1507885856
| 14> O 0.5004883617 0.3572421238 0.11250819
| 15> C 1.7632642934 -0.3272700528 0.0567004402
| 16> C 2.8015993946 0.5388329323 0.7428761113
| 17> H -2.6415169261 -0.8016953223 1.0681549868
| 18> H -1.7228861767 0.5030191551 1.8303479713
| 19> H -3.3290752224 0.8230505532 1.1643000612
| 20> H -1.5384297071 1.6742073503 -0.3530923102
| 21> H -2.4785063685 0.3707792989 -1.1356376732
| 22> H 1.6517516832 -1.2974110207 0.5519366
| 23> H 2.0118707729 -0.5085805007 -0.9941887029
| 24> H 2.8792905119 1.4971079081 0.2379598938
| 25> H 2.5183923773 0.7098730794 1.7770916111
| 26> H 3.763674322 0.0383066096 0.7123522219
| 27> *
| 28>
| 29>                          ****END OF INPUT****

CARTESIAN COORDINATES (ANGSTROEM)
---------------------------------
  C     -2.411142    0.260207    1.025091
  C     -1.788596    0.614570   -0.328781
  C     -0.527613   -0.186661   -0.520593
  O     -0.448720   -1.222178   -1.150789
  O      0.500488    0.357242    0.112508
  C      1.763264   -0.327270    0.056700
  C      2.801599    0.538833    0.742876
  H     -2.641517   -0.801695    1.068155
  H     -1.722886    0.503019    1.830348
  H     -3.329075    0.823051    1.164300
  H     -1.538430    1.674207   -0.353092
  H     -2.478506    0.370779   -1.135638
  H      1.651752   -1.297411    0.551937
  H      2.011871   -0.508581   -0.994189
  H      2.879291    1.497108    0.237960
  H      2.518392    0.709873    1.777092
  H      3.763674    0.038307    0.712352

 Total Charge           Charge          ....    0
 Multiplicity           Mult            ....    1
 Number of Electrons    NEL             ....   56
 Basis Dimension        Dim             ....  193

ORBITAL ENERGIES
----------------

  NO   OCC          E(Eh)            E(eV)
   0   2.0000     -19.002553      -517.0858
   1   2.0000     -18.943456      -515.4776
   2   2.0000     -10.161552      -276.5099
   3   2.0000     -10.084202      -274.4051
   4   2.0000     -10.037626      -273.1377
   5   2.0000     -10.022314      -272.7210
   6   2.0000     -10.018889      -272.6278
   7   2.0000      -1.079843       -29.3840
   8   2.0000      -0.988047       -26.8861
   9   2.0000      -0.762914       -20.7599
  10   2.0000      -0.725109       -19.7312
  11   2.0000      -0.632033       -17.1985
  12   2.0000      -0.587280       -15.9807
  13   2.0000      -0.533495       -14.5171
  14   2.0000      -0.470879       -12.8133
  15   2.0000      -0.458589       -12.4788
  16   2.0000      -0.445923       -12.1342
  17   2.0000      -0.410398       -11.1675
  18   2.0000      -0.401909       -10.9365
  19   2.0000      -0.373883       -10.1739
  20   2.0000      -0.360176        -9.8009
  21   2.0000      -0.347026        -9.4431
  22   2.0000      -0.335004        -9.1159
  23   2.0000      -0.321206        -8.7405
  24   2.0000      -0.318881        -8.6772
  25   2.0000      -0.315076        -8.5737
  26   2.0000      -0.277150        -7.5416
  27   2.0000      -0.248934        -6.7738
  28   0.0000      -0.022913        -0.6235
  29   0.0000       0.075962         2.0670
  30   0.0000       0.105014         2.8576
  31   0.0000       0.127239         3.4623
  32   0.0000       0.133001         3.6191

MULLIKEN ATOMIC CHARGES
-----------------------
   0 C :   -0.492201
   1 C :   -0.311917
   2 C :    0.444854
   3 O :   -0.511376
   4 O :   -0.182633
   5 C :   -0.152244
   6 C :   -0.490633
   7 H :    0.164540
   8 H :    0.166378
   9 H :    0.172740
  10 H :    0.175675
  11 H :    0.174356
  12 H :    0.171701
  13 H :    0.171462
  14 H :    0.165500
  15 H :    0.164840
  16 H :    0.168958
Sum of atomic charges:    0.0000000

LOEWDIN ATOMIC CHARGES
----------------------
   0 C :   -0.393840
   1 C :   -0.234202
   2 C :    0.362620
   3 O :   -0.489310
   4 O :   -0.599412
   5 C :    0.036403
   6 C :   -0.389763
   7 H :    0.160645
   8 H :    0.161016
   9 H :    0.160442
  10 H :    0.183641
  11 H :    0.179202
  12 H :    0.183770
  13 H :    0.185086
  14 H :    0.162683
  15 H :    0.162651
  16 H :    0.168368

  Mayer bond orders larger than 0.100000
B(  0-C ,  1-C ) :   0.8884 B(  0-C ,  7-H ) :   0.9710 B(  0-C ,  8-H ) :   0.9734
B(  0-C ,  9-H ) :   0.9656 B(  1-C ,  2-C ) :   0.9501 B(  1-C , 10-H ) :   0.9636
B(  1-C , 11-H ) :   0.9726 B(  2-C ,  3-O ) :   1.7489 B(  2-C ,  4-O ) :   1.0903
B(  4-O ,  5-C ) :   0.7952 B(  5-C ,  6-C ) :   0.9432 B(  5-C , 12-H ) :   0.9414
B(  5-C , 13-H ) :   0.9498 B(  6-C , 14-H ) :   0.9714 B(  6-C , 15-H ) :   0.9687
B(  6-C , 16-H ) :   0.9616

Dispersion correction           -0.003899560
FINAL SINGLE POINT ENERGY      -346.941892861525

DIPOLE MOMENT
-------------

Method             : SCF
Type of density    : Electron Density
Multiplicity       :   1
Irrep              :   0
Energy             :  -346.9482938045013043 Eh
Relativity type    :
Basis              : AO
                                X                 Y                 Z
Electronic contribution:     -0.695360379      -1.909854504      -3.767442233
Nuclear contribution   :      1.046416102       2.809799745       4.543371493
                        -----------------------------------------
Total Dipole Moment    :      0.351055723       0.899945241       0.775929259
                        -----------------------------------------
Magnitude (a.u.)       :      1.239035017
Magnitude (Debye)      :      3.149376728

Rotational constants in cm-1:             0.164787             0.050047             0.042171
Rotational constants in MHz :          4940.185019          1500.381804          1264.260115

                             ****ORCA TERMINATED NORMALLY****
TOTAL RUN TIME: 0 days 0 hours 0 minutes 26 seconds 525 msec
