                         Program Version 6.0.0  -   RELEASE  -
|  1> ! r2scan-3c def2/J RI DEFGRID2 scfconv6 printgap
|  2> %output
|  3>     printlevel normal
|  4> end
|  5> * xyz 0 1
|  6> C -3.3210837696 0.8071689785 0.2154358766
|  7> C -2.6777231299 0.3175413555 1.3399651118
|  8> C -1.5012566265 -0.3994574813 1.2092197178
|  9> C -0.957696642 -0.6345865626 -0.0476314924
| 10> C -1.6090418429 -0.1413870538 -1.1714426566
| 11> C -2.785356357 0.5758198195 -1.0406021992
| 12> C 0.3400670722 -1.3828606104 -0.1877788188
| 13> N 1.4788356435 -0.4860898676 -0.1095774026
| 14> C 1.472368249 0.8746246991 -0.0167032178
| 15> C 2.7828529566 1.2573001401 0.0170799543
| 16> N 3.5900952113 0.1646094804 -0.0538982452
| 17> C 2.7766995407 -0.8577942477 -0.1286850371
| 18> H -4.2378587585 1.3673629823 0.3176125301
| 19> H -3.0921028624 0.4951642088 2.3206642172
| 20> H -0.9990767574 -0.7766880138 2.0879111154
| 21> H -1.1907352026 -0.3170913625 -2.1516920741
| 22> H -3.2833801227 0.9552637839 -1.9197745862
| 23> H 0.4358222046 -2.1268671172 0.6094668988
| 24> H 0.3737356798 -1.9011031918 -1.151952427
| 25> H 0.568778557 1.4456775711 0.0190110412
| 26> H 3.1960849995 2.2432690943 0.0877118483
| 27> H 3.0926420414 -1.8792127433 -0.1977361589
| 28> *
| 29>
| 30>                          ****END OF INPUT****

CARTESIAN COORDINATES (ANGSTROEM)
---------------------------------
  C     -3.321084    0.807169    0.215436
  C     -2.677723    0.317541    1.339965
  C     -1.501257   -0.399457    1.209220
  C     -0.957697   -0.634587   -0.047631
  C     -1.609042   -0.141387   -1.171443
  C     -2.785356    0.575820   -1.040602
  C      0.340067   -1.382861   -0.187779
  N      1.478836   -0.486090   -0.109577
  C      1.472368    0.874625   -0.016703
  C      2.782853    1.257300    0.017080
  N      3.590095    0.164609   -0.053898
  C      2.776700   -0.857794   -0.128685
  H     -4.237859    1.367363    0.317613
  H     -3.092103    0.495164    2.320664
  H     -0.999077   -0.776688    2.087911
  H     -1.190735   -0.317091   -2.151692
  H     -3.283380    0.955264   -1.919775
  H      0.435822   -2.126867    0.609467
  H      0.373736   -1.901103   -1.151952
  H      0.568779    1.445678    0.019011
  H      3.196085    2.243269    0.087712
  H      3.092642   -1.879213   -0.197736

 Total Charge           Charge          ....    0
 Multiplicity           Mult            ....    1
 Number of Electrons    NEL             ....   84
 Basis Dimension        Dim             ....  288

ORBITAL ENERGIES
----------------

  NO   OCC          E(Eh)            E(eV)
   0   2.0000     -14.218449      -386.9037
   1   2.0000     -14.129369      -384.4797
   2   2.0000     -10.095706      -274.7181
   3   2.0000     -10.069502      -274.0051
   4   2.0000     -10.063580      -273.8439
   5   2.0000     -10.051944      -273.5273
   6   2.0000     -10.051855      -273.5249
   7   2.0000     -10.051110      -273.5046
   8   2.0000     -10.050933      -273.4998
   9   2.0000     -10.050355      -273.4841
  10   2.0000     -10.047998      -273.4199
  11   2.0000     -10.032248      -272.9913
  12   2.0000      -0.988928       -26.9101
  13   2.0000      -0.863914       -23.5083
  14   2.0000      -0.838730       -22.8230
  15   2.0000      -0.755283       -20.5523
  16   2.0000      -0.733816       -19.9682
  17   2.0000      -0.713064       -19.4035
  18   2.0000      -0.673591       -18.3293
  19   2.0000      -0.594771       -16.1845
  20   2.0000      -0.583548       -15.8792
  21   2.0000      -0.559017       -15.2116
  22   2.0000      -0.540521       -14.7083
  23   2.0000      -0.513973       -13.9859
  24   2.0000      -0.492032       -13.3889
  25   2.0000      -0.466708       -12.6998
  26   2.0000      -0.442149       -12.0315
  27   2.0000      -0.420793       -11.4504
  28   2.0000      -0.411821       -11.2062
  29   2.0000      -0.406163       -11.0523
  30   2.0000      -0.396182       -10.7807
  31   2.0000      -0.388380       -10.5683
  32   2.0000      -0.368442       -10.0258
  33   2.0000      -0.365732        -9.9521
  34   2.0000      -0.358490        -9.7550
  35   2.0000      -0.329665        -8.9706
  36   2.0000      -0.326639        -8.8883
  37   2.0000      -0.256624        -6.9831
  38   2.0000      -0.255658        -6.9568
  39   2.0000      -0.244817        -6.6618
  40   2.0000      -0.227504        -6.1907
  41   2.0000      -0.202639        -5.5141
  42   0.0000      -0.052867        -1.4386
  43   0.0000      -0.049203        -1.3389
  44   0.0000      -0.000221        -0.0060
  45   0.0000       0.041549         1.1306
  46   0.0000       0.055077         1.4987

MULLIKEN ATOMIC CHARGES
-----------------------
   0 C :   -0.124257
   1 C :   -0.159660
   2 C :   -0.163465
   3 C :    0.075655
   4 C :   -0.168372
   5 C :   -0.159987
   6 C :   -0.352285
   7 N :    0.257367
   8 C :   -0.153098
   9 C :   -0.177069
  10 N :   -0.185754
  11 C :   -0.162223
  12 H :    0.149916
  13 H :    0.148575
  14 H :    0.149550
  15 H :    0.150090
  16 H :    0.148552
  17 H :    0.158504
  18 H :    0.158694
  19 H :    0.148118
  20 H :    0.132082
  21 H :    0.129068
Sum of atomic charges:    0.0000000

LOEWDIN ATOMIC CHARGES
----------------------
   0 C :   -0.158256
   1 C :   -0.156052
   2 C :   -0.146683
   3 C :   -0.076919
   4 C :   -0.149554
   5 C :   -0.156686
   6 C :    0.020603
   7 N :   -0.764524
   8 C :    0.074622
   9 C :    0.045967
  10 N :   -0.566102
  11 C :    0.214294
  12 H :    0.169336
  13 H :    0.169824
  14 H :    0.174204
  15 H :    0.174024
  16 H :    0.169787
  17 H :    0.193399
  18 H :    0.191856
  19 H :    0.196852
  20 H :    0.181121
  21 H :    0.198890

  Mayer bond orders larger than 0.100000
B(  0-C ,  1-C ) :   1.4171 B(  0-C ,  5-C ) :   1.4184 B(  0-C , 12-H ) :   0.9467
B(  1-C ,  2-C ) :   1.4305 B(  1-C , 13-H ) :   0.9497 B(  2-C ,  3-C ) :   1.4136
B(  2-C , 14-H ) :   0.9442 B(  3-C ,  4-C ) :   1.4129 B(  3-C ,  6-C ) :   0.8945
B(  4-C ,  5-C ) :   1.4291 B(  4-C , 15-H ) :   0.9444 B(  5-C , 16-H ) :   0.9496
B(  6-C ,  7-N ) :   0.9476 B(  6-C , 17-H ) :   0.9518 B(  6-C , 18-H ) :   0.9469
B(  7-N ,  8-C ) :   1.2430 B(  7-N , 11-C ) :   1.2275 B(  8-C ,  9-C ) :   1.4497
B(  8-C , 11-C ) :   0.1042 B(  8-C , 19-H ) :   0.9484 B(  9-C , 10-N ) :   1.3126
B(  9-C , 20-H ) :   0.9802 B( 10-N , 11-C ) :   1.6058 B( 11-C , 21-H ) :   0.9607

Dispersion correction           -0.008616042
FINAL SINGLE POINT ENERGY      -496.439697952810

DIPOLE MOMENT
-------------

Method             : SCF
Type of density    : Electron Density
Multiplicity       :   1
Irrep              :   0
Energy             :  -496.4438881593495125 Eh
Relativity type    :
Basis              : AO
                                X                 Y                 Z
Electronic contribution:      3.069226619       0.042471267      -0.038753889
Nuclear contribution   :     -4.790705663      -0.465431661       0.019012942
                        -----------------------------------------
Total Dipole Moment    :     -1.721479044      -0.422960395      -0.019740947
                        -----------------------------------------
Magnitude (a.u.)       :      1.772787438
Magnitude (Debye)      :      4.506067565

Rotational constants in cm-1:             0.086812             0.017593             0.017304
Rotational constants in MHz :          2602.545726           527.420991           518.750058

                             ****ORCA TERMINATED NORMALLY****
TOTAL RUN TIME: 0 days 0 hours 0 minutes 47 seconds 122 msec
