                         Program Version 6.0.0  -   RELEASE  -
|  1> ! r2scan-3c def2/J RI DEFGRID2 scfconv6 printgap
|  2> %output
|  3>     printlevel normal
|  4> end
|  5> %cpcm
|  6>     smd true
|  7>     smdsolvent "water"
|  8> end
|  9> * xyz 0 1
| 10> C -3.3210837696 0.8071689785 0.2154358766
| 11> C -2.6777231299 0.3175413555 1.3399651118
| 12> C -1.5012566265 -0.3994574813 1.2092197178
| 13> C -0.957696642 -0.6345865626 -0.0476314924
| 14> C -1.6090418429 -0.1413870538 -1.1714426566
| 15> C -2.785356357 0.5758198195 -1.0406021992
| 16> C 0.3400670722 -1.3828606104 -0.1877788188
| 17> N 1.4788356435 -0.4860898676 -0.1095774026
| 18> C 1.472368249 0.8746246991 -0.0167032178
| 19> C 2.7828529566 1.2573001401 0.0170799543
| 20> N 3.5900952113 0.1646094804 -0.0538982452
| 21> C 2.7766995407 -0.8577942477 -0.1286850371
| 22> H -4.2378587585 1.3673629823 0.3176125301
| 23> H -3.0921028624 0.4951642088 2.3206642172
| 24> H -0.9990767574 -0.7766880138 2.0879111154
| 25> H -1.1907352026 -0.3170913625 -2.1516920741
| 26> H -3.2833801227 0.9552637839 -1.9197745862
| 27> H 0.4358222046 -2.1268671172 0.6094668988
| 28> H 0.3737356798 -1.9011031918 -1.151952427
| 29> H 0.568778557 1.4456775711 0.0190110412
| 30> H 3.1960849995 2.2432690943 0.0877118483
| 31> H 3.0926420414 -1.8792127433 -0.1977361589
| 32> *
| 33>
| 34>                          ****END OF INPUT****

CARTESIAN COORDINATES (ANGSTROEM)
---------------------------------
  C     -3.321084    0.807169    0.215436
  C     -2.677723    0.317541    1.339965
  C     -1.501257   -0.399457    1.209220
  C     -0.957697   -0.634587   -0.047631
  C     -1.609042   -0.141387   -1.171443
  C     -2.785356    0.575820   -1.040602
  C      0.340067   -1.382861   -0.187779
  N      1.478836   -0.486090   -0.109577
  C      1.472368    0.874625   -0.016703
  C      2.782853    1.257300    0.017080
  N      3.590095    0.164609   -0.053898
  C      2.776700   -0.857794   -0.128685
  H     -4.237859    1.367363    0.317613
  H     -3.092103    0.495164    2.320664
  H     -0.999077   -0.776688    2.087911
  H     -1.190735   -0.317091   -2.151692
  H     -3.283380    0.955264   -1.919775
  H      0.435822   -2.126867    0.609467
  H      0.373736   -1.901103   -1.151952
  H      0.568779    1.445678    0.019011
  H      3.196085    2.243269    0.087712
  H      3.092642   -1.879213   -0.197736

 Total Charge           Charge          ....    0
 Multiplicity           Mult            ....    1
 Number of Electrons    NEL             ....   84
 Basis Dimension        Dim             ....  288

ORBITAL ENERGIES
----------------

  NO   OCC          E(Eh)            E(eV)
   0   2.0000     -14.220629      -386.9630
   1   2.0000     -14.142123      -384.8267
   2   2.0000     -10.077291      -274.2170
   3   2.0000     -10.073606      -274.1168
   4   2.0000     -10.051529      -273.5160
   5   2.0000     -10.049119      -273.4504
   6   2.0000     -10.038350      -273.1574
   7   2.0000     -10.036398      -273.1043
   8   2.0000     -10.036388      -273.1040
   9   2.0000     -10.035807      -273.0882
  10   2.0000     -10.035568      -273.0817
  11   2.0000     -10.035161      -273.0706
  12   2.0000      -0.992889       -27.0179
  13   2.0000      -0.864066       -23.5124
  14   2.0000      -0.829311       -22.5667
  15   2.0000      -0.744087       -20.2476
  16   2.0000      -0.719191       -19.5702
  17   2.0000      -0.714652       -19.4467
  18   2.0000      -0.664821       -18.0907
  19   2.0000      -0.578731       -15.7481
  20   2.0000      -0.576055       -15.6753
  21   2.0000      -0.557621       -15.1736
  22   2.0000      -0.539140       -14.6707
  23   2.0000      -0.506881       -13.7929
  24   2.0000      -0.477821       -13.0022
  25   2.0000      -0.453448       -12.3389
  26   2.0000      -0.425662       -11.5829
  27   2.0000      -0.413779       -11.2595
  28   2.0000      -0.404882       -11.0174
  29   2.0000      -0.397170       -10.8075
  30   2.0000      -0.389585       -10.6012
  31   2.0000      -0.377353       -10.2683
  32   2.0000      -0.371410       -10.1066
  33   2.0000      -0.359078        -9.7710
  34   2.0000      -0.347915        -9.4672
  35   2.0000      -0.313590        -8.5332
  36   2.0000      -0.309568        -8.4238
  37   2.0000      -0.255049        -6.9402
  38   2.0000      -0.254652        -6.9294
  39   2.0000      -0.241666        -6.5761
  40   2.0000      -0.235949        -6.4205
  41   2.0000      -0.209866        -5.7107
  42   0.0000      -0.040866        -1.1120
  43   0.0000      -0.037086        -1.0092
  44   0.0000      -0.003489        -0.0949
  45   0.0000       0.032156         0.8750
  46   0.0000       0.072142         1.9631

MULLIKEN ATOMIC CHARGES
-----------------------
   0 C :   -0.155977
   1 C :   -0.201073
   2 C :   -0.191352
   3 C :    0.059007
   4 C :   -0.189952
   5 C :   -0.201417
   6 C :   -0.334387
   7 N :    0.261549
   8 C :   -0.175880
   9 C :   -0.236250
  10 N :   -0.274015
  11 C :   -0.155141
  12 H :    0.181562
  13 H :    0.179490
  14 H :    0.182382
  15 H :    0.182641
  16 H :    0.179434
  17 H :    0.187742
  18 H :    0.187383
  19 H :    0.182834
  20 H :    0.161135
  21 H :    0.170284
Sum of atomic charges:    0.0000000

LOEWDIN ATOMIC CHARGES
----------------------
   0 C :   -0.169487
   1 C :   -0.167885
   2 C :   -0.152570
   3 C :   -0.080652
   4 C :   -0.153831
   5 C :   -0.168016
   6 C :    0.028637
   7 N :   -0.745167
   8 C :    0.074904
   9 C :    0.020923
  10 N :   -0.635434
  11 C :    0.218670
  12 H :    0.178614
  13 H :    0.179113
  14 H :    0.184336
  15 H :    0.184281
  16 H :    0.179118
  17 H :    0.207281
  18 H :    0.205533
  19 H :    0.208068
  20 H :    0.189286
  21 H :    0.214280

  Mayer bond orders larger than 0.100000
B(  0-C ,  1-C ) :   1.3841 B(  0-C ,  5-C ) :   1.3856 B(  0-C , 12-H ) :   0.9513
B(  1-C ,  2-C ) :   1.3960 B(  1-C , 13-H ) :   0.9583 B(  2-C ,  3-C ) :   1.3909
B(  2-C , 14-H ) :   0.9502 B(  3-C ,  4-C ) :   1.3917 B(  3-C ,  6-C ) :   0.8842
B(  4-C ,  5-C ) :   1.3951 B(  4-C , 15-H ) :   0.9493 B(  5-C , 16-H ) :   0.9579
B(  6-C ,  7-N ) :   0.9681 B(  6-C , 17-H ) :   0.9392 B(  6-C , 18-H ) :   0.9341
B(  7-N ,  8-C ) :   1.2199 B(  7-N , 11-C ) :   1.2525 B(  8-C ,  9-C ) :   1.4579
B(  8-C , 19-H ) :   0.9490 B(  9-C , 10-N ) :   1.3027 B(  9-C , 20-H ) :   0.9782
B( 10-N , 11-C ) :   1.5930 B( 11-C , 21-H ) :   0.9510

Dispersion correction           -0.008616042
FINAL SINGLE POINT ENERGY      -496.454286584428

DIPOLE MOMENT
-------------

Method             : SCF
Type of density    : Electron Density
Multiplicity       :   1
Irrep              :   0
Energy             :  -496.4584767909673246 Eh
Relativity type    :
Basis              : AO
                                X                 Y                 Z
Electronic contribution:      2.608216856      -0.253198834      -0.075476002
Nuclear contribution   :     -4.790705663      -0.465431661       0.019012942
                        -----------------------------------------
Total Dipole Moment    :     -2.182488808      -0.718630496      -0.056463060
                        -----------------------------------------
Magnitude (a.u.)       :      2.298450622
Magnitude (Debye)      :      5.842197194

Rotational constants in cm-1:             0.086812             0.017593             0.017304
Rotational constants in MHz :          2602.545726           527.420991           518.750058

                             ****ORCA TERMINATED NORMALLY****
TOTAL RUN TIME: 0 days 0 hours 0 minutes 56 seconds 439 msec
