                         Program Version 6.0.0  -   RELEASE  -
|  1> ! r2scan-3c def2/J RI DEFGRID2 scfconv6 printgap
|  2> %output
|  3>     printlevel normal
|  4> end
|  5> * xyz 0 1
|  6> C 1.7298297054 -0.7849988476 0.1244950848
|  7> O 1.1528975382 0.3908621393 -0.4036498851
|  8> C 0.0637889481 0.9261488894 0.3363983449
|  9> C -1.3200320074 0.4883383209 -0.1841754052
| 10> N -1.7126224511 -0.8847044643 0.0781327542
| 11> H 1.0445221032 -1.6369599116 0.0859091931
| 12> H 2.051252377 -0.6305833896 1.1604951153
| 13> H 2.5970222675 -0.9943143624 -0.4978677009
| 14> H 0.1695379474 0.6702161653 1.3985142488
| 15> H 0.1452904652 2.0114739013 0.2265740714
| 16> H -2.0667656925 1.1387719816 0.2796246591
| 17> H -1.3471134028 0.6455902184 -1.2644935322
| 18> H -1.6227443123 -1.0900229724 1.0675661312
| 19> H -1.1154589484 -1.5253530432 -0.4322066352
| 20> *
| 21>
| 22>                          ****END OF INPUT****

CARTESIAN COORDINATES (ANGSTROEM)
---------------------------------
  C      1.729830   -0.784999    0.124495
  O      1.152898    0.390862   -0.403650
  C      0.063789    0.926149    0.336398
  C     -1.320032    0.488338   -0.184175
  N     -1.712622   -0.884704    0.078133
  H      1.044522   -1.636960    0.085909
  H      2.051252   -0.630583    1.160495
  H      2.597022   -0.994314   -0.497868
  H      0.169538    0.670216    1.398514
  H      0.145290    2.011474    0.226574
  H     -2.066766    1.138772    0.279625
  H     -1.347113    0.645590   -1.264494
  H     -1.622744   -1.090023    1.067566
  H     -1.115459   -1.525353   -0.432207

 Total Charge           Charge          ....    0
 Multiplicity           Mult            ....    1
 Number of Electrons    NEL             ....   42
 Basis Dimension        Dim             ....  150

ORBITAL ENERGIES
----------------

  NO   OCC          E(Eh)            E(eV)
   0   2.0000     -18.951613      -515.6996
   1   2.0000     -14.139114      -384.7449
   2   2.0000     -10.074170      -274.1321
   3   2.0000     -10.073367      -274.1103
   4   2.0000     -10.052190      -273.5340
   5   2.0000      -0.994565       -27.0635
   6   2.0000      -0.848970       -23.1016
   7   2.0000      -0.706390       -19.2218
   8   2.0000      -0.635961       -17.3054
   9   2.0000      -0.568314       -15.4646
  10   2.0000      -0.477714       -12.9993
  11   2.0000      -0.445973       -12.1356
  12   2.0000      -0.437706       -11.9106
  13   2.0000      -0.429520       -11.6878
  14   2.0000      -0.390133       -10.6161
  15   2.0000      -0.375010       -10.2046
  16   2.0000      -0.334348        -9.0981
  17   2.0000      -0.330488        -8.9930
  18   2.0000      -0.283925        -7.7260
  19   2.0000      -0.241793        -6.5795
  20   2.0000      -0.194987        -5.3059
  21   0.0000       0.060893         1.6570
  22   0.0000       0.081821         2.2265
  23   0.0000       0.109715         2.9855
  24   0.0000       0.117259         3.1908
  25   0.0000       0.127020         3.4564

MULLIKEN ATOMIC CHARGES
-----------------------
   0 C :   -0.293600
   1 O :   -0.249319
   2 C :   -0.108721
   3 C :   -0.261512
   4 N :   -0.540870
   5 H :    0.122250
   6 H :    0.135930
   7 H :    0.148430
   8 H :    0.118096
   9 H :    0.141623
  10 H :    0.144285
  11 H :    0.155664
  12 H :    0.238852
  13 H :    0.248892
Sum of atomic charges:    0.0000000

LOEWDIN ATOMIC CHARGES
----------------------
   0 C :   -0.077818
   1 O :   -0.782348
   2 C :    0.008376
   3 C :   -0.072594
   4 N :   -0.717868
   5 H :    0.146969
   6 H :    0.155186
   7 H :    0.174565
   8 H :    0.163059
   9 H :    0.177257
  10 H :    0.174990
  11 H :    0.181502
  12 H :    0.233325
  13 H :    0.235397

  Mayer bond orders larger than 0.100000
B(  0-C ,  1-O ) :   0.8936 B(  0-C ,  5-H ) :   0.9606 B(  0-C ,  6-H ) :   0.9741
B(  0-C ,  7-H ) :   0.9741 B(  1-O ,  2-C ) :   0.8600 B(  2-C ,  3-C ) :   0.9015
B(  2-C ,  8-H ) :   0.9595 B(  2-C ,  9-H ) :   0.9685 B(  3-C ,  4-N ) :   0.9725
B(  3-C , 10-H ) :   0.9902 B(  3-C , 11-H ) :   0.9886 B(  4-N , 12-H ) :   0.9163
B(  4-N , 13-H ) :   0.9137

Dispersion correction           -0.002890302
FINAL SINGLE POINT ENERGY      -249.614140868746

DIPOLE MOMENT
-------------

Method             : SCF
Type of density    : Electron Density
Multiplicity       :   1
Irrep              :   0
Energy             :  -249.6240060265135128 Eh
Relativity type    :
Basis              : AO
                                X                 Y                 Z
Electronic contribution:      0.408950299       1.141327852      -1.351105805
Nuclear contribution   :     -0.127809855      -1.322990194       1.893395245
                        -----------------------------------------
Total Dipole Moment    :      0.281140443      -0.181662342       0.542289440
                        -----------------------------------------
Magnitude (a.u.)       :      0.637274660
Magnitude (Debye)      :      1.619823457

Rotational constants in cm-1:             0.285007             0.110394             0.088948
Rotational constants in MHz :          8544.280132          3309.534417          2666.599026

                             ****ORCA TERMINATED NORMALLY****
TOTAL RUN TIME: 0 days 0 hours 0 minutes 16 seconds 108 msec
