                         Program Version 6.0.0  -   RELEASE  -
|  1> ! r2scan-3c def2/J RI DEFGRID2 scfconv6 printgap
|  2> %output
|  3>     printlevel normal
|  4> end
|  5> %cpcm
|  6>     smd true
|  7>     smdsolvent "water"
|  8> end
|  9> * xyz 0 1
| 10> C 1.7298297054 -0.7849988476 0.1244950848
| 11> O 1.1528975382 0.3908621393 -0.4036498851
| 12> C 0.0637889481 0.9261488894 0.3363983449
| 13> C -1.3200320074 0.4883383209 -0.1841754052
| 14> N -1.7126224511 -0.8847044643 0.0781327542
| 15> H 1.0445221032 -1.6369599116 0.0859091931
| 16> H 2.051252377 -0.6305833896 1.1604951153
| 17> H 2.5970222675 -0.9943143624 -0.4978677009
| 18> H 0.1695379474 0.6702161653 1.3985142488
| 19> H 0.1452904652 2.0114739013 0.2265740714
| 20> H -2.0667656925 1.1387719816 0.2796246591
| 21> H -1.3471134028 0.6455902184 -1.2644935322
| 22> H -1.6227443123 -1.0900229724 1.0675661312
| 23> H -1.1154589484 -1.5253530432 -0.4322066352
| 24> *
| 25>
| 26>                          ****END OF INPUT****

CARTESIAN COORDINATES (ANGSTROEM)
---------------------------------
  C      1.729830   -0.784999    0.124495
  O      1.152898    0.390862   -0.403650
  C      0.063789    0.926149    0.336398
  C     -1.320032    0.488338   -0.184175
  N     -1.712622   -0.884704    0.078133
  H      1.044522   -1.636960    0.085909
  H      2.051252   -0.630583    1.160495
  H      2.597022   -0.994314   -0.497868
  H      0.169538    0.670216    1.398514
  H      0.145290    2.011474    0.226574
  H     -2.066766    1.138772    0.279625
  H     -1.347113    0.645590   -1.264494
  H     -1.622744   -1.090023    1.067566
  H     -1.115459   -1.525353   -0.432207

 Total Charge           Charge          ....    0
 Multiplicity           Mult            ....    1
 Number of Electrons    NEL             ....   42
 Basis Dimension        Dim             ....  150

ORBITAL ENERGIES
----------------

  NO   OCC          E(Eh)            E(eV)
   0   2.0000     -18.953987      -515.7642
   1   2.0000     -14.131956      -384.5501
   2   2.0000     -10.065705      -273.9018
   3   2.0000     -10.061958      -273.7998
   4   2.0000     -10.044410      -273.3223
   5   2.0000      -0.995356       -27.0850
   6   2.0000      -0.841148       -22.8888
   7   2.0000      -0.699191       -19.0259
   8   2.0000      -0.627368       -17.0716
   9   2.0000      -0.560325       -15.2472
  10   2.0000      -0.469208       -12.7678
  11   2.0000      -0.440402       -11.9839
  12   2.0000      -0.430875       -11.7247
  13   2.0000      -0.423166       -11.5149
  14   2.0000      -0.381722       -10.3872
  15   2.0000      -0.365574        -9.9478
  16   2.0000      -0.325936        -8.8692
  17   2.0000      -0.321542        -8.7496
  18   2.0000      -0.283932        -7.7262
  19   2.0000      -0.242590        -6.6012
  20   2.0000      -0.193940        -5.2774
  21   0.0000       0.069120         1.8809
  22   0.0000       0.093757         2.5512
  23   0.0000       0.123735         3.3670
  24   0.0000       0.130272         3.5449
  25   0.0000       0.139253         3.7893

MULLIKEN ATOMIC CHARGES
-----------------------
   0 C :   -0.313351
   1 O :   -0.319675
   2 C :   -0.123215
   3 C :   -0.264921
   4 N :   -0.634521
   5 H :    0.149796
   6 H :    0.154921
   7 H :    0.159970
   8 H :    0.146703
   9 H :    0.152134
  10 H :    0.155123
  11 H :    0.160403
  12 H :    0.285140
  13 H :    0.291492
Sum of atomic charges:   -0.0000000

LOEWDIN ATOMIC CHARGES
----------------------
   0 C :   -0.078222
   1 O :   -0.823960
   2 C :    0.010629
   3 C :   -0.076810
   4 N :   -0.740423
   5 H :    0.159318
   6 H :    0.163978
   7 H :    0.178043
   8 H :    0.175578
   9 H :    0.181641
  10 H :    0.180377
  11 H :    0.180891
  12 H :    0.244448
  13 H :    0.244510

  Mayer bond orders larger than 0.100000
B(  0-C ,  1-O ) :   0.8836 B(  0-C ,  5-H ) :   0.9556 B(  0-C ,  6-H ) :   0.9678
B(  0-C ,  7-H ) :   0.9683 B(  1-O ,  2-C ) :   0.8576 B(  2-C ,  3-C ) :   0.9196
B(  2-C ,  8-H ) :   0.9542 B(  2-C ,  9-H ) :   0.9642 B(  3-C ,  4-N ) :   0.9774
B(  3-C , 10-H ) :   0.9778 B(  3-C , 11-H ) :   0.9847 B(  4-N , 12-H ) :   0.8998
B(  4-N , 13-H ) :   0.8955

Dispersion correction           -0.002890302
FINAL SINGLE POINT ENERGY      -249.624598966711

DIPOLE MOMENT
-------------

Method             : SCF
Type of density    : Electron Density
Multiplicity       :   1
Irrep              :   0
Energy             :  -249.6344641244782849 Eh
Relativity type    :
Basis              : AO
                                X                 Y                 Z
Electronic contribution:      0.477286045       1.033958027      -1.068156612
Nuclear contribution   :     -0.127809855      -1.322990194       1.893395245
                        -----------------------------------------
Total Dipole Moment    :      0.349476190      -0.289032168       0.825238633
                        -----------------------------------------
Magnitude (a.u.)       :      0.941643246
Magnitude (Debye)      :      2.393466919

Rotational constants in cm-1:             0.285007             0.110394             0.088948
Rotational constants in MHz :          8544.280132          3309.534417          2666.599026

                             ****ORCA TERMINATED NORMALLY****
TOTAL RUN TIME: 0 days 0 hours 0 minutes 18 seconds 351 msec
