                         Program Version 6.0.0  -   RELEASE  -
|  1> ! pbe def2-sv(p) def2/J RI DEFGRID1 loosescf d4 GCP(DFT/SV(P)) printgap
|  2> %output
|  3>     printlevel normal
|  4> end
|  5> * xyz 0 1
|  6> C 1.9907335354 1.1037790275 -0.3796679663
|  7> C 1.4061469774 -0.305901041 -0.28647246
|  8> H 2.0266799965 -0.9837905743 -0.8859137899
|  9> C -0.0316865657 -0.3677523441 -0.8384720853
| 10> C -1.1024131007 0.2719431069 0.0607351381
| 11> C -2.2102862319 0.894562384 -0.7881226098
| 12> C -1.6996112299 -0.7626606521 1.0152210777
| 13> O 1.5135114656 -0.8186423483 1.0310667697
| 14> H 2.9919539902 1.1145190916 0.0445067486
| 15> H 2.0481426739 1.4142492324 -1.4185195602
| 16> H 1.3740827795 1.8164429197 0.1632835959
| 17> H -0.0190457158 0.1286878623 -1.8097047631
| 18> H -0.2957110724 -1.4136592759 -1.0049563807
| 19> H -0.6477686965 1.0729631127 0.6534590097
| 20> H -2.9860898054 1.312872827 -0.1508473851
| 21> H -2.6625418993 0.1413189098 -1.4295837808
| 22> H -1.8151290353 1.6901293894 -1.415492712
| 23> H -2.351869117 -0.2834845187 1.7421849704
| 24> H -2.2871538417 -1.4882333931 0.4558402217
| 25> H -0.918080276 -1.2995324508 1.5462972491
| 26> H 1.1455088101 -0.1656650564 1.6424773927
| 27> *
| 28>
| 29>                          ****END OF INPUT****

CARTESIAN COORDINATES (ANGSTROEM)
---------------------------------
  C      1.990734    1.103779   -0.379668
  C      1.406147   -0.305901   -0.286472
  H      2.026680   -0.983791   -0.885914
  C     -0.031687   -0.367752   -0.838472
  C     -1.102413    0.271943    0.060735
  C     -2.210286    0.894562   -0.788123
  C     -1.699611   -0.762661    1.015221
  O      1.513511   -0.818642    1.031067
  H      2.991954    1.114519    0.044507
  H      2.048143    1.414249   -1.418520
  H      1.374083    1.816443    0.163284
  H     -0.019046    0.128688   -1.809705
  H     -0.295711   -1.413659   -1.004956
  H     -0.647769    1.072963    0.653459
  H     -2.986090    1.312873   -0.150847
  H     -2.662542    0.141319   -1.429584
  H     -1.815129    1.690129   -1.415493
  H     -2.351869   -0.283485    1.742185
  H     -2.287154   -1.488233    0.455840
  H     -0.918080   -1.299532    1.546297
  H      1.145509   -0.165665    1.642477

 Total Charge           Charge          ....    0
 Multiplicity           Mult            ....    1
 Number of Electrons    NEL             ....   58
 Basis Dimension        Dim             ....  126

ORBITAL ENERGIES
----------------

  NO   OCC          E(Eh)            E(eV)
   0   2.0000     -18.740135      -509.9450
   1   2.0000      -9.935873      -270.3689
   2   2.0000      -9.897581      -269.3269
   3   2.0000      -9.878353      -268.8037
   4   2.0000      -9.877083      -268.7691
   5   2.0000      -9.873685      -268.6766
   6   2.0000      -9.869376      -268.5594
   7   2.0000      -0.918054       -24.9815
   8   2.0000      -0.730830       -19.8869
   9   2.0000      -0.678107       -18.4522
  10   2.0000      -0.611163       -16.6306
  11   2.0000      -0.608462       -16.5571
  12   2.0000      -0.545658       -14.8481
  13   2.0000      -0.497680       -13.5426
  14   2.0000      -0.442047       -12.0287
  15   2.0000      -0.414486       -11.2787
  16   2.0000      -0.396080       -10.7779
  17   2.0000      -0.391563       -10.6550
  18   2.0000      -0.379178       -10.3179
  19   2.0000      -0.368188       -10.0189
  20   2.0000      -0.340810        -9.2739
  21   2.0000      -0.332106        -9.0371
  22   2.0000      -0.324377        -8.8267
  23   2.0000      -0.313556        -8.5323
  24   2.0000      -0.294433        -8.0119
  25   2.0000      -0.284633        -7.7453
  26   2.0000      -0.283672        -7.7191
  27   2.0000      -0.261022        -7.1028
  28   2.0000      -0.211454        -5.7540
  29   0.0000       0.021271         0.5788
  30   0.0000       0.050324         1.3694
  31   0.0000       0.057443         1.5631
  32   0.0000       0.067419         1.8346
  33   0.0000       0.086289         2.3481

MULLIKEN ATOMIC CHARGES
-----------------------
   0 C :   -0.278070
   1 C :    0.019060
   2 H :    0.070176
   3 C :   -0.081345
   4 C :   -0.224172
   5 C :   -0.243494
   6 C :   -0.251511
   7 O :   -0.425055
   8 H :    0.112231
   9 H :    0.101093
  10 H :    0.096485
  11 H :    0.072856
  12 H :    0.081431
  13 H :    0.068074
  14 H :    0.096540
  15 H :    0.097393
  16 H :    0.098838
  17 H :    0.094685
  18 H :    0.095110
  19 H :    0.099105
  20 H :    0.300572
Sum of atomic charges:    0.0000000

LOEWDIN ATOMIC CHARGES
----------------------
   0 C :   -0.355463
   1 C :   -0.056974
   2 H :    0.112216
   3 C :   -0.227777
   4 C :   -0.162980
   5 C :   -0.327704
   6 C :   -0.336224
   7 O :   -0.323865
   8 H :    0.123407
   9 H :    0.124453
  10 H :    0.114588
  11 H :    0.116934
  12 H :    0.120199
  13 H :    0.103590
  14 H :    0.116018
  15 H :    0.117631
  16 H :    0.115369
  17 H :    0.114746
  18 H :    0.117239
  19 H :    0.115043
  20 H :    0.279555

  Mayer bond orders larger than 0.100000
B(  0-C ,  1-C ) :   1.1265 B(  0-C ,  8-H ) :   0.9442 B(  0-C ,  9-H ) :   0.9395
B(  0-C , 10-H ) :   0.9364 B(  1-C ,  2-H ) :   0.9055 B(  1-C ,  3-C ) :   1.0502
B(  1-C ,  7-O ) :   1.0526 B(  3-C ,  4-C ) :   1.0370 B(  3-C , 11-H ) :   0.9161
B(  3-C , 12-H ) :   0.9057 B(  4-C ,  5-C ) :   1.1162 B(  4-C ,  6-C ) :   1.1123
B(  4-C , 13-H ) :   0.9046 B(  5-C , 14-H ) :   0.9523 B(  5-C , 15-H ) :   0.9488
B(  5-C , 16-H ) :   0.9490 B(  6-C , 17-H ) :   0.9495 B(  6-C , 18-H ) :   0.9467
B(  6-C , 19-H ) :   0.9348 B(  7-O , 20-H ) :   0.8416

Dispersion correction           -0.016616575
FINAL SINGLE POINT ENERGY      -311.516014474982

DIPOLE MOMENT
-------------

Method             : SCF
Type of density    : Electron Density
Multiplicity       :   1
Irrep              :   0
Energy             :  -311.5960777280894263 Eh
Relativity type    :
Basis              : AO
                                X                 Y                 Z
Electronic contribution:      3.917386638      -2.319111134       1.616590121
Nuclear contribution   :     -4.102663333       2.855646003      -1.736220603
                        -----------------------------------------
Total Dipole Moment    :     -0.185276694       0.536534869      -0.119630482
                        -----------------------------------------
Magnitude (a.u.)       :      0.580093588
Magnitude (Debye)      :      1.474480722

Rotational constants in cm-1:             0.127192             0.056395             0.045385
Rotational constants in MHz :          3813.123604          1690.668288          1360.607911

                             ****ORCA TERMINATED NORMALLY****
TOTAL RUN TIME: 0 days 0 hours 0 minutes 9 seconds 408 msec
