                         Program Version 6.0.0  -   RELEASE  -
|  1> ! pbe def2-sv(p) def2/J RI DEFGRID1 loosescf d4 GCP(DFT/SV(P)) printgap
|  2> %output
|  3>     printlevel normal
|  4> end
|  5> * xyz 0 1
|  6> C -3.4274074549 -1.0232807113 -0.0016779911
|  7> C -2.5513841331 0.1994600137 -0.0002271882
|  8> O -3.0386846576 1.3241512506 -5.5253e-06
|  9> C -1.0930642296 -0.0024504288 0.0006598229
| 10> C -0.2673084611 1.1238046188 0.0008152192
| 11> C 1.1069229578 1.0153738513 0.000743456
| 12> C 1.6975086372 -0.2479905203 0.0004824711
| 13> C 0.8786837659 -1.3840918764 0.0008833934
| 14> C -0.4903873167 -1.265715721 0.0009264556
| 15> O 3.0287116257 -0.4824364801 -0.0001273523
| 16> C 3.9234389205 0.6171363115 -0.0016922574
| 17> H -4.46970667 -0.7151627856 -0.003152825
| 18> H -3.2273107156 -1.6230814614 0.8822617095
| 19> H -3.2247752207 -1.622812142 -0.8851780419
| 20> H -0.7367436522 2.0967442819 0.0008492587
| 21> H 1.7068900898 1.9104759598 0.0008853766
| 22> H 1.3555750758 -2.3511157246 0.000950811
| 23> H -1.0904763118 -2.1601924432 0.0009390679
| 24> H 4.9171818646 0.1756589924 -0.002660013
| 25> H 3.793622206 1.2307784645 0.892673607
| 26> H 3.7914822602 1.2299218104 -0.8963442879
| 27> *
| 28>
| 29>                          ****END OF INPUT****

CARTESIAN COORDINATES (ANGSTROEM)
---------------------------------
  C     -3.427407   -1.023281   -0.001678
  C     -2.551384    0.199460   -0.000227
  O     -3.038685    1.324151   -0.000006
  C     -1.093064   -0.002450    0.000660
  C     -0.267308    1.123805    0.000815
  C      1.106923    1.015374    0.000743
  C      1.697509   -0.247991    0.000482
  C      0.878684   -1.384092    0.000883
  C     -0.490387   -1.265716    0.000926
  O      3.028712   -0.482436   -0.000127
  C      3.923439    0.617136   -0.001692
  H     -4.469707   -0.715163   -0.003153
  H     -3.227311   -1.623081    0.882262
  H     -3.224775   -1.622812   -0.885178
  H     -0.736744    2.096744    0.000849
  H      1.706890    1.910476    0.000885
  H      1.355575   -2.351116    0.000951
  H     -1.090476   -2.160192    0.000939
  H      4.917182    0.175659   -0.002660
  H      3.793622    1.230778    0.892674
  H      3.791482    1.229922   -0.896344

 Total Charge           Charge          ....    0
 Multiplicity           Mult            ....    1
 Number of Electrons    NEL             ....   80
 Basis Dimension        Dim             ....  174

ORBITAL ENERGIES
----------------

  NO   OCC          E(Eh)            E(eV)
   0   2.0000     -18.805046      -511.7113
   1   2.0000     -18.728797      -509.6365
   2   2.0000      -9.967028      -271.2166
   3   2.0000      -9.965445      -271.1735
   4   2.0000      -9.951895      -270.8048
   5   2.0000      -9.905427      -269.5404
   6   2.0000      -9.900779      -269.4139
   7   2.0000      -9.899685      -269.3841
   8   2.0000      -9.897763      -269.3318
   9   2.0000      -9.896471      -269.2967
  10   2.0000      -9.882058      -268.9045
  11   2.0000      -0.986280       -26.8380
  12   2.0000      -0.922854       -25.1121
  13   2.0000      -0.784035       -21.3347
  14   2.0000      -0.704139       -19.1606
  15   2.0000      -0.687487       -18.7075
  16   2.0000      -0.662407       -18.0250
  17   2.0000      -0.636457       -17.3189
  18   2.0000      -0.556435       -15.1414
  19   2.0000      -0.552851       -15.0438
  20   2.0000      -0.502486       -13.6733
  21   2.0000      -0.486153       -13.2289
  22   2.0000      -0.447478       -12.1765
  23   2.0000      -0.434348       -11.8192
  24   2.0000      -0.421212       -11.4618
  25   2.0000      -0.405864       -11.0441
  26   2.0000      -0.397623       -10.8199
  27   2.0000      -0.388746       -10.5783
  28   2.0000      -0.382633       -10.4120
  29   2.0000      -0.362495        -9.8640
  30   2.0000      -0.355915        -9.6849
  31   2.0000      -0.352627        -9.5955
  32   2.0000      -0.327531        -8.9126
  33   2.0000      -0.320406        -8.7187
  34   2.0000      -0.318266        -8.6605
  35   2.0000      -0.289732        -7.8840
  36   2.0000      -0.286057        -7.7840
  37   2.0000      -0.240934        -6.5562
  38   2.0000      -0.206381        -5.6159
  39   2.0000      -0.192179        -5.2295
  40   0.0000      -0.076867        -2.0917
  41   0.0000      -0.043056        -1.1716
  42   0.0000       0.013277         0.3613
  43   0.0000       0.036867         1.0032
  44   0.0000       0.045112         1.2276

MULLIKEN ATOMIC CHARGES
-----------------------
   0 C :   -0.241184
   1 C :   -0.022563
   2 O :   -0.174991
   3 C :    0.115009
   4 C :   -0.111879
   5 C :   -0.177350
   6 C :    0.275143
   7 C :   -0.097375
   8 C :   -0.124019
   9 O :   -0.254899
  10 C :   -0.119525
  11 H :    0.114981
  12 H :    0.122806
  13 H :    0.122779
  14 H :    0.064161
  15 H :    0.045478
  16 H :    0.047072
  17 H :    0.048971
  18 H :    0.131269
  19 H :    0.118063
  20 H :    0.118051
Sum of atomic charges:    0.0000000

LOEWDIN ATOMIC CHARGES
----------------------
   0 C :   -0.361518
   1 C :    0.042089
   2 O :   -0.146853
   3 C :   -0.098842
   4 C :   -0.073353
   5 C :   -0.171827
   6 C :    0.040754
   7 C :   -0.141587
   8 C :   -0.101323
   9 O :   -0.076469
  10 C :   -0.200670
  11 H :    0.134971
  12 H :    0.139573
  13 H :    0.139543
  14 H :    0.134706
  15 H :    0.128825
  16 H :    0.131515
  17 H :    0.127062
  18 H :    0.125581
  19 H :    0.113907
  20 H :    0.113915

  Mayer bond orders larger than 0.100000
B(  0-C ,  1-C ) :   1.1239 B(  0-C , 11-H ) :   0.9301 B(  0-C , 12-H ) :   0.9168
B(  0-C , 13-H ) :   0.9168 B(  1-C ,  2-O ) :   2.1463 B(  1-C ,  3-C ) :   0.9520
B(  3-C ,  4-C ) :   1.3624 B(  3-C ,  8-C ) :   1.3069 B(  4-C ,  5-C ) :   1.3425
B(  4-C , 14-H ) :   0.9538 B(  5-C ,  6-C ) :   1.2612 B(  5-C , 15-H ) :   0.9677
B(  6-C ,  7-C ) :   1.3269 B(  6-C ,  9-O ) :   1.1674 B(  7-C ,  8-C ) :   1.3948
B(  7-C , 16-H ) :   0.9623 B(  8-C , 17-H ) :   0.9496 B(  9-O , 10-C ) :   0.9772
B( 10-C , 18-H ) :   0.9584 B( 10-C , 19-H ) :   0.9426 B( 10-C , 20-H ) :   0.9426

Dispersion correction           -0.021899984
FINAL SINGLE POINT ENERGY      -498.356485272631

DIPOLE MOMENT
-------------

Method             : SCF
Type of density    : Electron Density
Multiplicity       :   1
Irrep              :   0
Energy             :  -498.4212415391358491 Eh
Relativity type    :
Basis              : AO
                                X                 Y                 Z
Electronic contribution:     -1.347838218       1.240929264       0.007309108
Nuclear contribution   :      2.641494465      -1.703242072      -0.008234728
                        -----------------------------------------
Total Dipole Moment    :      1.293656248      -0.462312808      -0.000925619
                        -----------------------------------------
Magnitude (a.u.)       :      1.373783271
Magnitude (Debye)      :      3.491879571

Rotational constants in cm-1:             0.112063             0.019166             0.016469
Rotational constants in MHz :          3359.561707           574.576742           493.716341

                             ****ORCA TERMINATED NORMALLY****
TOTAL RUN TIME: 0 days 0 hours 0 minutes 12 seconds 679 msec
