                         Program Version 6.0.0  -   RELEASE  -
|  1> ! pbe def2-sv(p) def2/J RI DEFGRID1 loosescf d4 GCP(DFT/SV(P)) printgap
|  2> %output
|  3>     printlevel normal
|  4> end
|  5> * xyz 0 1
|  6> C -2.2344760323 -0.8002022811 -0.1689519362
|  7> C -1.4583944432 0.5066499721 -0.2893744941
|  8> C -0.2798652322 0.6143403382 0.6972569312
|  9> C 1.0276243375 0.1535519867 0.1120175882
| 10> C 1.9841832174 1.0153691958 -0.1979750301
| 11> C 1.1909191263 -1.3183509352 -0.1166647
| 12> H -2.6511212502 -0.9004288357 0.831192697
| 13> H -1.5991080556 -1.6593798202 -0.3620516154
| 14> H -3.0549357406 -0.8157594522 -0.8832756149
| 15> H -1.0835347081 0.6227341714 -1.3085576295
| 16> H -2.1479728691 1.3319244289 -0.1005054272
| 17> H -0.1696558729 1.6561127195 1.0029443996
| 18> H -0.5088341121 0.0270460107 1.5893414888
| 19> H 2.9223629272 0.6979216658 -0.6219789818
| 20> H 1.8701877771 2.0751907847 -0.0425693098
| 21> H 0.5793390971 -1.6372106247 -0.9595783894
| 22> H 2.2267654798 -1.5613659078 -0.3388277083
| 23> H 0.8757378229 -1.8788371875 0.7611845748
| 24> *
| 25>
| 26>                          ****END OF INPUT****

CARTESIAN COORDINATES (ANGSTROEM)
---------------------------------
  C     -2.234476   -0.800202   -0.168952
  C     -1.458394    0.506650   -0.289374
  C     -0.279865    0.614340    0.697257
  C      1.027624    0.153552    0.112018
  C      1.984183    1.015369   -0.197975
  C      1.190919   -1.318351   -0.116665
  H     -2.651121   -0.900429    0.831193
  H     -1.599108   -1.659380   -0.362052
  H     -3.054936   -0.815759   -0.883276
  H     -1.083535    0.622734   -1.308558
  H     -2.147973    1.331924   -0.100505
  H     -0.169656    1.656113    1.002944
  H     -0.508834    0.027046    1.589341
  H      2.922363    0.697922   -0.621979
  H      1.870188    2.075191   -0.042569
  H      0.579339   -1.637211   -0.959578
  H      2.226765   -1.561366   -0.338828
  H      0.875738   -1.878837    0.761185

 Total Charge           Charge          ....    0
 Multiplicity           Mult            ....    1
 Number of Electrons    NEL             ....   48
 Basis Dimension        Dim             ....  108

ORBITAL ENERGIES
----------------

  NO   OCC          E(Eh)            E(eV)
   0   2.0000      -9.895446      -269.2688
   1   2.0000      -9.885566      -268.9999
   2   2.0000      -9.883210      -268.9358
   3   2.0000      -9.878082      -268.7963
   4   2.0000      -9.874206      -268.6908
   5   2.0000      -9.864210      -268.4188
   6   2.0000      -0.736882       -20.0516
   7   2.0000      -0.684601       -18.6289
   8   2.0000      -0.617987       -16.8163
   9   2.0000      -0.599480       -16.3127
  10   2.0000      -0.527057       -14.3420
  11   2.0000      -0.463085       -12.6012
  12   2.0000      -0.417921       -11.3722
  13   2.0000      -0.410767       -11.1775
  14   2.0000      -0.386018       -10.5041
  15   2.0000      -0.371329       -10.1044
  16   2.0000      -0.359481        -9.7820
  17   2.0000      -0.345140        -9.3917
  18   2.0000      -0.330505        -8.9935
  19   2.0000      -0.307254        -8.3608
  20   2.0000      -0.298205        -8.1146
  21   2.0000      -0.289461        -7.8766
  22   2.0000      -0.275589        -7.4992
  23   2.0000      -0.212202        -5.7743
  24   0.0000      -0.008422        -0.2292
  25   0.0000       0.038233         1.0404
  26   0.0000       0.068085         1.8527
  27   0.0000       0.073059         1.9880
  28   0.0000       0.080425         2.1885

MULLIKEN ATOMIC CHARGES
-----------------------
   0 C :   -0.293530
   1 C :   -0.184199
   2 C :   -0.101690
   3 C :   -0.108148
   4 C :   -0.227179
   5 C :   -0.219955
   6 H :    0.100320
   7 H :    0.103889
   8 H :    0.103347
   9 H :    0.096736
  10 H :    0.087470
  11 H :    0.075399
  12 H :    0.083721
  13 H :    0.079137
  14 H :    0.081045
  15 H :    0.123402
  16 H :    0.097984
  17 H :    0.102250
Sum of atomic charges:    0.0000000

LOEWDIN ATOMIC CHARGES
----------------------
   0 C :   -0.343965
   1 C :   -0.229867
   2 C :   -0.211218
   3 C :   -0.058306
   4 C :   -0.270010
   5 C :   -0.324975
   6 H :    0.116924
   7 H :    0.115400
   8 H :    0.119582
   9 H :    0.118491
  10 H :    0.118270
  11 H :    0.120914
  12 H :    0.119109
  13 H :    0.114750
  14 H :    0.115413
  15 H :    0.130204
  16 H :    0.124687
  17 H :    0.124598

  Mayer bond orders larger than 0.100000
B(  0-C ,  1-C ) :   1.1590 B(  0-C ,  6-H ) :   0.9530 B(  0-C ,  7-H ) :   0.9471
B(  0-C ,  8-H ) :   0.9502 B(  1-C ,  2-C ) :   1.0768 B(  1-C ,  9-H ) :   0.9306
B(  1-C , 10-H ) :   0.9271 B(  2-C ,  3-C ) :   1.0932 B(  2-C , 11-H ) :   0.9070
B(  2-C , 12-H ) :   0.9088 B(  3-C ,  4-C ) :   2.0353 B(  3-C ,  5-C ) :   1.1164
B(  4-C , 13-H ) :   0.9097 B(  4-C , 14-H ) :   0.9102 B(  5-C , 15-H ) :   0.9212
B(  5-C , 16-H ) :   0.9369 B(  5-C , 17-H ) :   0.9323

Dispersion correction           -0.013682993
FINAL SINGLE POINT ENERGY      -235.241501290677

DIPOLE MOMENT
-------------

Method             : SCF
Type of density    : Electron Density
Multiplicity       :   1
Irrep              :   0
Energy             :  -235.2991264156286206 Eh
Relativity type    :
Basis              : AO
                                X                 Y                 Z
Electronic contribution:      2.380184378       1.797396842       0.408109800
Nuclear contribution   :     -2.571288649      -1.915777756      -0.405925806
                        -----------------------------------------
Total Dipole Moment    :     -0.191104271      -0.118380914       0.002183994
                        -----------------------------------------
Magnitude (a.u.)       :      0.224810260
Magnitude (Debye)      :      0.571422269

Rotational constants in cm-1:             0.197878             0.074447             0.060380
Rotational constants in MHz :          5932.242030          2231.864577          1810.158124

                             ****ORCA TERMINATED NORMALLY****
TOTAL RUN TIME: 0 days 0 hours 0 minutes 7 seconds 801 msec
