                         Program Version 6.0.0  -   RELEASE  -
|  1> ! r2scan-3c def2/J RI DEFGRID2 scfconv6 printgap
|  2> %output
|  3>     printlevel normal
|  4> end
|  5> * xyz 0 1
|  6> C -3.1799648526 1.2351195527 -0.6741053736
|  7> C -1.9155450514 0.8109053396 -0.001464399
|  8> O -1.827108164 0.3217082592 1.1030810754
|  9> O -0.854062359 1.074201477 -0.7785450101
| 10> C 0.4279012598 0.7534943541 -0.3528676235
| 11> C 1.368577067 1.7732626052 -0.372336585
| 12> C 2.666512726 1.5280768208 0.0383563179
| 13> C 3.0261895521 0.2696137752 0.4964598334
| 14> C 2.0908164764 -0.7453694567 0.5185194767
| 15> C 0.785479217 -0.5263250205 0.0771116369
| 16> C -0.1384778234 -1.6836355249 0.0781844893
| 17> O -0.0267472096 -2.623205709 0.8395605366
| 18> O -1.0683418416 -1.6514719424 -0.8694048156
| 19> H -4.0330202032 0.8866774966 -0.101892954
| 20> H -3.1993148017 0.8396481145 -1.6854619142
| 21> H -3.1963079825 2.3207989837 -0.7357643739
| 22> H 1.0624400413 2.7499134586 -0.7108435701
| 23> H 3.3923735884 2.3247142144 0.0124811152
| 24> H 4.0319355314 0.07979642 0.8340557177
| 25> H 2.3434754305 -1.7353440854 0.8659858701
| 26> H -1.6084689885 -2.4664194362 -0.8667645533
| 27> *
| 28>
| 29>                          ****END OF INPUT****

CARTESIAN COORDINATES (ANGSTROEM)
---------------------------------
  C     -3.179965    1.235120   -0.674105
  C     -1.915545    0.810905   -0.001464
  O     -1.827108    0.321708    1.103081
  O     -0.854062    1.074201   -0.778545
  C      0.427901    0.753494   -0.352868
  C      1.368577    1.773263   -0.372337
  C      2.666513    1.528077    0.038356
  C      3.026190    0.269614    0.496460
  C      2.090816   -0.745369    0.518519
  C      0.785479   -0.526325    0.077112
  C     -0.138478   -1.683636    0.078184
  O     -0.026747   -2.623206    0.839561
  O     -1.068342   -1.651472   -0.869405
  H     -4.033020    0.886677   -0.101893
  H     -3.199315    0.839648   -1.685462
  H     -3.196308    2.320799   -0.735764
  H      1.062440    2.749913   -0.710844
  H      3.392374    2.324714    0.012481
  H      4.031936    0.079796    0.834056
  H      2.343475   -1.735344    0.865986
  H     -1.608469   -2.466419   -0.866765

 Total Charge           Charge          ....    0
 Multiplicity           Mult            ....    1
 Number of Electrons    NEL             ....   94
 Basis Dimension        Dim             ....  307

ORBITAL ENERGIES
----------------

  NO   OCC          E(Eh)            E(eV)
   0   2.0000     -19.020683      -517.5791
   1   2.0000     -19.006559      -517.1948
   2   2.0000     -18.943038      -515.4663
   3   2.0000     -18.935218      -515.2535
   4   2.0000     -10.172968      -276.8205
   5   2.0000     -10.168705      -276.7045
   6   2.0000     -10.121450      -275.4187
   7   2.0000     -10.067044      -273.9382
   8   2.0000     -10.057134      -273.6685
   9   2.0000     -10.055098      -273.6131
  10   2.0000     -10.054551      -273.5982
  11   2.0000     -10.049653      -273.4650
  12   2.0000     -10.049536      -273.4618
  13   2.0000      -1.096913       -29.8485
  14   2.0000      -1.078979       -29.3605
  15   2.0000      -0.995803       -27.0972
  16   2.0000      -0.980478       -26.6802
  17   2.0000      -0.848737       -23.0953
  18   2.0000      -0.761038       -20.7089
  19   2.0000      -0.751390       -20.4464
  20   2.0000      -0.717396       -19.5213
  21   2.0000      -0.652609       -17.7584
  22   2.0000      -0.621315       -16.9068
  23   2.0000      -0.584099       -15.8941
  24   2.0000      -0.559976       -15.2377
  25   2.0000      -0.497716       -13.5435
  26   2.0000      -0.481891       -13.1129
  27   2.0000      -0.470015       -12.7897
  28   2.0000      -0.463908       -12.6236
  29   2.0000      -0.445566       -12.1245
  30   2.0000      -0.441938       -12.0258
  31   2.0000      -0.429370       -11.6837
  32   2.0000      -0.421235       -11.4624
  33   2.0000      -0.416465       -11.3326
  34   2.0000      -0.390668       -10.6306
  35   2.0000      -0.383423       -10.4335
  36   2.0000      -0.372231       -10.1289
  37   2.0000      -0.365893        -9.9565
  38   2.0000      -0.354774        -9.6539
  39   2.0000      -0.341629        -9.2962
  40   2.0000      -0.334859        -9.1120
  41   2.0000      -0.301214        -8.1964
  42   2.0000      -0.294243        -8.0068
  43   2.0000      -0.261756        -7.1227
  44   2.0000      -0.252903        -6.8818
  45   2.0000      -0.242889        -6.6093
  46   2.0000      -0.238923        -6.5014
  47   0.0000      -0.078979        -2.1491
  48   0.0000      -0.050063        -1.3623
  49   0.0000      -0.021938        -0.5970
  50   0.0000       0.011842         0.3222
  51   0.0000       0.054636         1.4867

MULLIKEN ATOMIC CHARGES
-----------------------
   0 C :   -0.541551
   1 C :    0.413690
   2 O :   -0.388299
   3 O :   -0.143377
   4 C :    0.248918
   5 C :   -0.264706
   6 C :   -0.104398
   7 C :   -0.149019
   8 C :   -0.205523
   9 C :    0.034692
  10 C :    0.311931
  11 O :   -0.394118
  12 O :   -0.324279
  13 H :    0.181224
  14 H :    0.174554
  15 H :    0.172206
  16 H :    0.159972
  17 H :    0.151515
  18 H :    0.150324
  19 H :    0.179176
  20 H :    0.337068
Sum of atomic charges:   -0.0000000

LOEWDIN ATOMIC CHARGES
----------------------
   0 C :   -0.328922
   1 C :    0.375739
   2 O :   -0.392657
   3 O :   -0.522628
   4 C :    0.229626
   5 C :   -0.114883
   6 C :   -0.137662
   7 C :   -0.161461
   8 C :   -0.095553
   9 C :   -0.001921
  10 C :    0.373176
  11 O :   -0.407015
  12 O :   -0.379195
  13 H :    0.177255
  14 H :    0.181461
  15 H :    0.182767
  16 H :    0.183141
  17 H :    0.171512
  18 H :    0.171603
  19 H :    0.191666
  20 H :    0.303952

  Mayer bond orders larger than 0.100000
B(  0-C ,  1-C ) :   0.9446 B(  0-C , 13-H ) :   0.9902 B(  0-C , 14-H ) :   0.9589
B(  0-C , 15-H ) :   0.9415 B(  1-C ,  2-O ) :   1.8823 B(  1-C ,  3-O ) :   0.9587
B(  3-O ,  4-C ) :   0.9119 B(  4-C ,  5-C ) :   1.3789 B(  4-C ,  9-C ) :   1.4605
B(  5-C ,  6-C ) :   1.3625 B(  5-C , 16-H ) :   0.9493 B(  6-C ,  7-C ) :   1.3885
B(  6-C , 17-H ) :   0.9457 B(  7-C ,  8-C ) :   1.3773 B(  7-C , 18-H ) :   0.9505
B(  8-C ,  9-C ) :   1.3322 B(  8-C , 19-H ) :   0.9452 B(  9-C , 10-C ) :   0.9763
B(  9-C , 11-O ) :  -0.1087 B( 10-C , 11-O ) :   1.9722 B( 10-C , 12-O ) :   1.0552
B( 12-O , 20-H ) :   0.8584

Dispersion correction           -0.008156509
FINAL SINGLE POINT ENERGY      -648.584450741009

DIPOLE MOMENT
-------------

Method             : SCF
Type of density    : Electron Density
Multiplicity       :   1
Irrep              :   0
Energy             :  -648.5864706745056765 Eh
Relativity type    :
Basis              : AO
                                X                 Y                 Z
Electronic contribution:      1.154080922      -3.772614402       1.097527382
Nuclear contribution   :     -1.188179865       4.648036230      -2.236184030
                        -----------------------------------------
Total Dipole Moment    :     -0.034098943       0.875421828      -1.138656648
                        -----------------------------------------
Magnitude (a.u.)       :      1.436685448
Magnitude (Debye)      :      3.651764198

Rotational constants in cm-1:             0.040704             0.025228             0.017463
Rotational constants in MHz :          1220.265901           756.308798           523.537839

                             ****ORCA TERMINATED NORMALLY****
TOTAL RUN TIME: 0 days 0 hours 0 minutes 54 seconds 144 msec
