                         Program Version 6.0.0  -   RELEASE  -
|  1> ! r2scan-3c def2/J RI DEFGRID2 scfconv6 printgap
|  2> %output
|  3>     printlevel normal
|  4> end
|  5> %cpcm
|  6>     smd true
|  7>     smdsolvent "water"
|  8> end
|  9> * xyz 0 1
| 10> C -3.1799648526 1.2351195527 -0.6741053736
| 11> C -1.9155450514 0.8109053396 -0.001464399
| 12> O -1.827108164 0.3217082592 1.1030810754
| 13> O -0.854062359 1.074201477 -0.7785450101
| 14> C 0.4279012598 0.7534943541 -0.3528676235
| 15> C 1.368577067 1.7732626052 -0.372336585
| 16> C 2.666512726 1.5280768208 0.0383563179
| 17> C 3.0261895521 0.2696137752 0.4964598334
| 18> C 2.0908164764 -0.7453694567 0.5185194767
| 19> C 0.785479217 -0.5263250205 0.0771116369
| 20> C -0.1384778234 -1.6836355249 0.0781844893
| 21> O -0.0267472096 -2.623205709 0.8395605366
| 22> O -1.0683418416 -1.6514719424 -0.8694048156
| 23> H -4.0330202032 0.8866774966 -0.101892954
| 24> H -3.1993148017 0.8396481145 -1.6854619142
| 25> H -3.1963079825 2.3207989837 -0.7357643739
| 26> H 1.0624400413 2.7499134586 -0.7108435701
| 27> H 3.3923735884 2.3247142144 0.0124811152
| 28> H 4.0319355314 0.07979642 0.8340557177
| 29> H 2.3434754305 -1.7353440854 0.8659858701
| 30> H -1.6084689885 -2.4664194362 -0.8667645533
| 31> *
| 32>
| 33>                          ****END OF INPUT****

CARTESIAN COORDINATES (ANGSTROEM)
---------------------------------
  C     -3.179965    1.235120   -0.674105
  C     -1.915545    0.810905   -0.001464
  O     -1.827108    0.321708    1.103081
  O     -0.854062    1.074201   -0.778545
  C      0.427901    0.753494   -0.352868
  C      1.368577    1.773263   -0.372337
  C      2.666513    1.528077    0.038356
  C      3.026190    0.269614    0.496460
  C      2.090816   -0.745369    0.518519
  C      0.785479   -0.526325    0.077112
  C     -0.138478   -1.683636    0.078184
  O     -0.026747   -2.623206    0.839561
  O     -1.068342   -1.651472   -0.869405
  H     -4.033020    0.886677   -0.101893
  H     -3.199315    0.839648   -1.685462
  H     -3.196308    2.320799   -0.735764
  H      1.062440    2.749913   -0.710844
  H      3.392374    2.324714    0.012481
  H      4.031936    0.079796    0.834056
  H      2.343475   -1.735344    0.865986
  H     -1.608469   -2.466419   -0.866765

 Total Charge           Charge          ....    0
 Multiplicity           Mult            ....    1
 Number of Electrons    NEL             ....   94
 Basis Dimension        Dim             ....  307

ORBITAL ENERGIES
----------------

  NO   OCC          E(Eh)            E(eV)
   0   2.0000     -19.024735      -517.6894
   1   2.0000     -19.006143      -517.1834
   2   2.0000     -18.955016      -515.7922
   3   2.0000     -18.950377      -515.6660
   4   2.0000     -10.180416      -277.0232
   5   2.0000     -10.180118      -277.0151
   6   2.0000     -10.121441      -275.4184
   7   2.0000     -10.068394      -273.9749
   8   2.0000     -10.053720      -273.5756
   9   2.0000     -10.050947      -273.5002
  10   2.0000     -10.049418      -273.4586
  11   2.0000     -10.044271      -273.3185
  12   2.0000     -10.035163      -273.0707
  13   2.0000      -1.102033       -29.9878
  14   2.0000      -1.083358       -29.4797
  15   2.0000      -1.007135       -27.4055
  16   2.0000      -0.992261       -27.0008
  17   2.0000      -0.847969       -23.0744
  18   2.0000      -0.757866       -20.6226
  19   2.0000      -0.750364       -20.4184
  20   2.0000      -0.710150       -19.3242
  21   2.0000      -0.650417       -17.6987
  22   2.0000      -0.617990       -16.8164
  23   2.0000      -0.581902       -15.8343
  24   2.0000      -0.557734       -15.1767
  25   2.0000      -0.495918       -13.4946
  26   2.0000      -0.484126       -13.1737
  27   2.0000      -0.474033       -12.8991
  28   2.0000      -0.468389       -12.7455
  29   2.0000      -0.455021       -12.3818
  30   2.0000      -0.443930       -12.0799
  31   2.0000      -0.427905       -11.6439
  32   2.0000      -0.424791       -11.5591
  33   2.0000      -0.412274       -11.2186
  34   2.0000      -0.385146       -10.4804
  35   2.0000      -0.378098       -10.2886
  36   2.0000      -0.374238       -10.1835
  37   2.0000      -0.362634        -9.8678
  38   2.0000      -0.352228        -9.5846
  39   2.0000      -0.340779        -9.2731
  40   2.0000      -0.333675        -9.0798
  41   2.0000      -0.308375        -8.3913
  42   2.0000      -0.302944        -8.2435
  43   2.0000      -0.269207        -7.3255
  44   2.0000      -0.266853        -7.2614
  45   2.0000      -0.249184        -6.7806
  46   2.0000      -0.243463        -6.6250
  47   0.0000      -0.083291        -2.2665
  48   0.0000      -0.049932        -1.3587
  49   0.0000      -0.024994        -0.6801
  50   0.0000       0.006779         0.1845
  51   0.0000       0.068934         1.8758

MULLIKEN ATOMIC CHARGES
-----------------------
   0 C :   -0.566850
   1 C :    0.449793
   2 O :   -0.466804
   3 O :   -0.145686
   4 C :    0.241132
   5 C :   -0.271687
   6 C :   -0.127068
   7 C :   -0.188130
   8 C :   -0.229769
   9 C :    0.018786
  10 C :    0.338783
  11 O :   -0.471899
  12 O :   -0.338162
  13 H :    0.192083
  14 H :    0.198855
  15 H :    0.205939
  16 H :    0.196330
  17 H :    0.190759
  18 H :    0.186602
  19 H :    0.199036
  20 H :    0.387958
Sum of atomic charges:   -0.0000000

LOEWDIN ATOMIC CHARGES
----------------------
   0 C :   -0.324082
   1 C :    0.387231
   2 O :   -0.450688
   3 O :   -0.520349
   4 C :    0.222004
   5 C :   -0.109551
   6 C :   -0.130455
   7 C :   -0.159620
   8 C :   -0.103601
   9 C :   -0.018442
  10 C :    0.376496
  11 O :   -0.468556
  12 O :   -0.362893
  13 H :    0.182599
  14 H :    0.192850
  15 H :    0.196969
  16 H :    0.197175
  17 H :    0.185929
  18 H :    0.184595
  19 H :    0.196800
  20 H :    0.325587

  Mayer bond orders larger than 0.100000
B(  0-C ,  1-C ) :   0.9536 B(  0-C , 13-H ) :   0.9807 B(  0-C , 14-H ) :   0.9434
B(  0-C , 15-H ) :   0.9268 B(  1-C ,  2-O ) :   1.8153 B(  1-C ,  3-O ) :   0.9786
B(  3-O ,  4-C ) :   0.8941 B(  4-C ,  5-C ) :   1.3592 B(  4-C ,  9-C ) :   1.4197
B(  5-C ,  6-C ) :   1.3414 B(  5-C , 16-H ) :   0.9579 B(  6-C ,  7-C ) :   1.3617
B(  6-C , 17-H ) :   0.9489 B(  7-C ,  8-C ) :   1.3758 B(  7-C , 18-H ) :   0.9555
B(  8-C ,  9-C ) :   1.2768 B(  8-C , 19-H ) :   0.9544 B(  9-C , 10-C ) :   0.9830
B(  9-C , 11-O ) :  -0.1063 B( 10-C , 11-O ) :   1.9126 B( 10-C , 12-O ) :   1.0912
B( 12-O , 20-H ) :   0.8326

Dispersion correction           -0.008156509
FINAL SINGLE POINT ENERGY      -648.601307329119

DIPOLE MOMENT
-------------

Method             : SCF
Type of density    : Electron Density
Multiplicity       :   1
Irrep              :   0
Energy             :  -648.6033272626157213 Eh
Relativity type    :
Basis              : AO
                                X                 Y                 Z
Electronic contribution:      1.226393139      -3.307568270       0.527704199
Nuclear contribution   :     -1.188179865       4.648036230      -2.236184030
                        -----------------------------------------
Total Dipole Moment    :      0.038213274       1.340467960      -1.708479831
                        -----------------------------------------
Magnitude (a.u.)       :      2.171915730
Magnitude (Debye)      :      5.520571059

Rotational constants in cm-1:             0.040704             0.025228             0.017463
Rotational constants in MHz :          1220.265901           756.308798           523.537839

                             ****ORCA TERMINATED NORMALLY****
TOTAL RUN TIME: 0 days 0 hours 1 minutes 7 seconds 984 msec
