                         Program Version 6.0.0  -   RELEASE  -
|  1> ! pbe def2-sv(p) def2/J RI DEFGRID1 loosescf d4 GCP(DFT/SV(P)) printgap
|  2> %output
|  3>     printlevel normal
|  4> end
|  5> * xyz 0 1
|  6> C -2.2544300706 0.4282831991 -1.0548539529
|  7> C -1.8351631243 0.349328348 0.4162989257
|  8> C -0.4475521883 -0.2310889855 0.5024039375
|  9> O -0.1979683861 -1.4042396427 0.6886970427
| 10> O 0.4796573455 0.7008864979 0.3259840954
| 11> C 1.8600135945 0.3013991194 0.30463792
| 12> C 2.2882301508 -0.1124996193 -1.0949838951
| 13> H -2.2350770912 -0.5609709752 -1.5061230712
| 14> H -3.2619281243 0.8263353611 -1.1276441774
| 15> H -1.5783404158 1.078061366 -1.6043193424
| 16> H -2.5161240899 -0.2993229243 0.9658895254
| 17> H -1.8279288185 1.346867389 0.8529849218
| 18> H 2.4070146007 1.1815991626 0.6436768613
| 19> H 1.9943108757 -0.5251905885 1.00902713
| 20> H 3.3461253013 -0.3537050844 -1.0908340451
| 21> H 1.7276131468 -0.9893187889 -1.4115642278
| 22> H 2.1072904988 0.6967502738 -1.7972044526
| 23> *
| 24>
| 25>                          ****END OF INPUT****

CARTESIAN COORDINATES (ANGSTROEM)
---------------------------------
  C     -2.254430    0.428283   -1.054854
  C     -1.835163    0.349328    0.416299
  C     -0.447552   -0.231089    0.502404
  O     -0.197968   -1.404240    0.688697
  O      0.479657    0.700886    0.325984
  C      1.860014    0.301399    0.304638
  C      2.288230   -0.112500   -1.094984
  H     -2.235077   -0.560971   -1.506123
  H     -3.261928    0.826335   -1.127644
  H     -1.578340    1.078061   -1.604319
  H     -2.516124   -0.299323    0.965890
  H     -1.827929    1.346867    0.852985
  H      2.407015    1.181599    0.643677
  H      1.994311   -0.525191    1.009027
  H      3.346125   -0.353705   -1.090834
  H      1.727613   -0.989319   -1.411564
  H      2.107290    0.696750   -1.797204

 Total Charge           Charge          ....    0
 Multiplicity           Mult            ....    1
 Number of Electrons    NEL             ....   56
 Basis Dimension        Dim             ....  118

ORBITAL ENERGIES
----------------

  NO   OCC          E(Eh)            E(eV)
   0   2.0000     -18.796852      -511.4883
   1   2.0000     -18.729746      -509.6623
   2   2.0000     -10.003699      -272.2145
   3   2.0000      -9.946075      -270.6465
   4   2.0000      -9.898203      -269.3438
   5   2.0000      -9.888388      -269.0767
   6   2.0000      -9.887122      -269.0423
   7   2.0000      -1.003502       -27.3067
   8   2.0000      -0.907054       -24.6822
   9   2.0000      -0.721536       -19.6340
  10   2.0000      -0.686835       -18.6897
  11   2.0000      -0.605808       -16.4849
  12   2.0000      -0.564980       -15.3739
  13   2.0000      -0.494812       -13.4645
  14   2.0000      -0.451379       -12.2826
  15   2.0000      -0.433551       -11.7975
  16   2.0000      -0.414999       -11.2927
  17   2.0000      -0.392365       -10.6768
  18   2.0000      -0.387033       -10.5317
  19   2.0000      -0.365157        -9.9364
  20   2.0000      -0.356231        -9.6936
  21   2.0000      -0.341138        -9.2828
  22   2.0000      -0.323117        -8.7925
  23   2.0000      -0.316322        -8.6076
  24   2.0000      -0.311904        -8.4873
  25   2.0000      -0.289794        -7.8857
  26   2.0000      -0.254499        -6.9253
  27   2.0000      -0.214499        -5.8368
  28   0.0000      -0.018701        -0.5089
  29   0.0000       0.040076         1.0905
  30   0.0000       0.062257         1.6941
  31   0.0000       0.077403         2.1062
  32   0.0000       0.086504         2.3539

MULLIKEN ATOMIC CHARGES
-----------------------
   0 C :   -0.305275
   1 C :   -0.129171
   2 C :    0.098063
   3 O :   -0.213401
   4 O :   -0.242965
   5 C :   -0.013453
   6 C :   -0.304014
   7 H :    0.116316
   8 H :    0.116701
   9 H :    0.112225
  10 H :    0.104520
  11 H :    0.101207
  12 H :    0.100965
  13 H :    0.108286
  14 H :    0.112234
  15 H :    0.125336
  16 H :    0.112427
Sum of atomic charges:    0.0000000

LOEWDIN ATOMIC CHARGES
----------------------
   0 C :   -0.331022
   1 C :   -0.249000
   2 C :    0.036776
   3 O :   -0.174206
   4 O :   -0.069539
   5 C :   -0.113198
   6 C :   -0.356243
   7 H :    0.124980
   8 H :    0.124092
   9 H :    0.121838
  10 H :    0.134345
  11 H :    0.131375
  12 H :    0.116609
  13 H :    0.119475
  14 H :    0.130205
  15 H :    0.129992
  16 H :    0.123521

  Mayer bond orders larger than 0.100000
B(  0-C ,  1-C ) :   1.1409 B(  0-C ,  7-H ) :   0.9534 B(  0-C ,  8-H ) :   0.9524
B(  0-C ,  9-H ) :   0.9535 B(  1-C ,  2-C ) :   1.0269 B(  1-C , 10-H ) :   0.9112
B(  1-C , 11-H ) :   0.9062 B(  2-C ,  3-O ) :   2.0448 B(  2-C ,  4-O ) :   1.2013
B(  4-O ,  5-C ) :   0.9226 B(  5-C ,  6-C ) :   1.1731 B(  5-C , 12-H ) :   0.9372
B(  5-C , 13-H ) :   0.9128 B(  6-C , 14-H ) :   0.9446 B(  6-C , 15-H ) :   0.9463
B(  6-C , 16-H ) :   0.9492

Dispersion correction           -0.012138598
FINAL SINGLE POINT ENERGY      -346.244382831875

DIPOLE MOMENT
-------------

Method             : SCF
Type of density    : Electron Density
Multiplicity       :   1
Irrep              :   0
Energy             :  -346.3088508993351411 Eh
Relativity type    :
Basis              : AO
                                X                 Y                 Z
Electronic contribution:      0.021470730      -1.572599043       4.470041010
Nuclear contribution   :      0.157056230       2.242210114      -4.737815243
                        -----------------------------------------
Total Dipole Moment    :      0.178526960       0.669611071      -0.267774234
                        -----------------------------------------
Magnitude (a.u.)       :      0.742936001
Magnitude (Debye)      :      1.888393241

Rotational constants in cm-1:             0.152153             0.054363             0.049517
Rotational constants in MHz :          4561.422632          1629.759979          1484.476385

                             ****ORCA TERMINATED NORMALLY****
TOTAL RUN TIME: 0 days 0 hours 0 minutes 9 seconds 419 msec
