                         Program Version 6.0.0  -   RELEASE  -
|  1> ! r2scan-3c def2/J RI DEFGRID2 scfconv6 printgap
|  2> %output
|  3>     printlevel normal
|  4> end
|  5> * xyz 0 1
|  6> C 2.8590105842 -0.8482453829 -1.1237472829
|  7> C 2.0602663512 -0.2454807017 0.0297127165
|  8> C 3.0036935376 0.3560401823 1.0689160075
|  9> C 1.0546341631 0.815875383 -0.4858164563
| 10> C -0.3614818978 0.4098212241 -0.1979452569
| 11> C -0.9930073194 0.814225527 0.9718547816
| 12> C -2.2841529361 0.4066912615 1.2575899704
| 13> C -2.9639711193 -0.4161203993 0.375712881
| 14> C -2.3441554447 -0.8276666226 -0.7922127349
| 15> C -1.0535409555 -0.4173342486 -1.0747493542
| 16> H 3.4448682136 -0.0785555505 -1.6220326018
| 17> H 2.1942964729 -1.3062838636 -1.8523500839
| 18> H 3.5396576881 -1.6130156703 -0.7560628605
| 19> H 1.4940232637 -1.0518490961 0.5102770571
| 20> H 3.5867736691 1.1629445872 0.6298918505
| 21> H 2.4423341992 0.750663083 1.9125515486
| 22> H 3.6910275972 -0.4004748058 1.4411145282
| 23> H 1.1826477495 0.9450911334 -1.5612391509
| 24> H 1.2599219239 1.7742304197 -0.0075686895
| 25> H -0.4686014218 1.4575447708 1.6640096128
| 26> H -2.7619295807 0.7328011436 2.1698931965
| 27> H -3.9720944171 -0.7339145245 0.5965489431
| 28> H -2.8691055391 -1.4686979151 -1.4853645309
| 29> H -0.5763903158 -0.7401836237 -1.9890147177
| 30> *
| 31>
| 32>                          ****END OF INPUT****

CARTESIAN COORDINATES (ANGSTROEM)
---------------------------------
  C      2.859011   -0.848245   -1.123747
  C      2.060266   -0.245481    0.029713
  C      3.003694    0.356040    1.068916
  C      1.054634    0.815875   -0.485816
  C     -0.361482    0.409821   -0.197945
  C     -0.993007    0.814226    0.971855
  C     -2.284153    0.406691    1.257590
  C     -2.963971   -0.416120    0.375713
  C     -2.344155   -0.827667   -0.792213
  C     -1.053541   -0.417334   -1.074749
  H      3.444868   -0.078556   -1.622033
  H      2.194296   -1.306284   -1.852350
  H      3.539658   -1.613016   -0.756063
  H      1.494023   -1.051849    0.510277
  H      3.586774    1.162945    0.629892
  H      2.442334    0.750663    1.912552
  H      3.691028   -0.400475    1.441115
  H      1.182648    0.945091   -1.561239
  H      1.259922    1.774230   -0.007569
  H     -0.468601    1.457545    1.664010
  H     -2.761930    0.732801    2.169893
  H     -3.972094   -0.733915    0.596549
  H     -2.869106   -1.468698   -1.485365
  H     -0.576390   -0.740184   -1.989015

 Total Charge           Charge          ....    0
 Multiplicity           Mult            ....    1
 Number of Electrons    NEL             ....   74
 Basis Dimension        Dim             ....  260

ORBITAL ENERGIES
----------------

  NO   OCC          E(Eh)            E(eV)
   0   2.0000     -10.039824      -273.1975
   1   2.0000     -10.036390      -273.1041
   2   2.0000     -10.031763      -272.9781
   3   2.0000     -10.031656      -272.9752
   4   2.0000     -10.029222      -272.9090
   5   2.0000     -10.029179      -272.9078
   6   2.0000     -10.029087      -272.9053
   7   2.0000     -10.028691      -272.8946
   8   2.0000     -10.017052      -272.5779
   9   2.0000     -10.016908      -272.5739
  10   2.0000      -0.827859       -22.5272
  11   2.0000      -0.777764       -21.1640
  12   2.0000      -0.724202       -19.7065
  13   2.0000      -0.713143       -19.4056
  14   2.0000      -0.651894       -17.7389
  15   2.0000      -0.645385       -17.5618
  16   2.0000      -0.573305       -15.6004
  17   2.0000      -0.555451       -15.1146
  18   2.0000      -0.530385       -14.4325
  19   2.0000      -0.482245       -13.1225
  20   2.0000      -0.433800       -11.8043
  21   2.0000      -0.431775       -11.7492
  22   2.0000      -0.413150       -11.2424
  23   2.0000      -0.405712       -11.0400
  24   2.0000      -0.391010       -10.6399
  25   2.0000      -0.383680       -10.4405
  26   2.0000      -0.372288       -10.1305
  27   2.0000      -0.358219        -9.7476
  28   2.0000      -0.346124        -9.4185
  29   2.0000      -0.331857        -9.0303
  30   2.0000      -0.321684        -8.7535
  31   2.0000      -0.306417        -8.3380
  32   2.0000      -0.297777        -8.1029
  33   2.0000      -0.294594        -8.0163
  34   2.0000      -0.287511        -7.8236
  35   2.0000      -0.234674        -6.3858
  36   2.0000      -0.222609        -6.0575
  37   0.0000      -0.030375        -0.8266
  38   0.0000      -0.026126        -0.7109
  39   0.0000       0.070302         1.9130
  40   0.0000       0.088808         2.4166
  41   0.0000       0.105458         2.8697

MULLIKEN ATOMIC CHARGES
-----------------------
   0 C :   -0.505452
   1 C :    0.026329
   2 C :   -0.508825
   3 C :   -0.411848
   4 C :    0.205252
   5 C :   -0.223709
   6 C :   -0.164711
   7 C :   -0.148413
   8 C :   -0.164728
   9 C :   -0.220719
  10 H :    0.153081
  11 H :    0.145867
  12 H :    0.144604
  13 H :    0.168479
  14 H :    0.152953
  15 H :    0.147225
  16 H :    0.144674
  17 H :    0.167107
  18 H :    0.162640
  19 H :    0.147351
  20 H :    0.144622
  21 H :    0.145979
  22 H :    0.144608
  23 H :    0.147634
Sum of atomic charges:   -0.0000000

LOEWDIN ATOMIC CHARGES
----------------------
   0 C :   -0.415830
   1 C :   -0.233419
   2 C :   -0.415750
   3 C :   -0.272225
   4 C :   -0.085920
   5 C :   -0.165334
   6 C :   -0.161491
   7 C :   -0.175309
   8 C :   -0.161338
   9 C :   -0.164906
  10 H :    0.152731
  11 H :    0.152126
  12 H :    0.152948
  13 H :    0.162371
  14 H :    0.152755
  15 H :    0.152566
  16 H :    0.152993
  17 H :    0.169405
  18 H :    0.168502
  19 H :    0.168049
  20 H :    0.166371
  21 H :    0.166097
  22 H :    0.166359
  23 H :    0.168249

  Mayer bond orders larger than 0.100000
B(  0-C ,  1-C ) :   0.8930 B(  0-C , 10-H ) :   0.9875 B(  0-C , 11-H ) :   0.9727
B(  0-C , 12-H ) :   0.9755 B(  1-C ,  2-C ) :   0.8927 B(  1-C ,  3-C ) :   0.8020
B(  1-C , 13-H ) :   0.9683 B(  2-C , 14-H ) :   0.9873 B(  2-C , 15-H ) :   0.9730
B(  2-C , 16-H ) :   0.9759 B(  3-C ,  4-C ) :   0.7785 B(  3-C , 17-H ) :   1.0003
B(  3-C , 18-H ) :   0.9995 B(  4-C ,  5-C ) :   1.4047 B(  4-C ,  9-C ) :   1.3963
B(  5-C ,  6-C ) :   1.4387 B(  5-C , 19-H ) :   0.9480 B(  6-C ,  7-C ) :   1.4288
B(  6-C , 20-H ) :   0.9469 B(  7-C ,  8-C ) :   1.4250 B(  7-C , 21-H ) :   0.9479
B(  8-C ,  9-C ) :   1.4410 B(  8-C , 22-H ) :   0.9474 B(  9-C , 23-H ) :   0.9504

Dispersion correction           -0.008120053
FINAL SINGLE POINT ENERGY      -389.375559811270

DIPOLE MOMENT
-------------

Method             : SCF
Type of density    : Electron Density
Multiplicity       :   1
Irrep              :   0
Energy             :  -389.3756447015316553 Eh
Relativity type    :
Basis              : AO
                                X                 Y                 Z
Electronic contribution:    -11.264491654       0.502567846       0.337483287
Nuclear contribution   :     11.433839673      -0.534473447      -0.327744664
                        -----------------------------------------
Total Dipole Moment    :      0.169348019      -0.031905601       0.009738623
                        -----------------------------------------
Magnitude (a.u.)       :      0.172602317
Magnitude (Debye)      :      0.438720223

Rotational constants in cm-1:             0.096907             0.025321             0.021723
Rotational constants in MHz :          2905.191455           759.114384           651.248048

                             ****ORCA TERMINATED NORMALLY****
TOTAL RUN TIME: 0 days 0 hours 0 minutes 31 seconds 577 msec
