                         Program Version 6.0.0  -   RELEASE  -
|  1> ! r2scan-3c def2/J RI DEFGRID2 scfconv6 printgap
|  2> %output
|  3>     printlevel normal
|  4> end
|  5> %cpcm
|  6>     smd true
|  7>     smdsolvent "water"
|  8> end
|  9> * xyz 0 1
| 10> C 2.8590105842 -0.8482453829 -1.1237472829
| 11> C 2.0602663512 -0.2454807017 0.0297127165
| 12> C 3.0036935376 0.3560401823 1.0689160075
| 13> C 1.0546341631 0.815875383 -0.4858164563
| 14> C -0.3614818978 0.4098212241 -0.1979452569
| 15> C -0.9930073194 0.814225527 0.9718547816
| 16> C -2.2841529361 0.4066912615 1.2575899704
| 17> C -2.9639711193 -0.4161203993 0.375712881
| 18> C -2.3441554447 -0.8276666226 -0.7922127349
| 19> C -1.0535409555 -0.4173342486 -1.0747493542
| 20> H 3.4448682136 -0.0785555505 -1.6220326018
| 21> H 2.1942964729 -1.3062838636 -1.8523500839
| 22> H 3.5396576881 -1.6130156703 -0.7560628605
| 23> H 1.4940232637 -1.0518490961 0.5102770571
| 24> H 3.5867736691 1.1629445872 0.6298918505
| 25> H 2.4423341992 0.750663083 1.9125515486
| 26> H 3.6910275972 -0.4004748058 1.4411145282
| 27> H 1.1826477495 0.9450911334 -1.5612391509
| 28> H 1.2599219239 1.7742304197 -0.0075686895
| 29> H -0.4686014218 1.4575447708 1.6640096128
| 30> H -2.7619295807 0.7328011436 2.1698931965
| 31> H -3.9720944171 -0.7339145245 0.5965489431
| 32> H -2.8691055391 -1.4686979151 -1.4853645309
| 33> H -0.5763903158 -0.7401836237 -1.9890147177
| 34> *
| 35>
| 36>                          ****END OF INPUT****

CARTESIAN COORDINATES (ANGSTROEM)
---------------------------------
  C      2.859011   -0.848245   -1.123747
  C      2.060266   -0.245481    0.029713
  C      3.003694    0.356040    1.068916
  C      1.054634    0.815875   -0.485816
  C     -0.361482    0.409821   -0.197945
  C     -0.993007    0.814226    0.971855
  C     -2.284153    0.406691    1.257590
  C     -2.963971   -0.416120    0.375713
  C     -2.344155   -0.827667   -0.792213
  C     -1.053541   -0.417334   -1.074749
  H      3.444868   -0.078556   -1.622033
  H      2.194296   -1.306284   -1.852350
  H      3.539658   -1.613016   -0.756063
  H      1.494023   -1.051849    0.510277
  H      3.586774    1.162945    0.629892
  H      2.442334    0.750663    1.912552
  H      3.691028   -0.400475    1.441115
  H      1.182648    0.945091   -1.561239
  H      1.259922    1.774230   -0.007569
  H     -0.468601    1.457545    1.664010
  H     -2.761930    0.732801    2.169893
  H     -3.972094   -0.733915    0.596549
  H     -2.869106   -1.468698   -1.485365
  H     -0.576390   -0.740184   -1.989015

 Total Charge           Charge          ....    0
 Multiplicity           Mult            ....    1
 Number of Electrons    NEL             ....   74
 Basis Dimension        Dim             ....  260

ORBITAL ENERGIES
----------------

  NO   OCC          E(Eh)            E(eV)
   0   2.0000     -10.038941      -273.1735
   1   2.0000     -10.030567      -272.9456
   2   2.0000     -10.030492      -272.9436
   3   2.0000     -10.029351      -272.9125
   4   2.0000     -10.027957      -272.8746
   5   2.0000     -10.027339      -272.8578
   6   2.0000     -10.027319      -272.8572
   7   2.0000     -10.020502      -272.6717
   8   2.0000     -10.007207      -272.3099
   9   2.0000     -10.007181      -272.3092
  10   2.0000      -0.827937       -22.5293
  11   2.0000      -0.771174       -20.9847
  12   2.0000      -0.721019       -19.6199
  13   2.0000      -0.712624       -19.3915
  14   2.0000      -0.642770       -17.4907
  15   2.0000      -0.640198       -17.4207
  16   2.0000      -0.571027       -15.5384
  17   2.0000      -0.552260       -15.0277
  18   2.0000      -0.523143       -14.2355
  19   2.0000      -0.478356       -13.0167
  20   2.0000      -0.430200       -11.7063
  21   2.0000      -0.425411       -11.5760
  22   2.0000      -0.406616       -11.0646
  23   2.0000      -0.397819       -10.8252
  24   2.0000      -0.386239       -10.5101
  25   2.0000      -0.378078       -10.2880
  26   2.0000      -0.367339        -9.9958
  27   2.0000      -0.348656        -9.4874
  28   2.0000      -0.346404        -9.4261
  29   2.0000      -0.323245        -8.7960
  30   2.0000      -0.318272        -8.6606
  31   2.0000      -0.301161        -8.1950
  32   2.0000      -0.290943        -7.9170
  33   2.0000      -0.286221        -7.7885
  34   2.0000      -0.281218        -7.6523
  35   2.0000      -0.237734        -6.4691
  36   2.0000      -0.224054        -6.0968
  37   0.0000      -0.032163        -0.8752
  38   0.0000      -0.027692        -0.7535
  39   0.0000       0.081421         2.2156
  40   0.0000       0.095658         2.6030
  41   0.0000       0.107768         2.9325

MULLIKEN ATOMIC CHARGES
-----------------------
   0 C :   -0.546952
   1 C :    0.031455
   2 C :   -0.548628
   3 C :   -0.364179
   4 C :    0.134064
   5 C :   -0.240810
   6 C :   -0.204214
   7 C :   -0.183056
   8 C :   -0.204450
   9 C :   -0.237111
  10 H :    0.165045
  11 H :    0.158252
  12 H :    0.155840
  13 H :    0.166618
  14 H :    0.164984
  15 H :    0.158235
  16 H :    0.156044
  17 H :    0.176958
  18 H :    0.173714
  19 H :    0.178723
  20 H :    0.176176
  21 H :    0.177862
  22 H :    0.176213
  23 H :    0.179217
Sum of atomic charges:    0.0000000

LOEWDIN ATOMIC CHARGES
----------------------
   0 C :   -0.423030
   1 C :   -0.229834
   2 C :   -0.422882
   3 C :   -0.272591
   4 C :   -0.093619
   5 C :   -0.174925
   6 C :   -0.174323
   7 C :   -0.189861
   8 C :   -0.174071
   9 C :   -0.174132
  10 H :    0.156170
  11 H :    0.155468
  12 H :    0.155042
  13 H :    0.160617
  14 H :    0.156238
  15 H :    0.155468
  16 H :    0.155145
  17 H :    0.174114
  18 H :    0.173362
  19 H :    0.179069
  20 H :    0.176635
  21 H :    0.175923
  22 H :    0.176654
  23 H :    0.179363

  Mayer bond orders larger than 0.100000
B(  0-C ,  1-C ) :   0.8894 B(  0-C , 10-H ) :   0.9844 B(  0-C , 11-H ) :   0.9696
B(  0-C , 12-H ) :   0.9743 B(  1-C ,  2-C ) :   0.8891 B(  1-C ,  3-C ) :   0.7946
B(  1-C , 13-H ) :   0.9733 B(  2-C , 14-H ) :   0.9842 B(  2-C , 15-H ) :   0.9699
B(  2-C , 16-H ) :   0.9748 B(  3-C ,  4-C ) :   0.7948 B(  3-C , 17-H ) :   0.9917
B(  3-C , 18-H ) :   0.9917 B(  4-C ,  5-C ) :   1.3781 B(  4-C ,  9-C ) :   1.3699
B(  5-C ,  6-C ) :   1.4013 B(  5-C , 19-H ) :   0.9556 B(  6-C ,  7-C ) :   1.3876
B(  6-C , 20-H ) :   0.9578 B(  7-C ,  8-C ) :   1.3838 B(  7-C , 21-H ) :   0.9552
B(  8-C ,  9-C ) :   1.4036 B(  8-C , 22-H ) :   0.9583 B(  9-C , 23-H ) :   0.9574

Dispersion correction           -0.008120053
FINAL SINGLE POINT ENERGY      -389.376122932906

DIPOLE MOMENT
-------------

Method             : SCF
Type of density    : Electron Density
Multiplicity       :   1
Irrep              :   0
Energy             :  -389.3762078231683290 Eh
Relativity type    :
Basis              : AO
                                X                 Y                 Z
Electronic contribution:    -11.162851006       0.530108809       0.313756975
Nuclear contribution   :     11.433839673      -0.534473447      -0.327744664
                        -----------------------------------------
Total Dipole Moment    :      0.270988667      -0.004364638      -0.013987690
                        -----------------------------------------
Magnitude (a.u.)       :      0.271384530
Magnitude (Debye)      :      0.689804657

Rotational constants in cm-1:             0.096907             0.025321             0.021723
Rotational constants in MHz :          2905.191455           759.114384           651.248048

                             ****ORCA TERMINATED NORMALLY****
TOTAL RUN TIME: 0 days 0 hours 0 minutes 38 seconds 490 msec
