                         Program Version 6.0.0  -   RELEASE  -
|  1> ! pbe def2-sv(p) def2/J RI DEFGRID1 loosescf d4 GCP(DFT/SV(P)) printgap
|  2> %output
|  3>     printlevel normal
|  4> end
|  5> * xyz 0 1
|  6> C 4.5038312646 0.2612390314 0.1217773877
|  7> N 3.0722320295 0.3739813441 0.2978539796
|  8> C 2.6451117643 1.417527339 1.2010940813
|  9> C 2.2501347076 -0.4628995201 -0.3356124459
| 10> O 2.6372563146 -1.3807471961 -1.0638080662
| 11> C 0.7720203123 -0.2553421695 -0.1605253159
| 12> C 0.1373660008 0.8293832632 -0.7655481192
| 13> C -1.2349221646 0.9547743454 -0.6969590282
| 14> C -1.9726529447 -0.0127110919 -0.0175131724
| 15> C -1.3502196439 -1.1048208212 0.5832075435
| 16> C 0.0221765137 -1.225023318 0.5016537454
| 17> N -3.3898208015 0.1123429972 0.0558747622
| 18> O -4.0199207598 -0.7446741368 0.6550607705
| 19> O -3.918212436 1.0707497689 -0.4850849001
| 20> H 4.9045861091 1.2032228472 -0.2522419423
| 21> H 4.7022793705 -0.5315754859 -0.5963706419
| 22> H 4.98140757 0.0184548395 1.0712952141
| 23> H 1.5856049298 1.3268025858 1.4206687441
| 24> H 2.8410957212 2.397171881 0.7618168146
| 25> H 3.2085727083 1.335244441 2.130910973
| 26> H 0.7201132142 1.5674657811 -1.2928564545
| 27> H -1.7494392867 1.7841042067 -1.1563191893
| 28> H -1.9509438042 -1.8390586603 1.0964544599
| 29> H 0.5221458323 -2.0704791551 0.9465785503
| 30> *
| 31>
| 32>                          ****END OF INPUT****

CARTESIAN COORDINATES (ANGSTROEM)
---------------------------------
  C      4.503831    0.261239    0.121777
  N      3.072232    0.373981    0.297854
  C      2.645112    1.417527    1.201094
  C      2.250135   -0.462900   -0.335612
  O      2.637256   -1.380747   -1.063808
  C      0.772020   -0.255342   -0.160525
  C      0.137366    0.829383   -0.765548
  C     -1.234922    0.954774   -0.696959
  C     -1.972653   -0.012711   -0.017513
  C     -1.350220   -1.104821    0.583208
  C      0.022177   -1.225023    0.501654
  N     -3.389821    0.112343    0.055875
  O     -4.019921   -0.744674    0.655061
  O     -3.918212    1.070750   -0.485085
  H      4.904586    1.203223   -0.252242
  H      4.702279   -0.531575   -0.596371
  H      4.981408    0.018455    1.071295
  H      1.585605    1.326803    1.420669
  H      2.841096    2.397172    0.761817
  H      3.208573    1.335244    2.130911
  H      0.720113    1.567466   -1.292856
  H     -1.749439    1.784104   -1.156319
  H     -1.950944   -1.839059    1.096454
  H      0.522146   -2.070479    0.946579

 Total Charge           Charge          ....    0
 Multiplicity           Mult            ....    1
 Number of Electrons    NEL             ....  102
 Basis Dimension        Dim             ....  216

ORBITAL ENERGIES
----------------

  NO   OCC          E(Eh)            E(eV)
   0   2.0000     -18.775142      -510.8976
   1   2.0000     -18.775003      -510.8938
   2   2.0000     -18.727278      -509.5951
   3   2.0000     -14.211300      -386.7091
   4   2.0000     -14.048045      -382.2667
   5   2.0000      -9.995581      -271.9936
   6   2.0000      -9.959844      -271.0211
   7   2.0000      -9.941111      -270.5114
   8   2.0000      -9.935109      -270.3480
   9   2.0000      -9.929807      -270.2038
  10   2.0000      -9.928016      -270.1550
  11   2.0000      -9.926600      -270.1165
  12   2.0000      -9.925634      -270.0902
  13   2.0000      -9.922972      -270.0178
  14   2.0000      -1.130409       -30.7600
  15   2.0000      -0.957938       -26.0668
  16   2.0000      -0.948370       -25.8065
  17   2.0000      -0.868826       -23.6419
  18   2.0000      -0.819238       -22.2926
  19   2.0000      -0.749275       -20.3888
  20   2.0000      -0.704988       -19.1837
  21   2.0000      -0.680103       -18.5065
  22   2.0000      -0.665265       -18.1028
  23   2.0000      -0.632291       -17.2055
  24   2.0000      -0.578602       -15.7446
  25   2.0000      -0.544383       -14.8134
  26   2.0000      -0.519792       -14.1442
  27   2.0000      -0.499030       -13.5793
  28   2.0000      -0.491610       -13.3774
  29   2.0000      -0.479448       -13.0465
  30   2.0000      -0.463192       -12.6041
  31   2.0000      -0.448158       -12.1950
  32   2.0000      -0.440977       -11.9996
  33   2.0000      -0.426879       -11.6160
  34   2.0000      -0.420903       -11.4534
  35   2.0000      -0.407549       -11.0900
  36   2.0000      -0.400368       -10.8946
  37   2.0000      -0.380301       -10.3485
  38   2.0000      -0.372549       -10.1376
  39   2.0000      -0.367769       -10.0075
  40   2.0000      -0.353584        -9.6215
  41   2.0000      -0.347052        -9.4438
  42   2.0000      -0.343656        -9.3513
  43   2.0000      -0.326946        -8.8966
  44   2.0000      -0.271981        -7.4010
  45   2.0000      -0.265663        -7.2290
  46   2.0000      -0.260640        -7.0924
  47   2.0000      -0.258580        -7.0363
  48   2.0000      -0.232062        -6.3147
  49   2.0000      -0.223161        -6.0725
  50   2.0000      -0.211338        -5.7508
  51   0.0000      -0.120723        -3.2850
  52   0.0000      -0.065757        -1.7893
  53   0.0000      -0.042976        -1.1694
  54   0.0000      -0.012263        -0.3337
  55   0.0000       0.017050         0.4640

MULLIKEN ATOMIC CHARGES
-----------------------
   0 C :   -0.181787
   1 N :   -0.224727
   2 C :   -0.182187
   3 C :    0.141145
   4 O :   -0.225435
   5 C :    0.002165
   6 C :   -0.077673
   7 C :   -0.114762
   8 C :    0.228092
   9 C :   -0.115121
  10 C :   -0.067298
  11 N :    0.199782
  12 O :   -0.216133
  13 O :   -0.217301
  14 H :    0.113189
  15 H :    0.148418
  16 H :    0.116010
  17 H :    0.159809
  18 H :    0.114718
  19 H :    0.116580
  20 H :    0.062065
  21 H :    0.075663
  22 H :    0.077092
  23 H :    0.067698
Sum of atomic charges:   -0.0000000

LOEWDIN ATOMIC CHARGES
----------------------
   0 C :   -0.252408
   1 N :   -0.038941
   2 C :   -0.248837
   3 C :    0.026293
   4 O :   -0.192323
   5 C :   -0.039096
   6 C :   -0.108218
   7 C :   -0.099767
   8 C :   -0.043512
   9 C :   -0.099012
  10 C :   -0.094840
  11 N :    0.252763
  12 O :   -0.187816
  13 O :   -0.189022
  14 H :    0.119867
  15 H :    0.139297
  16 H :    0.120142
  17 H :    0.136014
  18 H :    0.118335
  19 H :    0.121341
  20 H :    0.132533
  21 H :    0.144545
  22 H :    0.145205
  23 H :    0.137455

  Mayer bond orders larger than 0.100000
B(  0-C ,  1-N ) :   0.9955 B(  0-C , 14-H ) :   0.9507 B(  0-C , 15-H ) :   0.9285
B(  0-C , 16-H ) :   0.9519 B(  1-N ,  2-C ) :   1.0108 B(  1-N ,  3-C ) :   1.2163
B(  1-N ,  4-O ) :   0.1065 B(  2-C , 17-H ) :   0.9298 B(  2-C , 18-H ) :   0.9477
B(  2-C , 19-H ) :   0.9447 B(  3-C ,  4-O ) :   2.0270 B(  3-C ,  5-C ) :   0.8903
B(  5-C ,  6-C ) :   1.3529 B(  5-C , 10-C ) :   1.3690 B(  6-C ,  7-C ) :   1.3286
B(  6-C , 20-H ) :   0.9655 B(  7-C ,  8-C ) :   1.3597 B(  7-C , 21-H ) :   0.9509
B(  8-C ,  9-C ) :   1.3535 B(  8-C , 11-N ) :   0.8872 B(  9-C , 10-C ) :   1.3198
B(  9-C , 22-H ) :   0.9523 B( 10-C , 23-H ) :   0.9691 B( 11-N , 12-O ) :   1.5380
B( 11-N , 13-O ) :   1.5372 B( 12-O , 13-O ) :   0.2996

Dispersion correction           -0.027903307
FINAL SINGLE POINT ENERGY      -682.686865794068

DIPOLE MOMENT
-------------

Method             : SCF
Type of density    : Electron Density
Multiplicity       :   1
Irrep              :   0
Energy             :  -682.7625452478356465 Eh
Relativity type    :
Basis              : AO
                                X                 Y                 Z
Electronic contribution:    -16.526898566      -3.879317506      -3.023078143
Nuclear contribution   :     18.463113554       4.857432564       3.863295160
                        -----------------------------------------
Total Dipole Moment    :      1.936214989       0.978115058       0.840217017
                        -----------------------------------------
Magnitude (a.u.)       :      2.326285061
Magnitude (Debye)      :      5.912946715

Rotational constants in cm-1:             0.068061             0.010704             0.010178
Rotational constants in MHz :          2040.409114           320.907796           305.119919

                             ****ORCA TERMINATED NORMALLY****
TOTAL RUN TIME: 0 days 0 hours 0 minutes 16 seconds 653 msec
