                         Program Version 6.0.0  -   RELEASE  -
|  1> ! r2scan-3c def2/J RI DEFGRID2 scfconv6 printgap
|  2> %output
|  3>     printlevel normal
|  4> end
|  5> * xyz 0 1
|  6> C -2.6402760843 -0.580417426 -0.1427170429
|  7> C -1.2564771922 -0.2880762528 0.42467146
|  8> C -0.5402179775 0.8043309058 -0.3655997713
|  9> C 0.8634065657 1.0856387464 0.1834645431
| 10> C 1.7402217119 -0.0570379495 0.0257056192
| 11> C 2.4514256403 -1.0087349155 -0.1202240314
| 12> H -3.2596529739 0.3136502666 -0.1177185891
| 13> H -3.134167589 -1.3571738282 0.4357663887
| 14> H -2.565102249 -0.9160396468 -1.1746985135
| 15> H -1.350564031 0.0231156622 1.4680088178
| 16> H -0.6514964931 -1.1975750142 0.4034444018
| 17> H -0.4629492715 0.5012220152 -1.4123401283
| 18> H -1.125715468 1.7255034772 -0.3238904829
| 19> H 0.8004611173 1.3377943902 1.2456098649
| 20> H 1.3026451175 1.9355652075 -0.3455508038
| 21> H 3.0813989594 -1.8382157626 -0.2417956093
| 22> *
| 23>
| 24>                          ****END OF INPUT****

CARTESIAN COORDINATES (ANGSTROEM)
---------------------------------
  C     -2.640276   -0.580417   -0.142717
  C     -1.256477   -0.288076    0.424671
  C     -0.540218    0.804331   -0.365600
  C      0.863407    1.085639    0.183465
  C      1.740222   -0.057038    0.025706
  C      2.451426   -1.008735   -0.120224
  H     -3.259653    0.313650   -0.117719
  H     -3.134168   -1.357174    0.435766
  H     -2.565102   -0.916040   -1.174699
  H     -1.350564    0.023116    1.468009
  H     -0.651496   -1.197575    0.403444
  H     -0.462949    0.501222   -1.412340
  H     -1.125715    1.725503   -0.323890
  H      0.800461    1.337794    1.245610
  H      1.302645    1.935565   -0.345551
  H      3.081399   -1.838216   -0.241796

 Total Charge           Charge          ....    0
 Multiplicity           Mult            ....    1
 Number of Electrons    NEL             ....   46
 Basis Dimension        Dim             ....  164

ORBITAL ENERGIES
----------------

  NO   OCC          E(Eh)            E(eV)
   0   2.0000     -10.055833      -273.6331
   1   2.0000     -10.034913      -273.0639
   2   2.0000     -10.030401      -272.9411
   3   2.0000     -10.025165      -272.7986
   4   2.0000     -10.016951      -272.5751
   5   2.0000     -10.015962      -272.5482
   6   2.0000      -0.786157       -21.3924
   7   2.0000      -0.730811       -19.8864
   8   2.0000      -0.684140       -18.6164
   9   2.0000      -0.615691       -16.7538
  10   2.0000      -0.553765       -15.0687
  11   2.0000      -0.497093       -13.5266
  12   2.0000      -0.452547       -12.3144
  13   2.0000      -0.422320       -11.4919
  14   2.0000      -0.409523       -11.1437
  15   2.0000      -0.401959       -10.9379
  16   2.0000      -0.360317        -9.8047
  17   2.0000      -0.340211        -9.2576
  18   2.0000      -0.315680        -8.5901
  19   2.0000      -0.304019        -8.2728
  20   2.0000      -0.299489        -8.1495
  21   2.0000      -0.244316        -6.6482
  22   2.0000      -0.242447        -6.5973
  23   0.0000       0.023172         0.6305
  24   0.0000       0.027878         0.7586
  25   0.0000       0.090729         2.4689
  26   0.0000       0.103821         2.8251
  27   0.0000       0.129965         3.5365

MULLIKEN ATOMIC CHARGES
-----------------------
   0 C :   -0.465522
   1 C :   -0.247777
   2 C :   -0.271704
   3 C :   -0.380514
   4 C :    0.061558
   5 C :   -0.197667
   6 H :    0.138659
   7 H :    0.147575
   8 H :    0.142912
   9 H :    0.132801
  10 H :    0.157994
  11 H :    0.145374
  12 H :    0.145955
  13 H :    0.168385
  14 H :    0.165957
  15 H :    0.156013
Sum of atomic charges:   -0.0000000

LOEWDIN ATOMIC CHARGES
----------------------
   0 C :   -0.423471
   1 C :   -0.312620
   2 C :   -0.291810
   3 C :   -0.278770
   4 C :   -0.083089
   5 C :   -0.222020
   6 H :    0.148996
   7 H :    0.151315
   8 H :    0.150337
   9 H :    0.150783
  10 H :    0.162424
  11 H :    0.161231
  12 H :    0.155259
  13 H :    0.176063
  14 H :    0.176318
  15 H :    0.179052

  Mayer bond orders larger than 0.100000
B(  0-C ,  1-C ) :   0.9067 B(  0-C ,  6-H ) :   0.9839 B(  0-C ,  7-H ) :   0.9744
B(  0-C ,  8-H ) :   0.9818 B(  1-C ,  2-C ) :   0.9291 B(  1-C ,  9-H ) :   0.9695
B(  1-C , 10-H ) :   0.9636 B(  2-C ,  3-C ) :   0.8877 B(  2-C , 11-H ) :   0.9726
B(  2-C , 12-H ) :   0.9744 B(  3-C ,  4-C ) :   0.9487 B(  3-C , 13-H ) :   1.0113
B(  3-C , 14-H ) :   0.9682 B(  4-C ,  5-C ) :   2.6476 B(  5-C , 15-H ) :   1.0519

Dispersion correction           -0.003764404
FINAL SINGLE POINT ENERGY      -234.509697339499

DIPOLE MOMENT
-------------

Method             : SCF
Type of density    : Electron Density
Multiplicity       :   1
Irrep              :   0
Energy             :  -234.5118690871250919 Eh
Relativity type    :
Basis              : AO
                                X                 Y                 Z
Electronic contribution:      6.648076398      -0.289730661       0.084462145
Nuclear contribution   :     -6.909772158       0.495211153      -0.059259321
                        -----------------------------------------
Total Dipole Moment    :     -0.261695760       0.205480492       0.025202824
                        -----------------------------------------
Magnitude (a.u.)       :      0.333679615
Magnitude (Debye)      :      0.848146178

Rotational constants in cm-1:             0.247492             0.060415             0.052295
Rotational constants in MHz :          7419.631597          1811.199649          1567.771539

                             ****ORCA TERMINATED NORMALLY****
TOTAL RUN TIME: 0 days 0 hours 0 minutes 16 seconds 683 msec
