                         Program Version 6.0.0  -   RELEASE  -
|  1> ! r2scan-3c def2/J RI DEFGRID2 scfconv6 printgap
|  2> %output
|  3>     printlevel normal
|  4> end
|  5> %cpcm
|  6>     smd true
|  7>     smdsolvent "water"
|  8> end
|  9> * xyz 0 1
| 10> C -2.6402760843 -0.580417426 -0.1427170429
| 11> C -1.2564771922 -0.2880762528 0.42467146
| 12> C -0.5402179775 0.8043309058 -0.3655997713
| 13> C 0.8634065657 1.0856387464 0.1834645431
| 14> C 1.7402217119 -0.0570379495 0.0257056192
| 15> C 2.4514256403 -1.0087349155 -0.1202240314
| 16> H -3.2596529739 0.3136502666 -0.1177185891
| 17> H -3.134167589 -1.3571738282 0.4357663887
| 18> H -2.565102249 -0.9160396468 -1.1746985135
| 19> H -1.350564031 0.0231156622 1.4680088178
| 20> H -0.6514964931 -1.1975750142 0.4034444018
| 21> H -0.4629492715 0.5012220152 -1.4123401283
| 22> H -1.125715468 1.7255034772 -0.3238904829
| 23> H 0.8004611173 1.3377943902 1.2456098649
| 24> H 1.3026451175 1.9355652075 -0.3455508038
| 25> H 3.0813989594 -1.8382157626 -0.2417956093
| 26> *
| 27>
| 28>                          ****END OF INPUT****

CARTESIAN COORDINATES (ANGSTROEM)
---------------------------------
  C     -2.640276   -0.580417   -0.142717
  C     -1.256477   -0.288076    0.424671
  C     -0.540218    0.804331   -0.365600
  C      0.863407    1.085639    0.183465
  C      1.740222   -0.057038    0.025706
  C      2.451426   -1.008735   -0.120224
  H     -3.259653    0.313650   -0.117719
  H     -3.134168   -1.357174    0.435766
  H     -2.565102   -0.916040   -1.174699
  H     -1.350564    0.023116    1.468009
  H     -0.651496   -1.197575    0.403444
  H     -0.462949    0.501222   -1.412340
  H     -1.125715    1.725503   -0.323890
  H      0.800461    1.337794    1.245610
  H      1.302645    1.935565   -0.345551
  H      3.081399   -1.838216   -0.241796

 Total Charge           Charge          ....    0
 Multiplicity           Mult            ....    1
 Number of Electrons    NEL             ....   46
 Basis Dimension        Dim             ....  164

ORBITAL ENERGIES
----------------

  NO   OCC          E(Eh)            E(eV)
   0   2.0000     -10.047429      -273.4044
   1   2.0000     -10.036931      -273.1188
   2   2.0000     -10.025388      -272.8047
   3   2.0000     -10.019379      -272.6412
   4   2.0000     -10.017537      -272.5911
   5   2.0000     -10.008386      -272.3420
   6   2.0000      -0.780719       -21.2445
   7   2.0000      -0.728649       -19.8275
   8   2.0000      -0.683878       -18.6093
   9   2.0000      -0.609200       -16.5772
  10   2.0000      -0.546165       -14.8619
  11   2.0000      -0.494206       -13.4480
  12   2.0000      -0.446131       -12.1398
  13   2.0000      -0.414633       -11.2827
  14   2.0000      -0.403222       -10.9722
  15   2.0000      -0.394080       -10.7235
  16   2.0000      -0.352561        -9.5937
  17   2.0000      -0.331362        -9.0168
  18   2.0000      -0.308995        -8.4082
  19   2.0000      -0.296941        -8.0802
  20   2.0000      -0.290675        -7.9097
  21   2.0000      -0.251127        -6.8335
  22   2.0000      -0.248407        -6.7595
  23   0.0000       0.020182         0.5492
  24   0.0000       0.024406         0.6641
  25   0.0000       0.092110         2.5064
  26   0.0000       0.111705         3.0396
  27   0.0000       0.136768         3.7217

MULLIKEN ATOMIC CHARGES
-----------------------
   0 C :   -0.507834
   1 C :   -0.254974
   2 C :   -0.283985
   3 C :   -0.379828
   4 C :   -0.013719
   5 C :   -0.230845
   6 H :    0.152850
   7 H :    0.156869
   8 H :    0.153719
   9 H :    0.148440
  10 H :    0.151263
  11 H :    0.154993
  12 H :    0.164331
  13 H :    0.195245
  14 H :    0.190785
  15 H :    0.202691
Sum of atomic charges:   -0.0000000

LOEWDIN ATOMIC CHARGES
----------------------
   0 C :   -0.431450
   1 C :   -0.314612
   2 C :   -0.290808
   3 C :   -0.279498
   4 C :   -0.096105
   5 C :   -0.253437
   6 H :    0.152938
   7 H :    0.153214
   8 H :    0.152593
   9 H :    0.155146
  10 H :    0.157817
  11 H :    0.162745
  12 H :    0.162573
  13 H :    0.186272
  14 H :    0.186445
  15 H :    0.196167

  Mayer bond orders larger than 0.100000
B(  0-C ,  1-C ) :   0.9024 B(  0-C ,  6-H ) :   0.9818 B(  0-C ,  7-H ) :   0.9718
B(  0-C ,  8-H ) :   0.9795 B(  1-C ,  2-C ) :   0.9211 B(  1-C ,  9-H ) :   0.9692
B(  1-C , 10-H ) :   0.9647 B(  2-C ,  3-C ) :   0.8731 B(  2-C , 11-H ) :   0.9765
B(  2-C , 12-H ) :   0.9691 B(  3-C ,  4-C ) :   0.9470 B(  3-C , 13-H ) :   1.0023
B(  3-C , 14-H ) :   0.9593 B(  4-C ,  5-C ) :   2.5884 B(  5-C , 15-H ) :   1.0547

Dispersion correction           -0.003764404
FINAL SINGLE POINT ENERGY      -234.510209684854

DIPOLE MOMENT
-------------

Method             : SCF
Type of density    : Electron Density
Multiplicity       :   1
Irrep              :   0
Energy             :  -234.5123814324798843 Eh
Relativity type    :
Basis              : AO
                                X                 Y                 Z
Electronic contribution:      6.544776750      -0.130986892       0.104762953
Nuclear contribution   :     -6.909772158       0.495211153      -0.059259321
                        -----------------------------------------
Total Dipole Moment    :     -0.364995409       0.364224260       0.045503632
                        -----------------------------------------
Magnitude (a.u.)       :      0.517640358
Magnitude (Debye)      :      1.315737228

Rotational constants in cm-1:             0.247492             0.060415             0.052295
Rotational constants in MHz :          7419.631597          1811.199649          1567.771539

                             ****ORCA TERMINATED NORMALLY****
TOTAL RUN TIME: 0 days 0 hours 0 minutes 19 seconds 588 msec
