                         Program Version 6.0.0  -   RELEASE  -
|  1> ! r2scan-3c def2/J RI DEFGRID2 scfconv6 printgap
|  2> %output
|  3>     printlevel normal
|  4> end
|  5> * xyz 0 1
|  6> C 2.1678144096 1.3236095672 -0.5152976195
|  7> C 1.5862629457 0.281711655 0.4343422543
|  8> C 0.4032888633 -0.4992678115 -0.157576535
|  9> H 0.6758311704 -0.7781138443 -1.1828014711
| 10> C 0.1941959474 -1.7893349184 0.6363337738
| 11> C -0.876894421 0.3580054547 -0.249115323
| 12> C -1.8606834714 -0.2263785114 -1.2633716305
| 13> C -1.5763459858 0.5502415839 1.0956750002
| 14> H 1.4399068299 2.095326425 -0.7524331396
| 15> H 3.0316088368 1.8036144933 -0.0612735319
| 16> H 2.4847710034 0.8552818618 -1.4447159743
| 17> H 1.2790297587 0.7673912454 1.3622748953
| 18> H 2.3750532582 -0.4309208844 0.686412962
| 19> H 1.0618788971 -2.436416377 0.5269075543
| 20> H 0.0637180455 -1.5750805356 1.6937716357
| 21> H -0.6766850179 -2.3322813664 0.2794786898
| 22> H -0.5804999374 1.3462323302 -0.6164452224
| 23> H -2.7288253271 0.4216758922 -1.360743438
| 24> H -2.2064942706 -1.2083158575 -0.9497022308
| 25> H -1.3939291847 -0.3221744342 -2.2411901874
| 26> H -2.3784097706 1.2780173379 0.9925977912
| 27> H -0.8850172195 0.9157182692 1.8505852456
| 28> H -2.0104671592 -0.3831162696 1.4438168196
| 29> *
| 30>
| 31>                          ****END OF INPUT****

CARTESIAN COORDINATES (ANGSTROEM)
---------------------------------
  C      2.167814    1.323610   -0.515298
  C      1.586263    0.281712    0.434342
  C      0.403289   -0.499268   -0.157577
  H      0.675831   -0.778114   -1.182801
  C      0.194196   -1.789335    0.636334
  C     -0.876894    0.358005   -0.249115
  C     -1.860683   -0.226379   -1.263372
  C     -1.576346    0.550242    1.095675
  H      1.439907    2.095326   -0.752433
  H      3.031609    1.803614   -0.061274
  H      2.484771    0.855282   -1.444716
  H      1.279030    0.767391    1.362275
  H      2.375053   -0.430921    0.686413
  H      1.061879   -2.436416    0.526908
  H      0.063718   -1.575081    1.693772
  H     -0.676685   -2.332281    0.279479
  H     -0.580500    1.346232   -0.616445
  H     -2.728825    0.421676   -1.360743
  H     -2.206494   -1.208316   -0.949702
  H     -1.393929   -0.322174   -2.241190
  H     -2.378410    1.278017    0.992598
  H     -0.885017    0.915718    1.850585
  H     -2.010467   -0.383116    1.443817

 Total Charge           Charge          ....    0
 Multiplicity           Mult            ....    1
 Number of Electrons    NEL             ....   58
 Basis Dimension        Dim             ....  213

ORBITAL ENERGIES
----------------

  NO   OCC          E(Eh)            E(eV)
   0   2.0000     -10.028422      -272.8872
   1   2.0000     -10.026637      -272.8387
   2   2.0000     -10.019942      -272.6565
   3   2.0000     -10.013581      -272.4834
   4   2.0000     -10.012186      -272.4454
   5   2.0000     -10.011934      -272.4386
   6   2.0000     -10.011622      -272.4301
   7   2.0000      -0.788565       -21.4580
   8   2.0000      -0.727511       -19.7966
   9   2.0000      -0.684423       -18.6241
  10   2.0000      -0.647302       -17.6140
  11   2.0000      -0.601358       -16.3638
  12   2.0000      -0.563410       -15.3312
  13   2.0000      -0.500565       -13.6211
  14   2.0000      -0.441423       -12.0117
  15   2.0000      -0.424647       -11.5552
  16   2.0000      -0.402537       -10.9536
  17   2.0000      -0.387306       -10.5391
  18   2.0000      -0.384266       -10.4564
  19   2.0000      -0.365226        -9.9383
  20   2.0000      -0.352622        -9.5953
  21   2.0000      -0.342456        -9.3187
  22   2.0000      -0.332860        -9.0576
  23   2.0000      -0.313542        -8.5319
  24   2.0000      -0.311302        -8.4710
  25   2.0000      -0.309970        -8.4347
  26   2.0000      -0.280482        -7.6323
  27   2.0000      -0.272418        -7.4129
  28   2.0000      -0.270116        -7.3502
  29   0.0000       0.080316         2.1855
  30   0.0000       0.101549         2.7633
  31   0.0000       0.110120         2.9965
  32   0.0000       0.117747         3.2040
  33   0.0000       0.127465         3.4685

MULLIKEN ATOMIC CHARGES
-----------------------
   0 C :   -0.498862
   1 C :   -0.249856
   2 C :   -0.040847
   3 H :    0.151530
   4 C :   -0.521850
   5 C :   -0.048443
   6 C :   -0.504082
   7 C :   -0.510446
   8 H :    0.142005
   9 H :    0.147765
  10 H :    0.146399
  11 H :    0.139939
  12 H :    0.142257
  13 H :    0.148392
  14 H :    0.158008
  15 H :    0.153373
  16 H :    0.144891
  17 H :    0.145942
  18 H :    0.150703
  19 H :    0.147582
  20 H :    0.148946
  21 H :    0.150390
  22 H :    0.156261
Sum of atomic charges:    0.0000000

LOEWDIN ATOMIC CHARGES
----------------------
   0 C :   -0.424761
   1 C :   -0.307989
   2 C :   -0.235571
   3 H :    0.158545
   4 C :   -0.414347
   5 C :   -0.240559
   6 C :   -0.414595
   7 C :   -0.415479
   8 H :    0.147343
   9 H :    0.150542
  10 H :    0.150054
  11 H :    0.154611
  12 H :    0.154840
  13 H :    0.153388
  14 H :    0.155844
  15 H :    0.152647
  16 H :    0.157293
  17 H :    0.152643
  18 H :    0.151602
  19 H :    0.152763
  20 H :    0.153741
  21 H :    0.152565
  22 H :    0.154881

  Mayer bond orders larger than 0.100000
B(  0-C ,  1-C ) :   0.9064 B(  0-C ,  8-H ) :   0.9786 B(  0-C ,  9-H ) :   0.9750
B(  0-C , 10-H ) :   0.9893 B(  1-C ,  2-C ) :   0.8903 B(  1-C , 11-H ) :   0.9691
B(  1-C , 12-H ) :   0.9771 B(  2-C ,  3-H ) :   0.9996 B(  2-C ,  4-C ) :   0.8641
B(  2-C ,  5-C ) :   0.8536 B(  4-C , 13-H ) :   0.9737 B(  4-C , 14-H ) :   0.9762
B(  4-C , 15-H ) :   0.9861 B(  5-C ,  6-C ) :   0.9109 B(  5-C ,  7-C ) :   0.8845
B(  5-C , 16-H ) :   0.9813 B(  6-C , 17-H ) :   0.9755 B(  6-C , 18-H ) :   0.9868
B(  6-C , 19-H ) :   0.9818 B(  7-C , 20-H ) :   0.9724 B(  7-C , 21-H ) :   0.9801
B(  7-C , 22-H ) :   0.9757

Dispersion correction           -0.006555426
FINAL SINGLE POINT ENERGY      -276.286166543367

DIPOLE MOMENT
-------------

Method             : SCF
Type of density    : Electron Density
Multiplicity       :   1
Irrep              :   0
Energy             :  -276.2908372072246266 Eh
Relativity type    :
Basis              : AO
                                X                 Y                 Z
Electronic contribution:      0.454325772       0.009131777      -0.229477541
Nuclear contribution   :     -0.420793631       0.015797031       0.212531465
                        -----------------------------------------
Total Dipole Moment    :      0.033532141       0.024928807      -0.016946075
                        -----------------------------------------
Magnitude (a.u.)       :      0.045089016
Magnitude (Debye)      :      0.114607172

Rotational constants in cm-1:             0.104623             0.057695             0.051395
Rotational constants in MHz :          3136.533621          1729.656742          1540.782658

                             ****ORCA TERMINATED NORMALLY****
TOTAL RUN TIME: 0 days 0 hours 0 minutes 21 seconds 827 msec
