                         Program Version 6.0.0  -   RELEASE  -
|  1> ! r2scan-3c def2/J RI DEFGRID2 scfconv6 printgap
|  2> %output
|  3>     printlevel normal
|  4> end
|  5> %cpcm
|  6>     smd true
|  7>     smdsolvent "water"
|  8> end
|  9> * xyz 0 1
| 10> C 2.1678144096 1.3236095672 -0.5152976195
| 11> C 1.5862629457 0.281711655 0.4343422543
| 12> C 0.4032888633 -0.4992678115 -0.157576535
| 13> H 0.6758311704 -0.7781138443 -1.1828014711
| 14> C 0.1941959474 -1.7893349184 0.6363337738
| 15> C -0.876894421 0.3580054547 -0.249115323
| 16> C -1.8606834714 -0.2263785114 -1.2633716305
| 17> C -1.5763459858 0.5502415839 1.0956750002
| 18> H 1.4399068299 2.095326425 -0.7524331396
| 19> H 3.0316088368 1.8036144933 -0.0612735319
| 20> H 2.4847710034 0.8552818618 -1.4447159743
| 21> H 1.2790297587 0.7673912454 1.3622748953
| 22> H 2.3750532582 -0.4309208844 0.686412962
| 23> H 1.0618788971 -2.436416377 0.5269075543
| 24> H 0.0637180455 -1.5750805356 1.6937716357
| 25> H -0.6766850179 -2.3322813664 0.2794786898
| 26> H -0.5804999374 1.3462323302 -0.6164452224
| 27> H -2.7288253271 0.4216758922 -1.360743438
| 28> H -2.2064942706 -1.2083158575 -0.9497022308
| 29> H -1.3939291847 -0.3221744342 -2.2411901874
| 30> H -2.3784097706 1.2780173379 0.9925977912
| 31> H -0.8850172195 0.9157182692 1.8505852456
| 32> H -2.0104671592 -0.3831162696 1.4438168196
| 33> *
| 34>
| 35>                          ****END OF INPUT****

CARTESIAN COORDINATES (ANGSTROEM)
---------------------------------
  C      2.167814    1.323610   -0.515298
  C      1.586263    0.281712    0.434342
  C      0.403289   -0.499268   -0.157577
  H      0.675831   -0.778114   -1.182801
  C      0.194196   -1.789335    0.636334
  C     -0.876894    0.358005   -0.249115
  C     -1.860683   -0.226379   -1.263372
  C     -1.576346    0.550242    1.095675
  H      1.439907    2.095326   -0.752433
  H      3.031609    1.803614   -0.061274
  H      2.484771    0.855282   -1.444716
  H      1.279030    0.767391    1.362275
  H      2.375053   -0.430921    0.686413
  H      1.061879   -2.436416    0.526908
  H      0.063718   -1.575081    1.693772
  H     -0.676685   -2.332281    0.279479
  H     -0.580500    1.346232   -0.616445
  H     -2.728825    0.421676   -1.360743
  H     -2.206494   -1.208316   -0.949702
  H     -1.393929   -0.322174   -2.241190
  H     -2.378410    1.278017    0.992598
  H     -0.885017    0.915718    1.850585
  H     -2.010467   -0.383116    1.443817

 Total Charge           Charge          ....    0
 Multiplicity           Mult            ....    1
 Number of Electrons    NEL             ....   58
 Basis Dimension        Dim             ....  213

ORBITAL ENERGIES
----------------

  NO   OCC          E(Eh)            E(eV)
   0   2.0000     -10.020492      -272.6715
   1   2.0000     -10.018703      -272.6228
   2   2.0000     -10.011922      -272.4382
   3   2.0000     -10.005957      -272.2759
   4   2.0000     -10.004173      -272.2274
   5   2.0000     -10.004116      -272.2258
   6   2.0000     -10.003826      -272.2179
   7   2.0000      -0.780714       -21.2443
   8   2.0000      -0.719993       -19.5920
   9   2.0000      -0.677148       -18.4261
  10   2.0000      -0.640048       -17.4166
  11   2.0000      -0.594143       -16.1674
  12   2.0000      -0.556001       -15.1296
  13   2.0000      -0.492933       -13.4134
  14   2.0000      -0.433434       -11.7943
  15   2.0000      -0.416933       -11.3453
  16   2.0000      -0.395051       -10.7499
  17   2.0000      -0.379749       -10.3335
  18   2.0000      -0.376874       -10.2553
  19   2.0000      -0.357687        -9.7332
  20   2.0000      -0.344999        -9.3879
  21   2.0000      -0.334839        -9.1114
  22   2.0000      -0.325493        -8.8571
  23   2.0000      -0.305741        -8.3196
  24   2.0000      -0.303685        -8.2637
  25   2.0000      -0.302064        -8.2196
  26   2.0000      -0.272658        -7.4194
  27   2.0000      -0.264648        -7.2014
  28   2.0000      -0.262229        -7.1356
  29   0.0000       0.088944         2.4203
  30   0.0000       0.108902         2.9634
  31   0.0000       0.117496         3.1972
  32   0.0000       0.125218         3.4074
  33   0.0000       0.135052         3.6750

MULLIKEN ATOMIC CHARGES
-----------------------
   0 C :   -0.541464
   1 C :   -0.267819
   2 C :   -0.032219
   3 H :    0.158738
   4 C :   -0.560348
   5 C :   -0.032757
   6 C :   -0.552044
   7 C :   -0.552615
   8 H :    0.155241
   9 H :    0.156832
  10 H :    0.156800
  11 H :    0.152502
  12 H :    0.149921
  13 H :    0.159092
  14 H :    0.164687
  15 H :    0.165371
  16 H :    0.154627
  17 H :    0.156357
  18 H :    0.164769
  19 H :    0.157734
  20 H :    0.159531
  21 H :    0.163105
  22 H :    0.163960
Sum of atomic charges:   -0.0000000

LOEWDIN ATOMIC CHARGES
----------------------
   0 C :   -0.433721
   1 C :   -0.310953
   2 C :   -0.234700
   3 H :    0.160434
   4 C :   -0.422625
   5 C :   -0.239073
   6 C :   -0.424077
   7 C :   -0.423770
   8 H :    0.150513
   9 H :    0.152260
  10 H :    0.152229
  11 H :    0.157486
  12 H :    0.156188
  13 H :    0.155255
  14 H :    0.157102
  15 H :    0.155716
  16 H :    0.159955
  17 H :    0.154469
  18 H :    0.154839
  19 H :    0.154699
  20 H :    0.155633
  21 H :    0.155837
  22 H :    0.156306

  Mayer bond orders larger than 0.100000
B(  0-C ,  1-C ) :   0.8973 B(  0-C ,  8-H ) :   0.9762 B(  0-C ,  9-H ) :   0.9728
B(  0-C , 10-H ) :   0.9866 B(  1-C ,  2-C ) :   0.8843 B(  1-C , 11-H ) :   0.9696
B(  1-C , 12-H ) :   0.9777 B(  2-C ,  3-H ) :   0.9995 B(  2-C ,  4-C ) :   0.8584
B(  2-C ,  5-C ) :   0.8518 B(  4-C , 13-H ) :   0.9721 B(  4-C , 14-H ) :   0.9749
B(  4-C , 15-H ) :   0.9820 B(  5-C ,  6-C ) :   0.8993 B(  5-C ,  7-C ) :   0.8764
B(  5-C , 16-H ) :   0.9821 B(  6-C , 17-H ) :   0.9740 B(  6-C , 18-H ) :   0.9843
B(  6-C , 19-H ) :   0.9796 B(  7-C , 20-H ) :   0.9709 B(  7-C , 21-H ) :   0.9767
B(  7-C , 22-H ) :   0.9747

Dispersion correction           -0.006555426
FINAL SINGLE POINT ENERGY      -276.282372895560

DIPOLE MOMENT
-------------

Method             : SCF
Type of density    : Electron Density
Multiplicity       :   1
Irrep              :   0
Energy             :  -276.2870435594179526 Eh
Relativity type    :
Basis              : AO
                                X                 Y                 Z
Electronic contribution:      0.459588816       0.019436156      -0.232878928
Nuclear contribution   :     -0.420793631       0.015797031       0.212531465
                        -----------------------------------------
Total Dipole Moment    :      0.038795186       0.035233186      -0.020347462
                        -----------------------------------------
Magnitude (a.u.)       :      0.056217996
Magnitude (Debye)      :      0.142894790

Rotational constants in cm-1:             0.104623             0.057695             0.051395
Rotational constants in MHz :          3136.533621          1729.656742          1540.782658

                             ****ORCA TERMINATED NORMALLY****
TOTAL RUN TIME: 0 days 0 hours 0 minutes 27 seconds 928 msec
