                         Program Version 6.0.0  -   RELEASE  -
|  1> ! pbe def2-sv(p) def2/J RI DEFGRID1 loosescf d4 GCP(DFT/SV(P)) printgap
|  2> %output
|  3>     printlevel normal
|  4> end
|  5> * xyz 0 1
|  6> C 1.8694679995 -1.0179449157 -0.5202022188
|  7> C 1.236081244 -0.0080950166 0.4349490314
|  8> H 1.0419433852 -0.4892320617 1.4007939798
|  9> C -0.0679886519 0.6163446919 -0.0916434093
| 10> C -1.3495603341 -0.1899734303 0.1644348443
| 11> C -2.5519540743 0.7560480761 0.1795516812
| 12> C -1.5803725516 -1.2779833396 -0.8821629742
| 13> O 2.1709240979 1.0168367067 0.7508455929
| 14> H 1.9668133341 -0.5917557408 -1.516476092
| 15> H 2.8582231765 -1.2861851124 -0.1541026096
| 16> H 1.2708748394 -1.9198880214 -0.5811805263
| 17> H -0.1676234135 1.5769333421 0.4210174339
| 18> H 0.0273526406 0.8176517412 -1.1610169542
| 19> H -1.2720967496 -0.6616172364 1.1505300211
| 20> H -3.4702552572 0.201382755 0.3572114876
| 21> H -2.6404047785 1.2686907015 -0.7757207219
| 22> H -2.4468758553 1.5023294252 0.9634259741
| 23> H -1.6226477226 -0.8417427296 -1.8775745489
| 24> H -0.7908274734 -2.0221187648 -0.8634829158
| 25> H -2.5239208203 -1.7843642272 -0.6909988743
| 26> H 2.4368928523 1.4546481927 -0.0699220614
| 27> *
| 28>
| 29>                          ****END OF INPUT****

CARTESIAN COORDINATES (ANGSTROEM)
---------------------------------
  C      1.869468   -1.017945   -0.520202
  C      1.236081   -0.008095    0.434949
  H      1.041943   -0.489232    1.400794
  C     -0.067989    0.616345   -0.091643
  C     -1.349560   -0.189973    0.164435
  C     -2.551954    0.756048    0.179552
  C     -1.580373   -1.277983   -0.882163
  O      2.170924    1.016837    0.750846
  H      1.966813   -0.591756   -1.516476
  H      2.858223   -1.286185   -0.154103
  H      1.270875   -1.919888   -0.581181
  H     -0.167623    1.576933    0.421017
  H      0.027353    0.817652   -1.161017
  H     -1.272097   -0.661617    1.150530
  H     -3.470255    0.201383    0.357211
  H     -2.640405    1.268691   -0.775721
  H     -2.446876    1.502329    0.963426
  H     -1.622648   -0.841743   -1.877575
  H     -0.790827   -2.022119   -0.863483
  H     -2.523921   -1.784364   -0.690999
  H      2.436893    1.454648   -0.069922

 Total Charge           Charge          ....    0
 Multiplicity           Mult            ....    1
 Number of Electrons    NEL             ....   58
 Basis Dimension        Dim             ....  126

ORBITAL ENERGIES
----------------

  NO   OCC          E(Eh)            E(eV)
   0   2.0000     -18.733928      -509.7761
   1   2.0000      -9.934006      -270.3180
   2   2.0000      -9.896340      -269.2931
   3   2.0000      -9.878189      -268.7992
   4   2.0000      -9.874958      -268.7113
   5   2.0000      -9.873610      -268.6746
   6   2.0000      -9.872054      -268.6322
   7   2.0000      -0.912493       -24.8302
   8   2.0000      -0.732114       -19.9218
   9   2.0000      -0.673227       -18.3195
  10   2.0000      -0.615771       -16.7560
  11   2.0000      -0.607077       -16.5194
  12   2.0000      -0.539768       -14.6878
  13   2.0000      -0.503200       -13.6928
  14   2.0000      -0.434117       -11.8129
  15   2.0000      -0.416152       -11.3241
  16   2.0000      -0.412197       -11.2165
  17   2.0000      -0.380476       -10.3533
  18   2.0000      -0.375677       -10.2227
  19   2.0000      -0.358003        -9.7418
  20   2.0000      -0.343838        -9.3563
  21   2.0000      -0.339496        -9.2382
  22   2.0000      -0.326373        -8.8811
  23   2.0000      -0.307632        -8.3711
  24   2.0000      -0.294023        -8.0008
  25   2.0000      -0.284349        -7.7375
  26   2.0000      -0.278302        -7.5730
  27   2.0000      -0.263148        -7.1606
  28   2.0000      -0.207745        -5.6530
  29   0.0000       0.030970         0.8427
  30   0.0000       0.040538         1.1031
  31   0.0000       0.054758         1.4900
  32   0.0000       0.074175         2.0184
  33   0.0000       0.084215         2.2916

MULLIKEN ATOMIC CHARGES
-----------------------
   0 C :   -0.266045
   1 C :    0.035566
   2 H :    0.067381
   3 C :   -0.125422
   4 C :   -0.182637
   5 C :   -0.244810
   6 C :   -0.248301
   7 O :   -0.430248
   8 H :    0.085312
   9 H :    0.108823
  10 H :    0.109306
  11 H :    0.082446
  12 H :    0.061677
  13 H :    0.072581
  14 H :    0.096797
  15 H :    0.093323
  16 H :    0.102574
  17 H :    0.092312
  18 H :    0.104601
  19 H :    0.096908
  20 H :    0.287856
Sum of atomic charges:   -0.0000000

LOEWDIN ATOMIC CHARGES
----------------------
   0 C :   -0.354583
   1 C :   -0.054432
   2 H :    0.111182
   3 C :   -0.233805
   4 C :   -0.155165
   5 C :   -0.328484
   6 C :   -0.331266
   7 O :   -0.331987
   8 H :    0.113756
   9 H :    0.123297
  10 H :    0.122302
  11 H :    0.119567
  12 H :    0.109690
  13 H :    0.114052
  14 H :    0.115796
  15 H :    0.116470
  16 H :    0.117085
  17 H :    0.116424
  18 H :    0.114506
  19 H :    0.117623
  20 H :    0.277973

  Mayer bond orders larger than 0.100000
B(  0-C ,  1-C ) :   1.1232 B(  0-C ,  8-H ) :   0.9408 B(  0-C ,  9-H ) :   0.9417
B(  0-C , 10-H ) :   0.9270 B(  1-C ,  2-H ) :   0.9027 B(  1-C ,  3-C ) :   1.0645
B(  1-C ,  7-O ) :   1.0337 B(  3-C ,  4-C ) :   1.0589 B(  3-C , 11-H ) :   0.9129
B(  3-C , 12-H ) :   0.9031 B(  4-C ,  5-C ) :   1.1066 B(  4-C ,  6-C ) :   1.1157
B(  4-C , 13-H ) :   0.9045 B(  5-C , 14-H ) :   0.9508 B(  5-C , 15-H ) :   0.9516
B(  5-C , 16-H ) :   0.9490 B(  6-C , 17-H ) :   0.9482 B(  6-C , 18-H ) :   0.9408
B(  6-C , 19-H ) :   0.9476 B(  7-O , 20-H ) :   0.8577

Dispersion correction           -0.016212739
FINAL SINGLE POINT ENERGY      -311.514580704894

DIPOLE MOMENT
-------------

Method             : SCF
Type of density    : Electron Density
Multiplicity       :   1
Irrep              :   0
Energy             :  -311.5941555969708929 Eh
Relativity type    :
Basis              : AO
                                X                 Y                 Z
Electronic contribution:      4.788743796       2.468179824       2.657202309
Nuclear contribution   :     -4.970587558      -2.588564380      -3.176264152
                        -----------------------------------------
Total Dipole Moment    :     -0.181843761      -0.120384556      -0.519061843
                        -----------------------------------------
Magnitude (a.u.)       :      0.563014024
Magnitude (Debye)      :      1.431067920

Rotational constants in cm-1:             0.141774             0.049141             0.039168
Rotational constants in MHz :          4250.270489          1473.216579          1174.228795

                             ****ORCA TERMINATED NORMALLY****
TOTAL RUN TIME: 0 days 0 hours 0 minutes 9 seconds 155 msec
