                         Program Version 6.0.0  -   RELEASE  -
|  1> ! r2scan-3c def2/J RI DEFGRID2 scfconv6 printgap
|  2> %output
|  3>     printlevel normal
|  4> end
|  5> * xyz 0 1
|  6> C -3.1172699064 0.4483395021 -0.1543970966
|  7> C -1.9220562028 -0.255343477 0.4773257271
|  8> C -0.6076773496 0.2044088089 -0.1558607224
|  9> C 0.5744938129 -0.5028497322 0.4813194311
| 10> Cl 2.1197259577 0.0381883261 -0.2646169016
| 11> H -3.0393468623 1.5247993006 -0.0228672419
| 12> H -3.1651718595 0.2363121451 -1.2197344618
| 13> H -4.0425434452 0.1116007515 0.3054214072
| 14> H -2.0260267009 -1.3342783018 0.3505094633
| 15> H -1.9000337572 -0.0453333763 1.5480083465
| 16> H -0.6238111905 -0.0068784004 -1.2265381105
| 17> H -0.4977950585 1.2827800894 -0.0285518075
| 18> H 0.5265550474 -1.5801482625 0.3319983057
| 19> H 0.654310132 -0.2755827708 1.5430349447
| 20> *
| 21>
| 22>                          ****END OF INPUT****

CARTESIAN COORDINATES (ANGSTROEM)
---------------------------------
  C     -3.117270    0.448340   -0.154397
  C     -1.922056   -0.255343    0.477326
  C     -0.607677    0.204409   -0.155861
  C      0.574494   -0.502850    0.481319
  Cl     2.119726    0.038188   -0.264617
  H     -3.039347    1.524799   -0.022867
  H     -3.165172    0.236312   -1.219734
  H     -4.042543    0.111601    0.305421
  H     -2.026027   -1.334278    0.350509
  H     -1.900034   -0.045333    1.548008
  H     -0.623811   -0.006878   -1.226538
  H     -0.497795    1.282780   -0.028552
  H      0.526555   -1.580148    0.331998
  H      0.654310   -0.275583    1.543035

 Total Charge           Charge          ....    0
 Multiplicity           Mult            ....    1
 Number of Electrons    NEL             ....   50
 Basis Dimension        Dim             ....  148

ORBITAL ENERGIES
----------------

  NO   OCC          E(Eh)            E(eV)
   0   2.0000    -101.196232     -2753.6895
   1   2.0000     -10.090974      -274.5894
   2   2.0000     -10.040297      -273.2104
   3   2.0000     -10.038922      -273.1730
   4   2.0000     -10.025811      -272.8162
   5   2.0000      -9.352267      -254.4881
   6   2.0000      -7.098463      -193.1590
   7   2.0000      -7.088324      -192.8831
   8   2.0000      -7.088310      -192.8827
   9   2.0000      -0.820623       -22.3303
  10   2.0000      -0.762351       -20.7446
  11   2.0000      -0.684340       -18.6218
  12   2.0000      -0.596533       -16.2325
  13   2.0000      -0.560703       -15.2575
  14   2.0000      -0.464130       -12.6296
  15   2.0000      -0.417396       -11.3579
  16   2.0000      -0.412200       -11.2165
  17   2.0000      -0.403039       -10.9672
  18   2.0000      -0.363779        -9.8989
  19   2.0000      -0.345711        -9.4073
  20   2.0000      -0.328513        -8.9393
  21   2.0000      -0.315108        -8.5745
  22   2.0000      -0.309630        -8.4255
  23   2.0000      -0.262487        -7.1426
  24   2.0000      -0.260874        -7.0987
  25   0.0000       0.009270         0.2523
  26   0.0000       0.092232         2.5098
  27   0.0000       0.098615         2.6835
  28   0.0000       0.130377         3.5477
  29   0.0000       0.131471         3.5775

MULLIKEN ATOMIC CHARGES
-----------------------
   0 C :   -0.458141
   1 C :   -0.236363
   2 C :   -0.274291
   3 C :   -0.150114
   4 Cl:   -0.203521
   5 H :    0.143720
   6 H :    0.143705
   7 H :    0.149187
   8 H :    0.135996
   9 H :    0.136011
  10 H :    0.150493
  11 H :    0.150480
  12 H :    0.156410
  13 H :    0.156429
Sum of atomic charges:   -0.0000000

LOEWDIN ATOMIC CHARGES
----------------------
   0 C :   -0.420195
   1 C :   -0.315955
   2 C :   -0.331096
   3 C :   -0.321690
   4 Cl:   -0.006117
   5 H :    0.151450
   6 H :    0.151455
   7 H :    0.151977
   8 H :    0.152237
   9 H :    0.152236
  10 H :    0.160735
  11 H :    0.160725
  12 H :    0.157115
  13 H :    0.157123

  Mayer bond orders larger than 0.100000
B(  0-C ,  1-C ) :   0.9047 B(  0-C ,  5-H ) :   0.9817 B(  0-C ,  6-H ) :   0.9817
B(  0-C ,  7-H ) :   0.9739 B(  1-C ,  2-C ) :   0.9139 B(  1-C ,  8-H ) :   0.9670
B(  1-C ,  9-H ) :   0.9670 B(  2-C ,  3-C ) :   0.9473 B(  2-C , 10-H ) :   0.9660
B(  2-C , 11-H ) :   0.9660 B(  3-C ,  4-Cl) :   0.9816 B(  3-C , 12-H ) :   0.9625
B(  3-C , 13-H ) :   0.9625

Dispersion correction           -0.003154261
FINAL SINGLE POINT ENERGY      -617.969497225137

DIPOLE MOMENT
-------------

Method             : SCF
Type of density    : Electron Density
Multiplicity       :   1
Irrep              :   0
Energy             :  -617.9751469075786190 Eh
Relativity type    :
Basis              : AO
                                X                 Y                 Z
Electronic contribution:     15.214558516      -0.061469203      -1.537634894
Nuclear contribution   :    -16.086249256      -0.132621246       1.838672116
                        -----------------------------------------
Total Dipole Moment    :     -0.871690740      -0.194090450       0.301037222
                        -----------------------------------------
Magnitude (a.u.)       :      0.942411406
Magnitude (Debye)      :      2.395419427

Rotational constants in cm-1:             0.560318             0.044128             0.042199
Rotational constants in MHz :         16797.924552          1322.937831          1265.093872

                             ****ORCA TERMINATED NORMALLY****
TOTAL RUN TIME: 0 days 0 hours 0 minutes 22 seconds 421 msec
