                         Program Version 6.0.0  -   RELEASE  -
|  1> ! r2scan-3c def2/J RI DEFGRID2 scfconv6 printgap
|  2> %output
|  3>     printlevel normal
|  4> end
|  5> %cpcm
|  6>     smd true
|  7>     smdsolvent "water"
|  8> end
|  9> * xyz 0 1
| 10> C -3.1172699064 0.4483395021 -0.1543970966
| 11> C -1.9220562028 -0.255343477 0.4773257271
| 12> C -0.6076773496 0.2044088089 -0.1558607224
| 13> C 0.5744938129 -0.5028497322 0.4813194311
| 14> Cl 2.1197259577 0.0381883261 -0.2646169016
| 15> H -3.0393468623 1.5247993006 -0.0228672419
| 16> H -3.1651718595 0.2363121451 -1.2197344618
| 17> H -4.0425434452 0.1116007515 0.3054214072
| 18> H -2.0260267009 -1.3342783018 0.3505094633
| 19> H -1.9000337572 -0.0453333763 1.5480083465
| 20> H -0.6238111905 -0.0068784004 -1.2265381105
| 21> H -0.4977950585 1.2827800894 -0.0285518075
| 22> H 0.5265550474 -1.5801482625 0.3319983057
| 23> H 0.654310132 -0.2755827708 1.5430349447
| 24> *
| 25>
| 26>                          ****END OF INPUT****

CARTESIAN COORDINATES (ANGSTROEM)
---------------------------------
  C     -3.117270    0.448340   -0.154397
  C     -1.922056   -0.255343    0.477326
  C     -0.607677    0.204409   -0.155861
  C      0.574494   -0.502850    0.481319
  Cl     2.119726    0.038188   -0.264617
  H     -3.039347    1.524799   -0.022867
  H     -3.165172    0.236312   -1.219734
  H     -4.042543    0.111601    0.305421
  H     -2.026027   -1.334278    0.350509
  H     -1.900034   -0.045333    1.548008
  H     -0.623811   -0.006878   -1.226538
  H     -0.497795    1.282780   -0.028552
  H      0.526555   -1.580148    0.331998
  H      0.654310   -0.275583    1.543035

 Total Charge           Charge          ....    0
 Multiplicity           Mult            ....    1
 Number of Electrons    NEL             ....   50
 Basis Dimension        Dim             ....  148

ORBITAL ENERGIES
----------------

  NO   OCC          E(Eh)            E(eV)
   0   2.0000    -101.197966     -2753.7366
   1   2.0000     -10.080125      -274.2941
   2   2.0000     -10.026622      -272.8383
   3   2.0000     -10.022286      -272.7203
   4   2.0000     -10.009686      -272.3774
   5   2.0000      -9.354389      -254.5459
   6   2.0000      -7.100159      -193.2052
   7   2.0000      -7.090624      -192.9457
   8   2.0000      -7.090613      -192.9454
   9   2.0000      -0.816639       -22.2219
  10   2.0000      -0.749777       -20.4025
  11   2.0000      -0.672937       -18.3115
  12   2.0000      -0.584467       -15.9041
  13   2.0000      -0.545601       -14.8465
  14   2.0000      -0.449203       -12.2234
  15   2.0000      -0.404650       -11.0111
  16   2.0000      -0.397591       -10.8190
  17   2.0000      -0.395744       -10.7687
  18   2.0000      -0.351744        -9.5714
  19   2.0000      -0.331722        -9.0266
  20   2.0000      -0.316476        -8.6118
  21   2.0000      -0.301327        -8.1995
  22   2.0000      -0.292712        -7.9651
  23   2.0000      -0.263989        -7.1835
  24   2.0000      -0.261526        -7.1165
  25   0.0000       0.013499         0.3673
  26   0.0000       0.106668         2.9026
  27   0.0000       0.112084         3.0500
  28   0.0000       0.144233         3.9248
  29   0.0000       0.149424         4.0660

MULLIKEN ATOMIC CHARGES
-----------------------
   0 C :   -0.502661
   1 C :   -0.245399
   2 C :   -0.284608
   3 C :   -0.161333
   4 Cl:   -0.252945
   5 H :    0.154416
   6 H :    0.154386
   7 H :    0.158427
   8 H :    0.149707
   9 H :    0.149589
  10 H :    0.158558
  11 H :    0.158798
  12 H :    0.181677
  13 H :    0.181389
Sum of atomic charges:   -0.0000000

LOEWDIN ATOMIC CHARGES
----------------------
   0 C :   -0.428829
   1 C :   -0.313760
   2 C :   -0.332011
   3 C :   -0.316392
   4 Cl:   -0.039618
   5 H :    0.153372
   6 H :    0.153365
   7 H :    0.153933
   8 H :    0.156480
   9 H :    0.156447
  10 H :    0.162014
  11 H :    0.162065
  12 H :    0.166519
  13 H :    0.166414

  Mayer bond orders larger than 0.100000
B(  0-C ,  1-C ) :   0.8906 B(  0-C ,  5-H ) :   0.9801 B(  0-C ,  6-H ) :   0.9801
B(  0-C ,  7-H ) :   0.9716 B(  1-C ,  2-C ) :   0.9169 B(  1-C ,  8-H ) :   0.9677
B(  1-C ,  9-H ) :   0.9677 B(  2-C ,  3-C ) :   0.9421 B(  2-C , 10-H ) :   0.9655
B(  2-C , 11-H ) :   0.9655 B(  3-C ,  4-Cl) :   0.9378 B(  3-C , 12-H ) :   0.9555
B(  3-C , 13-H ) :   0.9556

Dispersion correction           -0.003154261
FINAL SINGLE POINT ENERGY      -617.971265900213

DIPOLE MOMENT
-------------

Method             : SCF
Type of density    : Electron Density
Multiplicity       :   1
Irrep              :   0
Energy             :  -617.9769155826544420 Eh
Relativity type    :
Basis              : AO
                                X                 Y                 Z
Electronic contribution:     15.011438175      -0.161969485      -1.408544321
Nuclear contribution   :    -16.086249256      -0.132621246       1.838672116
                        -----------------------------------------
Total Dipole Moment    :     -1.074811081      -0.294590731       0.430127795
                        -----------------------------------------
Magnitude (a.u.)       :      1.194576276
Magnitude (Debye)      :      3.036371589

Rotational constants in cm-1:             0.560318             0.044128             0.042199
Rotational constants in MHz :         16797.924552          1322.937831          1265.093872

                             ****ORCA TERMINATED NORMALLY****
TOTAL RUN TIME: 0 days 0 hours 0 minutes 23 seconds 547 msec
