                         Program Version 6.0.0  -   RELEASE  -
|  1> ! r2scan-3c def2/J RI DEFGRID2 scfconv6 printgap
|  2> %output
|  3>     printlevel normal
|  4> end
|  5> * xyz 0 1
|  6> C -3.0119842375 0.2691247399 -0.1744333252
|  7> C -1.5749742629 0.1573641823 -0.6723779197
|  8> C -0.6038464963 0.0398935202 0.4980417923
|  9> C 0.8867480029 -0.0815693132 0.1363879492
| 10> C 1.3920562221 1.1568866553 -0.6111978631
| 11> C 1.1699063344 -1.342413586 -0.6870867811
| 12> O 1.542332373 -0.178284957 1.4028818773
| 13> H -3.282524884 -0.6083101504 0.4084316353
| 14> H -3.7001418 0.3519971548 -1.0120578617
| 15> H -3.1296043112 1.1470927622 0.4565471336
| 16> H -1.4899399006 -0.7192962277 -1.3156051632
| 17> H -1.3360134573 1.0400515075 -1.2667776076
| 18> H -0.7086139793 0.913197325 1.1461624695
| 19> H -0.8624671641 -0.8357040854 1.0981727706
| 20> H 0.9017311827 1.2468041439 -1.5750328535
| 21> H 2.4647205972 1.0813972839 -0.7782234996
| 22> H 1.1940803867 2.0512843857 -0.0254108561
| 23> H 0.8119733803 -2.2213302303 -0.1563619494
| 24> H 2.2401900176 -1.4485434806 -0.8526501207
| 25> H 0.6788790828 -1.2851418837 -1.653048698
| 26> H 2.4950437951 -0.2582690064 1.2589062847
| 27> *
| 28>
| 29>                          ****END OF INPUT****

CARTESIAN COORDINATES (ANGSTROEM)
---------------------------------
  C     -3.011984    0.269125   -0.174433
  C     -1.574974    0.157364   -0.672378
  C     -0.603846    0.039894    0.498042
  C      0.886748   -0.081569    0.136388
  C      1.392056    1.156887   -0.611198
  C      1.169906   -1.342414   -0.687087
  O      1.542332   -0.178285    1.402882
  H     -3.282525   -0.608310    0.408432
  H     -3.700142    0.351997   -1.012058
  H     -3.129604    1.147093    0.456547
  H     -1.489940   -0.719296   -1.315605
  H     -1.336013    1.040052   -1.266778
  H     -0.708614    0.913197    1.146162
  H     -0.862467   -0.835704    1.098173
  H      0.901731    1.246804   -1.575033
  H      2.464721    1.081397   -0.778223
  H      1.194080    2.051284   -0.025411
  H      0.811973   -2.221330   -0.156362
  H      2.240190   -1.448543   -0.852650
  H      0.678879   -1.285142   -1.653049
  H      2.495044   -0.258269    1.258906

 Total Charge           Charge          ....    0
 Multiplicity           Mult            ....    1
 Number of Electrons    NEL             ....   58
 Basis Dimension        Dim             ....  208

ORBITAL ENERGIES
----------------

  NO   OCC          E(Eh)            E(eV)
   0   2.0000     -18.940149      -515.3877
   1   2.0000     -10.086615      -274.4708
   2   2.0000     -10.026118      -272.8245
   3   2.0000     -10.019117      -272.6340
   4   2.0000     -10.017197      -272.5818
   5   2.0000     -10.017192      -272.5816
   6   2.0000     -10.016250      -272.5560
   7   2.0000      -0.979441       -26.6520
   8   2.0000      -0.770588       -20.9688
   9   2.0000      -0.723918       -19.6988
  10   2.0000      -0.657422       -17.8894
  11   2.0000      -0.648160       -17.6373
  12   2.0000      -0.574608       -15.6359
  13   2.0000      -0.516985       -14.0679
  14   2.0000      -0.452213       -12.3053
  15   2.0000      -0.438490       -11.9319
  16   2.0000      -0.429813       -11.6958
  17   2.0000      -0.400527       -10.8989
  18   2.0000      -0.381434       -10.3794
  19   2.0000      -0.378412       -10.2971
  20   2.0000      -0.363008        -9.8779
  21   2.0000      -0.339763        -9.2454
  22   2.0000      -0.334996        -9.1157
  23   2.0000      -0.317755        -8.6465
  24   2.0000      -0.315275        -8.5791
  25   2.0000      -0.303552        -8.2601
  26   2.0000      -0.294218        -8.0061
  27   2.0000      -0.275445        -7.4952
  28   2.0000      -0.232306        -6.3214
  29   0.0000       0.063504         1.7280
  30   0.0000       0.092184         2.5085
  31   0.0000       0.113372         3.0850
  32   0.0000       0.117216         3.1896
  33   0.0000       0.127214         3.4617

MULLIKEN ATOMIC CHARGES
-----------------------
   0 C :   -0.479347
   1 C :   -0.259112
   2 C :   -0.294124
   3 C :    0.213684
   4 C :   -0.497709
   5 C :   -0.497825
   6 O :   -0.413248
   7 H :    0.145338
   8 H :    0.145611
   9 H :    0.145355
  10 H :    0.143735
  11 H :    0.143681
  12 H :    0.152193
  13 H :    0.152526
  14 H :    0.156864
  15 H :    0.139558
  16 H :    0.162840
  17 H :    0.162953
  18 H :    0.139542
  19 H :    0.156988
  20 H :    0.280497
Sum of atomic charges:   -0.0000000

LOEWDIN ATOMIC CHARGES
----------------------
   0 C :   -0.421089
   1 C :   -0.310665
   2 C :   -0.262092
   3 C :    0.058450
   4 C :   -0.389685
   5 C :   -0.389735
   6 O :   -0.608743
   7 H :    0.150784
   8 H :    0.149554
   9 H :    0.150780
  10 H :    0.152602
  11 H :    0.152562
  12 H :    0.169912
  13 H :    0.170036
  14 H :    0.158665
  15 H :    0.155618
  16 H :    0.164894
  17 H :    0.164902
  18 H :    0.155627
  19 H :    0.158682
  20 H :    0.268942

  Mayer bond orders larger than 0.100000
B(  0-C ,  1-C ) :   0.9008 B(  0-C ,  7-H ) :   0.9849 B(  0-C ,  8-H ) :   0.9734
B(  0-C ,  9-H ) :   0.9849 B(  1-C ,  2-C ) :   0.8930 B(  1-C , 10-H ) :   0.9669
B(  1-C , 11-H ) :   0.9669 B(  2-C ,  3-C ) :   0.9087 B(  2-C , 12-H ) :   0.9808
B(  2-C , 13-H ) :   0.9807 B(  3-C ,  4-C ) :   0.9433 B(  3-C ,  5-C ) :   0.9426
B(  3-C ,  6-O ) :   0.8621 B(  4-C , 14-H ) :   0.9736 B(  4-C , 15-H ) :   0.9619
B(  4-C , 16-H ) :   0.9750 B(  5-C , 17-H ) :   0.9750 B(  5-C , 18-H ) :   0.9620
B(  5-C , 19-H ) :   0.9736 B(  6-O , 20-H ) :   0.9024

Dispersion correction           -0.005596442
FINAL SINGLE POINT ENERGY      -312.207542276694

DIPOLE MOMENT
-------------

Method             : SCF
Type of density    : Electron Density
Multiplicity       :   1
Irrep              :   0
Energy             :  -312.2129369587577230 Eh
Relativity type    :
Basis              : AO
                                X                 Y                 Z
Electronic contribution:      3.664540162      -0.425137205       3.433542514
Nuclear contribution   :     -3.469599885       0.424433834      -3.982275515
                        -----------------------------------------
Total Dipole Moment    :      0.194940276      -0.000703371      -0.548733001
                        -----------------------------------------
Magnitude (a.u.)       :      0.582331617
Magnitude (Debye)      :      1.480169340

Rotational constants in cm-1:             0.140140             0.047416             0.046937
Rotational constants in MHz :          4201.286034          1421.488902          1407.148542

                             ****ORCA TERMINATED NORMALLY****
TOTAL RUN TIME: 0 days 0 hours 0 minutes 26 seconds 856 msec
