                         Program Version 6.0.0  -   RELEASE  -
|  1> ! r2scan-3c def2/J RI DEFGRID2 scfconv6 printgap
|  2> %output
|  3>     printlevel normal
|  4> end
|  5> %cpcm
|  6>     smd true
|  7>     smdsolvent "water"
|  8> end
|  9> * xyz 0 1
| 10> C -3.0119842375 0.2691247399 -0.1744333252
| 11> C -1.5749742629 0.1573641823 -0.6723779197
| 12> C -0.6038464963 0.0398935202 0.4980417923
| 13> C 0.8867480029 -0.0815693132 0.1363879492
| 14> C 1.3920562221 1.1568866553 -0.6111978631
| 15> C 1.1699063344 -1.342413586 -0.6870867811
| 16> O 1.542332373 -0.178284957 1.4028818773
| 17> H -3.282524884 -0.6083101504 0.4084316353
| 18> H -3.7001418 0.3519971548 -1.0120578617
| 19> H -3.1296043112 1.1470927622 0.4565471336
| 20> H -1.4899399006 -0.7192962277 -1.3156051632
| 21> H -1.3360134573 1.0400515075 -1.2667776076
| 22> H -0.7086139793 0.913197325 1.1461624695
| 23> H -0.8624671641 -0.8357040854 1.0981727706
| 24> H 0.9017311827 1.2468041439 -1.5750328535
| 25> H 2.4647205972 1.0813972839 -0.7782234996
| 26> H 1.1940803867 2.0512843857 -0.0254108561
| 27> H 0.8119733803 -2.2213302303 -0.1563619494
| 28> H 2.2401900176 -1.4485434806 -0.8526501207
| 29> H 0.6788790828 -1.2851418837 -1.653048698
| 30> H 2.4950437951 -0.2582690064 1.2589062847
| 31> *
| 32>
| 33>                          ****END OF INPUT****

CARTESIAN COORDINATES (ANGSTROEM)
---------------------------------
  C     -3.011984    0.269125   -0.174433
  C     -1.574974    0.157364   -0.672378
  C     -0.603846    0.039894    0.498042
  C      0.886748   -0.081569    0.136388
  C      1.392056    1.156887   -0.611198
  C      1.169906   -1.342414   -0.687087
  O      1.542332   -0.178285    1.402882
  H     -3.282525   -0.608310    0.408432
  H     -3.700142    0.351997   -1.012058
  H     -3.129604    1.147093    0.456547
  H     -1.489940   -0.719296   -1.315605
  H     -1.336013    1.040052   -1.266778
  H     -0.708614    0.913197    1.146162
  H     -0.862467   -0.835704    1.098173
  H      0.901731    1.246804   -1.575033
  H      2.464721    1.081397   -0.778223
  H      1.194080    2.051284   -0.025411
  H      0.811973   -2.221330   -0.156362
  H      2.240190   -1.448543   -0.852650
  H      0.678879   -1.285142   -1.653049
  H      2.495044   -0.258269    1.258906

 Total Charge           Charge          ....    0
 Multiplicity           Mult            ....    1
 Number of Electrons    NEL             ....   58
 Basis Dimension        Dim             ....  208

ORBITAL ENERGIES
----------------

  NO   OCC          E(Eh)            E(eV)
   0   2.0000     -18.945357      -515.5294
   1   2.0000     -10.082813      -274.3673
   2   2.0000     -10.017578      -272.5922
   3   2.0000     -10.014789      -272.5163
   4   2.0000     -10.008347      -272.3410
   5   2.0000     -10.007531      -272.3188
   6   2.0000     -10.007499      -272.3179
   7   2.0000      -0.983269       -26.7561
   8   2.0000      -0.764675       -20.8079
   9   2.0000      -0.716642       -19.5008
  10   2.0000      -0.648896       -17.6574
  11   2.0000      -0.642147       -17.4737
  12   2.0000      -0.568864       -15.4796
  13   2.0000      -0.512733       -13.9522
  14   2.0000      -0.448374       -12.2009
  15   2.0000      -0.431563       -11.7434
  16   2.0000      -0.424068       -11.5395
  17   2.0000      -0.394659       -10.7392
  18   2.0000      -0.375882       -10.2283
  19   2.0000      -0.371223       -10.1015
  20   2.0000      -0.353298        -9.6137
  21   2.0000      -0.331409        -9.0181
  22   2.0000      -0.326942        -8.8965
  23   2.0000      -0.316730        -8.6187
  24   2.0000      -0.311601        -8.4791
  25   2.0000      -0.297274        -8.0892
  26   2.0000      -0.287391        -7.8203
  27   2.0000      -0.272388        -7.4121
  28   2.0000      -0.237917        -6.4741
  29   0.0000       0.078750         2.1429
  30   0.0000       0.101037         2.7494
  31   0.0000       0.119903         3.2627
  32   0.0000       0.130169         3.5421
  33   0.0000       0.134911         3.6711

MULLIKEN ATOMIC CHARGES
-----------------------
   0 C :   -0.521346
   1 C :   -0.267106
   2 C :   -0.310175
   3 C :    0.255234
   4 C :   -0.544507
   5 C :   -0.544175
   6 O :   -0.508302
   7 H :    0.155876
   8 H :    0.156595
   9 H :    0.155869
  10 H :    0.156585
  11 H :    0.156560
  12 H :    0.156093
  13 H :    0.156091
  14 H :    0.174649
  15 H :    0.164517
  16 H :    0.165223
  17 H :    0.165300
  18 H :    0.164527
  19 H :    0.174689
  20 H :    0.337802
Sum of atomic charges:    0.0000000

LOEWDIN ATOMIC CHARGES
----------------------
   0 C :   -0.429901
   1 C :   -0.309390
   2 C :   -0.268590
   3 C :    0.060324
   4 C :   -0.394528
   5 C :   -0.394535
   6 O :   -0.647421
   7 H :    0.152654
   8 H :    0.152425
   9 H :    0.152635
  10 H :    0.157065
  11 H :    0.157044
  12 H :    0.169066
  13 H :    0.169111
  14 H :    0.165335
  15 H :    0.163621
  16 H :    0.164398
  17 H :    0.164423
  18 H :    0.163643
  19 H :    0.165318
  20 H :    0.287302

  Mayer bond orders larger than 0.100000
B(  0-C ,  1-C ) :   0.8848 B(  0-C ,  7-H ) :   0.9830 B(  0-C ,  8-H ) :   0.9705
B(  0-C ,  9-H ) :   0.9830 B(  1-C ,  2-C ) :   0.9084 B(  1-C , 10-H ) :   0.9669
B(  1-C , 11-H ) :   0.9669 B(  2-C ,  3-C ) :   0.9112 B(  2-C , 12-H ) :   0.9762
B(  2-C , 13-H ) :   0.9760 B(  3-C ,  4-C ) :   0.9395 B(  3-C ,  5-C ) :   0.9391
B(  3-C ,  6-O ) :   0.8378 B(  4-C , 14-H ) :   0.9679 B(  4-C , 15-H ) :   0.9626
B(  4-C , 16-H ) :   0.9697 B(  5-C , 17-H ) :   0.9695 B(  5-C , 18-H ) :   0.9627
B(  5-C , 19-H ) :   0.9679 B(  6-O , 20-H ) :   0.8774

Dispersion correction           -0.005596442
FINAL SINGLE POINT ENERGY      -312.213660181645

DIPOLE MOMENT
-------------

Method             : SCF
Type of density    : Electron Density
Multiplicity       :   1
Irrep              :   0
Energy             :  -312.2190548637089478 Eh
Relativity type    :
Basis              : AO
                                X                 Y                 Z
Electronic contribution:      3.797110029      -0.427306930       3.120366893
Nuclear contribution   :     -3.469599885       0.424433834      -3.982275515
                        -----------------------------------------
Total Dipole Moment    :      0.327510144      -0.002873096      -0.861908622
                        -----------------------------------------
Magnitude (a.u.)       :      0.922039924
Magnitude (Debye)      :      2.343639235

Rotational constants in cm-1:             0.140140             0.047416             0.046937
Rotational constants in MHz :          4201.286034          1421.488902          1407.148542

                             ****ORCA TERMINATED NORMALLY****
TOTAL RUN TIME: 0 days 0 hours 0 minutes 31 seconds 811 msec
