                         Program Version 6.0.0  -   RELEASE  -
|  1> ! pbe def2-sv(p) def2/J RI DEFGRID1 loosescf d4 GCP(DFT/SV(P)) printgap
|  2> %output
|  3>     printlevel normal
|  4> end
|  5> * xyz 0 1
|  6> C 2.3257466479 0.9020694551 0.4957719886
|  7> C 1.1492635712 -0.0717080821 0.4819603495
|  8> C 1.5017500183 -1.3206183625 -0.3377715189
|  9> C -0.0695224766 0.5762289258 -0.1445674585
| 10> O 0.0411473251 1.5034559503 -0.9252105496
| 11> C -1.4549889357 0.0316700589 0.1670397705
| 12> C -1.5762176474 -0.8329830768 1.416157578
| 13> C -1.9589311994 -0.7211450851 -1.0738374731
| 14> H 3.2047647354 0.4243451214 0.9190039689
| 15> H 2.0832582334 1.7819097219 1.0874097721
| 16> H 2.5524771472 1.2293530356 -0.5162117597
| 17> H 0.9166049923 -0.3715081654 1.5048395274
| 18> H 1.6610544727 -1.0498037987 -1.379304111
| 19> H 2.4164885503 -1.7607551026 0.0500742371
| 20> H 0.7118865664 -2.0638849136 -0.2871080113
| 21> H -2.0898417385 0.9183077309 0.2854647515
| 22> H -1.0019358101 -1.750093768 1.3230804069
| 23> H -1.2451464764 -0.2920249376 2.2990396547
| 24> H -2.6199058278 -1.1029654021 1.5589184769
| 25> H -1.8508176981 -0.0980286834 -1.9586555252
| 26> H -1.3957598861 -1.6383601177 -1.2233356987
| 27> H -3.0083920232 -0.9739436273 -0.9499281119
| 28> *
| 29>
| 30>                          ****END OF INPUT****

CARTESIAN COORDINATES (ANGSTROEM)
---------------------------------
  C      2.325747    0.902069    0.495772
  C      1.149264   -0.071708    0.481960
  C      1.501750   -1.320618   -0.337772
  C     -0.069522    0.576229   -0.144567
  O      0.041147    1.503456   -0.925211
  C     -1.454989    0.031670    0.167040
  C     -1.576218   -0.832983    1.416158
  C     -1.958931   -0.721145   -1.073837
  H      3.204765    0.424345    0.919004
  H      2.083258    1.781910    1.087410
  H      2.552477    1.229353   -0.516212
  H      0.916605   -0.371508    1.504840
  H      1.661054   -1.049804   -1.379304
  H      2.416489   -1.760755    0.050074
  H      0.711887   -2.063885   -0.287108
  H     -2.089842    0.918308    0.285465
  H     -1.001936   -1.750094    1.323080
  H     -1.245146   -0.292025    2.299040
  H     -2.619906   -1.102965    1.558918
  H     -1.850818   -0.098029   -1.958656
  H     -1.395760   -1.638360   -1.223336
  H     -3.008392   -0.973944   -0.949928

 Total Charge           Charge          ....    0
 Multiplicity           Mult            ....    1
 Number of Electrons    NEL             ....   64
 Basis Dimension        Dim             ....  140

ORBITAL ENERGIES
----------------

  NO   OCC          E(Eh)            E(eV)
   0   2.0000     -18.732759      -509.7443
   1   2.0000      -9.965301      -271.1696
   2   2.0000      -9.901961      -269.4461
   3   2.0000      -9.901587      -269.4359
   4   2.0000      -9.888604      -269.0826
   5   2.0000      -9.884491      -268.9707
   6   2.0000      -9.883290      -268.9380
   7   2.0000      -9.871769      -268.6245
   8   2.0000      -0.931840       -25.3566
   9   2.0000      -0.736668       -20.0458
  10   2.0000      -0.713361       -19.4115
  11   2.0000      -0.621788       -16.9197
  12   2.0000      -0.615804       -16.7569
  13   2.0000      -0.579027       -15.7561
  14   2.0000      -0.533083       -14.5059
  15   2.0000      -0.459595       -12.5062
  16   2.0000      -0.437926       -11.9166
  17   2.0000      -0.411755       -11.2044
  18   2.0000      -0.405143       -11.0245
  19   2.0000      -0.381296       -10.3756
  20   2.0000      -0.375426       -10.2159
  21   2.0000      -0.359943        -9.7945
  22   2.0000      -0.352345        -9.5878
  23   2.0000      -0.344182        -9.3657
  24   2.0000      -0.334778        -9.1098
  25   2.0000      -0.333910        -9.0861
  26   2.0000      -0.317709        -8.6453
  27   2.0000      -0.303397        -8.2558
  28   2.0000      -0.296945        -8.0803
  29   2.0000      -0.291815        -7.9407
  30   2.0000      -0.286098        -7.7851
  31   2.0000      -0.190155        -5.1744
  32   0.0000      -0.050724        -1.3803
  33   0.0000       0.027036         0.7357
  34   0.0000       0.055594         1.5128
  35   0.0000       0.062780         1.7083
  36   0.0000       0.074400         2.0245

MULLIKEN ATOMIC CHARGES
-----------------------
   0 C :   -0.223352
   1 C :   -0.187917
   2 C :   -0.268367
   3 C :    0.043466
   4 O :   -0.177004
   5 C :   -0.150688
   6 C :   -0.245591
   7 C :   -0.261433
   8 H :    0.092906
   9 H :    0.101920
  10 H :    0.111099
  11 H :    0.083294
  12 H :    0.112026
  13 H :    0.112169
  14 H :    0.117974
  15 H :    0.089508
  16 H :    0.105169
  17 H :    0.113254
  18 H :    0.103905
  19 H :    0.119386
  20 H :    0.101144
  21 H :    0.107132
Sum of atomic charges:    0.0000000

LOEWDIN ATOMIC CHARGES
----------------------
   0 C :   -0.325718
   1 C :   -0.183086
   2 C :   -0.318712
   3 C :    0.069129
   4 O :   -0.130743
   5 C :   -0.179263
   6 C :   -0.334618
   7 C :   -0.319814
   8 H :    0.116459
   9 H :    0.121437
  10 H :    0.125098
  11 H :    0.125552
  12 H :    0.125911
  13 H :    0.124825
  14 H :    0.116946
  15 H :    0.136432
  16 H :    0.119125
  17 H :    0.121205
  18 H :    0.124376
  19 H :    0.127168
  20 H :    0.117099
  21 H :    0.121193

  Mayer bond orders larger than 0.100000
B(  0-C ,  1-C ) :   1.1094 B(  0-C ,  8-H ) :   0.9468 B(  0-C ,  9-H ) :   0.9535
B(  0-C , 10-H ) :   0.9412 B(  1-C ,  2-C ) :   1.0930 B(  1-C ,  3-C ) :   0.9779
B(  1-C , 11-H ) :   0.8709 B(  2-C , 12-H ) :   0.9437 B(  2-C , 13-H ) :   0.9462
B(  2-C , 14-H ) :   0.9367 B(  3-C ,  4-O ) :   2.1529 B(  3-C ,  5-C ) :   0.9641
B(  5-C ,  6-C ) :   1.1130 B(  5-C ,  7-C ) :   1.1008 B(  5-C , 15-H ) :   0.8744
B(  6-C , 16-H ) :   0.9317 B(  6-C , 17-H ) :   0.9455 B(  6-C , 18-H ) :   0.9403
B(  7-C , 19-H ) :   0.9438 B(  7-C , 20-H ) :   0.9440 B(  7-C , 21-H ) :   0.9488

Dispersion correction           -0.019331304
FINAL SINGLE POINT ENERGY      -349.566967261477

DIPOLE MOMENT
-------------

Method             : SCF
Type of density    : Electron Density
Multiplicity       :   1
Irrep              :   0
Energy             :  -349.6406555589877598 Eh
Relativity type    :
Basis              : AO
                                X                 Y                 Z
Electronic contribution:     -0.448254029       5.519353625      -1.975403438
Nuclear contribution   :      0.314647286      -6.307919177       2.531785340
                        -----------------------------------------
Total Dipole Moment    :     -0.133606743      -0.788565553       0.556381902
                        -----------------------------------------
Magnitude (a.u.)       :      0.974293186
Magnitude (Debye)      :      2.476456473

Rotational constants in cm-1:             0.094040             0.048252             0.043298
Rotational constants in MHz :          2819.246050          1446.559505          1298.049064

                             ****ORCA TERMINATED NORMALLY****
TOTAL RUN TIME: 0 days 0 hours 0 minutes 10 seconds 952 msec
