                         Program Version 6.0.0  -   RELEASE  -
|  1> ! pbe def2-sv(p) def2/J RI DEFGRID1 loosescf d4 GCP(DFT/SV(P)) printgap
|  2> %output
|  3>     printlevel normal
|  4> end
|  5> * xyz 0 1
|  6> C -1.8211800519 0.9060660618 -0.5881732007
|  7> C -0.9538350421 0.6229111178 0.6335964794
|  8> C 0.0341038525 -0.542686828 0.472628821
|  9> H 0.4650045096 -0.7346780628 1.4638064369
| 10> C -0.638934314 -1.8256310982 -0.0085697429
| 11> C 1.1921336188 -0.1733087783 -0.4649780508
| 12> O 1.9597762442 0.9190531593 -0.0053504004
| 13> H -2.4444993328 1.7766268704 -0.3977899442
| 14> H -1.2090438182 1.1160255785 -1.461372824
| 15> H -2.4721484191 0.0653122037 -0.8107811501
| 16> H -1.6044565599 0.4104796012 1.4849489337
| 17> H -0.3766470441 1.5200347521 0.8699562993
| 18> H -1.5034310391 -2.050817526 0.6104645724
| 19> H 0.0549108383 -2.660829928 0.0514843449
| 20> H -0.9623838671 -1.7275462057 -1.0410112016
| 21> H 0.8100131995 0.1324976436 -1.4409562666
| 22> H 1.8364515103 -1.0510170008 -0.6132451785
| 23> H 2.3674008027 0.6824658252 0.8390767665
| 24> *
| 25>
| 26>                          ****END OF INPUT****

CARTESIAN COORDINATES (ANGSTROEM)
---------------------------------
  C     -1.821180    0.906066   -0.588173
  C     -0.953835    0.622911    0.633596
  C      0.034104   -0.542687    0.472629
  H      0.465005   -0.734678    1.463806
  C     -0.638934   -1.825631   -0.008570
  C      1.192134   -0.173309   -0.464978
  O      1.959776    0.919053   -0.005350
  H     -2.444499    1.776627   -0.397790
  H     -1.209044    1.116026   -1.461373
  H     -2.472148    0.065312   -0.810781
  H     -1.604457    0.410480    1.484949
  H     -0.376647    1.520035    0.869956
  H     -1.503431   -2.050818    0.610465
  H      0.054911   -2.660830    0.051484
  H     -0.962384   -1.727546   -1.041011
  H      0.810013    0.132498   -1.440956
  H      1.836452   -1.051017   -0.613245
  H      2.367401    0.682466    0.839077

 Total Charge           Charge          ....    0
 Multiplicity           Mult            ....    1
 Number of Electrons    NEL             ....   50
 Basis Dimension        Dim             ....  108

ORBITAL ENERGIES
----------------

  NO   OCC          E(Eh)            E(eV)
   0   2.0000     -18.740130      -509.9449
   1   2.0000      -9.924451      -270.0580
   2   2.0000      -9.892490      -269.1883
   3   2.0000      -9.877671      -268.7851
   4   2.0000      -9.875993      -268.7394
   5   2.0000      -9.869964      -268.5754
   6   2.0000      -0.916335       -24.9347
   7   2.0000      -0.726823       -19.7778
   8   2.0000      -0.652443       -17.7539
   9   2.0000      -0.601262       -16.3612
  10   2.0000      -0.566390       -15.4123
  11   2.0000      -0.496112       -13.4999
  12   2.0000      -0.440823       -11.9954
  13   2.0000      -0.427257       -11.6263
  14   2.0000      -0.407779       -11.0962
  15   2.0000      -0.368343       -10.0231
  16   2.0000      -0.361902        -9.8479
  17   2.0000      -0.344009        -9.3610
  18   2.0000      -0.337589        -9.1863
  19   2.0000      -0.330437        -8.9916
  20   2.0000      -0.294609        -8.0167
  21   2.0000      -0.282257        -7.6806
  22   2.0000      -0.281063        -7.6481
  23   2.0000      -0.261169        -7.1068
  24   2.0000      -0.211194        -5.7469
  25   0.0000       0.024318         0.6617
  26   0.0000       0.043273         1.1775
  27   0.0000       0.061680         1.6784
  28   0.0000       0.080771         2.1979
  29   0.0000       0.096851         2.6354

MULLIKEN ATOMIC CHARGES
-----------------------
   0 C :   -0.299539
   1 C :   -0.140266
   2 C :   -0.194377
   3 H :    0.055888
   4 C :   -0.263929
   5 C :    0.034865
   6 O :   -0.429770
   7 H :    0.103604
   8 H :    0.106998
   9 H :    0.102415
  10 H :    0.080302
  11 H :    0.084611
  12 H :    0.103276
  13 H :    0.098914
  14 H :    0.107123
  15 H :    0.085688
  16 H :    0.070487
  17 H :    0.293709
Sum of atomic charges:    0.0000000

LOEWDIN ATOMIC CHARGES
----------------------
   0 C :   -0.343672
   1 C :   -0.229825
   2 C :   -0.176752
   3 H :    0.107985
   4 C :   -0.331437
   5 C :   -0.118219
   6 O :   -0.336748
   7 H :    0.121817
   8 H :    0.117545
   9 H :    0.116130
  10 H :    0.112950
  11 H :    0.115852
  12 H :    0.120620
  13 H :    0.118259
  14 H :    0.119668
  15 H :    0.111117
  16 H :    0.093717
  17 H :    0.280992

  Mayer bond orders larger than 0.100000
B(  0-C ,  1-C ) :   1.1576 B(  0-C ,  7-H ) :   0.9498 B(  0-C ,  8-H ) :   0.9514
B(  0-C ,  9-H ) :   0.9470 B(  1-C ,  2-C ) :   1.0737 B(  1-C , 10-H ) :   0.9235
B(  1-C , 11-H ) :   0.9142 B(  2-C ,  3-H ) :   0.8967 B(  2-C ,  4-C ) :   1.0947
B(  2-C ,  5-C ) :   1.0524 B(  4-C , 12-H ) :   0.9488 B(  4-C , 13-H ) :   0.9467
B(  4-C , 14-H ) :   0.9446 B(  5-C ,  6-O ) :   1.0655 B(  5-C , 15-H ) :   0.9174
B(  5-C , 16-H ) :   0.9286 B(  6-O , 17-H ) :   0.8532

Dispersion correction           -0.013244436
FINAL SINGLE POINT ENERGY      -272.300762542781

DIPOLE MOMENT
-------------

Method             : SCF
Type of density    : Electron Density
Multiplicity       :   1
Irrep              :   0
Energy             :  -272.3704325174013547 Eh
Relativity type    :
Basis              : AO
                                X                 Y                 Z
Electronic contribution:      4.680449493       1.877883733       0.789199799
Nuclear contribution   :     -4.698162338      -2.351889997      -0.417955506
                        -----------------------------------------
Total Dipole Moment    :     -0.017712845      -0.474006264       0.371244293
                        -----------------------------------------
Magnitude (a.u.)       :      0.602343763
Magnitude (Debye)      :      1.531036172

Rotational constants in cm-1:             0.139328             0.087800             0.064984
Rotational constants in MHz :          4176.934457          2632.166383          1948.180894

                             ****ORCA TERMINATED NORMALLY****
TOTAL RUN TIME: 0 days 0 hours 0 minutes 7 seconds 711 msec
