                         Program Version 6.0.0  -   RELEASE  -
|  1> ! r2scan-3c def2/J RI DEFGRID2 scfconv6 printgap
|  2> %output
|  3>     printlevel normal
|  4> end
|  5> * xyz 0 1
|  6> C 1.8766937172 -0.3201689199 0.5521227882
|  7> O 1.0109986988 -0.194920918 -0.5576260268
|  8> C 0.0509864624 0.842172851 -0.4447456937
|  9> C -1.1403498145 0.4666047396 0.4561079519
| 10> N -1.8641599946 -0.7145731464 0.0166335864
| 11> H 2.3928041966 0.6257778822 0.7477873757
| 12> H 2.6006978216 -1.0844163894 0.2797793631
| 13> H 1.3405300786 -0.6304938563 1.4534937787
| 14> H 0.5274277062 1.760367413 -0.0763718282
| 15> H -0.2990123335 1.0074716243 -1.4678605393
| 16> H -0.7884797972 0.2805440256 1.4740868601
| 17> H -1.8328735712 1.3101152667 0.4839218259
| 18> H -1.204981215 -1.4809715501 -0.0869419861
| 19> H -2.2609449341 -0.544754822 -0.902194725
| 20> *
| 21>
| 22>                          ****END OF INPUT****

CARTESIAN COORDINATES (ANGSTROEM)
---------------------------------
  C      1.876694   -0.320169    0.552123
  O      1.010999   -0.194921   -0.557626
  C      0.050986    0.842173   -0.444746
  C     -1.140350    0.466605    0.456108
  N     -1.864160   -0.714573    0.016634
  H      2.392804    0.625778    0.747787
  H      2.600698   -1.084416    0.279779
  H      1.340530   -0.630494    1.453494
  H      0.527428    1.760367   -0.076372
  H     -0.299012    1.007472   -1.467861
  H     -0.788480    0.280544    1.474087
  H     -1.832874    1.310115    0.483922
  H     -1.204981   -1.480972   -0.086942
  H     -2.260945   -0.544755   -0.902195

 Total Charge           Charge          ....    0
 Multiplicity           Mult            ....    1
 Number of Electrons    NEL             ....   42
 Basis Dimension        Dim             ....  150

ORBITAL ENERGIES
----------------

  NO   OCC          E(Eh)            E(eV)
   0   2.0000     -18.954099      -515.7673
   1   2.0000     -14.133862      -384.6019
   2   2.0000     -10.074277      -274.1350
   3   2.0000     -10.073096      -274.1029
   4   2.0000     -10.052362      -273.5387
   5   2.0000      -0.998077       -27.1591
   6   2.0000      -0.845771       -23.0146
   7   2.0000      -0.702365       -19.1123
   8   2.0000      -0.642265       -17.4769
   9   2.0000      -0.563378       -15.3303
  10   2.0000      -0.474411       -12.9094
  11   2.0000      -0.450529       -12.2595
  12   2.0000      -0.437829       -11.9139
  13   2.0000      -0.424894       -11.5620
  14   2.0000      -0.380873       -10.3641
  15   2.0000      -0.374200       -10.1825
  16   2.0000      -0.354086        -9.6352
  17   2.0000      -0.322876        -8.7859
  18   2.0000      -0.282935        -7.6991
  19   2.0000      -0.235378        -6.4050
  20   2.0000      -0.200197        -5.4476
  21   0.0000       0.063134         1.7180
  22   0.0000       0.086259         2.3472
  23   0.0000       0.106386         2.8949
  24   0.0000       0.117772         3.2047
  25   0.0000       0.127991         3.4828

MULLIKEN ATOMIC CHARGES
-----------------------
   0 C :   -0.289448
   1 O :   -0.251350
   2 C :   -0.135401
   3 C :   -0.278341
   4 N :   -0.528173
   5 H :    0.134482
   6 H :    0.149190
   7 H :    0.132876
   8 H :    0.121965
   9 H :    0.136989
  10 H :    0.156424
  11 H :    0.146073
  12 H :    0.263709
  13 H :    0.241005
Sum of atomic charges:   -0.0000000

LOEWDIN ATOMIC CHARGES
----------------------
   0 C :   -0.075020
   1 O :   -0.790505
   2 C :    0.006497
   3 C :   -0.078474
   4 N :   -0.713360
   5 H :    0.156780
   6 H :    0.175793
   7 H :    0.152568
   8 H :    0.162581
   9 H :    0.177828
  10 H :    0.173125
  11 H :    0.176295
  12 H :    0.241941
  13 H :    0.233951

  Mayer bond orders larger than 0.100000
B(  0-C ,  1-O ) :   0.8921 B(  0-C ,  5-H ) :   0.9683 B(  0-C ,  6-H ) :   0.9740
B(  0-C ,  7-H ) :   0.9591 B(  1-O ,  2-C ) :   0.9071 B(  2-C ,  3-C ) :   0.8917
B(  2-C ,  8-H ) :   0.9671 B(  2-C ,  9-H ) :   0.9657 B(  3-C ,  4-N ) :   0.9674
B(  3-C , 10-H ) :   0.9969 B(  3-C , 11-H ) :   0.9824 B(  4-N , 12-H ) :   0.9095
B(  4-N , 13-H ) :   0.9180

Dispersion correction           -0.002873268
FINAL SINGLE POINT ENERGY      -249.617791268939

DIPOLE MOMENT
-------------

Method             : SCF
Type of density    : Electron Density
Multiplicity       :   1
Irrep              :   0
Energy             :  -249.6277136962533234 Eh
Relativity type    :
Basis              : AO
                                X                 Y                 Z
Electronic contribution:     -0.105763381      -0.787953395      -1.731011090
Nuclear contribution   :      0.450559916       1.159912967       1.779672119
                        -----------------------------------------
Total Dipole Moment    :      0.344796535       0.371959572       0.048661029
                        -----------------------------------------
Magnitude (a.u.)       :      0.509515917
Magnitude (Debye)      :      1.295086538

Rotational constants in cm-1:             0.322564             0.099707             0.093647
Rotational constants in MHz :          9670.228584          2989.138859          2807.475174

                             ****ORCA TERMINATED NORMALLY****
TOTAL RUN TIME: 0 days 0 hours 0 minutes 16 seconds 246 msec
