                         Program Version 6.0.0  -   RELEASE  -
|  1> ! r2scan-3c def2/J RI DEFGRID2 scfconv6 printgap
|  2> %output
|  3>     printlevel normal
|  4> end
|  5> %cpcm
|  6>     smd true
|  7>     smdsolvent "water"
|  8> end
|  9> * xyz 0 1
| 10> C 1.8766937172 -0.3201689199 0.5521227882
| 11> O 1.0109986988 -0.194920918 -0.5576260268
| 12> C 0.0509864624 0.842172851 -0.4447456937
| 13> C -1.1403498145 0.4666047396 0.4561079519
| 14> N -1.8641599946 -0.7145731464 0.0166335864
| 15> H 2.3928041966 0.6257778822 0.7477873757
| 16> H 2.6006978216 -1.0844163894 0.2797793631
| 17> H 1.3405300786 -0.6304938563 1.4534937787
| 18> H 0.5274277062 1.760367413 -0.0763718282
| 19> H -0.2990123335 1.0074716243 -1.4678605393
| 20> H -0.7884797972 0.2805440256 1.4740868601
| 21> H -1.8328735712 1.3101152667 0.4839218259
| 22> H -1.204981215 -1.4809715501 -0.0869419861
| 23> H -2.2609449341 -0.544754822 -0.902194725
| 24> *
| 25>
| 26>                          ****END OF INPUT****

CARTESIAN COORDINATES (ANGSTROEM)
---------------------------------
  C      1.876694   -0.320169    0.552123
  O      1.010999   -0.194921   -0.557626
  C      0.050986    0.842173   -0.444746
  C     -1.140350    0.466605    0.456108
  N     -1.864160   -0.714573    0.016634
  H      2.392804    0.625778    0.747787
  H      2.600698   -1.084416    0.279779
  H      1.340530   -0.630494    1.453494
  H      0.527428    1.760367   -0.076372
  H     -0.299012    1.007472   -1.467861
  H     -0.788480    0.280544    1.474087
  H     -1.832874    1.310115    0.483922
  H     -1.204981   -1.480972   -0.086942
  H     -2.260945   -0.544755   -0.902195

 Total Charge           Charge          ....    0
 Multiplicity           Mult            ....    1
 Number of Electrons    NEL             ....   42
 Basis Dimension        Dim             ....  150

ORBITAL ENERGIES
----------------

  NO   OCC          E(Eh)            E(eV)
   0   2.0000     -18.955447      -515.8039
   1   2.0000     -14.131985      -384.5509
   2   2.0000     -10.065631      -273.8997
   3   2.0000     -10.061852      -273.7969
   4   2.0000     -10.043587      -273.2999
   5   2.0000      -0.997851       -27.1529
   6   2.0000      -0.841810       -22.9068
   7   2.0000      -0.695261       -18.9190
   8   2.0000      -0.633941       -17.2504
   9   2.0000      -0.555466       -15.1150
  10   2.0000      -0.467862       -12.7312
  11   2.0000      -0.444047       -12.0831
  12   2.0000      -0.432447       -11.7675
  13   2.0000      -0.419411       -11.4127
  14   2.0000      -0.375159       -10.2086
  15   2.0000      -0.365287        -9.9400
  16   2.0000      -0.344389        -9.3713
  17   2.0000      -0.313372        -8.5273
  18   2.0000      -0.282371        -7.6837
  19   2.0000      -0.236930        -6.4472
  20   2.0000      -0.201785        -5.4909
  21   0.0000       0.068879         1.8743
  22   0.0000       0.097625         2.6565
  23   0.0000       0.120420         3.2768
  24   0.0000       0.130919         3.5625
  25   0.0000       0.136253         3.7076

MULLIKEN ATOMIC CHARGES
-----------------------
   0 C :   -0.308819
   1 O :   -0.316595
   2 C :   -0.151161
   3 C :   -0.267841
   4 N :   -0.623764
   5 H :    0.153479
   6 H :    0.161946
   7 H :    0.153553
   8 H :    0.143503
   9 H :    0.153867
  10 H :    0.167586
  11 H :    0.159094
  12 H :    0.288874
  13 H :    0.286279
Sum of atomic charges:   -0.0000000

LOEWDIN ATOMIC CHARGES
----------------------
   0 C :   -0.075774
   1 O :   -0.828390
   2 C :    0.009870
   3 C :   -0.079282
   4 N :   -0.741059
   5 H :    0.165237
   6 H :    0.179660
   7 H :    0.162143
   8 H :    0.172736
   9 H :    0.183512
  10 H :    0.178043
  11 H :    0.182475
  12 H :    0.246481
  13 H :    0.244347

  Mayer bond orders larger than 0.100000
B(  0-C ,  1-O ) :   0.8833 B(  0-C ,  5-H ) :   0.9629 B(  0-C ,  6-H ) :   0.9679
B(  0-C ,  7-H ) :   0.9547 B(  1-O ,  2-C ) :   0.9001 B(  2-C ,  3-C ) :   0.9095
B(  2-C ,  8-H ) :   0.9603 B(  2-C ,  9-H ) :   0.9642 B(  3-C ,  4-N ) :   0.9702
B(  3-C , 10-H ) :   0.9854 B(  3-C , 11-H ) :   0.9711 B(  4-N , 12-H ) :   0.8986
B(  4-N , 13-H ) :   0.9007

Dispersion correction           -0.002873268
FINAL SINGLE POINT ENERGY      -249.627543625311

DIPOLE MOMENT
-------------

Method             : SCF
Type of density    : Electron Density
Multiplicity       :   1
Irrep              :   0
Energy             :  -249.6374660526244895 Eh
Relativity type    :
Basis              : AO
                                X                 Y                 Z
Electronic contribution:     -0.022116579      -0.592067220      -1.659457688
Nuclear contribution   :      0.450559916       1.159912967       1.779672119
                        -----------------------------------------
Total Dipole Moment    :      0.428443337       0.567845747       0.120214431
                        -----------------------------------------
Magnitude (a.u.)       :      0.721431906
Magnitude (Debye)      :      1.833734176

Rotational constants in cm-1:             0.322564             0.099707             0.093647
Rotational constants in MHz :          9670.228584          2989.138859          2807.475174

                             ****ORCA TERMINATED NORMALLY****
TOTAL RUN TIME: 0 days 0 hours 0 minutes 19 seconds 152 msec
