                         Program Version 6.0.0  -   RELEASE  -
|  1> ! r2scan-3c def2/J RI DEFGRID2 scfconv6 printgap
|  2> %output
|  3>     printlevel normal
|  4> end
|  5> * xyz 0 1
|  6> C 1.7910177088 0.5632361144 -1.0889968622
|  7> C 1.0679515386 -0.1799285262 0.0304396292
|  8> H 0.6856586927 -1.1323571024 -0.3646781972
|  9> C -0.0918802739 0.6437402751 0.6236817358
| 10> C -1.5018922447 0.2800843243 0.1319212838
| 11> C -1.6448570045 0.4065438313 -1.3828509357
| 12> C -1.9303043676 -1.1117605895 0.5959989855
| 13> O 2.0541172271 -0.4673434159 1.0160396447
| 14> H 1.1034083544 0.8160681735 -1.888003765
| 15> H 2.233114771 1.4725254538 -0.6896245505
| 16> H 2.5897355373 -0.0594209604 -1.4840924989
| 17> H -0.0739205702 0.5223855037 1.7099438182
| 18> H 0.0918283326 1.7003574884 0.4199794117
| 19> H -2.1826619479 1.0057274735 0.593215393
| 20> H -2.6812842157 0.249449171 -1.6729873154
| 21> H -1.034485912 -0.3337954321 -1.8935133112
| 22> H -1.3444538335 1.3975755209 -1.7141420936
| 23> H -1.86532665 -1.1924609542 1.6785331263
| 24> H -2.9595533507 -1.3019689949 0.3013127823
| 25> H -1.3067675226 -1.8837990938 0.1521206999
| 26> H 1.6651787657 -1.0146189919 1.7103918413
| 27> *
| 28>
| 29>                          ****END OF INPUT****

CARTESIAN COORDINATES (ANGSTROEM)
---------------------------------
  C      1.791018    0.563236   -1.088997
  C      1.067952   -0.179929    0.030440
  H      0.685659   -1.132357   -0.364678
  C     -0.091880    0.643740    0.623682
  C     -1.501892    0.280084    0.131921
  C     -1.644857    0.406544   -1.382851
  C     -1.930304   -1.111761    0.595999
  O      2.054117   -0.467343    1.016040
  H      1.103408    0.816068   -1.888004
  H      2.233115    1.472525   -0.689625
  H      2.589736   -0.059421   -1.484092
  H     -0.073921    0.522386    1.709944
  H      0.091828    1.700357    0.419979
  H     -2.182662    1.005727    0.593215
  H     -2.681284    0.249449   -1.672987
  H     -1.034486   -0.333795   -1.893513
  H     -1.344454    1.397576   -1.714142
  H     -1.865327   -1.192461    1.678533
  H     -2.959553   -1.301969    0.301313
  H     -1.306768   -1.883799    0.152121
  H      1.665179   -1.014619    1.710392

 Total Charge           Charge          ....    0
 Multiplicity           Mult            ....    1
 Number of Electrons    NEL             ....   58
 Basis Dimension        Dim             ....  208

ORBITAL ENERGIES
----------------

  NO   OCC          E(Eh)            E(eV)
   0   2.0000     -18.941463      -515.4234
   1   2.0000     -10.079147      -274.2675
   2   2.0000     -10.038065      -273.1496
   3   2.0000     -10.022286      -272.7203
   4   2.0000     -10.019402      -272.6418
   5   2.0000     -10.018684      -272.6222
   6   2.0000     -10.013756      -272.4882
   7   2.0000      -0.978894       -26.6371
   8   2.0000      -0.780664       -21.2429
   9   2.0000      -0.718197       -19.5431
  10   2.0000      -0.655469       -17.8362
  11   2.0000      -0.649836       -17.6829
  12   2.0000      -0.566524       -15.4159
  13   2.0000      -0.520488       -14.1632
  14   2.0000      -0.484009       -13.1706
  15   2.0000      -0.423833       -11.5331
  16   2.0000      -0.420915       -11.4537
  17   2.0000      -0.413306       -11.2466
  18   2.0000      -0.386234       -10.5100
  19   2.0000      -0.371084       -10.0977
  20   2.0000      -0.358958        -9.7678
  21   2.0000      -0.346431        -9.4269
  22   2.0000      -0.336607        -9.1595
  23   2.0000      -0.323315        -8.7979
  24   2.0000      -0.313751        -8.5376
  25   2.0000      -0.299149        -8.1403
  26   2.0000      -0.292892        -7.9700
  27   2.0000      -0.277761        -7.5583
  28   2.0000      -0.228359        -6.2140
  29   0.0000       0.058507         1.5921
  30   0.0000       0.082668         2.2495
  31   0.0000       0.105049         2.8585
  32   0.0000       0.115497         3.1428
  33   0.0000       0.128065         3.4848

MULLIKEN ATOMIC CHARGES
-----------------------
   0 C :   -0.525666
   1 C :    0.046072
   2 H :    0.132179
   3 C :   -0.286424
   4 C :   -0.033552
   5 C :   -0.519166
   6 C :   -0.495065
   7 O :   -0.428455
   8 H :    0.152429
   9 H :    0.160612
  10 H :    0.154749
  11 H :    0.154333
  12 H :    0.154000
  13 H :    0.147739
  14 H :    0.146682
  15 H :    0.157833
  16 H :    0.155407
  17 H :    0.149030
  18 H :    0.147785
  19 H :    0.147178
  20 H :    0.282299
Sum of atomic charges:    0.0000000

LOEWDIN ATOMIC CHARGES
----------------------
   0 C :   -0.383155
   1 C :    0.050423
   2 H :    0.159113
   3 C :   -0.281113
   4 C :   -0.243782
   5 C :   -0.418761
   6 C :   -0.419887
   7 O :   -0.617181
   8 H :    0.157950
   9 H :    0.162389
  10 H :    0.161235
  11 H :    0.167143
  12 H :    0.164484
  13 H :    0.156215
  14 H :    0.153687
  15 H :    0.153072
  16 H :    0.154480
  17 H :    0.152906
  18 H :    0.154795
  19 H :    0.150524
  20 H :    0.265462

  Mayer bond orders larger than 0.100000
B(  0-C ,  1-C ) :   0.9180 B(  0-C ,  8-H ) :   0.9668 B(  0-C ,  9-H ) :   0.9882
B(  0-C , 10-H ) :   0.9708 B(  1-C ,  2-H ) :   0.9687 B(  1-C ,  3-C ) :   0.8324
B(  1-C ,  7-O ) :   0.8634 B(  3-C ,  4-C ) :   0.8793 B(  3-C , 11-H ) :   0.9933
B(  3-C , 12-H ) :   0.9654 B(  4-C ,  5-C ) :   0.8853 B(  4-C ,  6-C ) :   0.9210
B(  4-C , 13-H ) :   0.9695 B(  5-C , 14-H ) :   0.9683 B(  5-C , 15-H ) :   0.9775
B(  5-C , 16-H ) :   0.9744 B(  6-C , 17-H ) :   0.9790 B(  6-C , 18-H ) :   0.9717
B(  6-C , 19-H ) :   0.9763 B(  7-O , 20-H ) :   0.9021

Dispersion correction           -0.005729471
FINAL SINGLE POINT ENERGY      -312.199021547136

DIPOLE MOMENT
-------------

Method             : SCF
Type of density    : Electron Density
Multiplicity       :   1
Irrep              :   0
Energy             :  -312.2045227539924781 Eh
Relativity type    :
Basis              : AO
                                X                 Y                 Z
Electronic contribution:      4.084313496      -0.346530145       2.952325628
Nuclear contribution   :     -4.734944770       0.223540325      -2.932203866
                        -----------------------------------------
Total Dipole Moment    :     -0.650631274      -0.122989820       0.020121762
                        -----------------------------------------
Magnitude (a.u.)       :      0.662459384
Magnitude (Debye)      :      1.683837938

Rotational constants in cm-1:             0.125386             0.055846             0.044803
Rotational constants in MHz :          3758.963396          1674.224620          1343.158001

                             ****ORCA TERMINATED NORMALLY****
TOTAL RUN TIME: 0 days 0 hours 0 minutes 28 seconds 238 msec
