                         Program Version 6.0.0  -   RELEASE  -
|  1> ! r2scan-3c def2/J RI DEFGRID2 scfconv6 printgap
|  2> %output
|  3>     printlevel normal
|  4> end
|  5> %cpcm
|  6>     smd true
|  7>     smdsolvent "water"
|  8> end
|  9> * xyz 0 1
| 10> C 1.7910177088 0.5632361144 -1.0889968622
| 11> C 1.0679515386 -0.1799285262 0.0304396292
| 12> H 0.6856586927 -1.1323571024 -0.3646781972
| 13> C -0.0918802739 0.6437402751 0.6236817358
| 14> C -1.5018922447 0.2800843243 0.1319212838
| 15> C -1.6448570045 0.4065438313 -1.3828509357
| 16> C -1.9303043676 -1.1117605895 0.5959989855
| 17> O 2.0541172271 -0.4673434159 1.0160396447
| 18> H 1.1034083544 0.8160681735 -1.888003765
| 19> H 2.233114771 1.4725254538 -0.6896245505
| 20> H 2.5897355373 -0.0594209604 -1.4840924989
| 21> H -0.0739205702 0.5223855037 1.7099438182
| 22> H 0.0918283326 1.7003574884 0.4199794117
| 23> H -2.1826619479 1.0057274735 0.593215393
| 24> H -2.6812842157 0.249449171 -1.6729873154
| 25> H -1.034485912 -0.3337954321 -1.8935133112
| 26> H -1.3444538335 1.3975755209 -1.7141420936
| 27> H -1.86532665 -1.1924609542 1.6785331263
| 28> H -2.9595533507 -1.3019689949 0.3013127823
| 29> H -1.3067675226 -1.8837990938 0.1521206999
| 30> H 1.6651787657 -1.0146189919 1.7103918413
| 31> *
| 32>
| 33>                          ****END OF INPUT****

CARTESIAN COORDINATES (ANGSTROEM)
---------------------------------
  C      1.791018    0.563236   -1.088997
  C      1.067952   -0.179929    0.030440
  H      0.685659   -1.132357   -0.364678
  C     -0.091880    0.643740    0.623682
  C     -1.501892    0.280084    0.131921
  C     -1.644857    0.406544   -1.382851
  C     -1.930304   -1.111761    0.595999
  O      2.054117   -0.467343    1.016040
  H      1.103408    0.816068   -1.888004
  H      2.233115    1.472525   -0.689625
  H      2.589736   -0.059421   -1.484092
  H     -0.073921    0.522386    1.709944
  H      0.091828    1.700357    0.419979
  H     -2.182662    1.005727    0.593215
  H     -2.681284    0.249449   -1.672987
  H     -1.034486   -0.333795   -1.893513
  H     -1.344454    1.397576   -1.714142
  H     -1.865327   -1.192461    1.678533
  H     -2.959553   -1.301969    0.301313
  H     -1.306768   -1.883799    0.152121
  H      1.665179   -1.014619    1.710392

 Total Charge           Charge          ....    0
 Multiplicity           Mult            ....    1
 Number of Electrons    NEL             ....   58
 Basis Dimension        Dim             ....  208

ORBITAL ENERGIES
----------------

  NO   OCC          E(Eh)            E(eV)
   0   2.0000     -18.946155      -515.5511
   1   2.0000     -10.073952      -274.1262
   2   2.0000     -10.026500      -272.8349
   3   2.0000     -10.012623      -272.4573
   4   2.0000     -10.009304      -272.3670
   5   2.0000     -10.005930      -272.2752
   6   2.0000     -10.005703      -272.2690
   7   2.0000      -0.982256       -26.7285
   8   2.0000      -0.769818       -20.9478
   9   2.0000      -0.712473       -19.3874
  10   2.0000      -0.644687       -17.5428
  11   2.0000      -0.639839       -17.4109
  12   2.0000      -0.560662       -15.2564
  13   2.0000      -0.511915       -13.9299
  14   2.0000      -0.479679       -13.0527
  15   2.0000      -0.415555       -11.3078
  16   2.0000      -0.410794       -11.1783
  17   2.0000      -0.404573       -11.0090
  18   2.0000      -0.377684       -10.2773
  19   2.0000      -0.364690        -9.9237
  20   2.0000      -0.351778        -9.5724
  21   2.0000      -0.337965        -9.1965
  22   2.0000      -0.331821        -9.0293
  23   2.0000      -0.315452        -8.5839
  24   2.0000      -0.306764        -8.3475
  25   2.0000      -0.289637        -7.8814
  26   2.0000      -0.283093        -7.7034
  27   2.0000      -0.273210        -7.4344
  28   2.0000      -0.231648        -6.3035
  29   0.0000       0.075971         2.0673
  30   0.0000       0.093196         2.5360
  31   0.0000       0.116047         3.1578
  32   0.0000       0.126285         3.4364
  33   0.0000       0.139263         3.7895

MULLIKEN ATOMIC CHARGES
-----------------------
   0 C :   -0.564104
   1 C :    0.062224
   2 H :    0.149993
   3 C :   -0.299362
   4 C :   -0.025940
   5 C :   -0.555429
   6 C :   -0.533388
   7 O :   -0.518988
   8 H :    0.171179
   9 H :    0.168032
  10 H :    0.160562
  11 H :    0.164247
  12 H :    0.161750
  13 H :    0.153933
  14 H :    0.156841
  15 H :    0.169158
  16 H :    0.163845
  17 H :    0.159969
  18 H :    0.157254
  19 H :    0.159933
  20 H :    0.338290
Sum of atomic charges:   -0.0000000

LOEWDIN ATOMIC CHARGES
----------------------
   0 C :   -0.392707
   1 C :    0.051409
   2 H :    0.168680
   3 C :   -0.282992
   4 C :   -0.239546
   5 C :   -0.426067
   6 C :   -0.426796
   7 O :   -0.655536
   8 H :    0.165756
   9 H :    0.162245
  10 H :    0.160212
  11 H :    0.171916
  12 H :    0.165692
  13 H :    0.158496
  14 H :    0.155503
  15 H :    0.156333
  16 H :    0.156675
  17 H :    0.156162
  18 H :    0.156073
  19 H :    0.154386
  20 H :    0.284106

  Mayer bond orders larger than 0.100000
B(  0-C ,  1-C ) :   0.9106 B(  0-C ,  8-H ) :   0.9613 B(  0-C ,  9-H ) :   0.9839
B(  0-C , 10-H ) :   0.9711 B(  1-C ,  2-H ) :   0.9605 B(  1-C ,  3-C ) :   0.8413
B(  1-C ,  7-O ) :   0.8463 B(  3-C ,  4-C ) :   0.8868 B(  3-C , 11-H ) :   0.9852
B(  3-C , 12-H ) :   0.9645 B(  4-C ,  5-C ) :   0.8807 B(  4-C ,  6-C ) :   0.9195
B(  4-C , 13-H ) :   0.9696 B(  5-C , 14-H ) :   0.9674 B(  5-C , 15-H ) :   0.9757
B(  5-C , 16-H ) :   0.9711 B(  6-C , 17-H ) :   0.9744 B(  6-C , 18-H ) :   0.9714
B(  6-C , 19-H ) :   0.9740 B(  7-O , 20-H ) :   0.8756

Dispersion correction           -0.005729471
FINAL SINGLE POINT ENERGY      -312.205225974597

DIPOLE MOMENT
-------------

Method             : SCF
Type of density    : Electron Density
Multiplicity       :   1
Irrep              :   0
Energy             :  -312.2107271814539899 Eh
Relativity type    :
Basis              : AO
                                X                 Y                 Z
Electronic contribution:      3.816103032      -0.440875987       2.962074473
Nuclear contribution   :     -4.734944770       0.223540325      -2.932203866
                        -----------------------------------------
Total Dipole Moment    :     -0.918841738      -0.217335662       0.029870607
                        -----------------------------------------
Magnitude (a.u.)       :      0.944667763
Magnitude (Debye)      :      2.401154631

Rotational constants in cm-1:             0.125386             0.055846             0.044803
Rotational constants in MHz :          3758.963396          1674.224620          1343.158001

                             ****ORCA TERMINATED NORMALLY****
TOTAL RUN TIME: 0 days 0 hours 0 minutes 33 seconds 399 msec
