                         Program Version 6.0.0  -   RELEASE  -
|  1> ! pbe def2-sv(p) def2/J RI DEFGRID1 loosescf d4 GCP(DFT/SV(P)) printgap
|  2> %output
|  3>     printlevel normal
|  4> end
|  5> * xyz 0 1
|  6> C -2.2250443037 1.2559675398 0.2808919683
|  7> C -1.8884178657 -0.1027796992 -0.31713934
|  8> C -0.457503794 -0.5336362837 -0.1189004652
|  9> O -0.0365243315 -1.6263038102 -0.4491953338
| 10> O 0.2908574834 0.3946098811 0.4557755243
| 11> C 1.6805318297 0.1118090838 0.6826916098
| 12> C 2.5189945043 0.4710613781 -0.5345482146
| 13> H -1.6126856828 2.0333894596 -0.1665589484
| 14> H -3.2710690073 1.4851069957 0.0993327329
| 15> H -2.0471070741 1.2563918888 1.3525915998
| 16> H -2.0694629358 -0.1057931621 -1.3947087182
| 17> H -2.5178903244 -0.8864440213 0.1097311064
| 18> H 1.948523014 0.7247561567 1.5438549402
| 19> H 1.7868507923 -0.9505884159 0.9227753699
| 20> H 2.3669499992 1.5137043445 -0.7999873629
| 21> H 3.567829775 0.3073634999 -0.3097441081
| 22> H 2.2371710355 -0.1550739851 -1.3782695975
| 23> *
| 24>
| 25>                          ****END OF INPUT****

CARTESIAN COORDINATES (ANGSTROEM)
---------------------------------
  C     -2.225044    1.255968    0.280892
  C     -1.888418   -0.102780   -0.317139
  C     -0.457504   -0.533636   -0.118900
  O     -0.036524   -1.626304   -0.449195
  O      0.290857    0.394610    0.455776
  C      1.680532    0.111809    0.682692
  C      2.518995    0.471061   -0.534548
  H     -1.612686    2.033389   -0.166559
  H     -3.271069    1.485107    0.099333
  H     -2.047107    1.256392    1.352592
  H     -2.069463   -0.105793   -1.394709
  H     -2.517890   -0.886444    0.109731
  H      1.948523    0.724756    1.543855
  H      1.786851   -0.950588    0.922775
  H      2.366950    1.513704   -0.799987
  H      3.567830    0.307363   -0.309744
  H      2.237171   -0.155074   -1.378270

 Total Charge           Charge          ....    0
 Multiplicity           Mult            ....    1
 Number of Electrons    NEL             ....   56
 Basis Dimension        Dim             ....  118

ORBITAL ENERGIES
----------------

  NO   OCC          E(Eh)            E(eV)
   0   2.0000     -18.799080      -511.5490
   1   2.0000     -18.726660      -509.5783
   2   2.0000     -10.004538      -272.2373
   3   2.0000      -9.947133      -270.6752
   4   2.0000      -9.900088      -269.3951
   5   2.0000      -9.887333      -269.0480
   6   2.0000      -9.880761      -268.8692
   7   2.0000      -1.005402       -27.3584
   8   2.0000      -0.905124       -24.6297
   9   2.0000      -0.721788       -19.6409
  10   2.0000      -0.684711       -18.6319
  11   2.0000      -0.602969       -16.4076
  12   2.0000      -0.569620       -15.5002
  13   2.0000      -0.497320       -13.5328
  14   2.0000      -0.453376       -12.3370
  15   2.0000      -0.434530       -11.8242
  16   2.0000      -0.407853       -11.0982
  17   2.0000      -0.393003       -10.6942
  18   2.0000      -0.390311       -10.6209
  19   2.0000      -0.361748        -9.8437
  20   2.0000      -0.344839        -9.3835
  21   2.0000      -0.340153        -9.2560
  22   2.0000      -0.330999        -9.0069
  23   2.0000      -0.319467        -8.6931
  24   2.0000      -0.304432        -8.2840
  25   2.0000      -0.291287        -7.9263
  26   2.0000      -0.253474        -6.8974
  27   2.0000      -0.213263        -5.8032
  28   0.0000      -0.017987        -0.4895
  29   0.0000       0.038933         1.0594
  30   0.0000       0.054276         1.4769
  31   0.0000       0.079972         2.1761
  32   0.0000       0.085914         2.3378

MULLIKEN ATOMIC CHARGES
-----------------------
   0 C :   -0.253493
   1 C :   -0.209136
   2 C :    0.120436
   3 O :   -0.219089
   4 O :   -0.234085
   5 C :   -0.014379
   6 C :   -0.303631
   7 H :    0.106127
   8 H :    0.100674
   9 H :    0.106262
  10 H :    0.120356
  11 H :    0.118844
  12 H :    0.100862
  13 H :    0.109030
  14 H :    0.112161
  15 H :    0.112387
  16 H :    0.126673
Sum of atomic charges:    0.0000000

LOEWDIN ATOMIC CHARGES
----------------------
   0 C :   -0.342784
   1 C :   -0.256054
   2 C :    0.034745
   3 O :   -0.179588
   4 O :   -0.059276
   5 C :   -0.112490
   6 C :   -0.355771
   7 H :    0.121560
   8 H :    0.120539
   9 H :    0.121808
  10 H :    0.143629
  11 H :    0.142696
  12 H :    0.116534
  13 H :    0.119832
  14 H :    0.123686
  15 H :    0.130370
  16 H :    0.130564

  Mayer bond orders larger than 0.100000
B(  0-C ,  1-C ) :   1.1526 B(  0-C ,  7-H ) :   0.9528 B(  0-C ,  8-H ) :   0.9443
B(  0-C ,  9-H ) :   0.9568 B(  1-C ,  2-C ) :   1.0336 B(  1-C , 10-H ) :   0.9029
B(  1-C , 11-H ) :   0.9059 B(  2-C ,  3-O ) :   2.0316 B(  2-C ,  4-O ) :   1.2307
B(  4-O ,  5-C ) :   0.9198 B(  5-C ,  6-C ) :   1.1736 B(  5-C , 12-H ) :   0.9370
B(  5-C , 13-H ) :   0.9131 B(  6-C , 14-H ) :   0.9494 B(  6-C , 15-H ) :   0.9447
B(  6-C , 16-H ) :   0.9461

Dispersion correction           -0.012087559
FINAL SINGLE POINT ENERGY      -346.243895439608

DIPOLE MOMENT
-------------

Method             : SCF
Type of density    : Electron Density
Multiplicity       :   1
Irrep              :   0
Energy             :  -346.3088160441137688 Eh
Relativity type    :
Basis              : AO
                                X                 Y                 Z
Electronic contribution:     -0.252495583      -4.190076555       0.240362188
Nuclear contribution   :      0.368820640       4.881610344      -0.019587990
                        -----------------------------------------
Total Dipole Moment    :      0.116325057       0.691533789       0.220774198
                        -----------------------------------------
Magnitude (a.u.)       :      0.735181438
Magnitude (Debye)      :      1.868682709

Rotational constants in cm-1:             0.153930             0.056542             0.046351
Rotational constants in MHz :          4614.702696          1695.073434          1389.561904

                             ****ORCA TERMINATED NORMALLY****
TOTAL RUN TIME: 0 days 0 hours 0 minutes 9 seconds 373 msec
