                         Program Version 6.0.0  -   RELEASE  -
|  1> ! r2scan-3c def2/J RI DEFGRID2 scfconv6 printgap
|  2> %output
|  3>     printlevel normal
|  4> end
|  5> %cpcm
|  6>     smd true
|  7>     smdsolvent "water"
|  8> end
|  9> * xyz 0 1
| 10> C -2.2998859859 0.2517023983 1.0891448251
| 11> C -1.8186994457 0.4546305886 -0.3509795511
| 12> C -0.4526361161 -0.1626966869 -0.5014090405
| 13> O -0.2461646116 -1.330612497 -0.7596056997
| 14> O 0.5081624292 0.7273369337 -0.2914135241
| 15> C 1.8755539994 0.2853242245 -0.3222803926
| 16> C 2.3287213339 -0.1791731416 1.0533844626
| 17> H -2.3302621994 -0.8087133294 1.3285395832
| 18> H -1.6293826447 0.7489745276 1.785393822
| 19> H -3.2966391142 0.666301932 1.2045393048
| 20> H -1.7535984119 1.5173919887 -0.578216179
| 21> H -2.5005243755 -0.0401518794 -1.0418021247
| 22> H 1.9630567363 -0.5252965815 -1.0521043721
| 23> H 2.4410867427 1.1568251625 -0.6535068894
| 24> H 1.7496470921 -1.0463654374 1.3631224459
| 25> H 3.3780274983 -0.4524521417 1.0132635929
| 26> H 2.1924820173 0.6164560838 1.7807925081
| 27> *
| 28>
| 29>                          ****END OF INPUT****

CARTESIAN COORDINATES (ANGSTROEM)
---------------------------------
  C     -2.299886    0.251702    1.089145
  C     -1.818699    0.454631   -0.350980
  C     -0.452636   -0.162697   -0.501409
  O     -0.246165   -1.330612   -0.759606
  O      0.508162    0.727337   -0.291414
  C      1.875554    0.285324   -0.322280
  C      2.328721   -0.179173    1.053384
  H     -2.330262   -0.808713    1.328540
  H     -1.629383    0.748975    1.785394
  H     -3.296639    0.666302    1.204539
  H     -1.753598    1.517392   -0.578216
  H     -2.500524   -0.040152   -1.041802
  H      1.963057   -0.525297   -1.052104
  H      2.441087    1.156825   -0.653507
  H      1.749647   -1.046365    1.363122
  H      3.378027   -0.452452    1.013264
  H      2.192482    0.616456    1.780793

 Total Charge           Charge          ....    0
 Multiplicity           Mult            ....    1
 Number of Electrons    NEL             ....   56
 Basis Dimension        Dim             ....  193

ORBITAL ENERGIES
----------------

  NO   OCC          E(Eh)            E(eV)
   0   2.0000     -19.002374      -517.0809
   1   2.0000     -18.943029      -515.4660
   2   2.0000     -10.161895      -276.5192
   3   2.0000     -10.083057      -274.3739
   4   2.0000     -10.037261      -273.1278
   5   2.0000     -10.022486      -272.7257
   6   2.0000     -10.018437      -272.6155
   7   2.0000      -1.078673       -29.3522
   8   2.0000      -0.988678       -26.9033
   9   2.0000      -0.761377       -20.7181
  10   2.0000      -0.723149       -19.6779
  11   2.0000      -0.636971       -17.3329
  12   2.0000      -0.592433       -16.1209
  13   2.0000      -0.520226       -14.1561
  14   2.0000      -0.472076       -12.8458
  15   2.0000      -0.459992       -12.5170
  16   2.0000      -0.442111       -12.0305
  17   2.0000      -0.412108       -11.2140
  18   2.0000      -0.400979       -10.9112
  19   2.0000      -0.376354       -10.2411
  20   2.0000      -0.367415        -9.9979
  21   2.0000      -0.346779        -9.4363
  22   2.0000      -0.332499        -9.0478
  23   2.0000      -0.326822        -8.8933
  24   2.0000      -0.317080        -8.6282
  25   2.0000      -0.304081        -8.2745
  26   2.0000      -0.277941        -7.5632
  27   2.0000      -0.249992        -6.8026
  28   0.0000      -0.022490        -0.6120
  29   0.0000       0.078103         2.1253
  30   0.0000       0.100114         2.7242
  31   0.0000       0.125659         3.4193
  32   0.0000       0.134658         3.6642

MULLIKEN ATOMIC CHARGES
-----------------------
   0 C :   -0.492561
   1 C :   -0.312880
   2 C :    0.451701
   3 O :   -0.516309
   4 O :   -0.196441
   5 C :   -0.145451
   6 C :   -0.491388
   7 H :    0.166183
   8 H :    0.164619
   9 H :    0.173311
  10 H :    0.174444
  11 H :    0.176043
  12 H :    0.171864
  13 H :    0.173467
  14 H :    0.166813
  15 H :    0.170505
  16 H :    0.166079
Sum of atomic charges:    0.0000000

LOEWDIN ATOMIC CHARGES
----------------------
   0 C :   -0.393956
   1 C :   -0.233346
   2 C :    0.365292
   3 O :   -0.495071
   4 O :   -0.597459
   5 C :    0.031959
   6 C :   -0.393194
   7 H :    0.160793
   8 H :    0.160454
   9 H :    0.160698
  10 H :    0.182261
  11 H :    0.180828
  12 H :    0.190117
  13 H :    0.188761
  14 H :    0.162189
  15 H :    0.167799
  16 H :    0.161876

  Mayer bond orders larger than 0.100000
B(  0-C ,  1-C ) :   0.8836 B(  0-C ,  7-H ) :   0.9733 B(  0-C ,  8-H ) :   0.9712
B(  0-C ,  9-H ) :   0.9655 B(  1-C ,  2-C ) :   0.9506 B(  1-C , 10-H ) :   0.9691
B(  1-C , 11-H ) :   0.9660 B(  2-C ,  3-O ) :   1.7661 B(  2-C ,  4-O ) :   1.0719
B(  4-O ,  5-C ) :   0.7958 B(  5-C ,  6-C ) :   0.9363 B(  5-C , 12-H ) :   0.9620
B(  5-C , 13-H ) :   0.9529 B(  6-C , 14-H ) :   0.9685 B(  6-C , 15-H ) :   0.9608
B(  6-C , 16-H ) :   0.9701

Dispersion correction           -0.004043482
FINAL SINGLE POINT ENERGY      -346.941263911964

DIPOLE MOMENT
-------------

Method             : SCF
Type of density    : Electron Density
Multiplicity       :   1
Irrep              :   0
Energy             :  -346.9476153751565448 Eh
Relativity type    :
Basis              : AO
                                X                 Y                 Z
Electronic contribution:      0.030878741      -0.658359030      -4.387183417
Nuclear contribution   :      0.204552138       1.710688382       4.815998862
                        -----------------------------------------
Total Dipole Moment    :      0.235430879       1.052329352       0.428815445
                        -----------------------------------------
Magnitude (a.u.)       :      1.160477251
Magnitude (Debye)      :      2.949698755

Rotational constants in cm-1:             0.155821             0.052991             0.049187
Rotational constants in MHz :          4671.405915          1588.621205          1474.583488

                             ****ORCA TERMINATED NORMALLY****
TOTAL RUN TIME: 0 days 0 hours 0 minutes 25 seconds 100 msec
