                         Program Version 6.0.0  -   RELEASE  -
|  1> ! pbe def2-sv(p) def2/J RI DEFGRID1 loosescf d4 GCP(DFT/SV(P)) printgap
|  2> %output
|  3>     printlevel normal
|  4> end
|  5> * xyz 0 1
|  6> C -2.0346957314 0.7336094391 0.7909042735
|  7> C -1.0848539056 0.4895471524 -0.3759852176
|  8> C 0.0330448385 -0.5175207923 -0.0333875721
|  9> C 1.4353519281 0.0478890877 -0.2991150297
| 10> C 1.8293983271 1.1262704741 0.7023774684
| 11> O -0.1483063368 -1.7495530433 -0.7154060842
| 12> H -2.4969109218 -0.1999553419 1.1031654143
| 13> H -1.4977472091 1.1533702338 1.6382982943
| 14> H -2.8199083739 1.4278825379 0.5013434677
| 15> H -1.6560575098 0.0945456242 -1.2188452586
| 16> H -0.6458193926 1.4376157657 -0.6892537553
| 17> H -0.0370431521 -0.7952804446 1.0243510561
| 18> H 2.1468329279 -0.7789590554 -0.2370397439
| 19> H 1.4743542611 0.4515698174 -1.314054256
| 20> H 2.8292019383 1.4922790143 0.4837145543
| 21> H 1.1405535104 1.9660919336 0.6636358636
| 22> H 1.8225696078 0.7242225913 1.7127569935
| 23> H -0.0299371615 -1.60223784 -1.6639965306
| 24> *
| 25>
| 26>                          ****END OF INPUT****

CARTESIAN COORDINATES (ANGSTROEM)
---------------------------------
  C     -2.034696    0.733609    0.790904
  C     -1.084854    0.489547   -0.375985
  C      0.033045   -0.517521   -0.033388
  C      1.435352    0.047889   -0.299115
  C      1.829398    1.126270    0.702377
  O     -0.148306   -1.749553   -0.715406
  H     -2.496911   -0.199955    1.103165
  H     -1.497747    1.153370    1.638298
  H     -2.819908    1.427883    0.501343
  H     -1.656058    0.094546   -1.218845
  H     -0.645819    1.437616   -0.689254
  H     -0.037043   -0.795280    1.024351
  H      2.146833   -0.778959   -0.237040
  H      1.474354    0.451570   -1.314054
  H      2.829202    1.492279    0.483715
  H      1.140554    1.966092    0.663636
  H      1.822570    0.724223    1.712757
  H     -0.029937   -1.602238   -1.663997

 Total Charge           Charge          ....    0
 Multiplicity           Mult            ....    1
 Number of Electrons    NEL             ....   50
 Basis Dimension        Dim             ....  108

ORBITAL ENERGIES
----------------

  NO   OCC          E(Eh)            E(eV)
   0   2.0000     -18.733602      -509.7672
   1   2.0000      -9.930734      -270.2290
   2   2.0000      -9.882681      -268.9214
   3   2.0000      -9.881689      -268.8944
   4   2.0000      -9.877962      -268.7930
   5   2.0000      -9.874447      -268.6974
   6   2.0000      -0.912051       -24.8182
   7   2.0000      -0.714532       -19.4434
   8   2.0000      -0.675992       -18.3947
   9   2.0000      -0.597625       -16.2622
  10   2.0000      -0.545487       -14.8435
  11   2.0000      -0.526908       -14.3379
  12   2.0000      -0.439537       -11.9604
  13   2.0000      -0.409150       -11.1335
  14   2.0000      -0.401976       -10.9383
  15   2.0000      -0.385254       -10.4833
  16   2.0000      -0.364528        -9.9193
  17   2.0000      -0.338624        -9.2144
  18   2.0000      -0.334997        -9.1157
  19   2.0000      -0.314266        -8.5516
  20   2.0000      -0.308041        -8.3822
  21   2.0000      -0.301221        -8.1966
  22   2.0000      -0.284313        -7.7366
  23   2.0000      -0.259463        -7.0603
  24   2.0000      -0.205858        -5.6017
  25   0.0000       0.035224         0.9585
  26   0.0000       0.040469         1.1012
  27   0.0000       0.064961         1.7677
  28   0.0000       0.069785         1.8989
  29   0.0000       0.081068         2.2060

MULLIKEN ATOMIC CHARGES
-----------------------
   0 C :   -0.301318
   1 C :   -0.153569
   2 C :    0.041192
   3 C :   -0.190674
   4 C :   -0.286952
   5 O :   -0.429374
   6 H :    0.113568
   7 H :    0.104501
   8 H :    0.101490
   9 H :    0.074461
  10 H :    0.087558
  11 H :    0.069308
  12 H :    0.090334
  13 H :    0.074346
  14 H :    0.106712
  15 H :    0.105625
  16 H :    0.103141
  17 H :    0.289653
Sum of atomic charges:    0.0000000

LOEWDIN ATOMIC CHARGES
----------------------
   0 C :   -0.339511
   1 C :   -0.247915
   2 C :   -0.050769
   3 C :   -0.249235
   4 C :   -0.341079
   5 O :   -0.330083
   6 H :    0.121675
   7 H :    0.116031
   8 H :    0.118151
   9 H :    0.117442
  10 H :    0.113091
  11 H :    0.109850
  12 H :    0.117801
  13 H :    0.109315
  14 H :    0.122233
  15 H :    0.116619
  16 H :    0.119423
  17 H :    0.276960

  Mayer bond orders larger than 0.100000
B(  0-C ,  1-C ) :   1.1543 B(  0-C ,  6-H ) :   0.9531 B(  0-C ,  7-H ) :   0.9559
B(  0-C ,  8-H ) :   0.9509 B(  1-C ,  2-C ) :   1.0123 B(  1-C ,  9-H ) :   0.9153
B(  1-C , 10-H ) :   0.9200 B(  2-C ,  3-C ) :   1.0824 B(  2-C ,  5-O ) :   1.0437
B(  2-C , 11-H ) :   0.9176 B(  3-C ,  4-C ) :   1.1368 B(  3-C , 12-H ) :   0.9188
B(  3-C , 13-H ) :   0.9146 B(  4-C , 14-H ) :   0.9488 B(  4-C , 15-H ) :   0.9492
B(  4-C , 16-H ) :   0.9527 B(  5-O , 17-H ) :   0.8542

Dispersion correction           -0.012663895
FINAL SINGLE POINT ENERGY      -272.300285192759

DIPOLE MOMENT
-------------

Method             : SCF
Type of density    : Electron Density
Multiplicity       :   1
Irrep              :   0
Energy             :  -272.3699236443461587 Eh
Relativity type    :
Basis              : AO
                                X                 Y                 Z
Electronic contribution:     -0.083727048      -4.509668767      -2.171302027
Nuclear contribution   :      0.213659752       5.013048570       1.869534355
                        -----------------------------------------
Total Dipole Moment    :      0.129932704       0.503379803      -0.301767672
                        -----------------------------------------
Magnitude (a.u.)       :      0.601113518
Magnitude (Debye)      :      1.527909137

Rotational constants in cm-1:             0.127271             0.090248             0.059462
Rotational constants in MHz :          3815.486601          2705.562242          1782.623804

                             ****ORCA TERMINATED NORMALLY****
TOTAL RUN TIME: 0 days 0 hours 0 minutes 8 seconds 256 msec
