                         Program Version 6.0.0  -   RELEASE  -
|  1> ! r2scan-3c def2/J RI DEFGRID2 scfconv6 printgap
|  2> %output
|  3>     printlevel normal
|  4> end
|  5> * xyz 0 1
|  6> C -2.016911201 0.3304030704 0.7000049452
|  7> C -1.4824380822 -0.4756777656 -0.4769229714
|  8> C -0.1845150917 0.1180849138 -1.0407370877
|  9> C 0.9412492179 0.1127188835 -0.0430220909
| 10> C 1.3735401121 1.2254632722 0.5293852797
| 11> C 1.5424234676 -1.2254567666 0.2622825523
| 12> H -1.2865812475 0.3579947229 1.5055028387
| 13> H -2.9355182707 -0.1111072777 1.0790168478
| 14> H -2.2263658152 1.3535516706 0.3956827712
| 15> H -1.3095314392 -1.5068728031 -0.1643132226
| 16> H -2.2304202814 -0.4932722423 -1.272547084
| 17> H 0.1126279492 -0.4632510348 -1.9171340444
| 18> H -0.3793628854 1.1429438131 -1.3623441025
| 19> H 2.1784560526 1.2233365001 1.2456457308
| 20> H 0.9405040337 2.1862401235 0.3065671121
| 21> H 1.8960667444 -1.6960455145 -0.6539847544
| 22> H 2.3758732441 -1.1288256867 0.9526772475
| 23> H 0.7984835805 -1.8840078634 0.7076054752
| 24> *
| 25>
| 26>                          ****END OF INPUT****

CARTESIAN COORDINATES (ANGSTROEM)
---------------------------------
  C     -2.016911    0.330403    0.700005
  C     -1.482438   -0.475678   -0.476923
  C     -0.184515    0.118085   -1.040737
  C      0.941249    0.112719   -0.043022
  C      1.373540    1.225463    0.529385
  C      1.542423   -1.225457    0.262283
  H     -1.286581    0.357995    1.505503
  H     -2.935518   -0.111107    1.079017
  H     -2.226366    1.353552    0.395683
  H     -1.309531   -1.506873   -0.164313
  H     -2.230420   -0.493272   -1.272547
  H      0.112628   -0.463251   -1.917134
  H     -0.379363    1.142944   -1.362344
  H      2.178456    1.223337    1.245646
  H      0.940504    2.186240    0.306567
  H      1.896067   -1.696046   -0.653985
  H      2.375873   -1.128826    0.952677
  H      0.798484   -1.884008    0.707605

 Total Charge           Charge          ....    0
 Multiplicity           Mult            ....    1
 Number of Electrons    NEL             ....   48
 Basis Dimension        Dim             ....  174

ORBITAL ENERGIES
----------------

  NO   OCC          E(Eh)            E(eV)
   0   2.0000     -10.036820      -273.1158
   1   2.0000     -10.027487      -272.8618
   2   2.0000     -10.027063      -272.8502
   3   2.0000     -10.023224      -272.7458
   4   2.0000     -10.011993      -272.4402
   5   2.0000     -10.008720      -272.3511
   6   2.0000      -0.787267       -21.4226
   7   2.0000      -0.728649       -19.8276
   8   2.0000      -0.654334       -17.8053
   9   2.0000      -0.644868       -17.5477
  10   2.0000      -0.558287       -15.1918
  11   2.0000      -0.488817       -13.3014
  12   2.0000      -0.435349       -11.8465
  13   2.0000      -0.425929       -11.5901
  14   2.0000      -0.409184       -11.1345
  15   2.0000      -0.387309       -10.5392
  16   2.0000      -0.376760       -10.2522
  17   2.0000      -0.352301        -9.5866
  18   2.0000      -0.336988        -9.1699
  19   2.0000      -0.320081        -8.7098
  20   2.0000      -0.310668        -8.4537
  21   2.0000      -0.299962        -8.1624
  22   2.0000      -0.288053        -7.8383
  23   2.0000      -0.223089        -6.0706
  24   0.0000      -0.005957        -0.1621
  25   0.0000       0.084996         2.3129
  26   0.0000       0.115542         3.1441
  27   0.0000       0.119131         3.2417
  28   0.0000       0.125537         3.4160

MULLIKEN ATOMIC CHARGES
-----------------------
   0 C :   -0.489163
   1 C :   -0.247475
   2 C :   -0.249012
   3 C :    0.099195
   4 C :   -0.387615
   5 C :   -0.510483
   6 H :    0.164705
   7 H :    0.143813
   8 H :    0.143282
   9 H :    0.143402
  10 H :    0.143545
  11 H :    0.147355
  12 H :    0.152389
  13 H :    0.139909
  14 H :    0.142281
  15 H :    0.154589
  16 H :    0.150420
  17 H :    0.158864
Sum of atomic charges:   -0.0000000

LOEWDIN ATOMIC CHARGES
----------------------
   0 C :   -0.422775
   1 C :   -0.306224
   2 C :   -0.289279
   3 C :   -0.136204
   4 C :   -0.330824
   5 C :   -0.395302
   6 H :    0.157904
   7 H :    0.149560
   8 H :    0.150443
   9 H :    0.150362
  10 H :    0.152361
  11 H :    0.162406
  12 H :    0.162669
  13 H :    0.155882
  14 H :    0.157548
  15 H :    0.161527
  16 H :    0.159482
  17 H :    0.160464

  Mayer bond orders larger than 0.100000
B(  0-C ,  1-C ) :   0.8869 B(  0-C ,  6-H ) :   0.9778 B(  0-C ,  7-H ) :   0.9674
B(  0-C ,  8-H ) :   0.9799 B(  1-C ,  2-C ) :   0.8815 B(  1-C ,  9-H ) :   0.9944
B(  1-C , 10-H ) :   0.9643 B(  2-C ,  3-C ) :   0.8723 B(  2-C , 11-H ) :   0.9763
B(  2-C , 12-H ) :   0.9973 B(  3-C ,  4-C ) :   1.8661 B(  3-C ,  5-C ) :   0.8825
B(  4-C , 13-H ) :   0.9792 B(  4-C , 14-H ) :   0.9843 B(  5-C , 15-H ) :   0.9696
B(  5-C , 16-H ) :   0.9873 B(  5-C , 17-H ) :   0.9734

Dispersion correction           -0.004691219
FINAL SINGLE POINT ENERGY      -235.762751230387

DIPOLE MOMENT
-------------

Method             : SCF
Type of density    : Electron Density
Multiplicity       :   1
Irrep              :   0
Energy             :  -235.7656827304409148 Eh
Relativity type    :
Basis              : AO
                                X                 Y                 Z
Electronic contribution:      1.842138315       0.747489662      -0.853837614
Nuclear contribution   :     -1.938027500      -0.956284214       0.771521657
                        -----------------------------------------
Total Dipole Moment    :     -0.095889185      -0.208794552      -0.082315957
                        -----------------------------------------
Magnitude (a.u.)       :      0.244061094
Magnitude (Debye)      :      0.620354002

Rotational constants in cm-1:             0.168458             0.079683             0.070019
Rotational constants in MHz :          5050.236055          2388.821360          2099.109937

                             ****ORCA TERMINATED NORMALLY****
TOTAL RUN TIME: 0 days 0 hours 0 minutes 19 seconds 240 msec
