                         Program Version 6.0.0  -   RELEASE  -
|  1> ! r2scan-3c def2/J RI DEFGRID2 scfconv6 printgap
|  2> %output
|  3>     printlevel normal
|  4> end
|  5> %cpcm
|  6>     smd true
|  7>     smdsolvent "water"
|  8> end
|  9> * xyz 0 1
| 10> C -2.016911201 0.3304030704 0.7000049452
| 11> C -1.4824380822 -0.4756777656 -0.4769229714
| 12> C -0.1845150917 0.1180849138 -1.0407370877
| 13> C 0.9412492179 0.1127188835 -0.0430220909
| 14> C 1.3735401121 1.2254632722 0.5293852797
| 15> C 1.5424234676 -1.2254567666 0.2622825523
| 16> H -1.2865812475 0.3579947229 1.5055028387
| 17> H -2.9355182707 -0.1111072777 1.0790168478
| 18> H -2.2263658152 1.3535516706 0.3956827712
| 19> H -1.3095314392 -1.5068728031 -0.1643132226
| 20> H -2.2304202814 -0.4932722423 -1.272547084
| 21> H 0.1126279492 -0.4632510348 -1.9171340444
| 22> H -0.3793628854 1.1429438131 -1.3623441025
| 23> H 2.1784560526 1.2233365001 1.2456457308
| 24> H 0.9405040337 2.1862401235 0.3065671121
| 25> H 1.8960667444 -1.6960455145 -0.6539847544
| 26> H 2.3758732441 -1.1288256867 0.9526772475
| 27> H 0.7984835805 -1.8840078634 0.7076054752
| 28> *
| 29>
| 30>                          ****END OF INPUT****

CARTESIAN COORDINATES (ANGSTROEM)
---------------------------------
  C     -2.016911    0.330403    0.700005
  C     -1.482438   -0.475678   -0.476923
  C     -0.184515    0.118085   -1.040737
  C      0.941249    0.112719   -0.043022
  C      1.373540    1.225463    0.529385
  C      1.542423   -1.225457    0.262283
  H     -1.286581    0.357995    1.505503
  H     -2.935518   -0.111107    1.079017
  H     -2.226366    1.353552    0.395683
  H     -1.309531   -1.506873   -0.164313
  H     -2.230420   -0.493272   -1.272547
  H      0.112628   -0.463251   -1.917134
  H     -0.379363    1.142944   -1.362344
  H      2.178456    1.223337    1.245646
  H      0.940504    2.186240    0.306567
  H      1.896067   -1.696046   -0.653985
  H      2.375873   -1.128826    0.952677
  H      0.798484   -1.884008    0.707605

 Total Charge           Charge          ....    0
 Multiplicity           Mult            ....    1
 Number of Electrons    NEL             ....   48
 Basis Dimension        Dim             ....  174

ORBITAL ENERGIES
----------------

  NO   OCC          E(Eh)            E(eV)
   0   2.0000     -10.035549      -273.0812
   1   2.0000     -10.019807      -272.6528
   2   2.0000     -10.019611      -272.6475
   3   2.0000     -10.014382      -272.5052
   4   2.0000     -10.006782      -272.2984
   5   2.0000     -10.005343      -272.2592
   6   2.0000      -0.782611       -21.2959
   7   2.0000      -0.723228       -19.6800
   8   2.0000      -0.648279       -17.6406
   9   2.0000      -0.640287       -17.4231
  10   2.0000      -0.552450       -15.0329
  11   2.0000      -0.483437       -13.1550
  12   2.0000      -0.429294       -11.6817
  13   2.0000      -0.419908       -11.4263
  14   2.0000      -0.404056       -10.9949
  15   2.0000      -0.380910       -10.3651
  16   2.0000      -0.369135       -10.0447
  17   2.0000      -0.346949        -9.4410
  18   2.0000      -0.329905        -8.9772
  19   2.0000      -0.314657        -8.5622
  20   2.0000      -0.304337        -8.2814
  21   2.0000      -0.292586        -7.9617
  22   2.0000      -0.281940        -7.6720
  23   2.0000      -0.223279        -6.0757
  24   0.0000      -0.005635        -0.1533
  25   0.0000       0.092319         2.5121
  26   0.0000       0.121421         3.3040
  27   0.0000       0.125344         3.4108
  28   0.0000       0.132375         3.6021

MULLIKEN ATOMIC CHARGES
-----------------------
   0 C :   -0.530234
   1 C :   -0.255366
   2 C :   -0.247808
   3 C :    0.083360
   4 C :   -0.468797
   5 C :   -0.542262
   6 H :    0.163107
   7 H :    0.156118
   8 H :    0.157253
   9 H :    0.158784
  10 H :    0.154405
  11 H :    0.163151
  12 H :    0.162978
  13 H :    0.164061
  14 H :    0.164696
  15 H :    0.172680
  16 H :    0.165127
  17 H :    0.178747
Sum of atomic charges:   -0.0000000

LOEWDIN ATOMIC CHARGES
----------------------
   0 C :   -0.430918
   1 C :   -0.306235
   2 C :   -0.292227
   3 C :   -0.135122
   4 C :   -0.362098
   5 C :   -0.402697
   6 H :    0.155071
   7 H :    0.152911
   8 H :    0.153352
   9 H :    0.155244
  10 H :    0.155856
  11 H :    0.168152
  12 H :    0.165663
  13 H :    0.161482
  14 H :    0.162468
  15 H :    0.168068
  16 H :    0.162868
  17 H :    0.168163

  Mayer bond orders larger than 0.100000
B(  0-C ,  1-C ) :   0.8759 B(  0-C ,  6-H ) :   0.9781 B(  0-C ,  7-H ) :   0.9652
B(  0-C ,  8-H ) :   0.9771 B(  1-C ,  2-C ) :   0.8796 B(  1-C ,  9-H ) :   0.9928
B(  1-C , 10-H ) :   0.9639 B(  2-C ,  3-C ) :   0.8677 B(  2-C , 11-H ) :   0.9717
B(  2-C , 12-H ) :   0.9944 B(  3-C ,  4-C ) :   1.8384 B(  3-C ,  5-C ) :   0.8823
B(  4-C , 13-H ) :   0.9785 B(  4-C , 14-H ) :   0.9826 B(  5-C , 15-H ) :   0.9637
B(  5-C , 16-H ) :   0.9837 B(  5-C , 17-H ) :   0.9654

Dispersion correction           -0.004691219
FINAL SINGLE POINT ENERGY      -235.760721038779

DIPOLE MOMENT
-------------

Method             : SCF
Type of density    : Electron Density
Multiplicity       :   1
Irrep              :   0
Energy             :  -235.7636525388327868 Eh
Relativity type    :
Basis              : AO
                                X                 Y                 Z
Electronic contribution:      1.769546440       0.608442790      -0.921637366
Nuclear contribution   :     -1.938027500      -0.956284214       0.771521657
                        -----------------------------------------
Total Dipole Moment    :     -0.168481060      -0.347841425      -0.150115710
                        -----------------------------------------
Magnitude (a.u.)       :      0.414625434
Magnitude (Debye)      :      1.053894099

Rotational constants in cm-1:             0.168458             0.079683             0.070019
Rotational constants in MHz :          5050.236055          2388.821360          2099.109937

                             ****ORCA TERMINATED NORMALLY****
TOTAL RUN TIME: 0 days 0 hours 0 minutes 22 seconds 927 msec
