                         Program Version 6.0.0  -   RELEASE  -
|  1> ! pbe def2-sv(p) def2/J RI DEFGRID1 loosescf d4 GCP(DFT/SV(P)) printgap
|  2> %output
|  3>     printlevel normal
|  4> end
|  5> * xyz 0 1
|  6> C 2.5279538683 -0.3345143192 0.0003865133
|  7> C 1.2677369552 0.5228575823 -0.0007544544
|  8> C -1.768e-06 -0.3283971077 -9.2412e-05
|  9> C -1.267739248 0.5228484829 0.0007422221
| 10> C -2.5279539872 -0.3345126192 -0.0002949612
| 11> H 3.4168554105 0.2915129254 -2.6752e-05
| 12> H 2.5553336585 -0.9717970784 -0.8806759244
| 13> H 2.5549298641 -0.9699210837 0.8827733364
| 14> H 1.267570485 1.1691713655 0.8800375304
| 15> H 1.2678680037 1.1673585863 -0.882866255
| 16> H 0.0005278229 -0.9741061147 0.8814376938
| 17> H -0.0005038912 -0.9739273825 -0.8817616079
| 18> H -1.2677766585 1.16727467 0.8829089386
| 19> H -1.267641063 1.1692611485 -0.8799680569
| 20> H -2.5548436745 -0.9702039883 -0.8825414598
| 21> H -3.4168689304 0.2915470819 -0.0001120999
| 22> H -2.555401217 -0.9715400402 0.8809506745
| 23> *
| 24>
| 25>                          ****END OF INPUT****

CARTESIAN COORDINATES (ANGSTROEM)
---------------------------------
  C      2.527954   -0.334514    0.000387
  C      1.267737    0.522858   -0.000754
  C     -0.000002   -0.328397   -0.000092
  C     -1.267739    0.522848    0.000742
  C     -2.527954   -0.334513   -0.000295
  H      3.416855    0.291513   -0.000027
  H      2.555334   -0.971797   -0.880676
  H      2.554930   -0.969921    0.882773
  H      1.267570    1.169171    0.880038
  H      1.267868    1.167359   -0.882866
  H      0.000528   -0.974106    0.881438
  H     -0.000504   -0.973927   -0.881762
  H     -1.267777    1.167275    0.882909
  H     -1.267641    1.169261   -0.879968
  H     -2.554844   -0.970204   -0.882541
  H     -3.416869    0.291547   -0.000112
  H     -2.555401   -0.971540    0.880951

 Total Charge           Charge          ....    0
 Multiplicity           Mult            ....    1
 Number of Electrons    NEL             ....   42
 Basis Dimension        Dim             ....   94

ORBITAL ENERGIES
----------------

  NO   OCC          E(Eh)            E(eV)
   0   2.0000      -9.878538      -268.8087
   1   2.0000      -9.878533      -268.8086
   2   2.0000      -9.876903      -268.7642
   3   2.0000      -9.868938      -268.5475
   4   2.0000      -9.868929      -268.5472
   5   2.0000      -0.720690       -19.6110
   6   2.0000      -0.672066       -18.2878
   7   2.0000      -0.600211       -16.3326
   8   2.0000      -0.527131       -14.3440
   9   2.0000      -0.509355       -13.8602
  10   2.0000      -0.426768       -11.6129
  11   2.0000      -0.389615       -10.6020
  12   2.0000      -0.384308       -10.4576
  13   2.0000      -0.356321        -9.6960
  14   2.0000      -0.345962        -9.4141
  15   2.0000      -0.331126        -9.0104
  16   2.0000      -0.307670        -8.3721
  17   2.0000      -0.291048        -7.9198
  18   2.0000      -0.283443        -7.7129
  19   2.0000      -0.279416        -7.6033
  20   2.0000      -0.269990        -7.3468
  21   0.0000       0.039185         1.0663
  22   0.0000       0.056359         1.5336
  23   0.0000       0.068699         1.8694
  24   0.0000       0.074537         2.0282
  25   0.0000       0.097754         2.6600

MULLIKEN ATOMIC CHARGES
-----------------------
   0 C :   -0.257214
   1 C :   -0.176802
   2 C :   -0.197603
   3 C :   -0.176787
   4 C :   -0.257236
   5 H :    0.100115
   6 H :    0.095798
   7 H :    0.095799
   8 H :    0.081633
   9 H :    0.081661
  10 H :    0.077806
  11 H :    0.077811
  12 H :    0.081658
  13 H :    0.081632
  14 H :    0.095805
  15 H :    0.100121
  16 H :    0.095803
Sum of atomic charges:    0.0000000

LOEWDIN ATOMIC CHARGES
----------------------
   0 C :   -0.340000
   1 C :   -0.233855
   2 C :   -0.228179
   3 C :   -0.233860
   4 C :   -0.339992
   5 H :    0.117589
   6 H :    0.116009
   7 H :    0.116007
   8 H :    0.113156
   9 H :    0.113165
  10 H :    0.112019
  11 H :    0.112020
  12 H :    0.113165
  13 H :    0.113157
  14 H :    0.116003
  15 H :    0.117587
  16 H :    0.116010

  Mayer bond orders larger than 0.100000
B(  0-C ,  1-C ) :   1.1563 B(  0-C ,  5-H ) :   0.9532 B(  0-C ,  6-H ) :   0.9548
B(  0-C ,  7-H ) :   0.9548 B(  1-C ,  2-C ) :   1.1342 B(  1-C ,  8-H ) :   0.9261
B(  1-C ,  9-H ) :   0.9261 B(  2-C ,  3-C ) :   1.1342 B(  2-C , 10-H ) :   0.9246
B(  2-C , 11-H ) :   0.9246 B(  3-C ,  4-C ) :   1.1563 B(  3-C , 12-H ) :   0.9260
B(  3-C , 13-H ) :   0.9261 B(  4-C , 14-H ) :   0.9548 B(  4-C , 15-H ) :   0.9532
B(  4-C , 16-H ) :   0.9548

Dispersion correction           -0.010566053
FINAL SINGLE POINT ENERGY      -197.237351267722

DIPOLE MOMENT
-------------

Method             : SCF
Type of density    : Electron Density
Multiplicity       :   1
Irrep              :   0
Energy             :  -197.2957389811434155 Eh
Relativity type    :
Basis              : AO
                                X                 Y                 Z
Electronic contribution:     -0.000031777       0.563738242      -0.000125422
Nuclear contribution   :      0.000046730      -0.539789502       0.000146370
                        -----------------------------------------
Total Dipole Moment    :      0.000014953       0.023948740       0.000020948
                        -----------------------------------------
Magnitude (a.u.)       :      0.023948753
Magnitude (Debye)      :      0.060872894

Rotational constants in cm-1:             0.566222             0.065774             0.062344
Rotational constants in MHz :         16974.921285          1971.863268          1869.013737

                             ****ORCA TERMINATED NORMALLY****
TOTAL RUN TIME: 0 days 0 hours 0 minutes 6 seconds 698 msec
