                         Program Version 6.0.0  -   RELEASE  -
|  1> ! pbe def2-sv(p) def2/J RI DEFGRID1 loosescf d4 GCP(DFT/SV(P)) printgap
|  2> %output
|  3>     printlevel normal
|  4> end
|  5> * xyz 0 1
|  6> C 1.6182800122 -0.8121941386 -0.1525120224
|  7> O 1.279804013 0.5522347262 -0.0159736566
|  8> C 0.0113375666 0.8018810995 0.5610432198
|  9> C -1.1818219541 0.4499968443 -0.3430932266
| 10> N -1.7471853582 -0.8467778829 0.0072369538
| 11> H 1.4539881278 -1.350552126 0.7865197142
| 12> H 2.6752470137 -0.834814023 -0.4093374223
| 13> H 1.045992421 -1.2912125515 -0.9536243224
| 14> H -0.0894875853 0.2562132426 1.5082592524
| 15> H 0.0214202638 1.8740390642 0.7621936798
| 16> H -1.9667059093 1.1930185419 -0.1877024566
| 17> H -0.8479387284 0.5237821964 -1.3916936389
| 18> H -1.0863716029 -1.5896819698 -0.1935853739
| 19> H -2.5774059951 -1.0188074261 -0.5478073945
| 20> *
| 21>
| 22>                          ****END OF INPUT****

CARTESIAN COORDINATES (ANGSTROEM)
---------------------------------
  C      1.618280   -0.812194   -0.152512
  O      1.279804    0.552235   -0.015974
  C      0.011338    0.801881    0.561043
  C     -1.181822    0.449997   -0.343093
  N     -1.747185   -0.846778    0.007237
  H      1.453988   -1.350552    0.786520
  H      2.675247   -0.834814   -0.409337
  H      1.045992   -1.291213   -0.953624
  H     -0.089488    0.256213    1.508259
  H      0.021420    1.874039    0.762194
  H     -1.966706    1.193019   -0.187702
  H     -0.847939    0.523782   -1.391694
  H     -1.086372   -1.589682   -0.193585
  H     -2.577406   -1.018807   -0.547807

 Total Charge           Charge          ....    0
 Multiplicity           Mult            ....    1
 Number of Electrons    NEL             ....   42
 Basis Dimension        Dim             ....   88

ORBITAL ENERGIES
----------------

  NO   OCC          E(Eh)            E(eV)
   0   2.0000     -18.746092      -510.1071
   1   2.0000     -13.964180      -379.9847
   2   2.0000      -9.925011      -270.0733
   3   2.0000      -9.922361      -270.0012
   4   2.0000      -9.906359      -269.5657
   5   2.0000      -0.926805       -25.2196
   6   2.0000      -0.794776       -21.6269
   7   2.0000      -0.662418       -18.0253
   8   2.0000      -0.597758       -16.2658
   9   2.0000      -0.527240       -14.3469
  10   2.0000      -0.452391       -12.3102
  11   2.0000      -0.441353       -12.0098
  12   2.0000      -0.418705       -11.3935
  13   2.0000      -0.389271       -10.5926
  14   2.0000      -0.383599       -10.4383
  15   2.0000      -0.351003        -9.5513
  16   2.0000      -0.334354        -9.0982
  17   2.0000      -0.313060        -8.5188
  18   2.0000      -0.257600        -7.0097
  19   2.0000      -0.201131        -5.4730
  20   2.0000      -0.186265        -5.0685
  21   0.0000       0.026633         0.7247
  22   0.0000       0.061829         1.6825
  23   0.0000       0.064244         1.7482
  24   0.0000       0.086627         2.3572
  25   0.0000       0.100450         2.7334

MULLIKEN ATOMIC CHARGES
-----------------------
   0 C :   -0.118507
   1 O :   -0.340587
   2 C :    0.009743
   3 C :   -0.106499
   4 N :   -0.469601
   5 H :    0.089087
   6 H :    0.115341
   7 H :    0.087942
   8 H :    0.078393
   9 H :    0.088178
  10 H :    0.082712
  11 H :    0.080046
  12 H :    0.199626
  13 H :    0.204127
Sum of atomic charges:    0.0000000

LOEWDIN ATOMIC CHARGES
----------------------
   0 C :   -0.210687
   1 O :   -0.182824
   2 C :   -0.122444
   3 C :   -0.200476
   4 N :   -0.418697
   5 H :    0.098103
   6 H :    0.116421
   7 H :    0.089721
   8 H :    0.099942
   9 H :    0.114086
  10 H :    0.117194
  11 H :    0.097049
  12 H :    0.197712
  13 H :    0.204899

  Mayer bond orders larger than 0.100000
B(  0-C ,  1-O ) :   1.0290 B(  0-C ,  5-H ) :   0.9371 B(  0-C ,  6-H ) :   0.9616
B(  0-C ,  7-H ) :   0.9321 B(  1-O ,  2-C ) :   1.0467 B(  2-C ,  3-C ) :   1.0795
B(  2-C ,  8-H ) :   0.9168 B(  2-C ,  9-H ) :   0.9342 B(  3-C ,  4-N ) :   1.1107
B(  3-C , 10-H ) :   0.9259 B(  3-C , 11-H ) :   0.9120 B(  4-N , 12-H ) :   0.9042
B(  4-N , 13-H ) :   0.9039

Dispersion correction           -0.008671759
FINAL SINGLE POINT ENERGY      -249.088005384246

DIPOLE MOMENT
-------------

Method             : SCF
Type of density    : Electron Density
Multiplicity       :   1
Irrep              :   0
Energy             :  -249.1490116097631358 Eh
Relativity type    :
Basis              : AO
                                X                 Y                 Z
Electronic contribution:      1.049665601       1.671989443       0.192477490
Nuclear contribution   :     -1.277066749      -2.096093315      -0.588223424
                        -----------------------------------------
Total Dipole Moment    :     -0.227401148      -0.424103872      -0.395745934
                        -----------------------------------------
Magnitude (a.u.)       :      0.623049132
Magnitude (Debye)      :      1.583665036

Rotational constants in cm-1:             0.290529             0.111200             0.089783
Rotational constants in MHz :          8709.836616          3333.703056          2691.641362

                             ****ORCA TERMINATED NORMALLY****
TOTAL RUN TIME: 0 days 0 hours 0 minutes 6 seconds 36 msec
