                         Program Version 6.0.0  -   RELEASE  -
|  1> ! wb97x-v def2-tzvp def2/J RIJCOSX DEFGRID2 scfconv7 GCP(DFT/TZ) printgap
|  2> %output
|  3>     printlevel normal
|  4> end
|  5> * xyz 0 1
|  6> C -2.1491220557181907 0.6977725503906604 -0.3517246442415302
|  7> C -1.6230660742360719 -0.4560958184812926 0.5001501796993505
|  8> C -0.2652257864334823 -0.965899819072869 0.03196166305525201
|  9> C 0.9091802053069736 -0.07979516027725844 0.3586181792246083
| 10> O 0.7917253241145226 0.951855083272209 1.0131555273687338
| 11> C 2.2553504332060323 -0.5528146608608249 -0.11029289028039171
| 12> H -3.1193991701405044 1.047684124027756 0.014842232477134646
| 13> H -2.278564229301968 0.38169725824500006 -1.3927810129139246
| 14> H -1.4611209413863386 1.5489414652360067 -0.34333595372056946
| 15> H -2.3363836977016064 -1.2867979516202792 0.46373138986884715
| 16> H -1.5527126047061155 -0.14843892566469147 1.5497681138652948
| 17> H -0.029168446373569537 -1.9473013494542553 0.469716562786113
| 18> H -0.25838139141553423 -1.135862466273244 -1.0538844176969517
| 19> H 2.605092847862769 -1.3205703716649393 0.5918523043700596
| 20> H 2.974859691478465 0.2679222064279381 -0.11467561590865887
| 21> H 2.1962330169257105 -1.0217687571533813 -1.0959214271684297
| 22> *
| 23>
| 24>                          ****END OF INPUT****

CARTESIAN COORDINATES (ANGSTROEM)
---------------------------------
  C     -2.149122    0.697773   -0.351725
  C     -1.623066   -0.456096    0.500150
  C     -0.265226   -0.965900    0.031962
  C      0.909180   -0.079795    0.358618
  O      0.791725    0.951855    1.013156
  C      2.255350   -0.552815   -0.110293
  H     -3.119399    1.047684    0.014842
  H     -2.278564    0.381697   -1.392781
  H     -1.461121    1.548941   -0.343336
  H     -2.336384   -1.286798    0.463731
  H     -1.552713   -0.148439    1.549768
  H     -0.029168   -1.947301    0.469717
  H     -0.258381   -1.135862   -1.053884
  H      2.605093   -1.320570    0.591852
  H      2.974860    0.267922   -0.114676
  H      2.196233   -1.021769   -1.095921

 Total Charge           Charge          ....    0
 Multiplicity           Mult            ....    1
 Number of Electrons    NEL             ....   48
 Basis Dimension        Dim             ....  246

ORBITAL ENERGIES
----------------

  NO   OCC          E(Eh)            E(eV)
   0   2.0000     -21.658394      -589.3549
   1   2.0000     -12.138636      -330.3091
   2   2.0000     -12.057153      -328.0918
   3   2.0000     -12.052868      -327.9752
   4   2.0000     -12.044776      -327.7550
   5   2.0000     -12.030564      -327.3683
   6   2.0000      -1.702144       -46.3177
   7   2.0000      -1.315606       -35.7995
   8   2.0000      -1.262214       -34.3466
   9   2.0000      -1.195914       -32.5425
  10   2.0000      -1.098744       -29.8984
  11   2.0000      -1.065388       -28.9907
  12   2.0000      -0.967048       -26.3147
  13   2.0000      -0.953670       -25.9507
  14   2.0000      -0.917911       -24.9776
  15   2.0000      -0.871226       -23.7073
  16   2.0000      -0.866810       -23.5871
  17   2.0000      -0.839205       -22.8359
  18   2.0000      -0.834795       -22.7159
  19   2.0000      -0.831366       -22.6226
  20   2.0000      -0.801180       -21.8012
  21   2.0000      -0.791191       -21.5294
  22   2.0000      -0.773039       -21.0355
  23   2.0000      -0.756899       -20.5963
  24   0.0000      -0.304100        -8.2750
  25   0.0000      -0.048956        -1.3322
  26   0.0000      -0.046997        -1.2789
  27   0.0000      -0.024601        -0.6694
  28   0.0000      -0.004938        -0.1344

MULLIKEN ATOMIC CHARGES
-----------------------
   0 C :   -0.375314
   1 C :   -0.114729
   2 C :   -0.208524
   3 C :    0.196677
   4 O :   -0.329028
   5 C :   -0.339030
   6 H :    0.112224
   7 H :    0.097042
   8 H :    0.136190
   9 H :    0.094235
  10 H :    0.103610
  11 H :    0.121383
  12 H :    0.115697
  13 H :    0.130432
  14 H :    0.139628
  15 H :    0.119510
Sum of atomic charges:   -0.0000000

LOEWDIN ATOMIC CHARGES
----------------------
   0 C :   -0.305396
   1 C :   -0.282253
   2 C :   -0.239312
   3 C :   -0.339751
   4 O :    0.105263
   5 C :   -0.261610
   6 H :    0.116743
   7 H :    0.113026
   8 H :    0.122131
   9 H :    0.131146
  10 H :    0.139606
  11 H :    0.152755
  12 H :    0.149609
  13 H :    0.139004
  14 H :    0.131789
  15 H :    0.127250

  Mayer bond orders larger than 0.100000
B(  0-C ,  1-C ) :   0.9753 B(  0-C ,  6-H ) :   0.9821 B(  0-C ,  7-H ) :   0.9773
B(  0-C ,  8-H ) :   0.9802 B(  1-C ,  2-C ) :   0.9843 B(  1-C ,  9-H ) :   0.9777
B(  1-C , 10-H ) :   0.9677 B(  2-C ,  3-C ) :   0.9678 B(  2-C , 11-H ) :   0.9430
B(  2-C , 12-H ) :   0.9562 B(  3-C ,  4-O ) :   2.0885 B(  3-C ,  5-C ) :   0.9788
B(  5-C , 13-H ) :   0.9474 B(  5-C , 14-H ) :   0.9785 B(  5-C , 15-H ) :   0.9709

FINAL SINGLE POINT ENERGY      -271.793561943689

DIPOLE MOMENT
-------------

Method             : SCF
Type of density    : Electron Density
Multiplicity       :   1
Irrep              :   0
Energy             :  -271.8042122314889752 Eh
Relativity type    :
Basis              : AO
                                X                 Y                 Z
Electronic contribution:      3.024251051       1.867296248       2.511334065
Nuclear contribution   :     -2.925989374      -2.862957204      -3.069331694
                        -----------------------------------------
Total Dipole Moment    :      0.098261676      -0.995660956      -0.557997628
                        -----------------------------------------
Magnitude (a.u.)       :      1.145581708
Magnitude (Debye)      :      2.911837294

Rotational constants in cm-1:             0.228583             0.070839             0.062316
Rotational constants in MHz :          6852.760737          2123.685269          1868.188966

                             ****ORCA TERMINATED NORMALLY****
TOTAL RUN TIME: 0 days 0 hours 2 minutes 5 seconds 746 msec
