                         Program Version 6.0.0  -   RELEASE  -
|  1> ! wb97x-v def2-tzvp def2/J RIJCOSX DEFGRID2 scfconv7 GCP(DFT/TZ) printgap
|  2> %output
|  3>     printlevel normal
|  4> end
|  5> %cpcm
|  6>     smd true
|  7>     smdsolvent "water"
|  8> end
|  9> * xyz 0 1
| 10> C -2.1491220557181907 0.6977725503906604 -0.3517246442415302
| 11> C -1.6230660742360719 -0.4560958184812926 0.5001501796993505
| 12> C -0.2652257864334823 -0.965899819072869 0.03196166305525201
| 13> C 0.9091802053069736 -0.07979516027725844 0.3586181792246083
| 14> O 0.7917253241145226 0.951855083272209 1.0131555273687338
| 15> C 2.2553504332060323 -0.5528146608608249 -0.11029289028039171
| 16> H -3.1193991701405044 1.047684124027756 0.014842232477134646
| 17> H -2.278564229301968 0.38169725824500006 -1.3927810129139246
| 18> H -1.4611209413863386 1.5489414652360067 -0.34333595372056946
| 19> H -2.3363836977016064 -1.2867979516202792 0.46373138986884715
| 20> H -1.5527126047061155 -0.14843892566469147 1.5497681138652948
| 21> H -0.029168446373569537 -1.9473013494542553 0.469716562786113
| 22> H -0.25838139141553423 -1.135862466273244 -1.0538844176969517
| 23> H 2.605092847862769 -1.3205703716649393 0.5918523043700596
| 24> H 2.974859691478465 0.2679222064279381 -0.11467561590865887
| 25> H 2.1962330169257105 -1.0217687571533813 -1.0959214271684297
| 26> *
| 27>
| 28>                          ****END OF INPUT****

CARTESIAN COORDINATES (ANGSTROEM)
---------------------------------
  C     -2.149122    0.697773   -0.351725
  C     -1.623066   -0.456096    0.500150
  C     -0.265226   -0.965900    0.031962
  C      0.909180   -0.079795    0.358618
  O      0.791725    0.951855    1.013156
  C      2.255350   -0.552815   -0.110293
  H     -3.119399    1.047684    0.014842
  H     -2.278564    0.381697   -1.392781
  H     -1.461121    1.548941   -0.343336
  H     -2.336384   -1.286798    0.463731
  H     -1.552713   -0.148439    1.549768
  H     -0.029168   -1.947301    0.469717
  H     -0.258381   -1.135862   -1.053884
  H      2.605093   -1.320570    0.591852
  H      2.974860    0.267922   -0.114676
  H      2.196233   -1.021769   -1.095921

 Total Charge           Charge          ....    0
 Multiplicity           Mult            ....    1
 Number of Electrons    NEL             ....   48
 Basis Dimension        Dim             ....  246

ORBITAL ENERGIES
----------------

  NO   OCC          E(Eh)            E(eV)
   0   2.0000     -21.666444      -589.5739
   1   2.0000     -12.143273      -330.4353
   2   2.0000     -12.043858      -327.7300
   3   2.0000     -12.038514      -327.5846
   4   2.0000     -12.036611      -327.5328
   5   2.0000     -12.025001      -327.2169
   6   2.0000      -1.713616       -46.6299
   7   2.0000      -1.307117       -35.5685
   8   2.0000      -1.254158       -34.1274
   9   2.0000      -1.187166       -32.3044
  10   2.0000      -1.100368       -29.9425
  11   2.0000      -1.067234       -29.0409
  12   2.0000      -0.969914       -26.3927
  13   2.0000      -0.946722       -25.7616
  14   2.0000      -0.924192       -25.1485
  15   2.0000      -0.864419       -23.5220
  16   2.0000      -0.861396       -23.4398
  17   2.0000      -0.831709       -22.6320
  18   2.0000      -0.823374       -22.4051
  19   2.0000      -0.819578       -22.3018
  20   2.0000      -0.799811       -21.7640
  21   2.0000      -0.781733       -21.2720
  22   2.0000      -0.765642       -20.8342
  23   2.0000      -0.750973       -20.4350
  24   0.0000      -0.299184        -8.1412
  25   0.0000      -0.042055        -1.1444
  26   0.0000      -0.037090        -1.0093
  27   0.0000      -0.007503        -0.2042
  28   0.0000       0.006436         0.1751

MULLIKEN ATOMIC CHARGES
-----------------------
   0 C :   -0.406601
   1 C :   -0.154620
   2 C :   -0.223050
   3 C :    0.284655
   4 O :   -0.468536
   5 C :   -0.386282
   6 H :    0.128650
   7 H :    0.121302
   8 H :    0.122181
   9 H :    0.115324
  10 H :    0.103213
  11 H :    0.154578
  12 H :    0.147881
  13 H :    0.163583
  14 H :    0.144375
  15 H :    0.153346
Sum of atomic charges:   -0.0000000

LOEWDIN ATOMIC CHARGES
----------------------
   0 C :   -0.313182
   1 C :   -0.286354
   2 C :   -0.228956
   3 C :   -0.316588
   4 O :    0.026085
   5 C :   -0.255937
   6 H :    0.118439
   7 H :    0.118934
   8 H :    0.116451
   9 H :    0.137063
  10 H :    0.135307
  11 H :    0.165293
  12 H :    0.162122
  13 H :    0.150393
  14 H :    0.131872
  15 H :    0.139059

  Mayer bond orders larger than 0.100000
B(  0-C ,  1-C ) :   0.9696 B(  0-C ,  6-H ) :   0.9796 B(  0-C ,  7-H ) :   0.9758
B(  0-C ,  8-H ) :   0.9798 B(  1-C ,  2-C ) :   0.9730 B(  1-C ,  9-H ) :   0.9770
B(  1-C , 10-H ) :   0.9738 B(  2-C ,  3-C ) :   0.9886 B(  2-C , 11-H ) :   0.9337
B(  2-C , 12-H ) :   0.9459 B(  3-C ,  4-O ) :   1.9274 B(  3-C ,  5-C ) :   1.0007
B(  5-C , 13-H ) :   0.9364 B(  5-C , 14-H ) :   0.9711 B(  5-C , 15-H ) :   0.9627

FINAL SINGLE POINT ENERGY      -271.800562495187

DIPOLE MOMENT
-------------

Method             : SCF
Type of density    : Electron Density
Multiplicity       :   1
Irrep              :   0
Energy             :  -271.8112127829872406 Eh
Relativity type    :
Basis              : AO
                                X                 Y                 Z
Electronic contribution:      3.068431624       1.318879002       2.196911313
Nuclear contribution   :     -2.925989374      -2.862957204      -3.069331694
                        -----------------------------------------
Total Dipole Moment    :      0.142442249      -1.544078202      -0.872420380
                        -----------------------------------------
Magnitude (a.u.)       :      1.779208984
Magnitude (Debye)      :      4.522389837

Rotational constants in cm-1:             0.228583             0.070839             0.062316
Rotational constants in MHz :          6852.760737          2123.685269          1868.188966

                             ****ORCA TERMINATED NORMALLY****
TOTAL RUN TIME: 0 days 0 hours 2 minutes 9 seconds 758 msec
