                         Program Version 6.0.0  -   RELEASE  -
|  1> ! pbe def2-sv(p) def2/J RI DEFGRID1 loosescf d4 GCP(DFT/SV(P)) printgap
|  2> %output
|  3>     printlevel normal
|  4> end
|  5> * xyz 0 1
|  6> C 2.3781548465 -0.1849948524 -0.6559589998
|  7> C 1.5678562464 0.2886353563 0.5455638654
|  8> C 0.2553474834 -0.4765532581 0.7238330337
|  9> C -0.8183052747 -0.0793305743 -0.2933778237
| 10> H -0.4120446933 -0.1829768897 -1.3119801452
| 11> C -2.0527195659 -0.9715343772 -0.1597604786
| 12> O -1.1394262807 1.284105059 -0.0596301562
| 13> H 1.8359734913 -0.0213823718 -1.5836201676
| 14> H 2.600135712 -1.2464901175 -0.5693474013
| 15> H 3.317384783 0.35962552 -0.7128760433
| 16> H 2.1690480423 0.1609834496 1.4481170152
| 17> H 1.338580355 1.3508643695 0.4441051729
| 18> H 0.4398657715 -1.5484708665 0.6427229448
| 19> H -0.1452349059 -0.2678284745 1.717696714
| 20> H -2.8089874115 -0.6926560345 -0.8902632419
| 21> H -1.7799321762 -2.0097016094 -0.32376055
| 22> H -2.4747389077 -0.8696536716 0.8373081596
| 23> H -1.8461991487 1.5507639278 -0.6618009781
| 24> *
| 25>
| 26>                          ****END OF INPUT****

CARTESIAN COORDINATES (ANGSTROEM)
---------------------------------
  C      2.378155   -0.184995   -0.655959
  C      1.567856    0.288635    0.545564
  C      0.255347   -0.476553    0.723833
  C     -0.818305   -0.079331   -0.293378
  H     -0.412045   -0.182977   -1.311980
  C     -2.052720   -0.971534   -0.159760
  O     -1.139426    1.284105   -0.059630
  H      1.835973   -0.021382   -1.583620
  H      2.600136   -1.246490   -0.569347
  H      3.317385    0.359626   -0.712876
  H      2.169048    0.160983    1.448117
  H      1.338580    1.350864    0.444105
  H      0.439866   -1.548471    0.642723
  H     -0.145235   -0.267828    1.717697
  H     -2.808987   -0.692656   -0.890263
  H     -1.779932   -2.009702   -0.323761
  H     -2.474739   -0.869654    0.837308
  H     -1.846199    1.550764   -0.661801

 Total Charge           Charge          ....    0
 Multiplicity           Mult            ....    1
 Number of Electrons    NEL             ....   50
 Basis Dimension        Dim             ....  108

ORBITAL ENERGIES
----------------

  NO   OCC          E(Eh)            E(eV)
   0   2.0000     -18.738497      -509.9004
   1   2.0000      -9.934867      -270.3415
   2   2.0000      -9.876842      -268.7625
   3   2.0000      -9.874693      -268.7041
   4   2.0000      -9.874039      -268.6863
   5   2.0000      -9.868015      -268.5223
   6   2.0000      -0.915741       -24.9186
   7   2.0000      -0.712991       -19.4015
   8   2.0000      -0.666408       -18.1339
   9   2.0000      -0.606464       -16.5027
  10   2.0000      -0.542217       -14.7545
  11   2.0000      -0.501627       -13.6500
  12   2.0000      -0.459569       -12.5055
  13   2.0000      -0.404776       -11.0145
  14   2.0000      -0.395856       -10.7718
  15   2.0000      -0.375642       -10.2217
  16   2.0000      -0.366877        -9.9832
  17   2.0000      -0.339617        -9.2415
  18   2.0000      -0.330370        -8.9898
  19   2.0000      -0.324623        -8.8334
  20   2.0000      -0.294515        -8.0142
  21   2.0000      -0.285184        -7.7603
  22   2.0000      -0.282114        -7.6767
  23   2.0000      -0.260073        -7.0769
  24   2.0000      -0.211262        -5.7487
  25   0.0000       0.023831         0.6485
  26   0.0000       0.055794         1.5182
  27   0.0000       0.065955         1.7947
  28   0.0000       0.076483         2.0812
  29   0.0000       0.087047         2.3687

MULLIKEN ATOMIC CHARGES
-----------------------
   0 C :   -0.294879
   1 C :   -0.158045
   2 C :   -0.144196
   3 C :   -0.011330
   4 H :    0.060656
   5 C :   -0.244237
   6 O :   -0.427106
   7 H :    0.105413
   8 H :    0.093247
   9 H :    0.101991
  10 H :    0.081188
  11 H :    0.098002
  12 H :    0.076249
  13 H :    0.082382
  14 H :    0.089508
  15 H :    0.095163
  16 H :    0.102025
  17 H :    0.293969
Sum of atomic charges:   -0.0000000

LOEWDIN ATOMIC CHARGES
----------------------
   0 C :   -0.343278
   1 C :   -0.236561
   2 C :   -0.228456
   3 C :   -0.058606
   4 H :    0.093591
   5 C :   -0.351716
   6 O :   -0.333586
   7 H :    0.114497
   8 H :    0.114106
   9 H :    0.119202
  10 H :    0.114463
  11 H :    0.121500
  12 H :    0.115563
  13 H :    0.120813
  14 H :    0.112168
  15 H :    0.122643
  16 H :    0.121941
  17 H :    0.281716

  Mayer bond orders larger than 0.100000
B(  0-C ,  1-C ) :   1.1529 B(  0-C ,  7-H ) :   0.9517 B(  0-C ,  8-H ) :   0.9540
B(  0-C ,  9-H ) :   0.9518 B(  1-C ,  2-C ) :   1.1253 B(  1-C , 10-H ) :   0.9281
B(  1-C , 11-H ) :   0.9178 B(  2-C ,  3-C ) :   1.0828 B(  2-C , 12-H ) :   0.9223
B(  2-C , 13-H ) :   0.9055 B(  3-C ,  4-H ) :   0.9016 B(  3-C ,  5-C ) :   1.1117
B(  3-C ,  6-O ) :   1.0453 B(  5-C , 14-H ) :   0.9465 B(  5-C , 15-H ) :   0.9371
B(  5-C , 16-H ) :   0.9425 B(  6-O , 17-H ) :   0.8532

Dispersion correction           -0.012557654
FINAL SINGLE POINT ENERGY      -272.305406643707

DIPOLE MOMENT
-------------

Method             : SCF
Type of density    : Electron Density
Multiplicity       :   1
Irrep              :   0
Energy             :  -272.3752891271537919 Eh
Relativity type    :
Basis              : AO
                                X                 Y                 Z
Electronic contribution:     -2.401325059       2.952905849       0.518657027
Nuclear contribution   :      2.078808076      -3.186575963      -0.904991839
                        -----------------------------------------
Total Dipole Moment    :     -0.322516983      -0.233670114      -0.386334812
                        -----------------------------------------
Magnitude (a.u.)       :      0.554863508
Magnitude (Debye)      :      1.410350956

Rotational constants in cm-1:             0.198491             0.065835             0.059687
Rotational constants in MHz :          5950.596739          1973.682137          1789.372653

                             ****ORCA TERMINATED NORMALLY****
TOTAL RUN TIME: 0 days 0 hours 0 minutes 7 seconds 959 msec
