                         Program Version 6.0.0  -   RELEASE  -
|  1> ! pbe def2-sv(p) def2/J RI DEFGRID1 loosescf d4 GCP(DFT/SV(P)) printgap
|  2> %output
|  3>     printlevel normal
|  4> end
|  5> * xyz 0 1
|  6> C -1.7662058644 0.4827480116 -0.873619473
|  7> C -1.1482443889 0.5988285059 0.5177927247
|  8> C 0.0299069783 -0.3668528528 0.7856433401
|  9> C 1.4111731965 0.2545900715 0.5081020014
| 10> C 1.620831928 0.7916080453 -0.9038941358
| 11> O -0.1248526382 -1.6125095528 0.1322085168
| 12> H -2.1738325696 -0.514755243 -1.0209873317
| 13> H -2.5812476076 1.1965542081 -0.965891429
| 14> H -1.0442880201 0.6896188918 -1.6581636948
| 15> H -0.7994109362 1.6177637967 0.6885485831
| 16> H -1.9323591846 0.3917270279 1.2485276997
| 17> H 0.0125612553 -0.6317566182 1.8508050521
| 18> H 1.5644407206 1.061586148 1.2264474638
| 19> H 2.1572388901 -0.5175815083 0.7116453016
| 20> H 1.4519834624 0.0193873937 -1.6509254307
| 21> H 0.9609076587 1.6309970119 -1.1044945178
| 22> H 2.6465167142 1.1372780725 -1.0095154829
| 23> H -0.037881923 -1.4685026601 -0.820138192
| 24> *
| 25>
| 26>                          ****END OF INPUT****

CARTESIAN COORDINATES (ANGSTROEM)
---------------------------------
  C     -1.766206    0.482748   -0.873619
  C     -1.148244    0.598829    0.517793
  C      0.029907   -0.366853    0.785643
  C      1.411173    0.254590    0.508102
  C      1.620832    0.791608   -0.903894
  O     -0.124853   -1.612510    0.132209
  H     -2.173833   -0.514755   -1.020987
  H     -2.581248    1.196554   -0.965891
  H     -1.044288    0.689619   -1.658164
  H     -0.799411    1.617764    0.688549
  H     -1.932359    0.391727    1.248528
  H      0.012561   -0.631757    1.850805
  H      1.564441    1.061586    1.226447
  H      2.157239   -0.517582    0.711645
  H      1.451983    0.019387   -1.650925
  H      0.960908    1.630997   -1.104495
  H      2.646517    1.137278   -1.009515
  H     -0.037882   -1.468503   -0.820138

 Total Charge           Charge          ....    0
 Multiplicity           Mult            ....    1
 Number of Electrons    NEL             ....   50
 Basis Dimension        Dim             ....  108

ORBITAL ENERGIES
----------------

  NO   OCC          E(Eh)            E(eV)
   0   2.0000     -18.738610      -509.9035
   1   2.0000      -9.931403      -270.2472
   2   2.0000      -9.882927      -268.9281
   3   2.0000      -9.882381      -268.9132
   4   2.0000      -9.881553      -268.8907
   5   2.0000      -9.876858      -268.7630
   6   2.0000      -0.916675       -24.9440
   7   2.0000      -0.711275       -19.3548
   8   2.0000      -0.675366       -18.3776
   9   2.0000      -0.613896       -16.7050
  10   2.0000      -0.547060       -14.8863
  11   2.0000      -0.511375       -13.9152
  12   2.0000      -0.441690       -12.0190
  13   2.0000      -0.410961       -11.1828
  14   2.0000      -0.403675       -10.9846
  15   2.0000      -0.398279       -10.8377
  16   2.0000      -0.365826        -9.9546
  17   2.0000      -0.339908        -9.2494
  18   2.0000      -0.333498        -9.0750
  19   2.0000      -0.313992        -8.5442
  20   2.0000      -0.312607        -8.5065
  21   2.0000      -0.301202        -8.1961
  22   2.0000      -0.284976        -7.7546
  23   2.0000      -0.258260        -7.0276
  24   2.0000      -0.210450        -5.7266
  25   0.0000       0.019188         0.5221
  26   0.0000       0.047670         1.2972
  27   0.0000       0.069132         1.8812
  28   0.0000       0.071800         1.9538
  29   0.0000       0.090313         2.4576

MULLIKEN ATOMIC CHARGES
-----------------------
   0 C :   -0.325738
   1 C :   -0.155789
   2 C :    0.046484
   3 C :   -0.176955
   4 C :   -0.305246
   5 O :   -0.427342
   6 H :    0.109568
   7 H :    0.106628
   8 H :    0.102168
   9 H :    0.084242
  10 H :    0.086342
  11 H :    0.066639
  12 H :    0.083783
  13 H :    0.091855
  14 H :    0.090228
  15 H :    0.116566
  16 H :    0.109556
  17 H :    0.297009
Sum of atomic charges:   -0.0000000

LOEWDIN ATOMIC CHARGES
----------------------
   0 C :   -0.354048
   1 C :   -0.247173
   2 C :   -0.054629
   3 C :   -0.248009
   4 C :   -0.346839
   5 O :   -0.323183
   6 H :    0.119183
   7 H :    0.124117
   8 H :    0.112855
   9 H :    0.116665
  10 H :    0.120965
  11 H :    0.112209
  12 H :    0.118547
  13 H :    0.119123
  14 H :    0.109220
  15 H :    0.119311
  16 H :    0.124642
  17 H :    0.277044

  Mayer bond orders larger than 0.100000
B(  0-C ,  1-C ) :   1.1544 B(  0-C ,  6-H ) :   0.9412 B(  0-C ,  7-H ) :   0.9477
B(  0-C ,  8-H ) :   0.9471 B(  1-C ,  2-C ) :   1.0268 B(  1-C ,  9-H ) :   0.9216
B(  1-C , 10-H ) :   0.9181 B(  2-C ,  3-C ) :   1.0896 B(  2-C ,  5-O ) :   1.0673
B(  2-C , 11-H ) :   0.9082 B(  3-C ,  4-C ) :   1.1486 B(  3-C , 12-H ) :   0.9109
B(  3-C , 13-H ) :   0.9202 B(  4-C , 14-H ) :   0.9449 B(  4-C , 15-H ) :   0.9428
B(  4-C , 16-H ) :   0.9478 B(  5-O , 17-H ) :   0.8401

Dispersion correction           -0.013417085
FINAL SINGLE POINT ENERGY      -272.301054362130

DIPOLE MOMENT
-------------

Method             : SCF
Type of density    : Electron Density
Multiplicity       :   1
Irrep              :   0
Energy             :  -272.3710317128352472 Eh
Relativity type    :
Basis              : AO
                                X                 Y                 Z
Electronic contribution:     -0.095863186      -3.782629208       2.064101770
Nuclear contribution   :      0.208885382       4.303177232      -2.347332890
                        -----------------------------------------
Total Dipole Moment    :      0.113022195       0.520548023      -0.283231120
                        -----------------------------------------
Magnitude (a.u.)       :      0.603294397
Magnitude (Debye)      :      1.533452491

Rotational constants in cm-1:             0.137975             0.091417             0.074886
Rotational constants in MHz :          4136.399539          2740.611099          2245.036838

                             ****ORCA TERMINATED NORMALLY****
TOTAL RUN TIME: 0 days 0 hours 0 minutes 8 seconds 220 msec
