                         Program Version 6.0.0  -   RELEASE  -
|  1> ! pbe def2-sv(p) def2/J RI DEFGRID1 loosescf d4 GCP(DFT/SV(P)) printgap
|  2> %output
|  3>     printlevel normal
|  4> end
|  5> * xyz 0 1
|  6> C 1.5134726492 0.1674352125 -1.2008944865
|  7> C 1.1220062642 -0.2347619066 0.2183190727
|  8> H 0.9634781445 -1.3233458424 0.2566750106
|  9> C -0.1229591937 0.4814019141 0.7575266427
| 10> C -1.4997619388 0.1133450536 0.1806301616
| 11> C -1.8101755073 0.811225083 -1.1432423058
| 12> C -1.7013456362 -1.3951321276 0.0511849244
| 13> O 2.1586605906 0.0967744076 1.1391664077
| 14> H 2.4863744312 -0.251076743 -1.4530433934
| 15> H 0.7903765186 -0.2092841545 -1.9157882674
| 16> H 1.5683165362 1.2499828088 -1.2832775109
| 17> H -0.133569057 0.2693278631 1.8300971736
| 18> H 0.0375468437 1.5561354046 0.6488912091
| 19> H -2.2289497005 0.4832724533 0.9119072108
| 20> H -1.6252467904 1.8796554461 -1.0654363842
| 21> H -2.8572434529 0.6637189583 -1.3990987801
| 22> H -1.2086939831 0.4149710136 -1.9550880487
| 23> H -1.0791405626 -1.8042807942 -0.7407888468
| 24> H -1.4543745279 -1.8963066323 0.9839886112
| 25> H -2.7396060025 -1.6111014319 -0.1897367896
| 26> H 2.9915684864 -0.2847200919 0.8307981238
| 27> *
| 28>
| 29>                          ****END OF INPUT****

CARTESIAN COORDINATES (ANGSTROEM)
---------------------------------
  C      1.513473    0.167435   -1.200894
  C      1.122006   -0.234762    0.218319
  H      0.963478   -1.323346    0.256675
  C     -0.122959    0.481402    0.757527
  C     -1.499762    0.113345    0.180630
  C     -1.810176    0.811225   -1.143242
  C     -1.701346   -1.395132    0.051185
  O      2.158661    0.096774    1.139166
  H      2.486374   -0.251077   -1.453043
  H      0.790377   -0.209284   -1.915788
  H      1.568317    1.249983   -1.283278
  H     -0.133569    0.269328    1.830097
  H      0.037547    1.556135    0.648891
  H     -2.228950    0.483272    0.911907
  H     -1.625247    1.879655   -1.065436
  H     -2.857243    0.663719   -1.399099
  H     -1.208694    0.414971   -1.955088
  H     -1.079141   -1.804281   -0.740789
  H     -1.454375   -1.896307    0.983989
  H     -2.739606   -1.611101   -0.189737
  H      2.991568   -0.284720    0.830798

 Total Charge           Charge          ....    0
 Multiplicity           Mult            ....    1
 Number of Electrons    NEL             ....   58
 Basis Dimension        Dim             ....  126

ORBITAL ENERGIES
----------------

  NO   OCC          E(Eh)            E(eV)
   0   2.0000     -18.733583      -509.7667
   1   2.0000      -9.933935      -270.3161
   2   2.0000      -9.894151      -269.2335
   3   2.0000      -9.875737      -268.7325
   4   2.0000      -9.874756      -268.7058
   5   2.0000      -9.872349      -268.6403
   6   2.0000      -9.870478      -268.5894
   7   2.0000      -0.910690       -24.7811
   8   2.0000      -0.729504       -19.8508
   9   2.0000      -0.671127       -18.2623
  10   2.0000      -0.615924       -16.7602
  11   2.0000      -0.609505       -16.5855
  12   2.0000      -0.538488       -14.6530
  13   2.0000      -0.479966       -13.0606
  14   2.0000      -0.454916       -12.3789
  15   2.0000      -0.413695       -11.2572
  16   2.0000      -0.402174       -10.9437
  17   2.0000      -0.381818       -10.3898
  18   2.0000      -0.373074       -10.1519
  19   2.0000      -0.366010        -9.9596
  20   2.0000      -0.344076        -9.3628
  21   2.0000      -0.331070        -9.0089
  22   2.0000      -0.322091        -8.7645
  23   2.0000      -0.309591        -8.4244
  24   2.0000      -0.285749        -7.7756
  25   2.0000      -0.282369        -7.6837
  26   2.0000      -0.276686        -7.5290
  27   2.0000      -0.259162        -7.0522
  28   2.0000      -0.207947        -5.6585
  29   0.0000       0.026461         0.7200
  30   0.0000       0.039371         1.0713
  31   0.0000       0.065661         1.7867
  32   0.0000       0.068555         1.8655
  33   0.0000       0.087440         2.3794

MULLIKEN ATOMIC CHARGES
-----------------------
   0 C :   -0.260078
   1 C :    0.000280
   2 H :    0.060714
   3 C :   -0.116779
   4 C :   -0.160403
   5 C :   -0.248993
   6 C :   -0.259185
   7 O :   -0.431175
   8 H :    0.085895
   9 H :    0.108930
  10 H :    0.100598
  11 H :    0.088352
  12 H :    0.077881
  13 H :    0.071497
  14 H :    0.096659
  15 H :    0.096143
  16 H :    0.096978
  17 H :    0.102603
  18 H :    0.103418
  19 H :    0.097424
  20 H :    0.289241
Sum of atomic charges:   -0.0000000

LOEWDIN ATOMIC CHARGES
----------------------
   0 C :   -0.352408
   1 C :   -0.055284
   2 H :    0.095742
   3 C :   -0.221189
   4 C :   -0.155597
   5 C :   -0.332261
   6 C :   -0.332734
   7 O :   -0.338224
   8 H :    0.113078
   9 H :    0.120844
  10 H :    0.122413
  11 H :    0.122861
  12 H :    0.116835
  13 H :    0.118699
  14 H :    0.117020
  15 H :    0.117463
  16 H :    0.113712
  17 H :    0.114278
  18 H :    0.118684
  19 H :    0.118263
  20 H :    0.277805

  Mayer bond orders larger than 0.100000
B(  0-C ,  1-C ) :   1.1179 B(  0-C ,  8-H ) :   0.9412 B(  0-C ,  9-H ) :   0.9234
B(  0-C , 10-H ) :   0.9401 B(  1-C ,  2-H ) :   0.9012 B(  1-C ,  3-C ) :   1.0914
B(  1-C ,  7-O ) :   1.0470 B(  3-C ,  4-C ) :   1.0721 B(  3-C , 11-H ) :   0.9072
B(  3-C , 12-H ) :   0.9116 B(  4-C ,  5-C ) :   1.1173 B(  4-C ,  6-C ) :   1.1118
B(  4-C , 13-H ) :   0.8975 B(  5-C , 14-H ) :   0.9493 B(  5-C , 15-H ) :   0.9483
B(  5-C , 16-H ) :   0.9415 B(  6-C , 17-H ) :   0.9409 B(  6-C , 18-H ) :   0.9499
B(  6-C , 19-H ) :   0.9478 B(  7-O , 20-H ) :   0.8529

Dispersion correction           -0.016813832
FINAL SINGLE POINT ENERGY      -311.514358679355

DIPOLE MOMENT
-------------

Method             : SCF
Type of density    : Electron Density
Multiplicity       :   1
Irrep              :   0
Energy             :  -311.5935557405439340 Eh
Relativity type    :
Basis              : AO
                                X                 Y                 Z
Electronic contribution:      4.263393954       0.500042438       3.806323746
Nuclear contribution   :     -4.179532999      -0.808247477      -4.242263216
                        -----------------------------------------
Total Dipole Moment    :      0.083860955      -0.308205039      -0.435939470
                        -----------------------------------------
Magnitude (a.u.)       :      0.540431520
Magnitude (Debye)      :      1.373667757

Rotational constants in cm-1:             0.130566             0.052275             0.047164
Rotational constants in MHz :          3914.259486          1567.162574          1413.926273

                             ****ORCA TERMINATED NORMALLY****
TOTAL RUN TIME: 0 days 0 hours 0 minutes 9 seconds 769 msec
