                         Program Version 6.0.0  -   RELEASE  -
|  1> ! pbe def2-sv(p) def2/J RI DEFGRID1 loosescf d4 GCP(DFT/SV(P)) printgap
|  2> %output
|  3>     printlevel normal
|  4> end
|  5> * xyz 0 1
|  6> C -1.0815379647 -0.6187990592 -0.0220589031
|  7> C 0.017583277 0.2479852113 0.6228137599
|  8> C 1.348428001 -0.515431698 0.6503697542
|  9> O 1.7985262757 -0.8396667092 -0.6412904918
| 10> O 0.2357767148 1.4372833171 -0.1154662301
| 11> O -2.2609695554 0.1118489119 -0.2780746053
| 12> H -1.3546610821 -1.4152090017 0.6724347944
| 13> H -0.6905386255 -1.0691840198 -0.9401738244
| 14> H -0.2693084994 0.4951788354 1.6533101911
| 15> H 1.2227336255 -1.459536249 1.1820238186
| 16> H 2.0944052763 0.0969739098 1.172418538
| 17> H 1.8656935607 -0.0134413842 -1.1438506108
| 18> H -0.5265124103 2.0207137815 -0.0020598982
| 19> H -2.133668343 0.6435056478 -1.0763965882
| 20> *
| 21>
| 22>                          ****END OF INPUT****

CARTESIAN COORDINATES (ANGSTROEM)
---------------------------------
  C     -1.081538   -0.618799   -0.022059
  C      0.017583    0.247985    0.622814
  C      1.348428   -0.515432    0.650370
  O      1.798526   -0.839667   -0.641290
  O      0.235777    1.437283   -0.115466
  O     -2.260970    0.111849   -0.278075
  H     -1.354661   -1.415209    0.672435
  H     -0.690539   -1.069184   -0.940174
  H     -0.269308    0.495179    1.653310
  H      1.222734   -1.459536    1.182024
  H      2.094405    0.096974    1.172419
  H      1.865694   -0.013441   -1.143851
  H     -0.526512    2.020714   -0.002060
  H     -2.133668    0.643506   -1.076397

 Total Charge           Charge          ....    0
 Multiplicity           Mult            ....    1
 Number of Electrons    NEL             ....   50
 Basis Dimension        Dim             ....  100

ORBITAL ENERGIES
----------------

  NO   OCC          E(Eh)            E(eV)
   0   2.0000     -18.762124      -510.5434
   1   2.0000     -18.751869      -510.2643
   2   2.0000     -18.744450      -510.0624
   3   2.0000      -9.938710      -270.4461
   4   2.0000      -9.931403      -270.2472
   5   2.0000      -9.927230      -270.1337
   6   2.0000      -0.947080       -25.7714
   7   2.0000      -0.922370       -25.0990
   8   2.0000      -0.912587       -24.8327
   9   2.0000      -0.683584       -18.6013
  10   2.0000      -0.603345       -16.4178
  11   2.0000      -0.544466       -14.8157
  12   2.0000      -0.477255       -12.9868
  13   2.0000      -0.473277       -12.8785
  14   2.0000      -0.446841       -12.1592
  15   2.0000      -0.395548       -10.7634
  16   2.0000      -0.385507       -10.4902
  17   2.0000      -0.372486       -10.1359
  18   2.0000      -0.361104        -9.8261
  19   2.0000      -0.310838        -8.4583
  20   2.0000      -0.284158        -7.7323
  21   2.0000      -0.269397        -7.3307
  22   2.0000      -0.251080        -6.8322
  23   2.0000      -0.226861        -6.1732
  24   2.0000      -0.203590        -5.5400
  25   0.0000       0.005381         0.1464
  26   0.0000       0.042405         1.1539
  27   0.0000       0.059743         1.6257
  28   0.0000       0.069582         1.8934
  29   0.0000       0.090099         2.4517

MULLIKEN ATOMIC CHARGES
-----------------------
   0 C :    0.029446
   1 C :   -0.036347
   2 C :    0.046511
   3 O :   -0.439897
   4 O :   -0.444757
   5 O :   -0.438291
   6 H :    0.082616
   7 H :    0.078515
   8 H :    0.064207
   9 H :    0.088936
  10 H :    0.080887
  11 H :    0.301892
  12 H :    0.296316
  13 H :    0.289966
Sum of atomic charges:    0.0000000

LOEWDIN ATOMIC CHARGES
----------------------
   0 C :   -0.142449
   1 C :   -0.101185
   2 C :   -0.123982
   3 O :   -0.335792
   4 O :   -0.337537
   5 O :   -0.339990
   6 H :    0.114447
   7 H :    0.102395
   8 H :    0.102989
   9 H :    0.116717
  10 H :    0.101529
  11 H :    0.283249
  12 H :    0.281843
  13 H :    0.277766

  Mayer bond orders larger than 0.100000
B(  0-C ,  1-C ) :   1.0163 B(  0-C ,  5-O ) :   1.0747 B(  0-C ,  6-H ) :   0.9208
B(  0-C ,  7-H ) :   0.9115 B(  1-C ,  2-C ) :   1.0413 B(  1-C ,  4-O ) :   1.0470
B(  1-C ,  8-H ) :   0.8970 B(  2-C ,  3-O ) :   1.0571 B(  2-C ,  9-H ) :   0.9284
B(  2-C , 10-H ) :   0.9137 B(  3-O , 11-H ) :   0.8417 B(  4-O , 12-H ) :   0.8392
B(  5-O , 13-H ) :   0.8478

Dispersion correction           -0.009252104
FINAL SINGLE POINT ENERGY      -344.010164344689

DIPOLE MOMENT
-------------

Method             : SCF
Type of density    : Electron Density
Multiplicity       :   1
Irrep              :   0
Energy             :  -344.0841320725884316 Eh
Relativity type    :
Basis              : AO
                                X                 Y                 Z
Electronic contribution:     -0.333861375       1.286357492      -1.392286642
Nuclear contribution   :      0.191908391      -0.647121602       1.408503131
                        -----------------------------------------
Total Dipole Moment    :     -0.141952984       0.639235890       0.016216489
                        -----------------------------------------
Magnitude (a.u.)       :      0.655008509
Magnitude (Debye)      :      1.664899319

Rotational constants in cm-1:             0.197224             0.077117             0.067259
Rotational constants in MHz :          5912.639947          2311.904674          2016.371204

                             ****ORCA TERMINATED NORMALLY****
TOTAL RUN TIME: 0 days 0 hours 0 minutes 6 seconds 714 msec
