                         Program Version 6.0.0  -   RELEASE  -
|  1> ! r2scan-3c def2/J RI DEFGRID2 scfconv6 printgap
|  2> %output
|  3>     printlevel normal
|  4> end
|  5> * xyz 0 1
|  6> C -2.4577906594 0.263324768 0.6275307522
|  7> C -1.150059495 -0.3342276917 0.0971602704
|  8> C -1.3542930263 -0.6749531645 -1.3796948665
|  9> C 0.0346301282 0.6288238587 0.3290002386
| 10> C 0.1063939681 1.0424625904 1.8043789928
| 11> C 1.4290286624 0.1025930628 -0.1019441965
| 12> C 1.6651503241 -1.3698290511 0.2305030131
| 13> C 1.7621075884 0.3840197884 -1.5687174482
| 14> H -2.6184143044 1.2564910699 0.2129222583
| 15> H -3.2959116947 -0.3657863436 0.3352878919
| 16> H -2.4601608132 0.3308722035 1.710963894
| 17> H -0.9605097715 -1.2615906314 0.6463799509
| 18> H -0.5487888 -1.2889309285 -1.7688156734
| 19> H -1.4206666096 0.2338228377 -1.9737109109
| 20> H -2.2805407196 -1.2323719107 -1.5060215856
| 21> H -0.1613229939 1.5350668702 -0.2570341009
| 22> H -0.7662778464 1.6172669905 2.0976334354
| 23> H 0.9814541659 1.6645192726 1.9798466785
| 24> H 0.1763271751 0.1666187881 2.4456944754
| 25> H 2.1575447385 0.6780824524 0.482640938
| 26> H 1.4412003418 -1.5699974527 1.2751861303
| 27> H 1.0550693595 -2.022378619 -0.3875525319
| 28> H 2.7091482041 -1.6212345401 0.0547634992
| 29> H 1.1612653564 -0.210292988 -2.2483345479
| 30> H 2.808871978 0.1517606942 -1.7558539724
| 31> H 1.6026262829 1.4350221209 -1.7994194381
| 32> *
| 33>
| 34>                          ****END OF INPUT****

CARTESIAN COORDINATES (ANGSTROEM)
---------------------------------
  C     -2.457791    0.263325    0.627531
  C     -1.150059   -0.334228    0.097160
  C     -1.354293   -0.674953   -1.379695
  C      0.034630    0.628824    0.329000
  C      0.106394    1.042463    1.804379
  C      1.429029    0.102593   -0.101944
  C      1.665150   -1.369829    0.230503
  C      1.762108    0.384020   -1.568717
  H     -2.618414    1.256491    0.212922
  H     -3.295912   -0.365786    0.335288
  H     -2.460161    0.330872    1.710964
  H     -0.960510   -1.261591    0.646380
  H     -0.548789   -1.288931   -1.768816
  H     -1.420667    0.233823   -1.973711
  H     -2.280541   -1.232372   -1.506022
  H     -0.161323    1.535067   -0.257034
  H     -0.766278    1.617267    2.097633
  H      0.981454    1.664519    1.979847
  H      0.176327    0.166619    2.445694
  H      2.157545    0.678082    0.482641
  H      1.441200   -1.569997    1.275186
  H      1.055069   -2.022379   -0.387553
  H      2.709148   -1.621235    0.054763
  H      1.161265   -0.210293   -2.248335
  H      2.808872    0.151761   -1.755854
  H      1.602626    1.435022   -1.799419

 Total Charge           Charge          ....    0
 Multiplicity           Mult            ....    1
 Number of Electrons    NEL             ....   66
 Basis Dimension        Dim             ....  242

ORBITAL ENERGIES
----------------

  NO   OCC          E(Eh)            E(eV)
   0   2.0000     -10.029981      -272.9297
   1   2.0000     -10.029022      -272.9036
   2   2.0000     -10.027683      -272.8671
   3   2.0000     -10.012996      -272.4675
   4   2.0000     -10.011836      -272.4359
   5   2.0000     -10.011714      -272.4326
   6   2.0000     -10.011194      -272.4184
   7   2.0000     -10.010194      -272.3912
   8   2.0000      -0.793211       -21.5844
   9   2.0000      -0.740997       -20.1635
  10   2.0000      -0.692696       -18.8492
  11   2.0000      -0.647924       -17.6309
  12   2.0000      -0.643843       -17.5199
  13   2.0000      -0.593029       -16.1371
  14   2.0000      -0.547591       -14.9007
  15   2.0000      -0.502153       -13.6643
  16   2.0000      -0.437770       -11.9123
  17   2.0000      -0.423141       -11.5142
  18   2.0000      -0.408871       -11.1259
  19   2.0000      -0.399496       -10.8708
  20   2.0000      -0.381931       -10.3929
  21   2.0000      -0.368600       -10.0301
  22   2.0000      -0.356674        -9.7056
  23   2.0000      -0.355371        -9.6701
  24   2.0000      -0.346329        -9.4241
  25   2.0000      -0.342814        -9.3284
  26   2.0000      -0.321588        -8.7509
  27   2.0000      -0.315100        -8.5743
  28   2.0000      -0.300800        -8.1852
  29   2.0000      -0.297569        -8.0973
  30   2.0000      -0.277493        -7.5510
  31   2.0000      -0.271258        -7.3813
  32   2.0000      -0.264656        -7.2017
  33   0.0000       0.075591         2.0569
  34   0.0000       0.105508         2.8710
  35   0.0000       0.108380         2.9492
  36   0.0000       0.110884         3.0173
  37   0.0000       0.118526         3.2253

MULLIKEN ATOMIC CHARGES
-----------------------
   0 C :   -0.517131
   1 C :   -0.004566
   2 C :   -0.536948
   3 C :   -0.097918
   4 C :   -0.537420
   5 C :   -0.044815
   6 C :   -0.511027
   7 C :   -0.494570
   8 H :    0.157296
   9 H :    0.142010
  10 H :    0.156522
  11 H :    0.164447
  12 H :    0.146375
  13 H :    0.164614
  14 H :    0.142560
  15 H :    0.165591
  16 H :    0.158830
  17 H :    0.143902
  18 H :    0.157142
  19 H :    0.143384
  20 H :    0.156316
  21 H :    0.151735
  22 H :    0.147955
  23 H :    0.150189
  24 H :    0.145915
  25 H :    0.149613
Sum of atomic charges:   -0.0000000

LOEWDIN ATOMIC CHARGES
----------------------
   0 C :   -0.416319
   1 C :   -0.234175
   2 C :   -0.416263
   3 C :   -0.226420
   4 C :   -0.412709
   5 C :   -0.237741
   6 C :   -0.413934
   7 C :   -0.415918
   8 H :    0.155726
   9 H :    0.151862
  10 H :    0.153020
  11 H :    0.159878
  12 H :    0.148950
  13 H :    0.155863
  14 H :    0.151769
  15 H :    0.161440
  16 H :    0.153766
  17 H :    0.151564
  18 H :    0.154706
  19 H :    0.157696
  20 H :    0.153709
  21 H :    0.152380
  22 H :    0.153666
  23 H :    0.153030
  24 H :    0.151659
  25 H :    0.152796

  Mayer bond orders larger than 0.100000
B(  0-C ,  1-C ) :   0.8770 B(  0-C ,  8-H ) :   0.9878 B(  0-C ,  9-H ) :   0.9752
B(  0-C , 10-H ) :   0.9749 B(  1-C ,  2-C ) :   0.8755 B(  1-C ,  3-C ) :   0.8512
B(  1-C , 11-H ) :   0.9644 B(  2-C , 12-H ) :   0.9727 B(  2-C , 13-H ) :   0.9900
B(  2-C , 14-H ) :   0.9743 B(  3-C ,  4-C ) :   0.8883 B(  3-C ,  5-C ) :   0.8554
B(  3-C , 15-H ) :   1.0065 B(  4-C , 16-H ) :   0.9750 B(  4-C , 17-H ) :   0.9773
B(  4-C , 18-H ) :   0.9840 B(  5-C ,  6-C ) :   0.8690 B(  5-C ,  7-C ) :   0.9201
B(  5-C , 19-H ) :   0.9927 B(  6-C , 20-H ) :   0.9873 B(  6-C , 21-H ) :   0.9770
B(  6-C , 22-H ) :   0.9682 B(  7-C , 23-H ) :   0.9693 B(  7-C , 24-H ) :   0.9789
B(  7-C , 25-H ) :   0.9861

Dispersion correction           -0.008187680
FINAL SINGLE POINT ENERGY      -315.581230731138

DIPOLE MOMENT
-------------

Method             : SCF
Type of density    : Electron Density
Multiplicity       :   1
Irrep              :   0
Energy             :  -315.5860989819286715 Eh
Relativity type    :
Basis              : AO
                                X                 Y                 Z
Electronic contribution:      0.409963522       0.481062632       0.454840774
Nuclear contribution   :     -0.393170360      -0.471951698      -0.427260957
                        -----------------------------------------
Total Dipole Moment    :      0.016793162       0.009110934       0.027579817
                        -----------------------------------------
Magnitude (a.u.)       :      0.033550943
Magnitude (Debye)      :      0.085279719

Rotational constants in cm-1:             0.081684             0.049888             0.040043
Rotational constants in MHz :          2448.833410          1495.602012          1200.462679

                             ****ORCA TERMINATED NORMALLY****
TOTAL RUN TIME: 0 days 0 hours 0 minutes 28 seconds 47 msec
