                         Program Version 6.0.0  -   RELEASE  -
|  1> ! r2scan-3c def2/J RI DEFGRID2 scfconv6 printgap
|  2> %output
|  3>     printlevel normal
|  4> end
|  5> %cpcm
|  6>     smd true
|  7>     smdsolvent "water"
|  8> end
|  9> * xyz 0 1
| 10> C -2.4577906594 0.263324768 0.6275307522
| 11> C -1.150059495 -0.3342276917 0.0971602704
| 12> C -1.3542930263 -0.6749531645 -1.3796948665
| 13> C 0.0346301282 0.6288238587 0.3290002386
| 14> C 0.1063939681 1.0424625904 1.8043789928
| 15> C 1.4290286624 0.1025930628 -0.1019441965
| 16> C 1.6651503241 -1.3698290511 0.2305030131
| 17> C 1.7621075884 0.3840197884 -1.5687174482
| 18> H -2.6184143044 1.2564910699 0.2129222583
| 19> H -3.2959116947 -0.3657863436 0.3352878919
| 20> H -2.4601608132 0.3308722035 1.710963894
| 21> H -0.9605097715 -1.2615906314 0.6463799509
| 22> H -0.5487888 -1.2889309285 -1.7688156734
| 23> H -1.4206666096 0.2338228377 -1.9737109109
| 24> H -2.2805407196 -1.2323719107 -1.5060215856
| 25> H -0.1613229939 1.5350668702 -0.2570341009
| 26> H -0.7662778464 1.6172669905 2.0976334354
| 27> H 0.9814541659 1.6645192726 1.9798466785
| 28> H 0.1763271751 0.1666187881 2.4456944754
| 29> H 2.1575447385 0.6780824524 0.482640938
| 30> H 1.4412003418 -1.5699974527 1.2751861303
| 31> H 1.0550693595 -2.022378619 -0.3875525319
| 32> H 2.7091482041 -1.6212345401 0.0547634992
| 33> H 1.1612653564 -0.210292988 -2.2483345479
| 34> H 2.808871978 0.1517606942 -1.7558539724
| 35> H 1.6026262829 1.4350221209 -1.7994194381
| 36> *
| 37>
| 38>                          ****END OF INPUT****

CARTESIAN COORDINATES (ANGSTROEM)
---------------------------------
  C     -2.457791    0.263325    0.627531
  C     -1.150059   -0.334228    0.097160
  C     -1.354293   -0.674953   -1.379695
  C      0.034630    0.628824    0.329000
  C      0.106394    1.042463    1.804379
  C      1.429029    0.102593   -0.101944
  C      1.665150   -1.369829    0.230503
  C      1.762108    0.384020   -1.568717
  H     -2.618414    1.256491    0.212922
  H     -3.295912   -0.365786    0.335288
  H     -2.460161    0.330872    1.710964
  H     -0.960510   -1.261591    0.646380
  H     -0.548789   -1.288931   -1.768816
  H     -1.420667    0.233823   -1.973711
  H     -2.280541   -1.232372   -1.506022
  H     -0.161323    1.535067   -0.257034
  H     -0.766278    1.617267    2.097633
  H      0.981454    1.664519    1.979847
  H      0.176327    0.166619    2.445694
  H      2.157545    0.678082    0.482641
  H      1.441200   -1.569997    1.275186
  H      1.055069   -2.022379   -0.387553
  H      2.709148   -1.621235    0.054763
  H      1.161265   -0.210293   -2.248335
  H      2.808872    0.151761   -1.755854
  H      1.602626    1.435022   -1.799419

 Total Charge           Charge          ....    0
 Multiplicity           Mult            ....    1
 Number of Electrons    NEL             ....   66
 Basis Dimension        Dim             ....  242

ORBITAL ENERGIES
----------------

  NO   OCC          E(Eh)            E(eV)
   0   2.0000     -10.021726      -272.7050
   1   2.0000     -10.020949      -272.6839
   2   2.0000     -10.019195      -272.6361
   3   2.0000     -10.004370      -272.2328
   4   2.0000     -10.003738      -272.2156
   5   2.0000     -10.002975      -272.1948
   6   2.0000     -10.002843      -272.1912
   7   2.0000     -10.002701      -272.1873
   8   2.0000      -0.784923       -21.3589
   9   2.0000      -0.733032       -19.9468
  10   2.0000      -0.684772       -18.6336
  11   2.0000      -0.640446       -17.4274
  12   2.0000      -0.636186       -17.3115
  13   2.0000      -0.585270       -15.9260
  14   2.0000      -0.539803       -14.6888
  15   2.0000      -0.493915       -13.4401
  16   2.0000      -0.429459       -11.6862
  17   2.0000      -0.415187       -11.2978
  18   2.0000      -0.400941       -10.9102
  19   2.0000      -0.391330       -10.6486
  20   2.0000      -0.374132       -10.1807
  21   2.0000      -0.360396        -9.8069
  22   2.0000      -0.348929        -9.4948
  23   2.0000      -0.347362        -9.4522
  24   2.0000      -0.338148        -9.2015
  25   2.0000      -0.335064        -9.1176
  26   2.0000      -0.313546        -8.5320
  27   2.0000      -0.306782        -8.3480
  28   2.0000      -0.292756        -7.9663
  29   2.0000      -0.289528        -7.8785
  30   2.0000      -0.269035        -7.3208
  31   2.0000      -0.263224        -7.1627
  32   2.0000      -0.256439        -6.9780
  33   0.0000       0.084524         2.3000
  34   0.0000       0.113672         3.0932
  35   0.0000       0.116023         3.1571
  36   0.0000       0.119107         3.2411
  37   0.0000       0.126691         3.4474

MULLIKEN ATOMIC CHARGES
-----------------------
   0 C :   -0.557140
   1 C :    0.010661
   2 C :   -0.583117
   3 C :   -0.090829
   4 C :   -0.579272
   5 C :   -0.028878
   6 C :   -0.553782
   7 C :   -0.544262
   8 H :    0.166924
   9 H :    0.153843
  10 H :    0.164836
  11 H :    0.169693
  12 H :    0.163406
  13 H :    0.172403
  14 H :    0.153590
  15 H :    0.172769
  16 H :    0.166569
  17 H :    0.155239
  18 H :    0.168666
  19 H :    0.151508
  20 H :    0.167099
  21 H :    0.164317
  22 H :    0.157941
  23 H :    0.161335
  24 H :    0.156146
  25 H :    0.160334
Sum of atomic charges:   -0.0000000

LOEWDIN ATOMIC CHARGES
----------------------
   0 C :   -0.424746
   1 C :   -0.232448
   2 C :   -0.424832
   3 C :   -0.225349
   4 C :   -0.420962
   5 C :   -0.235979
   6 C :   -0.422489
   7 C :   -0.425181
   8 H :    0.157753
   9 H :    0.153992
  10 H :    0.154845
  11 H :    0.161365
  12 H :    0.153385
  13 H :    0.157051
  14 H :    0.153687
  15 H :    0.163443
  16 H :    0.155210
  17 H :    0.153609
  18 H :    0.157493
  19 H :    0.159770
  20 H :    0.156356
  21 H :    0.155472
  22 H :    0.155114
  23 H :    0.155042
  24 H :    0.153540
  25 H :    0.154859

  Mayer bond orders larger than 0.100000
B(  0-C ,  1-C ) :   0.8704 B(  0-C ,  8-H ) :   0.9858 B(  0-C ,  9-H ) :   0.9741
B(  0-C , 10-H ) :   0.9719 B(  1-C ,  2-C ) :   0.8644 B(  1-C ,  3-C ) :   0.8505
B(  1-C , 11-H ) :   0.9663 B(  2-C , 12-H ) :   0.9697 B(  2-C , 13-H ) :   0.9877
B(  2-C , 14-H ) :   0.9730 B(  3-C ,  4-C ) :   0.8822 B(  3-C ,  5-C ) :   0.8542
B(  3-C , 15-H ) :   1.0065 B(  4-C , 16-H ) :   0.9726 B(  4-C , 17-H ) :   0.9759
B(  4-C , 18-H ) :   0.9815 B(  5-C ,  6-C ) :   0.8620 B(  5-C ,  7-C ) :   0.9083
B(  5-C , 19-H ) :   0.9946 B(  6-C , 20-H ) :   0.9832 B(  6-C , 21-H ) :   0.9749
B(  6-C , 22-H ) :   0.9676 B(  7-C , 23-H ) :   0.9699 B(  7-C , 24-H ) :   0.9777
B(  7-C , 25-H ) :   0.9830

Dispersion correction           -0.008187680
FINAL SINGLE POINT ENERGY      -315.577149823270

DIPOLE MOMENT
-------------

Method             : SCF
Type of density    : Electron Density
Multiplicity       :   1
Irrep              :   0
Energy             :  -315.5820180740606702 Eh
Relativity type    :
Basis              : AO
                                X                 Y                 Z
Electronic contribution:      0.420124364       0.473019870       0.464203158
Nuclear contribution   :     -0.393170360      -0.471951698      -0.427260957
                        -----------------------------------------
Total Dipole Moment    :      0.026954004       0.001068172       0.036942201
                        -----------------------------------------
Magnitude (a.u.)       :      0.045742601
Magnitude (Debye)      :      0.116268452

Rotational constants in cm-1:             0.081684             0.049888             0.040043
Rotational constants in MHz :          2448.833410          1495.602012          1200.462679

                             ****ORCA TERMINATED NORMALLY****
TOTAL RUN TIME: 0 days 0 hours 0 minutes 33 seconds 544 msec
