                         Program Version 6.0.0  -   RELEASE  -
|  1> ! pbe def2-sv(p) def2/J RI DEFGRID1 loosescf d4 GCP(DFT/SV(P)) printgap
|  2> %output
|  3>     printlevel normal
|  4> end
|  5> * xyz 0 1
|  6> C 2.1193711272 -1.0292847686 -0.3976168442
|  7> C 1.7568997085 0.3712421633 0.0820692843
|  8> C 0.3731024969 0.456684454 0.7280268708
|  9> C -0.7942966008 0.2046396914 -0.2471347194
| 10> H -0.4357298716 0.3365070792 -1.280538739
| 11> C -1.3797790833 -1.1964996934 -0.0987016254
| 12> O -1.8675718955 1.111018043 -0.0223067851
| 13> H 1.4598064697 -1.3479893234 -1.2004886591
| 14> H 2.0429990296 -1.742771959 0.4196920101
| 15> H 3.1404706259 -1.044183512 -0.7713767849
| 16> H 2.4961021254 0.6936546332 0.818662317
| 17> H 1.80734533 1.064924505 -0.7605286945
| 18> H 0.3124198917 -0.2527552491 1.5547349763
| 19> H 0.2524590558 1.4559809101 1.1532025283
| 20> H -1.8049976429 -1.3028015911 0.8961719351
| 21> H -2.1734140731 -1.3415835175 -0.8271648947
| 22> H -0.6131194255 -1.9491945612 -0.2460743408
| 23> H -1.5695387268 2.0133271441 -0.1963685343
| 24> *
| 25>
| 26>                          ****END OF INPUT****

CARTESIAN COORDINATES (ANGSTROEM)
---------------------------------
  C      2.119371   -1.029285   -0.397617
  C      1.756900    0.371242    0.082069
  C      0.373102    0.456684    0.728027
  C     -0.794297    0.204640   -0.247135
  H     -0.435730    0.336507   -1.280539
  C     -1.379779   -1.196500   -0.098702
  O     -1.867572    1.111018   -0.022307
  H      1.459806   -1.347989   -1.200489
  H      2.042999   -1.742772    0.419692
  H      3.140471   -1.044184   -0.771377
  H      2.496102    0.693655    0.818662
  H      1.807345    1.064925   -0.760529
  H      0.312420   -0.252755    1.554735
  H      0.252459    1.455981    1.153203
  H     -1.804998   -1.302802    0.896172
  H     -2.173414   -1.341584   -0.827165
  H     -0.613119   -1.949195   -0.246074
  H     -1.569539    2.013327   -0.196369

 Total Charge           Charge          ....    0
 Multiplicity           Mult            ....    1
 Number of Electrons    NEL             ....   50
 Basis Dimension        Dim             ....  108

ORBITAL ENERGIES
----------------

  NO   OCC          E(Eh)            E(eV)
   0   2.0000     -18.733910      -509.7756
   1   2.0000      -9.934263      -270.3250
   2   2.0000      -9.886828      -269.0343
   3   2.0000      -9.879657      -268.8391
   4   2.0000      -9.875682      -268.7310
   5   2.0000      -9.868852      -268.5451
   6   2.0000      -0.911308       -24.7980
   7   2.0000      -0.719102       -19.5678
   8   2.0000      -0.665241       -18.1021
   9   2.0000      -0.611523       -16.6404
  10   2.0000      -0.537226       -14.6187
  11   2.0000      -0.509853       -13.8738
  12   2.0000      -0.463528       -12.6132
  13   2.0000      -0.408136       -11.1059
  14   2.0000      -0.398234       -10.8365
  15   2.0000      -0.384191       -10.4544
  16   2.0000      -0.356466        -9.6999
  17   2.0000      -0.341301        -9.2873
  18   2.0000      -0.331103        -9.0098
  19   2.0000      -0.318810        -8.6753
  20   2.0000      -0.306422        -8.3382
  21   2.0000      -0.292818        -7.9680
  22   2.0000      -0.284369        -7.7381
  23   2.0000      -0.260591        -7.0910
  24   2.0000      -0.207293        -5.6407
  25   0.0000       0.027207         0.7403
  26   0.0000       0.051925         1.4130
  27   0.0000       0.063569         1.7298
  28   0.0000       0.067673         1.8415
  29   0.0000       0.088923         2.4197

MULLIKEN ATOMIC CHARGES
-----------------------
   0 C :   -0.291019
   1 C :   -0.194638
   2 C :   -0.143640
   3 C :    0.009294
   4 H :    0.062066
   5 C :   -0.255498
   6 O :   -0.432217
   7 H :    0.113987
   8 H :    0.101385
   9 H :    0.103970
  10 H :    0.085819
  11 H :    0.084264
  12 H :    0.081082
  13 H :    0.070793
  14 H :    0.104989
  15 H :    0.105063
  16 H :    0.102794
  17 H :    0.291507
Sum of atomic charges:    0.0000000

LOEWDIN ATOMIC CHARGES
----------------------
   0 C :   -0.344822
   1 C :   -0.233756
   2 C :   -0.240777
   3 C :   -0.053893
   4 H :    0.092538
   5 C :   -0.341131
   6 O :   -0.337552
   7 H :    0.116323
   8 H :    0.117754
   9 H :    0.120199
  10 H :    0.116221
  11 H :    0.111820
  12 H :    0.117541
  13 H :    0.114112
  14 H :    0.123422
  15 H :    0.122701
  16 H :    0.120845
  17 H :    0.278456

  Mayer bond orders larger than 0.100000
B(  0-C ,  1-C ) :   1.1543 B(  0-C ,  7-H ) :   0.9455 B(  0-C ,  8-H ) :   0.9523
B(  0-C ,  9-H ) :   0.9496 B(  1-C ,  2-C ) :   1.1126 B(  1-C , 10-H ) :   0.9236
B(  1-C , 11-H ) :   0.9260 B(  2-C ,  3-C ) :   1.0246 B(  2-C , 12-H ) :   0.9169
B(  2-C , 13-H ) :   0.9202 B(  3-C ,  4-H ) :   0.9202 B(  3-C ,  5-C ) :   1.1231
B(  3-C ,  6-O ) :   1.0615 B(  5-C , 14-H ) :   0.9399 B(  5-C , 15-H ) :   0.9450
B(  5-C , 16-H ) :   0.9407 B(  6-O , 17-H ) :   0.8536

Dispersion correction           -0.012823051
FINAL SINGLE POINT ENERGY      -272.300654619193

DIPOLE MOMENT
-------------

Method             : SCF
Type of density    : Electron Density
Multiplicity       :   1
Irrep              :   0
Energy             :  -272.3701705755536864 Eh
Relativity type    :
Basis              : AO
                                X                 Y                 Z
Electronic contribution:     -4.031905403       3.417870256       0.257135187
Nuclear contribution   :      4.583173605      -3.189109634      -0.413195166
                        -----------------------------------------
Total Dipole Moment    :      0.551268202       0.228760622      -0.156059979
                        -----------------------------------------
Magnitude (a.u.)       :      0.616913908
Magnitude (Debye)      :      1.568070537

Rotational constants in cm-1:             0.191924             0.070025             0.057254
Rotational constants in MHz :          5753.732576          2099.285246          1716.438146

                             ****ORCA TERMINATED NORMALLY****
TOTAL RUN TIME: 0 days 0 hours 0 minutes 7 seconds 436 msec
