                         Program Version 6.0.0  -   RELEASE  -
|  1> ! r2scan-3c def2/J RI DEFGRID2 scfconv6 printgap
|  2> %output
|  3>     printlevel normal
|  4> end
|  5> * xyz 0 1
|  6> C 1.7868806169 -0.7612837137 0.9598087931
|  7> C 1.1777713263 0.4363511931 0.231889083
|  8> H 0.8610155693 1.1872078613 0.9628220733
|  9> C -0.0065047517 0.0393084293 -0.6606293625
| 10> C -1.2422176872 -0.4909205547 0.0747549893
| 11> C -1.8827374266 0.5781460456 0.9571384406
| 12> C -2.2597696909 -0.9967624066 -0.9481989664
| 13> O 2.161505054 1.1138463108 -0.5372631356
| 14> H 2.0294370562 -1.5524363547 0.2532483012
| 15> H 2.6971942643 -0.4526179678 1.4682493351
| 16> H 1.0931232649 -1.1498392999 1.6982151349
| 17> H -0.2917468703 0.9191755345 -1.2434245813
| 18> H 0.3383882548 -0.7261518287 -1.361728054
| 19> H -0.9455190111 -1.3346241611 0.7055269477
| 20> H -1.2111830852 0.8859171196 1.7538730949
| 21> H -2.7926790805 0.1932730817 1.4115212055
| 22> H -2.1386871316 1.4535932089 0.3643750041
| 23> H -2.575084361 -0.1854768885 -1.6006288703
| 24> H -1.8307056871 -1.7849816803 -1.5622589884
| 25> H -3.1383158622 -1.3942078425 -0.4459271284
| 26> H 2.5102193257 0.5025405729 -1.2013932953
| 27> *
| 28>
| 29>                          ****END OF INPUT****

CARTESIAN COORDINATES (ANGSTROEM)
---------------------------------
  C      1.786881   -0.761284    0.959809
  C      1.177771    0.436351    0.231889
  H      0.861016    1.187208    0.962822
  C     -0.006505    0.039308   -0.660629
  C     -1.242218   -0.490921    0.074755
  C     -1.882737    0.578146    0.957138
  C     -2.259770   -0.996762   -0.948199
  O      2.161505    1.113846   -0.537263
  H      2.029437   -1.552436    0.253248
  H      2.697194   -0.452618    1.468249
  H      1.093123   -1.149839    1.698215
  H     -0.291747    0.919176   -1.243425
  H      0.338388   -0.726152   -1.361728
  H     -0.945519   -1.334624    0.705527
  H     -1.211183    0.885917    1.753873
  H     -2.792679    0.193273    1.411521
  H     -2.138687    1.453593    0.364375
  H     -2.575084   -0.185477   -1.600629
  H     -1.830706   -1.784982   -1.562259
  H     -3.138316   -1.394208   -0.445927
  H      2.510219    0.502541   -1.201393

 Total Charge           Charge          ....    0
 Multiplicity           Mult            ....    1
 Number of Electrons    NEL             ....   58
 Basis Dimension        Dim             ....  208

ORBITAL ENERGIES
----------------

  NO   OCC          E(Eh)            E(eV)
   0   2.0000     -18.941840      -515.4337
   1   2.0000     -10.078752      -274.2568
   2   2.0000     -10.036920      -273.1185
   3   2.0000     -10.022936      -272.7380
   4   2.0000     -10.019254      -272.6378
   5   2.0000     -10.017482      -272.5895
   6   2.0000     -10.017087      -272.5788
   7   2.0000      -0.980220       -26.6731
   8   2.0000      -0.781197       -21.2575
   9   2.0000      -0.718441       -19.5498
  10   2.0000      -0.653255       -17.7760
  11   2.0000      -0.649977       -17.6868
  12   2.0000      -0.575725       -15.6663
  13   2.0000      -0.527662       -14.3584
  14   2.0000      -0.459087       -12.4924
  15   2.0000      -0.441927       -12.0254
  16   2.0000      -0.417164       -11.3516
  17   2.0000      -0.408837       -11.1250
  18   2.0000      -0.388140       -10.5618
  19   2.0000      -0.375773       -10.2253
  20   2.0000      -0.358032        -9.7426
  21   2.0000      -0.345832        -9.4106
  22   2.0000      -0.341277        -9.2866
  23   2.0000      -0.324609        -8.8331
  24   2.0000      -0.316420        -8.6102
  25   2.0000      -0.298743        -8.1292
  26   2.0000      -0.292931        -7.9711
  27   2.0000      -0.277415        -7.5488
  28   2.0000      -0.230425        -6.2702
  29   0.0000       0.067586         1.8391
  30   0.0000       0.081120         2.2074
  31   0.0000       0.109220         2.9720
  32   0.0000       0.118643         3.2284
  33   0.0000       0.121130         3.2961

MULLIKEN ATOMIC CHARGES
-----------------------
   0 C :   -0.499994
   1 C :   -0.015984
   2 H :    0.140988
   3 C :   -0.265985
   4 C :   -0.057066
   5 C :   -0.490975
   6 C :   -0.479718
   7 O :   -0.405335
   8 H :    0.143375
   9 H :    0.165834
  10 H :    0.150224
  11 H :    0.164794
  12 H :    0.129041
  13 H :    0.146203
  14 H :    0.145953
  15 H :    0.145859
  16 H :    0.155094
  17 H :    0.148538
  18 H :    0.144703
  19 H :    0.146613
  20 H :    0.287839
Sum of atomic charges:   -0.0000000

LOEWDIN ATOMIC CHARGES
----------------------
   0 C :   -0.401750
   1 C :    0.043769
   2 H :    0.180657
   3 C :   -0.282901
   4 C :   -0.245478
   5 C :   -0.415373
   6 C :   -0.415086
   7 O :   -0.609923
   8 H :    0.153767
   9 H :    0.163394
  10 H :    0.156921
  11 H :    0.170335
  12 H :    0.158637
  13 H :    0.155266
  14 H :    0.151721
  15 H :    0.153881
  16 H :    0.155998
  17 H :    0.154881
  18 H :    0.152387
  19 H :    0.152248
  20 H :    0.266648

  Mayer bond orders larger than 0.100000
B(  0-C ,  1-C ) :   0.9278 B(  0-C ,  8-H ) :   0.9727 B(  0-C ,  9-H ) :   0.9708
B(  0-C , 10-H ) :   0.9706 B(  1-C ,  2-H ) :   0.9689 B(  1-C ,  3-C ) :   0.9145
B(  1-C ,  7-O ) :   0.9515 B(  3-C ,  4-C ) :   0.9006 B(  3-C , 11-H ) :   0.9754
B(  3-C , 12-H ) :   0.9659 B(  4-C ,  5-C ) :   0.8985 B(  4-C ,  6-C ) :   0.9005
B(  4-C , 13-H ) :   0.9588 B(  5-C , 14-H ) :   0.9715 B(  5-C , 15-H ) :   0.9729
B(  5-C , 16-H ) :   0.9851 B(  6-C , 17-H ) :   0.9862 B(  6-C , 18-H ) :   0.9792
B(  6-C , 19-H ) :   0.9748 B(  7-O , 20-H ) :   0.8967

Dispersion correction           -0.005571157
FINAL SINGLE POINT ENERGY      -312.203161753986

DIPOLE MOMENT
-------------

Method             : SCF
Type of density    : Electron Density
Multiplicity       :   1
Irrep              :   0
Energy             :  -312.2087092841701406 Eh
Relativity type    :
Basis              : AO
                                X                 Y                 Z
Electronic contribution:      4.793387936       2.604109231      -1.150894026
Nuclear contribution   :     -5.028885520      -3.209465705       1.120140288
                        -----------------------------------------
Total Dipole Moment    :     -0.235497584      -0.605356474      -0.030753738
                        -----------------------------------------
Magnitude (a.u.)       :      0.650277914
Magnitude (Debye)      :      1.652875100

Rotational constants in cm-1:             0.141055             0.045230             0.044069
Rotational constants in MHz :          4228.732955          1355.966287          1321.169011

                             ****ORCA TERMINATED NORMALLY****
TOTAL RUN TIME: 0 days 0 hours 0 minutes 30 seconds 729 msec
