                         Program Version 6.0.0  -   RELEASE  -
|  1> ! pbe def2-sv(p) def2/J RI DEFGRID1 loosescf d4 GCP(DFT/SV(P)) printgap
|  2> %output
|  3>     printlevel normal
|  4> end
|  5> * xyz 0 1
|  6> C -2.9058667077 0.5592663753 -0.6226042546
|  7> C -1.8442853798 -0.5234935428 -0.4551529455
|  8> C -1.1849856312 -0.4906228044 0.9344169517
|  9> C 0.3171847066 -0.1883586193 0.9270153116
| 10> C 1.1538384674 -1.2053151114 0.116890743
| 11> C 1.968449352 -0.3846415664 -0.8901042084
| 12> C 2.0623490059 0.9980708214 -0.2506632729
| 13> C 0.6691803249 1.1876362392 0.3406818531
| 14> H -2.4745031223 1.5477918201 -0.4808602061
| 15> H -3.3422522412 0.5145724459 -1.6182424241
| 16> H -3.70290451 0.4274059252 0.1060114051
| 17> H -2.3121309497 -1.4962635777 -0.6187674584
| 18> H -1.0872027241 -0.3980949541 -1.2298742656
| 19> H -1.6782616226 0.2666236477 1.5475825696
| 20> H -1.330779067 -1.4508094991 1.4336600575
| 21> H 0.6525196701 -0.212687083 1.969293492
| 22> H 1.8222998267 -1.7516990172 0.7827173318
| 23> H 0.5199688729 -1.9355928687 -0.3834051125
| 24> H 2.9459012856 -0.8231799651 -1.0863520296
| 25> H 1.4340032814 -0.3108115272 -1.838919769
| 26> H 2.8090580341 0.9905151612 0.5452458371
| 27> H 2.326381423 1.7759096669 -0.9659941036
| 28> H 0.635049345 1.9724471543 1.0953264879
| 29> H -0.0279066671 1.4494253463 -0.4548297068
| 30> *
| 31>
| 32>                          ****END OF INPUT****

CARTESIAN COORDINATES (ANGSTROEM)
---------------------------------
  C     -2.905867    0.559266   -0.622604
  C     -1.844285   -0.523494   -0.455153
  C     -1.184986   -0.490623    0.934417
  C      0.317185   -0.188359    0.927015
  C      1.153838   -1.205315    0.116891
  C      1.968449   -0.384642   -0.890104
  C      2.062349    0.998071   -0.250663
  C      0.669180    1.187636    0.340682
  H     -2.474503    1.547792   -0.480860
  H     -3.342252    0.514572   -1.618242
  H     -3.702905    0.427406    0.106011
  H     -2.312131   -1.496264   -0.618767
  H     -1.087203   -0.398095   -1.229874
  H     -1.678262    0.266624    1.547583
  H     -1.330779   -1.450809    1.433660
  H      0.652520   -0.212687    1.969293
  H      1.822300   -1.751699    0.782717
  H      0.519969   -1.935593   -0.383405
  H      2.945901   -0.823180   -1.086352
  H      1.434003   -0.310812   -1.838920
  H      2.809058    0.990515    0.545246
  H      2.326381    1.775910   -0.965994
  H      0.635049    1.972447    1.095326
  H     -0.027907    1.449425   -0.454830

 Total Charge           Charge          ....    0
 Multiplicity           Mult            ....    1
 Number of Electrons    NEL             ....   64
 Basis Dimension        Dim             ....  144

ORBITAL ENERGIES
----------------

  NO   OCC          E(Eh)            E(eV)
   0   2.0000      -9.883805      -268.9520
   1   2.0000      -9.879077      -268.8233
   2   2.0000      -9.875749      -268.7328
   3   2.0000      -9.875673      -268.7307
   4   2.0000      -9.875461      -268.7249
   5   2.0000      -9.873542      -268.6727
   6   2.0000      -9.872832      -268.6534
   7   2.0000      -9.870561      -268.5916
   8   2.0000      -0.758677       -20.6446
   9   2.0000      -0.702134       -19.1060
  10   2.0000      -0.645209       -17.5570
  11   2.0000      -0.629940       -17.1415
  12   2.0000      -0.579961       -15.7815
  13   2.0000      -0.526297       -14.3213
  14   2.0000      -0.503836       -13.7101
  15   2.0000      -0.471979       -12.8432
  16   2.0000      -0.434944       -11.8354
  17   2.0000      -0.420100       -11.4315
  18   2.0000      -0.406035       -11.0488
  19   2.0000      -0.374231       -10.1834
  20   2.0000      -0.366957        -9.9854
  21   2.0000      -0.360183        -9.8011
  22   2.0000      -0.350082        -9.5262
  23   2.0000      -0.305600        -8.3158
  24   2.0000      -0.303116        -8.2482
  25   2.0000      -0.299228        -8.1424
  26   2.0000      -0.290354        -7.9009
  27   2.0000      -0.289039        -7.8651
  28   2.0000      -0.278914        -7.5896
  29   2.0000      -0.268308        -7.3010
  30   2.0000      -0.263235        -7.1630
  31   2.0000      -0.256577        -6.9818
  32   0.0000       0.031730         0.8634
  33   0.0000       0.043350         1.1796
  34   0.0000       0.052665         1.4331
  35   0.0000       0.067785         1.8445
  36   0.0000       0.081247         2.2108

MULLIKEN ATOMIC CHARGES
-----------------------
   0 C :   -0.290669
   1 C :   -0.205632
   2 C :   -0.102452
   3 C :   -0.196595
   4 C :   -0.109930
   5 C :   -0.175799
   6 C :   -0.153045
   7 C :   -0.137937
   8 H :    0.105899
   9 H :    0.098732
  10 H :    0.102796
  11 H :    0.084007
  12 H :    0.099642
  13 H :    0.078417
  14 H :    0.079123
  15 H :    0.060029
  16 H :    0.076246
  17 H :    0.084824
  18 H :    0.084223
  19 H :    0.083339
  20 H :    0.079407
  21 H :    0.086094
  22 H :    0.082211
  23 H :    0.087072
Sum of atomic charges:   -0.0000000

LOEWDIN ATOMIC CHARGES
----------------------
   0 C :   -0.340186
   1 C :   -0.240705
   2 C :   -0.217845
   3 C :   -0.143885
   4 C :   -0.224878
   5 C :   -0.228859
   6 C :   -0.226664
   7 C :   -0.223972
   8 H :    0.114628
   9 H :    0.116629
  10 H :    0.116876
  11 H :    0.116753
  12 H :    0.113117
  13 H :    0.114109
  14 H :    0.115551
  15 H :    0.114729
  16 H :    0.117857
  17 H :    0.116521
  18 H :    0.115276
  19 H :    0.113644
  20 H :    0.114279
  21 H :    0.114599
  22 H :    0.116020
  23 H :    0.116406

  Mayer bond orders larger than 0.100000
B(  0-C ,  1-C ) :   1.1592 B(  0-C ,  8-H ) :   0.9502 B(  0-C ,  9-H ) :   0.9518
B(  0-C , 10-H ) :   0.9532 B(  1-C ,  2-C ) :   1.0824 B(  1-C , 11-H ) :   0.9278
B(  1-C , 12-H ) :   0.9270 B(  2-C ,  3-C ) :   1.1009 B(  2-C , 13-H ) :   0.9273
B(  2-C , 14-H ) :   0.9214 B(  3-C ,  4-C ) :   1.1064 B(  3-C ,  7-C ) :   1.1259
B(  3-C , 15-H ) :   0.8918 B(  4-C ,  5-C ) :   1.1611 B(  4-C , 16-H ) :   0.9140
B(  4-C , 17-H ) :   0.9179 B(  5-C ,  6-C ) :   1.1308 B(  5-C , 18-H ) :   0.9242
B(  5-C , 19-H ) :   0.9160 B(  6-C ,  7-C ) :   1.1215 B(  6-C , 20-H ) :   0.9225
B(  6-C , 21-H ) :   0.9283 B(  7-C , 22-H ) :   0.9218 B(  7-C , 23-H ) :   0.9032

Dispersion correction           -0.021402258
FINAL SINGLE POINT ENERGY      -313.688035686535

DIPOLE MOMENT
-------------

Method             : SCF
Type of density    : Electron Density
Multiplicity       :   1
Irrep              :   0
Energy             :  -313.7689871296364004 Eh
Relativity type    :
Basis              : AO
                                X                 Y                 Z
Electronic contribution:      2.648436112      -0.554731303       1.145656037
Nuclear contribution   :     -2.636950362       0.530580617      -1.123363830
                        -----------------------------------------
Total Dipole Moment    :      0.011485750      -0.024150686       0.022292207
                        -----------------------------------------
Magnitude (a.u.)       :      0.034815522
Magnitude (Debye)      :      0.088494024

Rotational constants in cm-1:             0.116471             0.041089             0.038690
Rotational constants in MHz :          3491.706611          1231.828893          1159.883996

                             ****ORCA TERMINATED NORMALLY****
TOTAL RUN TIME: 0 days 0 hours 0 minutes 10 seconds 978 msec
