                         Program Version 6.0.0  -   RELEASE  -
|  1> ! r2scan-3c def2/J RI DEFGRID2 scfconv6 printgap
|  2> %output
|  3>     printlevel normal
|  4> end
|  5> * xyz 0 1
|  6> C -2.3859201996 0.3969211012 0.5960202652
|  7> C -1.5089191119 0.2645124442 -0.6441382845
|  8> C -0.5894294856 -0.9574987753 -0.6028784855
|  9> C 0.5105748611 -0.8655624027 0.4397402131
| 10> Cl 1.6580090852 0.4709646958 0.0612894472
| 11> H -3.0735796319 1.2307027324 0.479129915
| 12> H -2.9673729319 -0.5091303541 0.7498311675
| 13> H -1.7869419209 0.5796215027 1.4841826819
| 14> H -0.9030582514 1.1649802531 -0.7622048376
| 15> H -2.1500802365 0.1801744124 -1.5234022909
| 16> H -1.1800914777 -1.8469578807 -0.3739889439
| 17> H -0.1341506153 -1.096346011 -1.5849649762
| 18> H 1.1103903846 -1.7732808982 0.4617800543
| 19> H 0.1176684109 -0.6532167505 1.4312185827
| 20> *
| 21>
| 22>                          ****END OF INPUT****

CARTESIAN COORDINATES (ANGSTROEM)
---------------------------------
  C     -2.385920    0.396921    0.596020
  C     -1.508919    0.264512   -0.644138
  C     -0.589429   -0.957499   -0.602878
  C      0.510575   -0.865562    0.439740
  Cl     1.658009    0.470965    0.061289
  H     -3.073580    1.230703    0.479130
  H     -2.967373   -0.509130    0.749831
  H     -1.786942    0.579622    1.484183
  H     -0.903058    1.164980   -0.762205
  H     -2.150080    0.180174   -1.523402
  H     -1.180091   -1.846958   -0.373989
  H     -0.134151   -1.096346   -1.584965
  H      1.110390   -1.773281    0.461780
  H      0.117668   -0.653217    1.431219

 Total Charge           Charge          ....    0
 Multiplicity           Mult            ....    1
 Number of Electrons    NEL             ....   50
 Basis Dimension        Dim             ....  148

ORBITAL ENERGIES
----------------

  NO   OCC          E(Eh)            E(eV)
   0   2.0000    -101.197625     -2753.7274
   1   2.0000     -10.091476      -274.6030
   2   2.0000     -10.041468      -273.2422
   3   2.0000     -10.030402      -272.9411
   4   2.0000     -10.021982      -272.7120
   5   2.0000      -9.353645      -254.5256
   6   2.0000      -7.099773      -193.1947
   7   2.0000      -7.089752      -192.9220
   8   2.0000      -7.089706      -192.9207
   9   2.0000      -0.822125       -22.3712
  10   2.0000      -0.755149       -20.5487
  11   2.0000      -0.683428       -18.5970
  12   2.0000      -0.610626       -16.6160
  13   2.0000      -0.541381       -14.7317
  14   2.0000      -0.452441       -12.3116
  15   2.0000      -0.443653       -12.0724
  16   2.0000      -0.402594       -10.9552
  17   2.0000      -0.383936       -10.4474
  18   2.0000      -0.376757       -10.2521
  19   2.0000      -0.353349        -9.6151
  20   2.0000      -0.311695        -8.4816
  21   2.0000      -0.310240        -8.4421
  22   2.0000      -0.308291        -8.3890
  23   2.0000      -0.264221        -7.1898
  24   2.0000      -0.262138        -7.1331
  25   0.0000       0.008721         0.2373
  26   0.0000       0.081417         2.2155
  27   0.0000       0.113432         3.0866
  28   0.0000       0.122653         3.3375
  29   0.0000       0.123915         3.3719

MULLIKEN ATOMIC CHARGES
-----------------------
   0 C :   -0.479785
   1 C :   -0.243423
   2 C :   -0.242470
   3 C :   -0.177971
   4 Cl:   -0.210017
   5 H :    0.149676
   6 H :    0.142314
   7 H :    0.144406
   8 H :    0.156910
   9 H :    0.143729
  10 H :    0.138586
  11 H :    0.157518
  12 H :    0.164673
  13 H :    0.155854
Sum of atomic charges:   -0.0000000

LOEWDIN ATOMIC CHARGES
----------------------
   0 C :   -0.425300
   1 C :   -0.324412
   2 C :   -0.329728
   3 C :   -0.317853
   4 Cl:   -0.008631
   5 H :    0.153875
   6 H :    0.149107
   7 H :    0.148270
   8 H :    0.160806
   9 H :    0.153825
  10 H :    0.161713
  11 H :    0.163465
  12 H :    0.157878
  13 H :    0.156985

  Mayer bond orders larger than 0.100000
B(  0-C ,  1-C ) :   0.9032 B(  0-C ,  5-H ) :   0.9682 B(  0-C ,  6-H ) :   0.9821
B(  0-C ,  7-H ) :   0.9814 B(  1-C ,  2-C ) :   0.9062 B(  1-C ,  8-H ) :   0.9656
B(  1-C ,  9-H ) :   0.9655 B(  2-C ,  3-C ) :   0.9279 B(  2-C , 10-H ) :   0.9604
B(  2-C , 11-H ) :   0.9611 B(  3-C ,  4-Cl) :   0.9741 B(  3-C , 12-H ) :   0.9534
B(  3-C , 13-H ) :   0.9705

Dispersion correction           -0.003389561
FINAL SINGLE POINT ENERGY      -617.968939877322

DIPOLE MOMENT
-------------

Method             : SCF
Type of density    : Electron Density
Multiplicity       :   1
Irrep              :   0
Energy             :  -617.9745839760241779 Eh
Relativity type    :
Basis              : AO
                                X                 Y                 Z
Electronic contribution:     11.887199423       2.631853397      -0.196786207
Nuclear contribution   :    -12.514453381      -3.187178033       0.256966289
                        -----------------------------------------
Total Dipole Moment    :     -0.627253958      -0.555324636       0.060180082
                        -----------------------------------------
Magnitude (a.u.)       :      0.839913461
Magnitude (Debye)      :      2.134890354

Rotational constants in cm-1:             0.244745             0.065764             0.061521
Rotational constants in MHz :          7337.257898          1971.542130          1844.355960

                             ****ORCA TERMINATED NORMALLY****
TOTAL RUN TIME: 0 days 0 hours 0 minutes 18 seconds 606 msec
