                         Program Version 6.0.0  -   RELEASE  -
|  1> ! r2scan-3c def2/J RI DEFGRID2 scfconv6 printgap
|  2> %output
|  3>     printlevel normal
|  4> end
|  5> %cpcm
|  6>     smd true
|  7>     smdsolvent "water"
|  8> end
|  9> * xyz 0 1
| 10> C -2.3859201996 0.3969211012 0.5960202652
| 11> C -1.5089191119 0.2645124442 -0.6441382845
| 12> C -0.5894294856 -0.9574987753 -0.6028784855
| 13> C 0.5105748611 -0.8655624027 0.4397402131
| 14> Cl 1.6580090852 0.4709646958 0.0612894472
| 15> H -3.0735796319 1.2307027324 0.479129915
| 16> H -2.9673729319 -0.5091303541 0.7498311675
| 17> H -1.7869419209 0.5796215027 1.4841826819
| 18> H -0.9030582514 1.1649802531 -0.7622048376
| 19> H -2.1500802365 0.1801744124 -1.5234022909
| 20> H -1.1800914777 -1.8469578807 -0.3739889439
| 21> H -0.1341506153 -1.096346011 -1.5849649762
| 22> H 1.1103903846 -1.7732808982 0.4617800543
| 23> H 0.1176684109 -0.6532167505 1.4312185827
| 24> *
| 25>
| 26>                          ****END OF INPUT****

CARTESIAN COORDINATES (ANGSTROEM)
---------------------------------
  C     -2.385920    0.396921    0.596020
  C     -1.508919    0.264512   -0.644138
  C     -0.589429   -0.957499   -0.602878
  C      0.510575   -0.865562    0.439740
  Cl     1.658009    0.470965    0.061289
  H     -3.073580    1.230703    0.479130
  H     -2.967373   -0.509130    0.749831
  H     -1.786942    0.579622    1.484183
  H     -0.903058    1.164980   -0.762205
  H     -2.150080    0.180174   -1.523402
  H     -1.180091   -1.846958   -0.373989
  H     -0.134151   -1.096346   -1.584965
  H      1.110390   -1.773281    0.461780
  H      0.117668   -0.653217    1.431219

 Total Charge           Charge          ....    0
 Multiplicity           Mult            ....    1
 Number of Electrons    NEL             ....   50
 Basis Dimension        Dim             ....  148

ORBITAL ENERGIES
----------------

  NO   OCC          E(Eh)            E(eV)
   0   2.0000    -101.197721     -2753.7300
   1   2.0000     -10.079889      -274.2877
   2   2.0000     -10.027368      -272.8586
   3   2.0000     -10.018834      -272.6263
   4   2.0000     -10.008218      -272.3374
   5   2.0000      -9.354128      -254.5388
   6   2.0000      -7.099854      -193.1969
   7   2.0000      -7.090408      -192.9398
   8   2.0000      -7.090352      -192.9383
   9   2.0000      -0.817171       -22.2364
  10   2.0000      -0.745165       -20.2770
  11   2.0000      -0.672391       -18.2967
  12   2.0000      -0.598881       -16.2964
  13   2.0000      -0.529297       -14.4029
  14   2.0000      -0.439461       -11.9583
  15   2.0000      -0.431826       -11.7506
  16   2.0000      -0.393670       -10.7123
  17   2.0000      -0.371681       -10.1140
  18   2.0000      -0.364259        -9.9120
  19   2.0000      -0.343536        -9.3481
  20   2.0000      -0.300137        -8.1672
  21   2.0000      -0.297641        -8.0992
  22   2.0000      -0.297132        -8.0854
  23   2.0000      -0.263904        -7.1812
  24   2.0000      -0.261202        -7.1077
  25   0.0000       0.013924         0.3789
  26   0.0000       0.095085         2.5874
  27   0.0000       0.126749         3.4490
  28   0.0000       0.134040         3.6474
  29   0.0000       0.137005         3.7281

MULLIKEN ATOMIC CHARGES
-----------------------
   0 C :   -0.516692
   1 C :   -0.253863
   2 C :   -0.253952
   3 C :   -0.190459
   4 Cl:   -0.258395
   5 H :    0.157020
   6 H :    0.155535
   7 H :    0.158543
   8 H :    0.148034
   9 H :    0.155117
  10 H :    0.161506
  11 H :    0.165926
  12 H :    0.189544
  13 H :    0.182136
Sum of atomic charges:   -0.0000000

LOEWDIN ATOMIC CHARGES
----------------------
   0 C :   -0.432933
   1 C :   -0.327086
   2 C :   -0.328682
   3 C :   -0.312079
   4 Cl:   -0.041085
   5 H :    0.154214
   6 H :    0.153508
   7 H :    0.152111
   8 H :    0.155811
   9 H :    0.156866
  10 H :    0.171321
  11 H :    0.164533
  12 H :    0.166963
  13 H :    0.166538

  Mayer bond orders larger than 0.100000
B(  0-C ,  1-C ) :   0.9005 B(  0-C ,  5-H ) :   0.9672 B(  0-C ,  6-H ) :   0.9787
B(  0-C ,  7-H ) :   0.9778 B(  1-C ,  2-C ) :   0.8967 B(  1-C ,  8-H ) :   0.9709
B(  1-C ,  9-H ) :   0.9662 B(  2-C ,  3-C ) :   0.9230 B(  2-C , 10-H ) :   0.9551
B(  2-C , 11-H ) :   0.9633 B(  3-C ,  4-Cl) :   0.9361 B(  3-C , 12-H ) :   0.9475
B(  3-C , 13-H ) :   0.9639

Dispersion correction           -0.003389561
FINAL SINGLE POINT ENERGY      -617.970383080748

DIPOLE MOMENT
-------------

Method             : SCF
Type of density    : Electron Density
Multiplicity       :   1
Irrep              :   0
Energy             :  -617.9760271794510800 Eh
Relativity type    :
Basis              : AO
                                X                 Y                 Z
Electronic contribution:     11.717078803       2.386302424      -0.129555794
Nuclear contribution   :    -12.514453381      -3.187178033       0.256966289
                        -----------------------------------------
Total Dipole Moment    :     -0.797374578      -0.800875610       0.127410494
                        -----------------------------------------
Magnitude (a.u.)       :      1.137295649
Magnitude (Debye)      :      2.890775807

Rotational constants in cm-1:             0.244745             0.065764             0.061521
Rotational constants in MHz :          7337.257898          1971.542130          1844.355960

                             ****ORCA TERMINATED NORMALLY****
TOTAL RUN TIME: 0 days 0 hours 0 minutes 23 seconds 538 msec
