                         Program Version 6.0.0  -   RELEASE  -
|  1> ! r2scan-3c def2/J RI DEFGRID2 scfconv6 printgap
|  2> %output
|  3>     printlevel normal
|  4> end
|  5> * xyz 0 1
|  6> C 2.8156519183 -0.4359499893 -0.0903422329
|  7> C 1.3885168338 -0.3235038717 0.4298370025
|  8> C 0.6420003376 0.8408621603 -0.2175638558
|  9> C -0.7800455587 0.9808354149 0.2988140235
| 10> S -1.7923407048 -0.4770993187 -0.1987909676
| 11> H 3.327252963 -1.2709214637 0.3812687468
| 12> H 3.371312976 0.474501103 0.1228680414
| 13> H 2.8172290604 -0.5952586781 -1.1663168079
| 14> H 1.4041669226 -0.183306527 1.5133103157
| 15> H 0.8509544151 -1.2524703528 0.2231486236
| 16> H 0.6184229865 0.6995003126 -1.3010225134
| 17> H 1.1729663671 1.7733742178 -0.0110145366
| 18> H -0.7979454002 1.0313969238 1.3870449147
| 19> H -1.2611238784 1.8601201663 -0.126545744
| 20> H -2.9373680321 -0.0171848972 0.2875877579
| 21> *
| 22>
| 23>                          ****END OF INPUT****

CARTESIAN COORDINATES (ANGSTROEM)
---------------------------------
  C      2.815652   -0.435950   -0.090342
  C      1.388517   -0.323504    0.429837
  C      0.642000    0.840862   -0.217564
  C     -0.780046    0.980835    0.298814
  S     -1.792341   -0.477099   -0.198791
  H      3.327253   -1.270921    0.381269
  H      3.371313    0.474501    0.122868
  H      2.817229   -0.595259   -1.166317
  H      1.404167   -0.183307    1.513310
  H      0.850954   -1.252470    0.223149
  H      0.618423    0.699500   -1.301023
  H      1.172966    1.773374   -0.011015
  H     -0.797945    1.031397    1.387045
  H     -1.261124    1.860120   -0.126546
  H     -2.937368   -0.017185    0.287588

 Total Charge           Charge          ....    0
 Multiplicity           Mult            ....    1
 Number of Electrons    NEL             ....   50
 Basis Dimension        Dim             ....  153

ORBITAL ENERGIES
----------------

  NO   OCC          E(Eh)            E(eV)
   0   2.0000     -88.548374     -2409.5237
   1   2.0000     -10.064515      -273.8694
   2   2.0000     -10.036627      -273.1105
   3   2.0000     -10.027580      -272.8643
   4   2.0000     -10.018318      -272.6123
   5   2.0000      -7.843512      -213.4328
   6   2.0000      -5.790563      -157.5692
   7   2.0000      -5.787124      -157.4756
   8   2.0000      -5.780530      -157.2962
   9   2.0000      -0.784416       -21.3451
  10   2.0000      -0.727103       -19.7855
  11   2.0000      -0.660743       -17.9797
  12   2.0000      -0.586939       -15.9714
  13   2.0000      -0.543031       -14.7766
  14   2.0000      -0.451948       -12.2981
  15   2.0000      -0.421735       -11.4760
  16   2.0000      -0.406294       -11.0558
  17   2.0000      -0.390510       -10.6263
  18   2.0000      -0.350574        -9.5396
  19   2.0000      -0.344732        -9.3806
  20   2.0000      -0.316059        -8.6004
  21   2.0000      -0.312474        -8.5028
  22   2.0000      -0.301696        -8.2096
  23   2.0000      -0.287308        -7.8180
  24   2.0000      -0.206487        -5.6188
  25   0.0000       0.009500         0.2585
  26   0.0000       0.057245         1.5577
  27   0.0000       0.103120         2.8060
  28   0.0000       0.104616         2.8467
  29   0.0000       0.132799         3.6137

MULLIKEN ATOMIC CHARGES
-----------------------
   0 C :   -0.462899
   1 C :   -0.234696
   2 C :   -0.293359
   3 C :   -0.183727
   4 S :   -0.284355
   5 H :    0.148832
   6 H :    0.138621
   7 H :    0.142781
   8 H :    0.135768
   9 H :    0.151810
  10 H :    0.152223
  11 H :    0.142570
  12 H :    0.149518
  13 H :    0.159944
  14 H :    0.136969
Sum of atomic charges:    0.0000000

LOEWDIN ATOMIC CHARGES
----------------------
   0 C :   -0.423113
   1 C :   -0.320230
   2 C :   -0.317585
   3 C :   -0.349549
   4 S :   -0.118113
   5 H :    0.151703
   6 H :    0.149021
   7 H :    0.150682
   8 H :    0.152365
   9 H :    0.159728
  10 H :    0.160727
  11 H :    0.159461
  12 H :    0.158733
  13 H :    0.159794
  14 H :    0.126378

  Mayer bond orders larger than 0.100000
B(  0-C ,  1-C ) :   0.9053 B(  0-C ,  5-H ) :   0.9751 B(  0-C ,  6-H ) :   0.9816
B(  0-C ,  7-H ) :   0.9826 B(  1-C ,  2-C ) :   0.9388 B(  1-C ,  8-H ) :   0.9658
B(  1-C ,  9-H ) :   0.9615 B(  2-C ,  3-C ) :   0.9460 B(  2-C , 10-H ) :   0.9712
B(  2-C , 11-H ) :   0.9594 B(  3-C ,  4-S ) :   0.9664 B(  3-C , 12-H ) :   0.9650
B(  3-C , 13-H ) :   0.9588 B(  4-S , 14-H ) :   0.9596

Dispersion correction           -0.003602220
FINAL SINGLE POINT ENERGY      -556.554836303956

DIPOLE MOMENT
-------------

Method             : SCF
Type of density    : Electron Density
Multiplicity       :   1
Irrep              :   0
Energy             :  -556.5615105878307531 Eh
Relativity type    :
Basis              : AO
                                X                 Y                 Z
Electronic contribution:     -7.904023550      -1.809602426      -0.959473660
Nuclear contribution   :      8.087128755       2.377501000       1.234956154
                        -----------------------------------------
Total Dipole Moment    :      0.183105205       0.567898574       0.275482494
                        -----------------------------------------
Magnitude (a.u.)       :      0.657211466
Magnitude (Debye)      :      1.670498791

Rotational constants in cm-1:             0.303887             0.057689             0.052149
Rotational constants in MHz :          9110.298519          1729.458675          1563.387553

                             ****ORCA TERMINATED NORMALLY****
TOTAL RUN TIME: 0 days 0 hours 0 minutes 14 seconds 7 msec
