                         Program Version 6.0.0  -   RELEASE  -
|  1> ! r2scan-3c def2/J RI DEFGRID2 scfconv6 printgap
|  2> %output
|  3>     printlevel normal
|  4> end
|  5> %cpcm
|  6>     smd true
|  7>     smdsolvent "water"
|  8> end
|  9> * xyz 0 1
| 10> C 2.8156519183 -0.4359499893 -0.0903422329
| 11> C 1.3885168338 -0.3235038717 0.4298370025
| 12> C 0.6420003376 0.8408621603 -0.2175638558
| 13> C -0.7800455587 0.9808354149 0.2988140235
| 14> S -1.7923407048 -0.4770993187 -0.1987909676
| 15> H 3.327252963 -1.2709214637 0.3812687468
| 16> H 3.371312976 0.474501103 0.1228680414
| 17> H 2.8172290604 -0.5952586781 -1.1663168079
| 18> H 1.4041669226 -0.183306527 1.5133103157
| 19> H 0.8509544151 -1.2524703528 0.2231486236
| 20> H 0.6184229865 0.6995003126 -1.3010225134
| 21> H 1.1729663671 1.7733742178 -0.0110145366
| 22> H -0.7979454002 1.0313969238 1.3870449147
| 23> H -1.2611238784 1.8601201663 -0.126545744
| 24> H -2.9373680321 -0.0171848972 0.2875877579
| 25> *
| 26>
| 27>                          ****END OF INPUT****

CARTESIAN COORDINATES (ANGSTROEM)
---------------------------------
  C      2.815652   -0.435950   -0.090342
  C      1.388517   -0.323504    0.429837
  C      0.642000    0.840862   -0.217564
  C     -0.780046    0.980835    0.298814
  S     -1.792341   -0.477099   -0.198791
  H      3.327253   -1.270921    0.381269
  H      3.371313    0.474501    0.122868
  H      2.817229   -0.595259   -1.166317
  H      1.404167   -0.183307    1.513310
  H      0.850954   -1.252470    0.223149
  H      0.618423    0.699500   -1.301023
  H      1.172966    1.773374   -0.011015
  H     -0.797945    1.031397    1.387045
  H     -1.261124    1.860120   -0.126546
  H     -2.937368   -0.017185    0.287588

 Total Charge           Charge          ....    0
 Multiplicity           Mult            ....    1
 Number of Electrons    NEL             ....   50
 Basis Dimension        Dim             ....  153

ORBITAL ENERGIES
----------------

  NO   OCC          E(Eh)            E(eV)
   0   2.0000     -88.547229     -2409.4926
   1   2.0000     -10.054249      -273.5900
   2   2.0000     -10.024851      -272.7901
   3   2.0000     -10.018337      -272.6128
   4   2.0000     -10.008615      -272.3483
   5   2.0000      -7.842492      -213.4050
   6   2.0000      -5.789290      -157.5346
   7   2.0000      -5.785952      -157.4438
   8   2.0000      -5.779946      -157.2803
   9   2.0000      -0.775273       -21.0963
  10   2.0000      -0.719780       -19.5862
  11   2.0000      -0.653617       -17.7858
  12   2.0000      -0.578190       -15.7334
  13   2.0000      -0.533137       -14.5074
  14   2.0000      -0.442322       -12.0362
  15   2.0000      -0.411728       -11.2037
  16   2.0000      -0.396702       -10.7948
  17   2.0000      -0.381848       -10.3906
  18   2.0000      -0.340825        -9.2743
  19   2.0000      -0.336652        -9.1608
  20   2.0000      -0.309329        -8.4173
  21   2.0000      -0.303055        -8.2466
  22   2.0000      -0.291344        -7.9279
  23   2.0000      -0.280717        -7.6387
  24   2.0000      -0.207644        -5.6503
  25   0.0000       0.013226         0.3599
  26   0.0000       0.063016         1.7147
  27   0.0000       0.111975         3.0470
  28   0.0000       0.114609         3.1187
  29   0.0000       0.142969         3.8904

MULLIKEN ATOMIC CHARGES
-----------------------
   0 C :   -0.506536
   1 C :   -0.246158
   2 C :   -0.294986
   3 C :   -0.201169
   4 S :   -0.361154
   5 H :    0.157305
   6 H :    0.152924
   7 H :    0.153664
   8 H :    0.150912
   9 H :    0.147937
  10 H :    0.158875
  11 H :    0.161446
  12 H :    0.171516
  13 H :    0.181410
  14 H :    0.174015
Sum of atomic charges:    0.0000000

LOEWDIN ATOMIC CHARGES
----------------------
   0 C :   -0.431447
   1 C :   -0.323107
   2 C :   -0.318152
   3 C :   -0.343768
   4 S :   -0.155059
   5 H :    0.153180
   6 H :    0.152889
   7 H :    0.152899
   8 H :    0.155984
   9 H :    0.156111
  10 H :    0.161575
  11 H :    0.166658
  12 H :    0.166167
  13 H :    0.167516
  14 H :    0.138553

  Mayer bond orders larger than 0.100000
B(  0-C ,  1-C ) :   0.8975 B(  0-C ,  5-H ) :   0.9726 B(  0-C ,  6-H ) :   0.9794
B(  0-C ,  7-H ) :   0.9807 B(  1-C ,  2-C ) :   0.9239 B(  1-C ,  8-H ) :   0.9659
B(  1-C ,  9-H ) :   0.9648 B(  2-C ,  3-C ) :   0.9316 B(  2-C , 10-H ) :   0.9721
B(  2-C , 11-H ) :   0.9545 B(  3-C ,  4-S ) :   0.9505 B(  3-C , 12-H ) :   0.9649
B(  3-C , 13-H ) :   0.9563 B(  4-S , 14-H ) :   0.9532

Dispersion correction           -0.003602220
FINAL SINGLE POINT ENERGY      -556.556347676941

DIPOLE MOMENT
-------------

Method             : SCF
Type of density    : Electron Density
Multiplicity       :   1
Irrep              :   0
Energy             :  -556.5630219608163998 Eh
Relativity type    :
Basis              : AO
                                X                 Y                 Z
Electronic contribution:     -7.861386758      -1.557166520      -0.857242809
Nuclear contribution   :      8.087128755       2.377501000       1.234956154
                        -----------------------------------------
Total Dipole Moment    :      0.225741997       0.820334480       0.377713346
                        -----------------------------------------
Magnitude (a.u.)       :      0.930900360
Magnitude (Debye)      :      2.366160673

Rotational constants in cm-1:             0.303887             0.057689             0.052149
Rotational constants in MHz :          9110.298519          1729.458675          1563.387553

                             ****ORCA TERMINATED NORMALLY****
TOTAL RUN TIME: 0 days 0 hours 0 minutes 16 seconds 302 msec
