                         Program Version 6.0.0  -   RELEASE  -
|  1> ! r2scan-3c def2/J RI DEFGRID2 scfconv6 printgap
|  2> %output
|  3>     printlevel normal
|  4> end
|  5> * xyz 0 1
|  6> C -2.1808052141 1.3103481441 0.067365363
|  7> C -1.8948009764 -0.1508156488 0.4123201416
|  8> C -0.5575427868 -0.6018606184 -0.1171874485
|  9> O -0.3857792894 -1.5835981344 -0.8130766237
| 10> O 0.4299675307 0.1902737537 0.2695028655
| 11> C 1.7593890629 -0.1361740867 -0.1669563534
| 12> C 2.7064100921 0.9193433502 0.3699510606
| 13> H -2.2101139874 1.4476800595 -1.0106002843
| 14> H -3.1416484823 1.6019848397 0.4805878226
| 15> H -1.4083997914 1.9519677967 0.4809422103
| 16> H -2.6577815217 -0.8090065895 -0.0029230526
| 17> H -1.8748428391 -0.271071667 1.4969338276
| 18> H 2.0094261774 -1.1349228474 0.2062223879
| 19> H 1.7660036291 -0.1717245022 -1.261381861
| 20> H 3.7202282089 0.6791745414 0.0673539066
| 21> H 2.4373283232 1.8958609781 -0.0214520771
| 22> H 2.6526402163 0.9490703467 1.4541081763
| 23> *
| 24>
| 25>                          ****END OF INPUT****

CARTESIAN COORDINATES (ANGSTROEM)
---------------------------------
  C     -2.180805    1.310348    0.067365
  C     -1.894801   -0.150816    0.412320
  C     -0.557543   -0.601861   -0.117187
  O     -0.385779   -1.583598   -0.813077
  O      0.429968    0.190274    0.269503
  C      1.759389   -0.136174   -0.166956
  C      2.706410    0.919343    0.369951
  H     -2.210114    1.447680   -1.010600
  H     -3.141648    1.601985    0.480588
  H     -1.408400    1.951968    0.480942
  H     -2.657782   -0.809007   -0.002923
  H     -1.874843   -0.271072    1.496934
  H      2.009426   -1.134923    0.206222
  H      1.766004   -0.171725   -1.261382
  H      3.720228    0.679175    0.067354
  H      2.437328    1.895861   -0.021452
  H      2.652640    0.949070    1.454108

 Total Charge           Charge          ....    0
 Multiplicity           Mult            ....    1
 Number of Electrons    NEL             ....   56
 Basis Dimension        Dim             ....  193

ORBITAL ENERGIES
----------------

  NO   OCC          E(Eh)            E(eV)
   0   2.0000     -18.996945      -516.9332
   1   2.0000     -18.925846      -514.9985
   2   2.0000     -10.150267      -276.2028
   3   2.0000     -10.092347      -274.6267
   4   2.0000     -10.043873      -273.3077
   5   2.0000     -10.032886      -273.0087
   6   2.0000     -10.029290      -272.9109
   7   2.0000      -1.072609       -29.1872
   8   2.0000      -0.972564       -26.4648
   9   2.0000      -0.767521       -20.8853
  10   2.0000      -0.732789       -19.9402
  11   2.0000      -0.636775       -17.3275
  12   2.0000      -0.597457       -16.2576
  13   2.0000      -0.535390       -14.5687
  14   2.0000      -0.469211       -12.7679
  15   2.0000      -0.455279       -12.3888
  16   2.0000      -0.440991       -12.0000
  17   2.0000      -0.417772       -11.3682
  18   2.0000      -0.394779       -10.7425
  19   2.0000      -0.377994       -10.2857
  20   2.0000      -0.372553       -10.1377
  21   2.0000      -0.354572        -9.6484
  22   2.0000      -0.342536        -9.3209
  23   2.0000      -0.330156        -8.9840
  24   2.0000      -0.318869        -8.6769
  25   2.0000      -0.313458        -8.5296
  26   2.0000      -0.271514        -7.3883
  27   2.0000      -0.230478        -6.2716
  28   0.0000      -0.013896        -0.3781
  29   0.0000       0.073331         1.9954
  30   0.0000       0.094491         2.5712
  31   0.0000       0.117600         3.2001
  32   0.0000       0.123460         3.3595

MULLIKEN ATOMIC CHARGES
-----------------------
   0 C :   -0.466113
   1 C :   -0.301793
   2 C :    0.385503
   3 O :   -0.421325
   4 O :   -0.163550
   5 C :   -0.144419
   6 C :   -0.443568
   7 H :    0.149963
   8 H :    0.149686
   9 H :    0.162519
  10 H :    0.169202
  11 H :    0.157800
  12 H :    0.156463
  13 H :    0.157614
  14 H :    0.147562
  15 H :    0.152033
  16 H :    0.152422
Sum of atomic charges:    0.0000000

LOEWDIN ATOMIC CHARGES
----------------------
   0 C :   -0.396985
   1 C :   -0.236489
   2 C :    0.354877
   3 O :   -0.425759
   4 O :   -0.603570
   5 C :    0.035156
   6 C :   -0.387082
   7 H :    0.156009
   8 H :    0.151840
   9 H :    0.162760
  10 H :    0.175368
  11 H :    0.176651
  12 H :    0.179079
  13 H :    0.179884
  14 H :    0.159829
  15 H :    0.158891
  16 H :    0.159544

  Mayer bond orders larger than 0.100000
B(  0-C ,  1-C ) :   0.8937 B(  0-C ,  7-H ) :   0.9748 B(  0-C ,  8-H ) :   0.9718
B(  0-C ,  9-H ) :   0.9734 B(  1-C ,  2-C ) :   0.9828 B(  1-C , 10-H ) :   0.9868
B(  1-C , 11-H ) :   0.9479 B(  2-C ,  3-O ) :   1.8275 B(  2-C ,  4-O ) :   1.0596
B(  4-O ,  5-C ) :   0.8106 B(  5-C ,  6-C ) :   0.9399 B(  5-C , 12-H ) :   0.9542
B(  5-C , 13-H ) :   0.9536 B(  6-C , 14-H ) :   0.9679 B(  6-C , 15-H ) :   0.9723
B(  6-C , 16-H ) :   0.9720

Dispersion correction           -0.003922008
FINAL SINGLE POINT ENERGY      -346.935959752737

DIPOLE MOMENT
-------------

Method             : SCF
Type of density    : Electron Density
Multiplicity       :   1
Irrep              :   0
Energy             :  -346.9423845389420649 Eh
Relativity type    :
Basis              : AO
                                X                 Y                 Z
Electronic contribution:     -0.959513838      -4.973403692      -1.312917307
Nuclear contribution   :      1.213555164       5.738762959       1.764880877
                        -----------------------------------------
Total Dipole Moment    :      0.254041326       0.765359268       0.451963570
                        -----------------------------------------
Magnitude (a.u.)       :      0.924436516
Magnitude (Debye)      :      2.349730887

Rotational constants in cm-1:             0.146814             0.054330             0.042326
Rotational constants in MHz :          4401.363792          1628.773960          1268.908685

                             ****ORCA TERMINATED NORMALLY****
TOTAL RUN TIME: 0 days 0 hours 0 minutes 21 seconds 320 msec
