                         Program Version 6.0.0  -   RELEASE  -
|  1> ! r2scan-3c def2/J RI DEFGRID2 scfconv6 printgap
|  2> %output
|  3>     printlevel normal
|  4> end
|  5> %cpcm
|  6>     smd true
|  7>     smdsolvent "water"
|  8> end
|  9> * xyz 0 1
| 10> C -2.1808052141 1.3103481441 0.067365363
| 11> C -1.8948009764 -0.1508156488 0.4123201416
| 12> C -0.5575427868 -0.6018606184 -0.1171874485
| 13> O -0.3857792894 -1.5835981344 -0.8130766237
| 14> O 0.4299675307 0.1902737537 0.2695028655
| 15> C 1.7593890629 -0.1361740867 -0.1669563534
| 16> C 2.7064100921 0.9193433502 0.3699510606
| 17> H -2.2101139874 1.4476800595 -1.0106002843
| 18> H -3.1416484823 1.6019848397 0.4805878226
| 19> H -1.4083997914 1.9519677967 0.4809422103
| 20> H -2.6577815217 -0.8090065895 -0.0029230526
| 21> H -1.8748428391 -0.271071667 1.4969338276
| 22> H 2.0094261774 -1.1349228474 0.2062223879
| 23> H 1.7660036291 -0.1717245022 -1.261381861
| 24> H 3.7202282089 0.6791745414 0.0673539066
| 25> H 2.4373283232 1.8958609781 -0.0214520771
| 26> H 2.6526402163 0.9490703467 1.4541081763
| 27> *
| 28>
| 29>                          ****END OF INPUT****

CARTESIAN COORDINATES (ANGSTROEM)
---------------------------------
  C     -2.180805    1.310348    0.067365
  C     -1.894801   -0.150816    0.412320
  C     -0.557543   -0.601861   -0.117187
  O     -0.385779   -1.583598   -0.813077
  O      0.429968    0.190274    0.269503
  C      1.759389   -0.136174   -0.166956
  C      2.706410    0.919343    0.369951
  H     -2.210114    1.447680   -1.010600
  H     -3.141648    1.601985    0.480588
  H     -1.408400    1.951968    0.480942
  H     -2.657782   -0.809007   -0.002923
  H     -1.874843   -0.271072    1.496934
  H      2.009426   -1.134923    0.206222
  H      1.766004   -0.171725   -1.261382
  H      3.720228    0.679175    0.067354
  H      2.437328    1.895861   -0.021452
  H      2.652640    0.949070    1.454108

 Total Charge           Charge          ....    0
 Multiplicity           Mult            ....    1
 Number of Electrons    NEL             ....   56
 Basis Dimension        Dim             ....  193

ORBITAL ENERGIES
----------------

  NO   OCC          E(Eh)            E(eV)
   0   2.0000     -19.002510      -517.0846
   1   2.0000     -18.943105      -515.4681
   2   2.0000     -10.161769      -276.5158
   3   2.0000     -10.084443      -274.4116
   4   2.0000     -10.038015      -273.1483
   5   2.0000     -10.019674      -272.6492
   6   2.0000     -10.018897      -272.6281
   7   2.0000      -1.080124       -29.3917
   8   2.0000      -0.987520       -26.8718
   9   2.0000      -0.762775       -20.7562
  10   2.0000      -0.723974       -19.7003
  11   2.0000      -0.630473       -17.1560
  12   2.0000      -0.590508       -16.0685
  13   2.0000      -0.533649       -14.5213
  14   2.0000      -0.468711       -12.7543
  15   2.0000      -0.455539       -12.3958
  16   2.0000      -0.450023       -12.2457
  17   2.0000      -0.416411       -11.3311
  18   2.0000      -0.391169       -10.6442
  19   2.0000      -0.373987       -10.1767
  20   2.0000      -0.360091        -9.7986
  21   2.0000      -0.349147        -9.5008
  22   2.0000      -0.334777        -9.1097
  23   2.0000      -0.323683        -8.8079
  24   2.0000      -0.318392        -8.6639
  25   2.0000      -0.312506        -8.5037
  26   2.0000      -0.277313        -7.5461
  27   2.0000      -0.247907        -6.7459
  28   0.0000      -0.022668        -0.6168
  29   0.0000       0.077465         2.1079
  30   0.0000       0.103688         2.8215
  31   0.0000       0.124071         3.3762
  32   0.0000       0.133967         3.6454

MULLIKEN ATOMIC CHARGES
-----------------------
   0 C :   -0.495098
   1 C :   -0.313966
   2 C :    0.434943
   3 O :   -0.512686
   4 O :   -0.177126
   5 C :   -0.148883
   6 C :   -0.491751
   7 H :    0.164180
   8 H :    0.168057
   9 H :    0.166258
  10 H :    0.175255
  11 H :    0.188475
  12 H :    0.171458
  13 H :    0.171555
  14 H :    0.168916
  15 H :    0.165345
  16 H :    0.165067
Sum of atomic charges:    0.0000000

LOEWDIN ATOMIC CHARGES
----------------------
   0 C :   -0.398292
   1 C :   -0.233713
   2 C :    0.365760
   3 O :   -0.490728
   4 O :   -0.602753
   5 C :    0.037188
   6 C :   -0.389838
   7 H :    0.160045
   8 H :    0.158875
   9 H :    0.163340
  10 H :    0.178616
  11 H :    0.188971
  12 H :    0.184074
  13 H :    0.184655
  14 H :    0.168392
  15 H :    0.162489
  16 H :    0.162918

  Mayer bond orders larger than 0.100000
B(  0-C ,  1-C ) :   0.8831 B(  0-C ,  7-H ) :   0.9719 B(  0-C ,  8-H ) :   0.9669
B(  0-C ,  9-H ) :   0.9718 B(  1-C ,  2-C ) :   0.9808 B(  1-C , 10-H ) :   0.9832
B(  1-C , 11-H ) :   0.9363 B(  2-C ,  3-O ) :   1.7543 B(  2-C ,  4-O ) :   1.0933
B(  4-O ,  5-C ) :   0.7960 B(  5-C ,  6-C ) :   0.9435 B(  5-C , 12-H ) :   0.9464
B(  5-C , 13-H ) :   0.9459 B(  6-C , 14-H ) :   0.9616 B(  6-C , 15-H ) :   0.9702
B(  6-C , 16-H ) :   0.9699

Dispersion correction           -0.003922008
FINAL SINGLE POINT ENERGY      -346.941800966748

DIPOLE MOMENT
-------------

Method             : SCF
Type of density    : Electron Density
Multiplicity       :   1
Irrep              :   0
Energy             :  -346.9482257529533058 Eh
Relativity type    :
Basis              : AO
                                X                 Y                 Z
Electronic contribution:     -0.911774177      -4.694376423      -1.127295917
Nuclear contribution   :      1.213555164       5.738762959       1.764880877
                        -----------------------------------------
Total Dipole Moment    :      0.301780987       1.044386536       0.637584960
                        -----------------------------------------
Magnitude (a.u.)       :      1.260289484
Magnitude (Debye)      :      3.203401289

Rotational constants in cm-1:             0.146814             0.054330             0.042326
Rotational constants in MHz :          4401.363792          1628.773960          1268.908685

                             ****ORCA TERMINATED NORMALLY****
TOTAL RUN TIME: 0 days 0 hours 0 minutes 25 seconds 256 msec
