                         Program Version 6.0.0  -   RELEASE  -
|  1> ! r2scan-3c def2/J RI DEFGRID2 scfconv6 printgap
|  2> %output
|  3>     printlevel normal
|  4> end
|  5> * xyz 0 1
|  6> C 2.280926827 -1.0077234631 -0.6490454914
|  7> C 1.5984612864 0.3252560462 -0.3680382128
|  8> C 0.3522052063 0.2044950785 0.5217459974
|  9> H 0.6329609267 -0.3370825264 1.4341348446
| 10> C -0.8211860772 -0.5558215512 -0.1354986134
| 11> C -1.8952505915 -0.8378743967 0.9149026231
| 12> C -1.4329708188 0.1993348722 -1.3152479388
| 13> O -0.043060735 1.4825308637 0.99137676
| 14> H 1.654424541 -1.6491570109 -1.262772608
| 15> H 2.5001883827 -1.5263361255 0.281262299
| 16> H 3.2154607242 -0.840219416 -1.1783559988
| 17> H 2.2984582946 0.9822032065 0.1542699058
| 18> H 1.3335588253 0.808203186 -1.3106284005
| 19> H -0.4280926407 -1.510868516 -0.4944873305
| 20> H -2.7523710466 -1.3300414022 0.4624122945
| 21> H -1.5027024588 -1.4779042847 1.7016334483
| 22> H -2.2246329715 0.0949860114 1.3676068256
| 23> H -1.8996092612 1.1225545332 -0.9789791649
| 24> H -2.2022534003 -0.4129514112 -1.7794093538
| 25> H -0.6868092235 0.4304979017 -2.0709563604
| 26> H -0.2344315748 2.0413855592 0.2256033576
| 27> *
| 28>
| 29>                          ****END OF INPUT****

CARTESIAN COORDINATES (ANGSTROEM)
---------------------------------
  C      2.280927   -1.007723   -0.649045
  C      1.598461    0.325256   -0.368038
  C      0.352205    0.204495    0.521746
  H      0.632961   -0.337083    1.434135
  C     -0.821186   -0.555822   -0.135499
  C     -1.895251   -0.837874    0.914903
  C     -1.432971    0.199335   -1.315248
  O     -0.043061    1.482531    0.991377
  H      1.654425   -1.649157   -1.262773
  H      2.500188   -1.526336    0.281262
  H      3.215461   -0.840219   -1.178356
  H      2.298458    0.982203    0.154270
  H      1.333559    0.808203   -1.310628
  H     -0.428093   -1.510869   -0.494487
  H     -2.752371   -1.330041    0.462412
  H     -1.502702   -1.477904    1.701633
  H     -2.224633    0.094986    1.367607
  H     -1.899609    1.122555   -0.978979
  H     -2.202253   -0.412951   -1.779409
  H     -0.686809    0.430498   -2.070956
  H     -0.234432    2.041386    0.225603

 Total Charge           Charge          ....    0
 Multiplicity           Mult            ....    1
 Number of Electrons    NEL             ....   58
 Basis Dimension        Dim             ....  208

ORBITAL ENERGIES
----------------

  NO   OCC          E(Eh)            E(eV)
   0   2.0000     -18.943926      -515.4904
   1   2.0000     -10.075654      -274.1725
   2   2.0000     -10.033033      -273.0127
   3   2.0000     -10.026048      -272.8226
   4   2.0000     -10.021678      -272.7037
   5   2.0000     -10.021531      -272.6997
   6   2.0000     -10.010780      -272.4072
   7   2.0000      -0.982994       -26.7486
   8   2.0000      -0.771881       -21.0039
   9   2.0000      -0.732655       -19.9365
  10   2.0000      -0.653602       -17.7854
  11   2.0000      -0.637373       -17.3438
  12   2.0000      -0.573648       -15.6097
  13   2.0000      -0.533632       -14.5209
  14   2.0000      -0.450983       -12.2719
  15   2.0000      -0.446120       -12.1395
  16   2.0000      -0.423250       -11.5172
  17   2.0000      -0.408109       -11.1052
  18   2.0000      -0.387968       -10.5571
  19   2.0000      -0.368924       -10.0389
  20   2.0000      -0.354529        -9.6472
  21   2.0000      -0.348327        -9.4784
  22   2.0000      -0.339749        -9.2450
  23   2.0000      -0.322150        -8.7661
  24   2.0000      -0.311409        -8.4739
  25   2.0000      -0.303716        -8.2645
  26   2.0000      -0.296124        -8.0579
  27   2.0000      -0.274446        -7.4681
  28   2.0000      -0.230937        -6.2841
  29   0.0000       0.056876         1.5477
  30   0.0000       0.083652         2.2763
  31   0.0000       0.106550         2.8994
  32   0.0000       0.120882         3.2894
  33   0.0000       0.124950         3.4001

MULLIKEN ATOMIC CHARGES
-----------------------
   0 C :   -0.501684
   1 C :   -0.247051
   2 C :   -0.037258
   3 H :    0.146328
   4 C :    0.050166
   5 C :   -0.526667
   6 C :   -0.565750
   7 O :   -0.429080
   8 H :    0.148688
   9 H :    0.149297
  10 H :    0.149694
  11 H :    0.163217
  12 H :    0.130406
  13 H :    0.146345
  14 H :    0.142721
  15 H :    0.144425
  16 H :    0.178050
  17 H :    0.151083
  18 H :    0.155324
  19 H :    0.152838
  20 H :    0.298909
Sum of atomic charges:   -0.0000000

LOEWDIN ATOMIC CHARGES
----------------------
   0 C :   -0.420493
   1 C :   -0.292079
   2 C :    0.053603
   3 H :    0.184773
   4 C :   -0.225653
   5 C :   -0.410301
   6 C :   -0.417563
   7 O :   -0.609377
   8 H :    0.148669
   9 H :    0.152813
  10 H :    0.152825
  11 H :    0.165084
  12 H :    0.153001
  13 H :    0.160865
  14 H :    0.150788
  15 H :    0.154025
  16 H :    0.165439
  17 H :    0.154538
  18 H :    0.158157
  19 H :    0.153137
  20 H :    0.267750

  Mayer bond orders larger than 0.100000
B(  0-C ,  1-C ) :   0.8823 B(  0-C ,  8-H ) :   0.9800 B(  0-C ,  9-H ) :   0.9835
B(  0-C , 10-H ) :   0.9678 B(  1-C ,  2-C ) :   0.9399 B(  1-C , 11-H ) :   0.9766
B(  1-C , 12-H ) :   0.9671 B(  2-C ,  3-H ) :   0.9764 B(  2-C ,  4-C ) :   0.8695
B(  2-C ,  7-O ) :   0.9304 B(  4-C ,  5-C ) :   0.9004 B(  4-C ,  6-C ) :   0.8436
B(  4-C , 13-H ) :   0.9544 B(  5-C , 14-H ) :   0.9779 B(  5-C , 15-H ) :   0.9757
B(  5-C , 16-H ) :   0.9855 B(  6-C , 17-H ) :   0.9859 B(  6-C , 18-H ) :   0.9684
B(  6-C , 19-H ) :   0.9789 B(  7-O , 20-H ) :   0.8940

Dispersion correction           -0.005715089
FINAL SINGLE POINT ENERGY      -312.202640416367

DIPOLE MOMENT
-------------

Method             : SCF
Type of density    : Electron Density
Multiplicity       :   1
Irrep              :   0
Energy             :  -312.2082052621790353 Eh
Relativity type    :
Basis              : AO
                                X                 Y                 Z
Electronic contribution:      0.358224512       3.157762053       2.631817170
Nuclear contribution   :     -0.278195569      -3.359824654      -3.220700156
                        -----------------------------------------
Total Dipole Moment    :      0.080028943      -0.202062602      -0.588882986
                        -----------------------------------------
Magnitude (a.u.)       :      0.627707813
Magnitude (Debye)      :      1.595506463

Rotational constants in cm-1:             0.109221             0.059012             0.052478
Rotational constants in MHz :          3274.352379          1769.126518          1573.254590

                             ****ORCA TERMINATED NORMALLY****
TOTAL RUN TIME: 0 days 0 hours 0 minutes 26 seconds 780 msec
