                         Program Version 6.0.0  -   RELEASE  -
|  1> ! r2scan-3c def2/J RI DEFGRID2 scfconv6 printgap
|  2> %output
|  3>     printlevel normal
|  4> end
|  5> %cpcm
|  6>     smd true
|  7>     smdsolvent "water"
|  8> end
|  9> * xyz 0 1
| 10> C 2.280926827 -1.0077234631 -0.6490454914
| 11> C 1.5984612864 0.3252560462 -0.3680382128
| 12> C 0.3522052063 0.2044950785 0.5217459974
| 13> H 0.6329609267 -0.3370825264 1.4341348446
| 14> C -0.8211860772 -0.5558215512 -0.1354986134
| 15> C -1.8952505915 -0.8378743967 0.9149026231
| 16> C -1.4329708188 0.1993348722 -1.3152479388
| 17> O -0.043060735 1.4825308637 0.99137676
| 18> H 1.654424541 -1.6491570109 -1.262772608
| 19> H 2.5001883827 -1.5263361255 0.281262299
| 20> H 3.2154607242 -0.840219416 -1.1783559988
| 21> H 2.2984582946 0.9822032065 0.1542699058
| 22> H 1.3335588253 0.808203186 -1.3106284005
| 23> H -0.4280926407 -1.510868516 -0.4944873305
| 24> H -2.7523710466 -1.3300414022 0.4624122945
| 25> H -1.5027024588 -1.4779042847 1.7016334483
| 26> H -2.2246329715 0.0949860114 1.3676068256
| 27> H -1.8996092612 1.1225545332 -0.9789791649
| 28> H -2.2022534003 -0.4129514112 -1.7794093538
| 29> H -0.6868092235 0.4304979017 -2.0709563604
| 30> H -0.2344315748 2.0413855592 0.2256033576
| 31> *
| 32>
| 33>                          ****END OF INPUT****

CARTESIAN COORDINATES (ANGSTROEM)
---------------------------------
  C      2.280927   -1.007723   -0.649045
  C      1.598461    0.325256   -0.368038
  C      0.352205    0.204495    0.521746
  H      0.632961   -0.337083    1.434135
  C     -0.821186   -0.555822   -0.135499
  C     -1.895251   -0.837874    0.914903
  C     -1.432971    0.199335   -1.315248
  O     -0.043061    1.482531    0.991377
  H      1.654425   -1.649157   -1.262773
  H      2.500188   -1.526336    0.281262
  H      3.215461   -0.840219   -1.178356
  H      2.298458    0.982203    0.154270
  H      1.333559    0.808203   -1.310628
  H     -0.428093   -1.510869   -0.494487
  H     -2.752371   -1.330041    0.462412
  H     -1.502702   -1.477904    1.701633
  H     -2.224633    0.094986    1.367607
  H     -1.899609    1.122555   -0.978979
  H     -2.202253   -0.412951   -1.779409
  H     -0.686809    0.430498   -2.070956
  H     -0.234432    2.041386    0.225603

 Total Charge           Charge          ....    0
 Multiplicity           Mult            ....    1
 Number of Electrons    NEL             ....   58
 Basis Dimension        Dim             ....  208

ORBITAL ENERGIES
----------------

  NO   OCC          E(Eh)            E(eV)
   0   2.0000     -18.947873      -515.5978
   1   2.0000     -10.070247      -274.0254
   2   2.0000     -10.024487      -272.7802
   3   2.0000     -10.016431      -272.5609
   4   2.0000     -10.010239      -272.3925
   5   2.0000     -10.008293      -272.3395
   6   2.0000     -10.005835      -272.2726
   7   2.0000      -0.985728       -26.8230
   8   2.0000      -0.763870       -20.7860
   9   2.0000      -0.723226       -19.6800
  10   2.0000      -0.644299       -17.5323
  11   2.0000      -0.630942       -17.1688
  12   2.0000      -0.565107       -15.3773
  13   2.0000      -0.527805       -14.3623
  14   2.0000      -0.444854       -12.1051
  15   2.0000      -0.439333       -11.9549
  16   2.0000      -0.413890       -11.2625
  17   2.0000      -0.402729       -10.9588
  18   2.0000      -0.379678       -10.3316
  19   2.0000      -0.362494        -9.8640
  20   2.0000      -0.345490        -9.4013
  21   2.0000      -0.340024        -9.2525
  22   2.0000      -0.333906        -9.0861
  23   2.0000      -0.312458        -8.5024
  24   2.0000      -0.305312        -8.3080
  25   2.0000      -0.295988        -8.0542
  26   2.0000      -0.289414        -7.8754
  27   2.0000      -0.270028        -7.3478
  28   2.0000      -0.233451        -6.3525
  29   0.0000       0.071302         1.9402
  30   0.0000       0.095821         2.6074
  31   0.0000       0.117605         3.2002
  32   0.0000       0.131743         3.5849
  33   0.0000       0.132568         3.6074

MULLIKEN ATOMIC CHARGES
-----------------------
   0 C :   -0.538590
   1 C :   -0.258131
   2 C :   -0.018396
   3 H :    0.156843
   4 C :    0.044099
   5 C :   -0.573139
   6 C :   -0.583288
   7 O :   -0.519210
   8 H :    0.162666
   9 H :    0.159477
  10 H :    0.160198
  11 H :    0.157787
  12 H :    0.153206
  13 H :    0.161121
  14 H :    0.158470
  15 H :    0.160195
  16 H :    0.169451
  17 H :    0.161819
  18 H :    0.165683
  19 H :    0.165334
  20 H :    0.354404
Sum of atomic charges:   -0.0000000

LOEWDIN ATOMIC CHARGES
----------------------
   0 C :   -0.426774
   1 C :   -0.291051
   2 C :    0.052843
   3 H :    0.187722
   4 C :   -0.222453
   5 C :   -0.419983
   6 C :   -0.421225
   7 O :   -0.647889
   8 H :    0.153084
   9 H :    0.155268
  10 H :    0.155320
  11 H :    0.163076
  12 H :    0.160922
  13 H :    0.166915
  14 H :    0.155444
  15 H :    0.156980
  16 H :    0.159876
  17 H :    0.158581
  18 H :    0.159511
  19 H :    0.158660
  20 H :    0.285174

  Mayer bond orders larger than 0.100000
B(  0-C ,  1-C ) :   0.8771 B(  0-C ,  8-H ) :   0.9767 B(  0-C ,  9-H ) :   0.9803
B(  0-C , 10-H ) :   0.9657 B(  1-C ,  2-C ) :   0.9385 B(  1-C , 11-H ) :   0.9757
B(  1-C , 12-H ) :   0.9674 B(  2-C ,  3-H ) :   0.9743 B(  2-C ,  4-C ) :   0.8770
B(  2-C ,  7-O ) :   0.9070 B(  4-C ,  5-C ) :   0.8806 B(  4-C ,  6-C ) :   0.8627
B(  4-C , 13-H ) :   0.9518 B(  5-C , 14-H ) :   0.9745 B(  5-C , 15-H ) :   0.9749
B(  5-C , 16-H ) :   0.9893 B(  6-C , 17-H ) :   0.9784 B(  6-C , 18-H ) :   0.9686
B(  6-C , 19-H ) :   0.9723 B(  7-O , 20-H ) :   0.8666

Dispersion correction           -0.005715089
FINAL SINGLE POINT ENERGY      -312.208023583744

DIPOLE MOMENT
-------------

Method             : SCF
Type of density    : Electron Density
Multiplicity       :   1
Irrep              :   0
Energy             :  -312.2135884295564097 Eh
Relativity type    :
Basis              : AO
                                X                 Y                 Z
Electronic contribution:      0.387864064       3.070649106       2.331529328
Nuclear contribution   :     -0.278195569      -3.359824654      -3.220700156
                        -----------------------------------------
Total Dipole Moment    :      0.109668495      -0.289175549      -0.889170827
                        -----------------------------------------
Magnitude (a.u.)       :      0.941421498
Magnitude (Debye)      :      2.392903281

Rotational constants in cm-1:             0.109221             0.059012             0.052478
Rotational constants in MHz :          3274.352379          1769.126518          1573.254590

                             ****ORCA TERMINATED NORMALLY****
TOTAL RUN TIME: 0 days 0 hours 0 minutes 33 seconds 173 msec
