                         Program Version 6.0.0  -   RELEASE  -
|  1> ! r2scan-3c def2/J RI DEFGRID2 scfconv6 printgap
|  2> %output
|  3>     printlevel normal
|  4> end
|  5> * xyz 0 1
|  6> C 1.8918365167 0.7207142191 -1.0556586072
|  7> C 1.4315834477 -0.2241795095 0.0528626001
|  8> H 2.2022923323 -1.008243925 0.1487443797
|  9> C 0.0902469554 -0.9240499413 -0.2711998881
| 10> C -1.1788326807 -0.2418937914 0.2591129986
| 11> C -1.377020412 1.1636434733 -0.3009001806
| 12> C -2.3887471497 -1.1145293011 -0.0750858547
| 13> O 1.3927644583 0.5170479713 1.261997075
| 14> H 2.8244970614 1.1927140605 -0.7566322319
| 15> H 2.0550698735 0.1607166652 -1.9714709247
| 16> H 1.156912668 1.4971059928 -1.2352669282
| 17> H 0.0149304824 -1.0233124606 -1.3549253927
| 18> H 0.1177257178 -1.9332157212 0.1478116453
| 19> H -1.1045172631 -0.1613807674 1.348705478
| 20> H -1.3624685686 1.1491485806 -1.3885924395
| 21> H -0.5974736904 1.8285163238 0.0603765175
| 22> H -2.3364619719 1.5609275317 0.0240023669
| 23> H -3.2964641603 -0.6757260074 0.3320287842
| 24> H -2.5040616794 -1.2027458804 -1.1531898423
| 25> H -2.2744979988 -2.1130272832 0.3408503505
| 26> H 1.2396937678 -0.0871293155 1.9994083608
| 27> *
| 28>
| 29>                          ****END OF INPUT****

CARTESIAN COORDINATES (ANGSTROEM)
---------------------------------
  C      1.891837    0.720714   -1.055659
  C      1.431583   -0.224180    0.052863
  H      2.202292   -1.008244    0.148744
  C      0.090247   -0.924050   -0.271200
  C     -1.178833   -0.241894    0.259113
  C     -1.377020    1.163643   -0.300900
  C     -2.388747   -1.114529   -0.075086
  O      1.392764    0.517048    1.261997
  H      2.824497    1.192714   -0.756632
  H      2.055070    0.160717   -1.971471
  H      1.156913    1.497106   -1.235267
  H      0.014930   -1.023312   -1.354925
  H      0.117726   -1.933216    0.147812
  H     -1.104517   -0.161381    1.348705
  H     -1.362469    1.149149   -1.388592
  H     -0.597474    1.828516    0.060377
  H     -2.336462    1.560928    0.024002
  H     -3.296464   -0.675726    0.332029
  H     -2.504062   -1.202746   -1.153190
  H     -2.274498   -2.113027    0.340850
  H      1.239694   -0.087129    1.999408

 Total Charge           Charge          ....    0
 Multiplicity           Mult            ....    1
 Number of Electrons    NEL             ....   58
 Basis Dimension        Dim             ....  208

ORBITAL ENERGIES
----------------

  NO   OCC          E(Eh)            E(eV)
   0   2.0000     -18.945991      -515.5466
   1   2.0000     -10.080762      -274.3115
   2   2.0000     -10.031733      -272.9773
   3   2.0000     -10.022271      -272.7198
   4   2.0000     -10.013733      -272.4875
   5   2.0000     -10.013593      -272.4837
   6   2.0000     -10.008231      -272.3378
   7   2.0000      -0.983851       -26.7720
   8   2.0000      -0.774294       -21.0696
   9   2.0000      -0.720267       -19.5995
  10   2.0000      -0.651157       -17.7189
  11   2.0000      -0.643736       -17.5169
  12   2.0000      -0.559982       -15.2379
  13   2.0000      -0.523692       -14.2504
  14   2.0000      -0.477153       -12.9840
  15   2.0000      -0.431689       -11.7468
  16   2.0000      -0.426076       -11.5941
  17   2.0000      -0.394730       -10.7412
  18   2.0000      -0.383414       -10.4332
  19   2.0000      -0.362273        -9.8579
  20   2.0000      -0.353817        -9.6279
  21   2.0000      -0.346297        -9.4232
  22   2.0000      -0.337950        -9.1961
  23   2.0000      -0.330859        -9.0031
  24   2.0000      -0.302441        -8.2298
  25   2.0000      -0.292323        -7.9545
  26   2.0000      -0.288899        -7.8614
  27   2.0000      -0.275908        -7.5078
  28   2.0000      -0.231392        -6.2965
  29   0.0000       0.050306         1.3689
  30   0.0000       0.100985         2.7479
  31   0.0000       0.107006         2.9118
  32   0.0000       0.124163         3.3787
  33   0.0000       0.126698         3.4476

MULLIKEN ATOMIC CHARGES
-----------------------
   0 C :   -0.500065
   1 C :    0.036268
   2 H :    0.129771
   3 C :   -0.369268
   4 C :    0.091780
   5 C :   -0.586670
   6 C :   -0.476241
   7 O :   -0.424549
   8 H :    0.156439
   9 H :    0.146212
  10 H :    0.158671
  11 H :    0.150135
  12 H :    0.152261
  13 H :    0.131827
  14 H :    0.155132
  15 H :    0.181707
  16 H :    0.140999
  17 H :    0.148075
  18 H :    0.147667
  19 H :    0.141299
  20 H :    0.288550
Sum of atomic charges:   -0.0000000

LOEWDIN ATOMIC CHARGES
----------------------
   0 C :   -0.386863
   1 C :    0.050923
   2 H :    0.161637
   3 C :   -0.287937
   4 C :   -0.237386
   5 C :   -0.418221
   6 C :   -0.417811
   7 O :   -0.620270
   8 H :    0.161965
   9 H :    0.156238
  10 H :    0.161416
  11 H :    0.166407
  12 H :    0.159267
  13 H :    0.157407
  14 H :    0.151862
  15 H :    0.163664
  16 H :    0.152279
  17 H :    0.152464
  18 H :    0.153585
  19 H :    0.151531
  20 H :    0.267843

  Mayer bond orders larger than 0.100000
B(  0-C ,  1-C ) :   0.9552 B(  0-C ,  8-H ) :   0.9715 B(  0-C ,  9-H ) :   0.9752
B(  0-C , 10-H ) :   0.9696 B(  1-C ,  2-H ) :   0.9669 B(  1-C ,  3-C ) :   0.8814
B(  1-C ,  7-O ) :   0.9097 B(  3-C ,  4-C ) :   0.8950 B(  3-C , 11-H ) :   0.9889
B(  3-C , 12-H ) :   0.9746 B(  4-C ,  5-C ) :   0.8545 B(  4-C ,  6-C ) :   0.8932
B(  4-C , 13-H ) :   0.9590 B(  5-C , 14-H ) :   0.9871 B(  5-C , 15-H ) :   0.9721
B(  5-C , 16-H ) :   0.9678 B(  6-C , 17-H ) :   0.9779 B(  6-C , 18-H ) :   0.9880
B(  6-C , 19-H ) :   0.9772 B(  7-O , 20-H ) :   0.9004

Dispersion correction           -0.005707730
FINAL SINGLE POINT ENERGY      -312.198810567573

DIPOLE MOMENT
-------------

Method             : SCF
Type of density    : Electron Density
Multiplicity       :   1
Irrep              :   0
Energy             :  -312.2042844644361139 Eh
Relativity type    :
Basis              : AO
                                X                 Y                 Z
Electronic contribution:      3.549658151       0.214843530       3.244873197
Nuclear contribution   :     -3.605166755      -0.757541775      -3.225581141
                        -----------------------------------------
Total Dipole Moment    :     -0.055508604      -0.542698245       0.019292056
                        -----------------------------------------
Magnitude (a.u.)       :      0.545870656
Magnitude (Debye)      :      1.387492942

Rotational constants in cm-1:             0.135474             0.051685             0.050028
Rotational constants in MHz :          4061.400073          1549.470833          1499.796251

                             ****ORCA TERMINATED NORMALLY****
TOTAL RUN TIME: 0 days 0 hours 0 minutes 30 seconds 737 msec
