                         Program Version 6.0.0  -   RELEASE  -
|  1> ! r2scan-3c def2/J RI DEFGRID2 scfconv6 printgap
|  2> %output
|  3>     printlevel normal
|  4> end
|  5> %cpcm
|  6>     smd true
|  7>     smdsolvent "water"
|  8> end
|  9> * xyz 0 1
| 10> C 1.8918365167 0.7207142191 -1.0556586072
| 11> C 1.4315834477 -0.2241795095 0.0528626001
| 12> H 2.2022923323 -1.008243925 0.1487443797
| 13> C 0.0902469554 -0.9240499413 -0.2711998881
| 14> C -1.1788326807 -0.2418937914 0.2591129986
| 15> C -1.377020412 1.1636434733 -0.3009001806
| 16> C -2.3887471497 -1.1145293011 -0.0750858547
| 17> O 1.3927644583 0.5170479713 1.261997075
| 18> H 2.8244970614 1.1927140605 -0.7566322319
| 19> H 2.0550698735 0.1607166652 -1.9714709247
| 20> H 1.156912668 1.4971059928 -1.2352669282
| 21> H 0.0149304824 -1.0233124606 -1.3549253927
| 22> H 0.1177257178 -1.9332157212 0.1478116453
| 23> H -1.1045172631 -0.1613807674 1.348705478
| 24> H -1.3624685686 1.1491485806 -1.3885924395
| 25> H -0.5974736904 1.8285163238 0.0603765175
| 26> H -2.3364619719 1.5609275317 0.0240023669
| 27> H -3.2964641603 -0.6757260074 0.3320287842
| 28> H -2.5040616794 -1.2027458804 -1.1531898423
| 29> H -2.2744979988 -2.1130272832 0.3408503505
| 30> H 1.2396937678 -0.0871293155 1.9994083608
| 31> *
| 32>
| 33>                          ****END OF INPUT****

CARTESIAN COORDINATES (ANGSTROEM)
---------------------------------
  C      1.891837    0.720714   -1.055659
  C      1.431583   -0.224180    0.052863
  H      2.202292   -1.008244    0.148744
  C      0.090247   -0.924050   -0.271200
  C     -1.178833   -0.241894    0.259113
  C     -1.377020    1.163643   -0.300900
  C     -2.388747   -1.114529   -0.075086
  O      1.392764    0.517048    1.261997
  H      2.824497    1.192714   -0.756632
  H      2.055070    0.160717   -1.971471
  H      1.156913    1.497106   -1.235267
  H      0.014930   -1.023312   -1.354925
  H      0.117726   -1.933216    0.147812
  H     -1.104517   -0.161381    1.348705
  H     -1.362469    1.149149   -1.388592
  H     -0.597474    1.828516    0.060377
  H     -2.336462    1.560928    0.024002
  H     -3.296464   -0.675726    0.332029
  H     -2.504062   -1.202746   -1.153190
  H     -2.274498   -2.113027    0.340850
  H      1.239694   -0.087129    1.999408

 Total Charge           Charge          ....    0
 Multiplicity           Mult            ....    1
 Number of Electrons    NEL             ....   58
 Basis Dimension        Dim             ....  208

ORBITAL ENERGIES
----------------

  NO   OCC          E(Eh)            E(eV)
   0   2.0000     -18.947139      -515.5779
   1   2.0000     -10.074637      -274.1448
   2   2.0000     -10.024364      -272.7768
   3   2.0000     -10.012283      -272.4481
   4   2.0000     -10.008134      -272.3352
   5   2.0000     -10.005581      -272.2657
   6   2.0000     -10.003891      -272.2197
   7   2.0000      -0.983866       -26.7724
   8   2.0000      -0.767045       -20.8724
   9   2.0000      -0.714591       -19.4450
  10   2.0000      -0.645166       -17.5559
  11   2.0000      -0.637204       -17.3392
  12   2.0000      -0.554625       -15.0921
  13   2.0000      -0.517376       -14.0785
  14   2.0000      -0.471670       -12.8348
  15   2.0000      -0.426275       -11.5995
  16   2.0000      -0.418690       -11.3931
  17   2.0000      -0.389484       -10.5984
  18   2.0000      -0.379453       -10.3254
  19   2.0000      -0.357134        -9.7181
  20   2.0000      -0.347958        -9.4684
  21   2.0000      -0.339856        -9.2480
  22   2.0000      -0.333741        -9.0816
  23   2.0000      -0.326783        -8.8922
  24   2.0000      -0.297598        -8.0980
  25   2.0000      -0.287948        -7.8355
  26   2.0000      -0.281427        -7.6580
  27   2.0000      -0.271030        -7.3751
  28   2.0000      -0.231858        -6.3092
  29   0.0000       0.066215         1.8018
  30   0.0000       0.112320         3.0564
  31   0.0000       0.115362         3.1392
  32   0.0000       0.130435         3.5493
  33   0.0000       0.134960         3.6724

MULLIKEN ATOMIC CHARGES
-----------------------
   0 C :   -0.542493
   1 C :    0.053560
   2 H :    0.142529
   3 C :   -0.364804
   4 C :    0.074138
   5 C :   -0.606488
   6 C :   -0.528723
   7 O :   -0.506041
   8 H :    0.159520
   9 H :    0.167506
  10 H :    0.167780
  11 H :    0.162946
  12 H :    0.163655
  13 H :    0.148090
  14 H :    0.168644
  15 H :    0.170037
  16 H :    0.153826
  17 H :    0.158528
  18 H :    0.159719
  19 H :    0.155413
  20 H :    0.342658
Sum of atomic charges:   -0.0000000

LOEWDIN ATOMIC CHARGES
----------------------
   0 C :   -0.396742
   1 C :    0.053405
   2 H :    0.169185
   3 C :   -0.285242
   4 C :   -0.237070
   5 C :   -0.426229
   6 C :   -0.425769
   7 O :   -0.654446
   8 H :    0.160349
   9 H :    0.164182
  10 H :    0.162176
  11 H :    0.170088
  12 H :    0.164723
  13 H :    0.160232
  14 H :    0.156290
  15 H :    0.158451
  16 H :    0.154444
  17 H :    0.154524
  18 H :    0.156011
  19 H :    0.155263
  20 H :    0.286174

  Mayer bond orders larger than 0.100000
B(  0-C ,  1-C ) :   0.9443 B(  0-C ,  8-H ) :   0.9718 B(  0-C ,  9-H ) :   0.9692
B(  0-C , 10-H ) :   0.9672 B(  1-C ,  2-H ) :   0.9594 B(  1-C ,  3-C ) :   0.8958
B(  1-C ,  7-O ) :   0.8954 B(  3-C ,  4-C ) :   0.8836 B(  3-C , 11-H ) :   0.9891
B(  3-C , 12-H ) :   0.9686 B(  4-C ,  5-C ) :   0.8580 B(  4-C ,  6-C ) :   0.8841
B(  4-C , 13-H ) :   0.9638 B(  5-C , 14-H ) :   0.9828 B(  5-C , 15-H ) :   0.9717
B(  5-C , 16-H ) :   0.9680 B(  6-C , 17-H ) :   0.9755 B(  6-C , 18-H ) :   0.9874
B(  6-C , 19-H ) :   0.9748 B(  7-O , 20-H ) :   0.8741

Dispersion correction           -0.005707730
FINAL SINGLE POINT ENERGY      -312.204000633671

DIPOLE MOMENT
-------------

Method             : SCF
Type of density    : Electron Density
Multiplicity       :   1
Irrep              :   0
Energy             :  -312.2094745305344645 Eh
Relativity type    :
Basis              : AO
                                X                 Y                 Z
Electronic contribution:      3.501682518      -0.103116858       3.215589066
Nuclear contribution   :     -3.605166755      -0.757541775      -3.225581141
                        -----------------------------------------
Total Dipole Moment    :     -0.103484237      -0.860658633      -0.009992075
                        -----------------------------------------
Magnitude (a.u.)       :      0.866915285
Magnitude (Debye)      :      2.203523537

Rotational constants in cm-1:             0.135474             0.051685             0.050028
Rotational constants in MHz :          4061.400073          1549.470833          1499.796251

                             ****ORCA TERMINATED NORMALLY****
TOTAL RUN TIME: 0 days 0 hours 0 minutes 36 seconds 345 msec
