                         Program Version 6.0.0  -   RELEASE  -
|  1> ! pbe def2-sv(p) def2/J RI DEFGRID1 loosescf d4 GCP(DFT/SV(P)) printgap
|  2> %output
|  3>     printlevel normal
|  4> end
|  5> * xyz 0 1
|  6> C 2.1140911771 0.9581317063 -0.4397076104
|  7> C 1.7232951871 -0.4132823026 0.0982212116
|  8> C 0.3344896898 -0.4537850918 0.7394374065
|  9> C -0.824406725 -0.2060826324 -0.2442236205
| 10> C -1.3529667067 1.2242759558 -0.1427478299
| 11> C -1.9676656167 -1.1891968653 0.0090288581
| 12> H 1.4659013137 1.2532901223 -1.2605314765
| 13> H 2.0461056921 1.7081535939 0.3453255881
| 14> H 3.1377247354 0.9393356244 -0.8072842879
| 15> H 1.7635621064 -1.1437846638 -0.7133960227
| 16> H 2.4565219018 -0.717399674 0.8494549816
| 17> H 0.2098540617 -1.4394034628 1.1932662368
| 18> H 0.2913444233 0.2811508513 1.5457566211
| 19> H -0.458590748 -0.370494847 -1.2637540368
| 20> H -2.128077408 1.3965055019 -0.8867227405
| 21> H -0.5595026651 1.9487686695 -0.3011364074
| 22> H -1.782414222 1.3955626131 0.8424800464
| 23> H -1.630265425 -2.2148132171 -0.1224027407
| 24> H -2.3447884759 -1.0766447816 1.0234626322
| 25> H -2.7871880427 -1.0076019704 -0.6829558141
| 26> *
| 27>
| 28>                          ****END OF INPUT****

CARTESIAN COORDINATES (ANGSTROEM)
---------------------------------
  C      2.114091    0.958132   -0.439708
  C      1.723295   -0.413282    0.098221
  C      0.334490   -0.453785    0.739437
  C     -0.824407   -0.206083   -0.244224
  C     -1.352967    1.224276   -0.142748
  C     -1.967666   -1.189197    0.009029
  H      1.465901    1.253290   -1.260531
  H      2.046106    1.708154    0.345326
  H      3.137725    0.939336   -0.807284
  H      1.763562   -1.143785   -0.713396
  H      2.456522   -0.717400    0.849455
  H      0.209854   -1.439403    1.193266
  H      0.291344    0.281151    1.545757
  H     -0.458591   -0.370495   -1.263754
  H     -2.128077    1.396506   -0.886723
  H     -0.559503    1.948769   -0.301136
  H     -1.782414    1.395563    0.842480
  H     -1.630265   -2.214813   -0.122403
  H     -2.344788   -1.076645    1.023463
  H     -2.787188   -1.007602   -0.682956

 Total Charge           Charge          ....    0
 Multiplicity           Mult            ....    1
 Number of Electrons    NEL             ....   50
 Basis Dimension        Dim             ....  112

ORBITAL ENERGIES
----------------

  NO   OCC          E(Eh)            E(eV)
   0   2.0000      -9.889001      -269.0934
   1   2.0000      -9.879706      -268.8405
   2   2.0000      -9.875110      -268.7154
   3   2.0000      -9.869790      -268.5706
   4   2.0000      -9.868113      -268.5250
   5   2.0000      -9.867713      -268.5141
   6   2.0000      -0.731530       -19.9059
   7   2.0000      -0.681031       -18.5318
   8   2.0000      -0.607743       -16.5375
   9   2.0000      -0.600973       -16.3533
  10   2.0000      -0.524157       -14.2630
  11   2.0000      -0.492263       -13.3952
  12   2.0000      -0.409309       -11.1379
  13   2.0000      -0.403873       -10.9899
  14   2.0000      -0.395042       -10.7496
  15   2.0000      -0.371395       -10.1062
  16   2.0000      -0.352431        -9.5901
  17   2.0000      -0.339921        -9.2497
  18   2.0000      -0.330380        -8.9901
  19   2.0000      -0.319120        -8.6837
  20   2.0000      -0.299492        -8.1496
  21   2.0000      -0.292817        -7.9680
  22   2.0000      -0.275334        -7.4922
  23   2.0000      -0.270250        -7.3539
  24   2.0000      -0.262964        -7.1556
  25   0.0000       0.036331         0.9886
  26   0.0000       0.060346         1.6421
  27   0.0000       0.065398         1.7796
  28   0.0000       0.071892         1.9563
  29   0.0000       0.099774         2.7150

MULLIKEN ATOMIC CHARGES
-----------------------
   0 C :   -0.288911
   1 C :   -0.190236
   2 C :   -0.120748
   3 C :   -0.180156
   4 C :   -0.255170
   5 C :   -0.253380
   6 H :    0.112831
   7 H :    0.098844
   8 H :    0.101311
   9 H :    0.086019
  10 H :    0.082082
  11 H :    0.076183
  12 H :    0.075364
  13 H :    0.074862
  14 H :    0.094691
  15 H :    0.102657
  16 H :    0.094220
  17 H :    0.099727
  18 H :    0.095507
  19 H :    0.094303
Sum of atomic charges:   -0.0000000

LOEWDIN ATOMIC CHARGES
----------------------
   0 C :   -0.344074
   1 C :   -0.231196
   2 C :   -0.218041
   3 C :   -0.157808
   4 C :   -0.330666
   5 C :   -0.329119
   6 H :    0.116863
   7 H :    0.116211
   8 H :    0.118791
   9 H :    0.112818
  10 H :    0.113862
  11 H :    0.114513
  12 H :    0.113708
  13 H :    0.111663
  14 H :    0.115533
  15 H :    0.115694
  16 H :    0.115415
  17 H :    0.115222
  18 H :    0.115905
  19 H :    0.114706

  Mayer bond orders larger than 0.100000
B(  0-C ,  1-C ) :   1.1554 B(  0-C ,  6-H ) :   0.9457 B(  0-C ,  7-H ) :   0.9521
B(  0-C ,  8-H ) :   0.9499 B(  1-C ,  2-C ) :   1.1355 B(  1-C ,  9-H ) :   0.9267
B(  1-C , 10-H ) :   0.9255 B(  2-C ,  3-C ) :   1.0417 B(  2-C , 11-H ) :   0.9244
B(  2-C , 12-H ) :   0.9186 B(  3-C ,  4-C ) :   1.1171 B(  3-C ,  5-C ) :   1.1171
B(  3-C , 13-H ) :   0.9109 B(  4-C , 14-H ) :   0.9505 B(  4-C , 15-H ) :   0.9447
B(  4-C , 16-H ) :   0.9471 B(  5-C , 17-H ) :   0.9490 B(  5-C , 18-H ) :   0.9498
B(  5-C , 19-H ) :   0.9523

Dispersion correction           -0.014928195
FINAL SINGLE POINT ENERGY      -236.446210694347

DIPOLE MOMENT
-------------

Method             : SCF
Type of density    : Electron Density
Multiplicity       :   1
Irrep              :   0
Energy             :  -236.5140625608258915 Eh
Relativity type    :
Basis              : AO
                                X                 Y                 Z
Electronic contribution:      0.342325046      -0.915321906       0.203609411
Nuclear contribution   :     -0.300035908       0.893715189      -0.223692731
                        -----------------------------------------
Total Dipole Moment    :      0.042289139      -0.021606717      -0.020083320
                        -----------------------------------------
Magnitude (a.u.)       :      0.051561237
Magnitude (Debye)      :      0.131058250

Rotational constants in cm-1:             0.185264             0.069524             0.056835
Rotational constants in MHz :          5554.076638          2084.289983          1703.880166

                             ****ORCA TERMINATED NORMALLY****
TOTAL RUN TIME: 0 days 0 hours 0 minutes 8 seconds 202 msec
