                         Program Version 6.0.0  -   RELEASE  -
|  1> ! r2scan-3c def2/J RI DEFGRID2 scfconv6 printgap
|  2> %output
|  3>     printlevel normal
|  4> end
|  5> * xyz 0 1
|  6> C -2.7787259586 0.0743320079 0.6306490055
|  7> C -1.6863445227 0.7706079349 -0.1827179095
|  8> C -0.4946921197 -0.1396474148 -0.3374056568
|  9> O -0.5124540007 -1.213530234 -0.9043157782
| 10> O 0.588740767 0.3676569143 0.2308306137
| 11> C 1.813646698 -0.3838378854 0.1674228343
| 12> C 2.9737230791 0.5727992207 0.3671633997
| 13> H -2.4376663965 -0.1119026498 1.6458247849
| 14> H -3.6663490131 0.6981924987 0.6681858446
| 15> H -3.0331902512 -0.8772811621 0.1702426015
| 16> H -1.3636331163 1.6905129724 0.3019286021
| 17> H -2.0658462242 0.9935422752 -1.1808796305
| 18> H 1.782920525 -1.145261767 0.9531092093
| 19> H 1.8599815545 -0.8892067955 -0.8027983299
| 20> H 3.9055452078 0.0179180265 0.3348677325
| 21> H 2.9778342275 1.3252502113 -0.4161833973
| 22> H 2.8838083089 1.0689303473 1.3288995614
| 23> *
| 24>
| 25>                          ****END OF INPUT****

CARTESIAN COORDINATES (ANGSTROEM)
---------------------------------
  C     -2.778726    0.074332    0.630649
  C     -1.686345    0.770608   -0.182718
  C     -0.494692   -0.139647   -0.337406
  O     -0.512454   -1.213530   -0.904316
  O      0.588741    0.367657    0.230831
  C      1.813647   -0.383838    0.167423
  C      2.973723    0.572799    0.367163
  H     -2.437666   -0.111903    1.645825
  H     -3.666349    0.698192    0.668186
  H     -3.033190   -0.877281    0.170243
  H     -1.363633    1.690513    0.301929
  H     -2.065846    0.993542   -1.180880
  H      1.782921   -1.145262    0.953109
  H      1.859982   -0.889207   -0.802798
  H      3.905545    0.017918    0.334868
  H      2.977834    1.325250   -0.416183
  H      2.883808    1.068930    1.328900

 Total Charge           Charge          ....    0
 Multiplicity           Mult            ....    1
 Number of Electrons    NEL             ....   56
 Basis Dimension        Dim             ....  193

ORBITAL ENERGIES
----------------

  NO   OCC          E(Eh)            E(eV)
   0   2.0000     -18.997419      -516.9460
   1   2.0000     -18.925907      -515.0001
   2   2.0000     -10.150475      -276.2085
   3   2.0000     -10.091188      -274.5952
   4   2.0000     -10.042849      -273.2798
   5   2.0000     -10.032435      -272.9964
   6   2.0000     -10.028166      -272.8803
   7   2.0000      -1.071688       -29.1621
   8   2.0000      -0.973732       -26.4966
   9   2.0000      -0.764907       -20.8142
  10   2.0000      -0.733755       -19.9665
  11   2.0000      -0.640570       -17.4308
  12   2.0000      -0.591056       -16.0835
  13   2.0000      -0.532673       -14.4948
  14   2.0000      -0.471529       -12.8310
  15   2.0000      -0.457333       -12.4447
  16   2.0000      -0.435232       -11.8433
  17   2.0000      -0.418959       -11.4005
  18   2.0000      -0.401090       -10.9142
  19   2.0000      -0.375039       -10.2053
  20   2.0000      -0.371045       -10.0966
  21   2.0000      -0.355749        -9.6804
  22   2.0000      -0.338547        -9.2123
  23   2.0000      -0.327015        -8.8985
  24   2.0000      -0.319736        -8.7004
  25   2.0000      -0.309342        -8.4176
  26   2.0000      -0.271129        -7.3778
  27   2.0000      -0.233883        -6.3643
  28   0.0000      -0.014240        -0.3875
  29   0.0000       0.075158         2.0451
  30   0.0000       0.097578         2.6552
  31   0.0000       0.115559         3.1445
  32   0.0000       0.129057         3.5118

MULLIKEN ATOMIC CHARGES
-----------------------
   0 C :   -0.462014
   1 C :   -0.298488
   2 C :    0.398549
   3 O :   -0.433983
   4 O :   -0.168322
   5 C :   -0.153355
   6 C :   -0.440452
   7 H :    0.144722
   8 H :    0.150750
   9 H :    0.171231
  10 H :    0.160473
  11 H :    0.160507
  12 H :    0.147200
  13 H :    0.171812
  14 H :    0.147000
  15 H :    0.152640
  16 H :    0.151730
Sum of atomic charges:   -0.0000000

LOEWDIN ATOMIC CHARGES
----------------------
   0 C :   -0.394408
   1 C :   -0.237736
   2 C :    0.356770
   3 O :   -0.434622
   4 O :   -0.598392
   5 C :    0.033020
   6 C :   -0.386889
   7 H :    0.154457
   8 H :    0.151930
   9 H :    0.164662
  10 H :    0.173580
  11 H :    0.177301
  12 H :    0.175371
  13 H :    0.187575
  14 H :    0.159485
  15 H :    0.159117
  16 H :    0.158779

  Mayer bond orders larger than 0.100000
B(  0-C ,  1-C ) :   0.9028 B(  0-C ,  7-H ) :   0.9747 B(  0-C ,  8-H ) :   0.9731
B(  0-C ,  9-H ) :   0.9727 B(  1-C ,  2-C ) :   0.9515 B(  1-C , 10-H ) :   0.9862
B(  1-C , 11-H ) :   0.9528 B(  2-C ,  3-O ) :   1.8129 B(  2-C ,  4-O ) :   1.0830
B(  4-O ,  5-C ) :   0.7930 B(  5-C ,  6-C ) :   0.9449 B(  5-C , 12-H ) :   0.9458
B(  5-C , 13-H ) :   0.9618 B(  6-C , 14-H ) :   0.9678 B(  6-C , 15-H ) :   0.9746
B(  6-C , 16-H ) :   0.9687

Dispersion correction           -0.003848821
FINAL SINGLE POINT ENERGY      -346.935752628896

DIPOLE MOMENT
-------------

Method             : SCF
Type of density    : Electron Density
Multiplicity       :   1
Irrep              :   0
Energy             :  -346.9422965925654125 Eh
Relativity type    :
Basis              : AO
                                X                 Y                 Z
Electronic contribution:     -0.448876068      -1.958634787      -2.376299773
Nuclear contribution   :      0.792385781       2.586833145       2.807515708
                        -----------------------------------------
Total Dipole Moment    :      0.343509714       0.628198359       0.431215935
                        -----------------------------------------
Magnitude (a.u.)       :      0.835810555
Magnitude (Debye)      :      2.124461597

Rotational constants in cm-1:             0.212561             0.044594             0.039974
Rotational constants in MHz :          6372.416181          1336.903144          1198.379182

                             ****ORCA TERMINATED NORMALLY****
TOTAL RUN TIME: 0 days 0 hours 0 minutes 20 seconds 888 msec
