                         Program Version 6.0.0  -   RELEASE  -
|  1> ! r2scan-3c def2/J RI DEFGRID2 scfconv6 printgap
|  2> %output
|  3>     printlevel normal
|  4> end
|  5> %cpcm
|  6>     smd true
|  7>     smdsolvent "water"
|  8> end
|  9> * xyz 0 1
| 10> C -2.7787259586 0.0743320079 0.6306490055
| 11> C -1.6863445227 0.7706079349 -0.1827179095
| 12> C -0.4946921197 -0.1396474148 -0.3374056568
| 13> O -0.5124540007 -1.213530234 -0.9043157782
| 14> O 0.588740767 0.3676569143 0.2308306137
| 15> C 1.813646698 -0.3838378854 0.1674228343
| 16> C 2.9737230791 0.5727992207 0.3671633997
| 17> H -2.4376663965 -0.1119026498 1.6458247849
| 18> H -3.6663490131 0.6981924987 0.6681858446
| 19> H -3.0331902512 -0.8772811621 0.1702426015
| 20> H -1.3636331163 1.6905129724 0.3019286021
| 21> H -2.0658462242 0.9935422752 -1.1808796305
| 22> H 1.782920525 -1.145261767 0.9531092093
| 23> H 1.8599815545 -0.8892067955 -0.8027983299
| 24> H 3.9055452078 0.0179180265 0.3348677325
| 25> H 2.9778342275 1.3252502113 -0.4161833973
| 26> H 2.8838083089 1.0689303473 1.3288995614
| 27> *
| 28>
| 29>                          ****END OF INPUT****

CARTESIAN COORDINATES (ANGSTROEM)
---------------------------------
  C     -2.778726    0.074332    0.630649
  C     -1.686345    0.770608   -0.182718
  C     -0.494692   -0.139647   -0.337406
  O     -0.512454   -1.213530   -0.904316
  O      0.588741    0.367657    0.230831
  C      1.813647   -0.383838    0.167423
  C      2.973723    0.572799    0.367163
  H     -2.437666   -0.111903    1.645825
  H     -3.666349    0.698192    0.668186
  H     -3.033190   -0.877281    0.170243
  H     -1.363633    1.690513    0.301929
  H     -2.065846    0.993542   -1.180880
  H      1.782921   -1.145262    0.953109
  H      1.859982   -0.889207   -0.802798
  H      3.905545    0.017918    0.334868
  H      2.977834    1.325250   -0.416183
  H      2.883808    1.068930    1.328900

 Total Charge           Charge          ....    0
 Multiplicity           Mult            ....    1
 Number of Electrons    NEL             ....   56
 Basis Dimension        Dim             ....  193

ORBITAL ENERGIES
----------------

  NO   OCC          E(Eh)            E(eV)
   0   2.0000     -19.003414      -517.1092
   1   2.0000     -18.942837      -515.4608
   2   2.0000     -10.161877      -276.5187
   3   2.0000     -10.083446      -274.3845
   4   2.0000     -10.037417      -273.1320
   5   2.0000     -10.020824      -272.6805
   6   2.0000     -10.018821      -272.6260
   7   2.0000      -1.079445       -29.3732
   8   2.0000      -0.988383       -26.8953
   9   2.0000      -0.760952       -20.7066
  10   2.0000      -0.725921       -19.7533
  11   2.0000      -0.634877       -17.2759
  12   2.0000      -0.584303       -15.8997
  13   2.0000      -0.531531       -14.4637
  14   2.0000      -0.472148       -12.8478
  15   2.0000      -0.461965       -12.5707
  16   2.0000      -0.440526       -11.9873
  17   2.0000      -0.415079       -11.2949
  18   2.0000      -0.401411       -10.9229
  19   2.0000      -0.371656       -10.1133
  20   2.0000      -0.360557        -9.8113
  21   2.0000      -0.348306        -9.4779
  22   2.0000      -0.333638        -9.0788
  23   2.0000      -0.322043        -8.7632
  24   2.0000      -0.318404        -8.6642
  25   2.0000      -0.307934        -8.3793
  26   2.0000      -0.278164        -7.5692
  27   2.0000      -0.251127        -6.8335
  28   0.0000      -0.022780        -0.6199
  29   0.0000       0.078150         2.1266
  30   0.0000       0.107496         2.9251
  31   0.0000       0.123356         3.3567
  32   0.0000       0.136964         3.7270

MULLIKEN ATOMIC CHARGES
-----------------------
   0 C :   -0.492135
   1 C :   -0.310127
   2 C :    0.441388
   3 O :   -0.521452
   4 O :   -0.184240
   5 C :   -0.151785
   6 C :   -0.487157
   7 H :    0.163131
   8 H :    0.170927
   9 H :    0.165888
  10 H :    0.175530
  11 H :    0.185681
  12 H :    0.172654
  13 H :    0.173121
  14 H :    0.168722
  15 H :    0.165600
  16 H :    0.164254
Sum of atomic charges:   -0.0000000

LOEWDIN ATOMIC CHARGES
----------------------
   0 C :   -0.397528
   1 C :   -0.233828
   2 C :    0.367135
   3 O :   -0.497249
   4 O :   -0.598869
   5 C :    0.036253
   6 C :   -0.389935
   7 H :    0.159825
   8 H :    0.159835
   9 H :    0.161185
  10 H :    0.181189
  11 H :    0.186305
  12 H :    0.184262
  13 H :    0.188711
  14 H :    0.168233
  15 H :    0.162196
  16 H :    0.162281

  Mayer bond orders larger than 0.100000
B(  0-C ,  1-C ) :   0.8864 B(  0-C ,  7-H ) :   0.9714 B(  0-C ,  8-H ) :   0.9670
B(  0-C ,  9-H ) :   0.9738 B(  1-C ,  2-C ) :   0.9531 B(  1-C , 10-H ) :   0.9774
B(  1-C , 11-H ) :   0.9459 B(  2-C ,  3-O ) :   1.7434 B(  2-C ,  4-O ) :   1.1100
B(  4-O ,  5-C ) :   0.7803 B(  5-C ,  6-C ) :   0.9432 B(  5-C , 12-H ) :   0.9368
B(  5-C , 13-H ) :   0.9566 B(  6-C , 14-H ) :   0.9613 B(  6-C , 15-H ) :   0.9733
B(  6-C , 16-H ) :   0.9658

Dispersion correction           -0.003848821
FINAL SINGLE POINT ENERGY      -346.941214479772

DIPOLE MOMENT
-------------

Method             : SCF
Type of density    : Electron Density
Multiplicity       :   1
Irrep              :   0
Energy             :  -346.9477584434414439 Eh
Relativity type    :
Basis              : AO
                                X                 Y                 Z
Electronic contribution:     -0.345075971      -1.682611532      -2.199641945
Nuclear contribution   :      0.792385781       2.586833145       2.807515708
                        -----------------------------------------
Total Dipole Moment    :      0.447309810       0.904221613       0.607873763
                        -----------------------------------------
Magnitude (a.u.)       :      1.177800197
Magnitude (Debye)      :      2.993730184

Rotational constants in cm-1:             0.212561             0.044594             0.039974
Rotational constants in MHz :          6372.416181          1336.903144          1198.379182

                             ****ORCA TERMINATED NORMALLY****
TOTAL RUN TIME: 0 days 0 hours 0 minutes 24 seconds 941 msec
