                         Program Version 6.0.0  -   RELEASE  -
|  1> ! r2scan-3c def2/J RI DEFGRID2 scfconv6 printgap
|  2> %output
|  3>     printlevel normal
|  4> end
|  5> %cpcm
|  6>     smd true
|  7>     smdsolvent "water"
|  8> end
|  9> * xyz 0 1
| 10> C -2.4250444732 0.1018119617 -0.1336047511
| 11> C -1.0007362331 0.4146432498 0.3072559496
| 12> C -0.0179023882 -0.6285950685 -0.2304553107
| 13> O 1.2955871807 -0.5118964482 0.2871367769
| 14> C 2.0234123162 0.5994906134 -0.1933407689
| 15> H -3.1101508605 0.8543765293 0.2467376564
| 16> H -2.4927336653 0.089055048 -1.218819862
| 17> H -2.7354120256 -0.8702346167 0.2413709999
| 18> H -0.937590685 0.4194063672 1.3971773576
| 19> H -0.7190836504 1.4056191093 -0.0532459801
| 20> H -0.3404045049 -1.6283798152 0.0713606838
| 21> H 0.012233156 -0.5842169547 -1.3293009068
| 22> H 3.0411875421 0.4682005736 0.1666190844
| 23> H 1.621571015 1.5419463511 0.1895392674
| 24> H 2.0191709505 0.6224165752 -1.2885086366
| 25> *
| 26>
| 27>                          ****END OF INPUT****

CARTESIAN COORDINATES (ANGSTROEM)
---------------------------------
  C     -2.425044    0.101812   -0.133605
  C     -1.000736    0.414643    0.307256
  C     -0.017902   -0.628595   -0.230455
  O      1.295587   -0.511896    0.287137
  C      2.023412    0.599491   -0.193341
  H     -3.110151    0.854377    0.246738
  H     -2.492734    0.089055   -1.218820
  H     -2.735412   -0.870235    0.241371
  H     -0.937591    0.419406    1.397177
  H     -0.719084    1.405619   -0.053246
  H     -0.340405   -1.628380    0.071361
  H      0.012233   -0.584217   -1.329301
  H      3.041188    0.468201    0.166619
  H      1.621571    1.541946    0.189539
  H      2.019171    0.622417   -1.288509

 Total Charge           Charge          ....    0
 Multiplicity           Mult            ....    1
 Number of Electrons    NEL             ....   42
 Basis Dimension        Dim             ....  150

ORBITAL ENERGIES
----------------

  NO   OCC          E(Eh)            E(eV)
   0   2.0000     -18.953788      -515.7588
   1   2.0000     -10.066535      -273.9243
   2   2.0000     -10.061090      -273.7762
   3   2.0000     -10.018407      -272.6147
   4   2.0000     -10.011638      -272.4305
   5   2.0000      -0.996414       -27.1138
   6   2.0000      -0.742745       -20.2111
   7   2.0000      -0.670913       -18.2565
   8   2.0000      -0.604471       -16.4485
   9   2.0000      -0.545204       -14.8358
  10   2.0000      -0.451315       -12.2809
  11   2.0000      -0.447215       -12.1693
  12   2.0000      -0.415425       -11.3043
  13   2.0000      -0.397507       -10.8167
  14   2.0000      -0.368892       -10.0381
  15   2.0000      -0.343011        -9.3338
  16   2.0000      -0.331446        -9.0191
  17   2.0000      -0.314361        -8.5542
  18   2.0000      -0.300189        -8.1686
  19   2.0000      -0.275978        -7.5098
  20   2.0000      -0.221267        -6.0210
  21   0.0000       0.073543         2.0012
  22   0.0000       0.106798         2.9061
  23   0.0000       0.124245         3.3809
  24   0.0000       0.141124         3.8402
  25   0.0000       0.145449         3.9579

MULLIKEN ATOMIC CHARGES
-----------------------
   0 C :   -0.508613
   1 C :   -0.215705
   2 C :   -0.190071
   3 O :   -0.315709
   4 C :   -0.305034
   5 H :    0.160154
   6 H :    0.154474
   7 H :    0.154693
   8 H :    0.151014
   9 H :    0.149428
  10 H :    0.154308
  11 H :    0.146776
  12 H :    0.160558
  13 H :    0.152809
  14 H :    0.150918
Sum of atomic charges:   -0.0000000

LOEWDIN ATOMIC CHARGES
----------------------
   0 C :   -0.426982
   1 C :   -0.302703
   2 C :    0.001191
   3 O :   -0.832754
   4 C :   -0.077706
   5 H :    0.155898
   6 H :    0.154648
   7 H :    0.154188
   8 H :    0.158657
   9 H :    0.157534
  10 H :    0.183052
  11 H :    0.169481
  12 H :    0.178835
  13 H :    0.161645
  14 H :    0.165017

  Mayer bond orders larger than 0.100000
B(  0-C ,  1-C ) :   0.9021 B(  0-C ,  5-H ) :   0.9672 B(  0-C ,  6-H ) :   0.9770
B(  0-C ,  7-H ) :   0.9755 B(  1-C ,  2-C ) :   0.9061 B(  1-C ,  8-H ) :   0.9615
B(  1-C ,  9-H ) :   0.9601 B(  2-C ,  3-O ) :   0.9023 B(  2-C , 10-H ) :   0.9711
B(  2-C , 11-H ) :   0.9726 B(  3-O ,  4-C ) :   0.8854 B(  4-C , 12-H ) :   0.9683
B(  4-C , 13-H ) :   0.9577 B(  4-C , 14-H ) :   0.9616

Dispersion correction           -0.003011071
FINAL SINGLE POINT ENERGY      -233.583015431880

DIPOLE MOMENT
-------------

Method             : SCF
Type of density    : Electron Density
Multiplicity       :   1
Irrep              :   0
Energy             :  -233.5900592671195000 Eh
Relativity type    :
Basis              : AO
                                X                 Y                 Z
Electronic contribution:      3.051307102      -1.641846660       1.010349535
Nuclear contribution   :     -3.396797679       2.167239811      -1.475288685
                        -----------------------------------------
Total Dipole Moment    :     -0.345490577       0.525393151      -0.464939150
                        -----------------------------------------
Magnitude (a.u.)       :      0.782029485
Magnitude (Debye)      :      1.987760982

Rotational constants in cm-1:             0.468114             0.079997             0.074921
Rotational constants in MHz :         14033.708573          2398.258923          2246.064128

                             ****ORCA TERMINATED NORMALLY****
TOTAL RUN TIME: 0 days 0 hours 0 minutes 19 seconds 894 msec
