                         Program Version 6.0.0  -   RELEASE  -
|  1> ! wb97x-v def2-tzvp def2/J RIJCOSX DEFGRID2 scfconv7 GCP(DFT/TZ) printgap
|  2> %output
|  3>     printlevel normal
|  4> end
|  5> * xyz 0 1
|  6> C -2.0509990442739285 0.3915014879519431 0.6039792249589718
|  7> C -1.439031363786168 -0.7669806283891294 -0.17629808641574227
|  8> C -0.22072767714911318 -0.3512310529411856 -1.0309100398226596
|  9> C 0.8935297387410184 0.17037848759185986 -0.16504656879235716
| 10> O 1.0641872141173343 1.377343843571043 -0.0010448784396213104
| 11> C 1.7784421156554044 -0.8424853617790707 0.49636053728636587
| 12> H -2.331414578551758 1.2123888938361924 -0.0657795649356725
| 13> H -1.3554186104047279 0.7909958753114025 1.3499688936619882
| 14> H -2.9521619986548777 0.06532139926619474 1.132879393187008
| 15> H -2.1845494628039033 -1.1899852618272773 -0.8580835466498751
| 16> H -1.1467532681969002 -1.5704316444234279 0.5095996111334551
| 17> H 0.134948669288544 -1.224309879970282 -1.5891728667709517
| 18> H -0.5177199071878806 0.4330105321873219 -1.7342851231688114
| 19> H 2.456935507341571 -1.244810581215445 -0.26736227250008204
| 20> H 1.1963758196424497 -1.6888533768343312 0.8738624325933321
| 21> H 2.3674983433619263 -0.39055173378058394 1.2960181660019683
| 22> *
| 23>
| 24>                          ****END OF INPUT****

CARTESIAN COORDINATES (ANGSTROEM)
---------------------------------
  C     -2.050999    0.391501    0.603979
  C     -1.439031   -0.766981   -0.176298
  C     -0.220728   -0.351231   -1.030910
  C      0.893530    0.170378   -0.165047
  O      1.064187    1.377344   -0.001045
  C      1.778442   -0.842485    0.496361
  H     -2.331415    1.212389   -0.065780
  H     -1.355419    0.790996    1.349969
  H     -2.952162    0.065321    1.132879
  H     -2.184549   -1.189985   -0.858084
  H     -1.146753   -1.570432    0.509600
  H      0.134949   -1.224310   -1.589173
  H     -0.517720    0.433011   -1.734285
  H      2.456936   -1.244811   -0.267362
  H      1.196376   -1.688853    0.873862
  H      2.367498   -0.390552    1.296018

 Total Charge           Charge          ....    0
 Multiplicity           Mult            ....    1
 Number of Electrons    NEL             ....   48
 Basis Dimension        Dim             ....  246

ORBITAL ENERGIES
----------------

  NO   OCC          E(Eh)            E(eV)
   0   2.0000     -21.656470      -589.3025
   1   2.0000     -12.136475      -330.2503
   2   2.0000     -12.059107      -328.1450
   3   2.0000     -12.054567      -328.0215
   4   2.0000     -12.052938      -327.9771
   5   2.0000     -12.037131      -327.5470
   6   2.0000      -1.698179       -46.2098
   7   2.0000      -1.319599       -35.9081
   8   2.0000      -1.261338       -34.3227
   9   2.0000      -1.199255       -32.6334
  10   2.0000      -1.103536       -30.0287
  11   2.0000      -1.060786       -28.8654
  12   2.0000      -0.965557       -26.2741
  13   2.0000      -0.958074       -26.0705
  14   2.0000      -0.913470       -24.8568
  15   2.0000      -0.880524       -23.9603
  16   2.0000      -0.866971       -23.5915
  17   2.0000      -0.846038       -23.0219
  18   2.0000      -0.834643       -22.7118
  19   2.0000      -0.830645       -22.6030
  20   2.0000      -0.800317       -21.7777
  21   2.0000      -0.795805       -21.6550
  22   2.0000      -0.780305       -21.2332
  23   2.0000      -0.762740       -20.7552
  24   0.0000      -0.310207        -8.4412
  25   0.0000      -0.048364        -1.3161
  26   0.0000      -0.030793        -0.8379
  27   0.0000      -0.023505        -0.6396
  28   0.0000      -0.004827        -0.1314

MULLIKEN ATOMIC CHARGES
-----------------------
   0 C :   -0.338608
   1 C :   -0.195640
   2 C :   -0.156114
   3 C :    0.201067
   4 O :   -0.318497
   5 C :   -0.347151
   6 H :    0.110919
   7 H :    0.123446
   8 H :    0.112759
   9 H :    0.105781
  10 H :    0.094211
  11 H :    0.106962
  12 H :    0.113641
  13 H :    0.131070
  14 H :    0.120726
  15 H :    0.135429
Sum of atomic charges:    0.0000000

LOEWDIN ATOMIC CHARGES
----------------------
   0 C :   -0.301583
   1 C :   -0.279708
   2 C :   -0.226772
   3 C :   -0.344510
   4 O :    0.101381
   5 C :   -0.259994
   6 H :    0.121138
   7 H :    0.121234
   8 H :    0.116740
   9 H :    0.134446
  10 H :    0.129532
  11 H :    0.142425
  12 H :    0.146347
  13 H :    0.139532
  14 H :    0.128949
  15 H :    0.130840

  Mayer bond orders larger than 0.100000
B(  0-C ,  1-C ) :   0.9928 B(  0-C ,  6-H ) :   0.9769 B(  0-C ,  7-H ) :   0.9739
B(  0-C ,  8-H ) :   0.9782 B(  1-C ,  2-C ) :   0.9670 B(  1-C ,  9-H ) :   0.9754
B(  1-C , 10-H ) :   0.9731 B(  2-C ,  3-C ) :   0.9341 B(  2-C , 11-H ) :   0.9590
B(  2-C , 12-H ) :   0.9746 B(  3-C ,  4-O ) :   2.1386 B(  3-C ,  5-C ) :   0.9683
B(  5-C , 13-H ) :   0.9457 B(  5-C , 14-H ) :   0.9640 B(  5-C , 15-H ) :   0.9764

FINAL SINGLE POINT ENERGY      -271.791906038874

DIPOLE MOMENT
-------------

Method             : SCF
Type of density    : Electron Density
Multiplicity       :   1
Irrep              :   0
Energy             :  -271.8025607088741822 Eh
Relativity type    :
Basis              : AO
                                X                 Y                 Z
Electronic contribution:      3.805556942       3.347183395      -1.035006856
Nuclear contribution   :     -4.068556501      -4.532119936       0.894487428
                        -----------------------------------------
Total Dipole Moment    :     -0.262999559      -1.184936540      -0.140519428
                        -----------------------------------------
Magnitude (a.u.)       :      1.221879324
Magnitude (Debye)      :      3.105770421

Rotational constants in cm-1:             0.178145             0.080261             0.070254
Rotational constants in MHz :          5340.648804          2406.175090          2106.169168

                             ****ORCA TERMINATED NORMALLY****
TOTAL RUN TIME: 0 days 0 hours 2 minutes 7 seconds 159 msec
