                         Program Version 6.0.0  -   RELEASE  -
|  1> ! wb97x-v def2-tzvp def2/J RIJCOSX DEFGRID2 scfconv7 GCP(DFT/TZ) printgap
|  2> %output
|  3>     printlevel normal
|  4> end
|  5> %cpcm
|  6>     smd true
|  7>     smdsolvent "water"
|  8> end
|  9> * xyz 0 1
| 10> C -2.0509990442739285 0.3915014879519431 0.6039792249589718
| 11> C -1.439031363786168 -0.7669806283891294 -0.17629808641574227
| 12> C -0.22072767714911318 -0.3512310529411856 -1.0309100398226596
| 13> C 0.8935297387410184 0.17037848759185986 -0.16504656879235716
| 14> O 1.0641872141173343 1.377343843571043 -0.0010448784396213104
| 15> C 1.7784421156554044 -0.8424853617790707 0.49636053728636587
| 16> H -2.331414578551758 1.2123888938361924 -0.0657795649356725
| 17> H -1.3554186104047279 0.7909958753114025 1.3499688936619882
| 18> H -2.9521619986548777 0.06532139926619474 1.132879393187008
| 19> H -2.1845494628039033 -1.1899852618272773 -0.8580835466498751
| 20> H -1.1467532681969002 -1.5704316444234279 0.5095996111334551
| 21> H 0.134948669288544 -1.224309879970282 -1.5891728667709517
| 22> H -0.5177199071878806 0.4330105321873219 -1.7342851231688114
| 23> H 2.456935507341571 -1.244810581215445 -0.26736227250008204
| 24> H 1.1963758196424497 -1.6888533768343312 0.8738624325933321
| 25> H 2.3674983433619263 -0.39055173378058394 1.2960181660019683
| 26> *
| 27>
| 28>                          ****END OF INPUT****

CARTESIAN COORDINATES (ANGSTROEM)
---------------------------------
  C     -2.050999    0.391501    0.603979
  C     -1.439031   -0.766981   -0.176298
  C     -0.220728   -0.351231   -1.030910
  C      0.893530    0.170378   -0.165047
  O      1.064187    1.377344   -0.001045
  C      1.778442   -0.842485    0.496361
  H     -2.331415    1.212389   -0.065780
  H     -1.355419    0.790996    1.349969
  H     -2.952162    0.065321    1.132879
  H     -2.184549   -1.189985   -0.858084
  H     -1.146753   -1.570432    0.509600
  H      0.134949   -1.224310   -1.589173
  H     -0.517720    0.433011   -1.734285
  H      2.456936   -1.244811   -0.267362
  H      1.196376   -1.688853    0.873862
  H      2.367498   -0.390552    1.296018

 Total Charge           Charge          ....    0
 Multiplicity           Mult            ....    1
 Number of Electrons    NEL             ....   48
 Basis Dimension        Dim             ....  246

ORBITAL ENERGIES
----------------

  NO   OCC          E(Eh)            E(eV)
   0   2.0000     -21.666943      -589.5875
   1   2.0000     -12.143163      -330.4323
   2   2.0000     -12.044620      -327.7508
   3   2.0000     -12.043091      -327.7092
   4   2.0000     -12.039157      -327.6021
   5   2.0000     -12.027078      -327.2734
   6   2.0000      -1.712287       -46.5937
   7   2.0000      -1.309913       -35.6445
   8   2.0000      -1.251876       -34.0653
   9   2.0000      -1.189483       -32.3675
  10   2.0000      -1.103414       -30.0254
  11   2.0000      -1.062603       -28.9149
  12   2.0000      -0.963967       -26.2309
  13   2.0000      -0.957342       -26.0506
  14   2.0000      -0.922150       -25.0930
  15   2.0000      -0.868335       -23.6286
  16   2.0000      -0.859824       -23.3970
  17   2.0000      -0.835852       -22.7447
  18   2.0000      -0.825379       -22.4597
  19   2.0000      -0.820681       -22.3319
  20   2.0000      -0.793571       -21.5942
  21   2.0000      -0.785967       -21.3872
  22   2.0000      -0.770376       -20.9630
  23   2.0000      -0.751493       -20.4492
  24   0.0000      -0.307286        -8.3617
  25   0.0000      -0.040376        -1.0987
  26   0.0000      -0.016487        -0.4486
  27   0.0000      -0.007030        -0.1913
  28   0.0000       0.006145         0.1672

MULLIKEN ATOMIC CHARGES
-----------------------
   0 C :   -0.400983
   1 C :   -0.196544
   2 C :   -0.183785
   3 C :    0.288566
   4 O :   -0.463079
   5 C :   -0.392592
   6 H :    0.124014
   7 H :    0.127018
   8 H :    0.131788
   9 H :    0.121185
  10 H :    0.119238
  11 H :    0.139353
  12 H :    0.124272
  13 H :    0.164709
  14 H :    0.157556
  15 H :    0.139284
Sum of atomic charges:    0.0000000

LOEWDIN ATOMIC CHARGES
----------------------
   0 C :   -0.311079
   1 C :   -0.274389
   2 C :   -0.220564
   3 C :   -0.322736
   4 O :    0.018403
   5 C :   -0.253148
   6 H :    0.120932
   7 H :    0.118883
   8 H :    0.120591
   9 H :    0.139319
  10 H :    0.137426
  11 H :    0.154624
  12 H :    0.147262
  13 H :    0.151574
  14 H :    0.142053
  15 H :    0.130848

  Mayer bond orders larger than 0.100000
B(  0-C ,  1-C ) :   0.9819 B(  0-C ,  6-H ) :   0.9759 B(  0-C ,  7-H ) :   0.9722
B(  0-C ,  8-H ) :   0.9774 B(  1-C ,  2-C ) :   0.9631 B(  1-C ,  9-H ) :   0.9713
B(  1-C , 10-H ) :   0.9694 B(  2-C ,  3-C ) :   0.9542 B(  2-C , 11-H ) :   0.9518
B(  2-C , 12-H ) :   0.9706 B(  3-C ,  4-O ) :   1.9725 B(  3-C ,  5-C ) :   0.9942
B(  5-C , 13-H ) :   0.9342 B(  5-C , 14-H ) :   0.9523 B(  5-C , 15-H ) :   0.9696

FINAL SINGLE POINT ENERGY      -271.799817807836

DIPOLE MOMENT
-------------

Method             : SCF
Type of density    : Electron Density
Multiplicity       :   1
Irrep              :   0
Energy             :  -271.8104724778359582 Eh
Relativity type    :
Basis              : AO
                                X                 Y                 Z
Electronic contribution:      3.728443739       2.730079214      -1.121726939
Nuclear contribution   :     -4.068556501      -4.532119936       0.894487428
                        -----------------------------------------
Total Dipole Moment    :     -0.340112762      -1.802040721      -0.227239511
                        -----------------------------------------
Magnitude (a.u.)       :      1.847881286
Magnitude (Debye)      :      4.696940957

Rotational constants in cm-1:             0.178145             0.080261             0.070254
Rotational constants in MHz :          5340.648804          2406.175090          2106.169168

                             ****ORCA TERMINATED NORMALLY****
TOTAL RUN TIME: 0 days 0 hours 2 minutes 11 seconds 524 msec
