                         Program Version 6.0.0  -   RELEASE  -
|  1> ! r2scan-3c def2/J RI DEFGRID2 scfconv6 printgap
|  2> %output
|  3>     printlevel normal
|  4> end
|  5> * xyz 0 1
|  6> C -2.9909560387 0.070439476 0.0234558471
|  7> C -1.646406978 0.735249206 0.2834115068
|  8> C -0.489244625 -0.1570159235 -0.0841424253
|  9> O -0.5771477606 -1.2653271268 -0.5692162677
| 10> O 0.6742440443 0.4240736928 0.1887717816
| 11> C 1.8739100264 -0.3086784554 -0.1135473591
| 12> C 3.0619650768 0.5438963142 0.2872409443
| 13> H -3.0812559919 -0.8408469324 0.6089242277
| 14> H -3.7992779806 0.7443388846 0.2895045333
| 15> H -3.0822580135 -0.1972868366 -1.0260009598
| 16> H -1.5361451377 1.0019018175 1.335725962
| 17> H -1.5469093312 1.654472771 -0.2966784429
| 18> H 1.8482290542 -1.2557710065 0.4355321213
| 19> H 1.8790525021 -0.5366937587 -1.1845805368
| 20> H 3.050087179 1.4798653803 -0.2631928558
| 21> H 3.020909323 0.7624136602 1.3501199113
| 22> H 3.9791947853 0.0084612511 0.065757402
| 23> *
| 24>
| 25>                          ****END OF INPUT****

CARTESIAN COORDINATES (ANGSTROEM)
---------------------------------
  C     -2.990956    0.070439    0.023456
  C     -1.646407    0.735249    0.283412
  C     -0.489245   -0.157016   -0.084142
  O     -0.577148   -1.265327   -0.569216
  O      0.674244    0.424074    0.188772
  C      1.873910   -0.308678   -0.113547
  C      3.061965    0.543896    0.287241
  H     -3.081256   -0.840847    0.608924
  H     -3.799278    0.744339    0.289505
  H     -3.082258   -0.197287   -1.026001
  H     -1.536145    1.001902    1.335726
  H     -1.546909    1.654473   -0.296678
  H      1.848229   -1.255771    0.435532
  H      1.879053   -0.536694   -1.184581
  H      3.050087    1.479865   -0.263193
  H      3.020909    0.762414    1.350120
  H      3.979195    0.008461    0.065757

 Total Charge           Charge          ....    0
 Multiplicity           Mult            ....    1
 Number of Electrons    NEL             ....   56
 Basis Dimension        Dim             ....  193

ORBITAL ENERGIES
----------------

  NO   OCC          E(Eh)            E(eV)
   0   2.0000     -18.994750      -516.8734
   1   2.0000     -18.928792      -515.0786
   2   2.0000     -10.151003      -276.2228
   3   2.0000     -10.091207      -274.5957
   4   2.0000     -10.044670      -273.3294
   5   2.0000     -10.031894      -272.9817
   6   2.0000     -10.021216      -272.6912
   7   2.0000      -1.070470       -29.1290
   8   2.0000      -0.974901       -26.5284
   9   2.0000      -0.763771       -20.7833
  10   2.0000      -0.733084       -19.9482
  11   2.0000      -0.640687       -17.4340
  12   2.0000      -0.586875       -15.9697
  13   2.0000      -0.529925       -14.4200
  14   2.0000      -0.467683       -12.7263
  15   2.0000      -0.466177       -12.6853
  16   2.0000      -0.431764       -11.7489
  17   2.0000      -0.430701       -11.7200
  18   2.0000      -0.382566       -10.4102
  19   2.0000      -0.377783       -10.2800
  20   2.0000      -0.374558       -10.1922
  21   2.0000      -0.343164        -9.3380
  22   2.0000      -0.337437        -9.1821
  23   2.0000      -0.333805        -9.0833
  24   2.0000      -0.315851        -8.5948
  25   2.0000      -0.313261        -8.5243
  26   2.0000      -0.270902        -7.3716
  27   2.0000      -0.235773        -6.4157
  28   0.0000      -0.012429        -0.3382
  29   0.0000       0.076053         2.0695
  30   0.0000       0.093259         2.5377
  31   0.0000       0.106046         2.8857
  32   0.0000       0.131222         3.5707

MULLIKEN ATOMIC CHARGES
-----------------------
   0 C :   -0.456242
   1 C :   -0.249297
   2 C :    0.345115
   3 O :   -0.422133
   4 O :   -0.159929
   5 C :   -0.150123
   6 C :   -0.440667
   7 H :    0.153673
   8 H :    0.144502
   9 H :    0.155621
  10 H :    0.158200
  11 H :    0.158309
  12 H :    0.156145
  13 H :    0.155624
  14 H :    0.152024
  15 H :    0.152020
  16 H :    0.147158
Sum of atomic charges:    0.0000000

LOEWDIN ATOMIC CHARGES
----------------------
   0 C :   -0.402548
   1 C :   -0.241253
   2 C :    0.359359
   3 O :   -0.427295
   4 O :   -0.601429
   5 C :    0.033346
   6 C :   -0.386912
   7 H :    0.160952
   8 H :    0.150133
   9 H :    0.161968
  10 H :    0.178975
  11 H :    0.179344
  12 H :    0.178809
  13 H :    0.178534
  14 H :    0.159313
  15 H :    0.159283
  16 H :    0.159420

  Mayer bond orders larger than 0.100000
B(  0-C ,  1-C ) :   0.9408 B(  0-C ,  7-H ) :   0.9736 B(  0-C ,  8-H ) :   0.9721
B(  0-C ,  9-H ) :   0.9725 B(  1-C ,  2-C ) :   0.9942 B(  1-C , 10-H ) :   0.9440
B(  1-C , 11-H ) :   0.9389 B(  2-C ,  3-O ) :   1.8289 B(  2-C ,  4-O ) :   1.0993
B(  4-O ,  5-C ) :   0.8057 B(  5-C ,  6-C ) :   0.9398 B(  5-C , 12-H ) :   0.9538
B(  5-C , 13-H ) :   0.9533 B(  6-C , 14-H ) :   0.9723 B(  6-C , 15-H ) :   0.9724
B(  6-C , 16-H ) :   0.9683

Dispersion correction           -0.003819804
FINAL SINGLE POINT ENERGY      -346.937978745787

DIPOLE MOMENT
-------------

Method             : SCF
Type of density    : Electron Density
Multiplicity       :   1
Irrep              :   0
Energy             :  -346.9444952842501948 Eh
Relativity type    :
Basis              : AO
                                X                 Y                 Z
Electronic contribution:     -0.290882857      -1.978093812      -0.938036402
Nuclear contribution   :      0.687827447       2.633961302       1.228153817
                        -----------------------------------------
Total Dipole Moment    :      0.396944590       0.655867490       0.290117415
                        -----------------------------------------
Magnitude (a.u.)       :      0.819692190
Magnitude (Debye)      :      2.083491969

Rotational constants in cm-1:             0.263933             0.042421             0.037571
Rotational constants in MHz :          7912.516803          1271.749354          1126.363944

                             ****ORCA TERMINATED NORMALLY****
TOTAL RUN TIME: 0 days 0 hours 0 minutes 20 seconds 889 msec
