                         Program Version 6.0.0  -   RELEASE  -
|  1> ! r2scan-3c def2/J RI DEFGRID2 scfconv6 printgap
|  2> %output
|  3>     printlevel normal
|  4> end
|  5> %cpcm
|  6>     smd true
|  7>     smdsolvent "water"
|  8> end
|  9> * xyz 0 1
| 10> C -2.9909560387 0.070439476 0.0234558471
| 11> C -1.646406978 0.735249206 0.2834115068
| 12> C -0.489244625 -0.1570159235 -0.0841424253
| 13> O -0.5771477606 -1.2653271268 -0.5692162677
| 14> O 0.6742440443 0.4240736928 0.1887717816
| 15> C 1.8739100264 -0.3086784554 -0.1135473591
| 16> C 3.0619650768 0.5438963142 0.2872409443
| 17> H -3.0812559919 -0.8408469324 0.6089242277
| 18> H -3.7992779806 0.7443388846 0.2895045333
| 19> H -3.0822580135 -0.1972868366 -1.0260009598
| 20> H -1.5361451377 1.0019018175 1.335725962
| 21> H -1.5469093312 1.654472771 -0.2966784429
| 22> H 1.8482290542 -1.2557710065 0.4355321213
| 23> H 1.8790525021 -0.5366937587 -1.1845805368
| 24> H 3.050087179 1.4798653803 -0.2631928558
| 25> H 3.020909323 0.7624136602 1.3501199113
| 26> H 3.9791947853 0.0084612511 0.065757402
| 27> *
| 28>
| 29>                          ****END OF INPUT****

CARTESIAN COORDINATES (ANGSTROEM)
---------------------------------
  C     -2.990956    0.070439    0.023456
  C     -1.646407    0.735249    0.283412
  C     -0.489245   -0.157016   -0.084142
  O     -0.577148   -1.265327   -0.569216
  O      0.674244    0.424074    0.188772
  C      1.873910   -0.308678   -0.113547
  C      3.061965    0.543896    0.287241
  H     -3.081256   -0.840847    0.608924
  H     -3.799278    0.744339    0.289505
  H     -3.082258   -0.197287   -1.026001
  H     -1.536145    1.001902    1.335726
  H     -1.546909    1.654473   -0.296678
  H      1.848229   -1.255771    0.435532
  H      1.879053   -0.536694   -1.184581
  H      3.050087    1.479865   -0.263193
  H      3.020909    0.762414    1.350120
  H      3.979195    0.008461    0.065757

 Total Charge           Charge          ....    0
 Multiplicity           Mult            ....    1
 Number of Electrons    NEL             ....   56
 Basis Dimension        Dim             ....  193

ORBITAL ENERGIES
----------------

  NO   OCC          E(Eh)            E(eV)
   0   2.0000     -19.000714      -517.0357
   1   2.0000     -18.944981      -515.5191
   2   2.0000     -10.161937      -276.5204
   3   2.0000     -10.083799      -274.3941
   4   2.0000     -10.038449      -273.1601
   5   2.0000     -10.018702      -272.6227
   6   2.0000     -10.016397      -272.5600
   7   2.0000      -1.078327       -29.3428
   8   2.0000      -0.988744       -26.9051
   9   2.0000      -0.759938       -20.6790
  10   2.0000      -0.725884       -19.7523
  11   2.0000      -0.635915       -17.3041
  12   2.0000      -0.580570       -15.7981
  13   2.0000      -0.529576       -14.4105
  14   2.0000      -0.470505       -12.8031
  15   2.0000      -0.466353       -12.6901
  16   2.0000      -0.443757       -12.0752
  17   2.0000      -0.424127       -11.5411
  18   2.0000      -0.381897       -10.3919
  19   2.0000      -0.375837       -10.2271
  20   2.0000      -0.363552        -9.8928
  21   2.0000      -0.337735        -9.1902
  22   2.0000      -0.333410        -9.0725
  23   2.0000      -0.328034        -8.9263
  24   2.0000      -0.315095        -8.5742
  25   2.0000      -0.314621        -8.5613
  26   2.0000      -0.275848        -7.5062
  27   2.0000      -0.252861        -6.8807
  28   0.0000      -0.020720        -0.5638
  29   0.0000       0.079146         2.1537
  30   0.0000       0.099487         2.7072
  31   0.0000       0.117688         3.2024
  32   0.0000       0.138261         3.7623

MULLIKEN ATOMIC CHARGES
-----------------------
   0 C :   -0.517035
   1 C :   -0.244473
   2 C :    0.387974
   3 O :   -0.507897
   4 O :   -0.177780
   5 C :   -0.153971
   6 C :   -0.490002
   7 H :    0.163311
   8 H :    0.165677
   9 H :    0.162769
  10 H :    0.184852
  11 H :    0.186265
  12 H :    0.170914
  13 H :    0.170734
  14 H :    0.164914
  15 H :    0.164895
  16 H :    0.168855
Sum of atomic charges:    0.0000000

LOEWDIN ATOMIC CHARGES
----------------------
   0 C :   -0.409737
   1 C :   -0.236759
   2 C :    0.371733
   3 O :   -0.488876
   4 O :   -0.603847
   5 C :    0.035285
   6 C :   -0.389997
   7 H :    0.160349
   8 H :    0.158965
   9 H :    0.160643
  10 H :    0.190338
  11 H :    0.191068
  12 H :    0.183848
  13 H :    0.183641
  14 H :    0.162616
  15 H :    0.162560
  16 H :    0.168171

  Mayer bond orders larger than 0.100000
B(  0-C ,  1-C ) :   0.9022 B(  0-C ,  7-H ) :   0.9770 B(  0-C ,  8-H ) :   0.9646
B(  0-C ,  9-H ) :   0.9759 B(  1-C ,  2-C ) :   1.0035 B(  1-C , 10-H ) :   0.9320
B(  1-C , 11-H ) :   0.9266 B(  2-C ,  3-O ) :   1.7632 B(  2-C ,  4-O ) :   1.1256
B(  4-O ,  5-C ) :   0.7920 B(  5-C ,  6-C ) :   0.9410 B(  5-C , 12-H ) :   0.9462
B(  5-C , 13-H ) :   0.9457 B(  6-C , 14-H ) :   0.9704 B(  6-C , 15-H ) :   0.9706
B(  6-C , 16-H ) :   0.9617

Dispersion correction           -0.003819804
FINAL SINGLE POINT ENERGY      -346.943711517414

DIPOLE MOMENT
-------------

Method             : SCF
Type of density    : Electron Density
Multiplicity       :   1
Irrep              :   0
Energy             :  -346.9502280558765506 Eh
Relativity type    :
Basis              : AO
                                X                 Y                 Z
Electronic contribution:     -0.170719137      -1.666139398      -0.802179941
Nuclear contribution   :      0.687827447       2.633961302       1.228153817
                        -----------------------------------------
Total Dipole Moment    :      0.517108309       0.967821904       0.425973876
                        -----------------------------------------
Magnitude (a.u.)       :      1.177087076
Magnitude (Debye)      :      2.991917576

Rotational constants in cm-1:             0.263933             0.042421             0.037571
Rotational constants in MHz :          7912.516803          1271.749354          1126.363944

                             ****ORCA TERMINATED NORMALLY****
TOTAL RUN TIME: 0 days 0 hours 0 minutes 26 seconds 269 msec
