                         Program Version 6.0.0  -   RELEASE  -
|  1> ! r2scan-3c def2/J RI DEFGRID2 scfconv6 printgap
|  2> %output
|  3>     printlevel normal
|  4> end
|  5> * xyz 0 1
|  6> C 2.4604003172 -0.0149517375 -0.2891995817
|  7> C 1.1722141936 0.7687740236 -0.0773260528
|  8> C -0.0109082292 -0.1111869178 0.2292313776
|  9> O 0.0638970502 -1.322277876 0.2861897418
| 10> C -1.3185136659 0.6178560735 0.453214009
| 11> C -2.3726000148 0.1392793622 -0.5471614423
| 12> H 3.2833843051 0.6573436286 -0.5129457909
| 13> H 2.7034608973 -0.5869489368 0.6030567286
| 14> H 2.3422156015 -0.7164030371 -1.1117083496
| 15> H 1.2827695834 1.4756492089 0.7480375232
| 16> H 0.9249581874 1.3492368359 -0.9692812515
| 17> H -1.1759202499 1.6940439536 0.3719543973
| 18> H -1.6590783922 0.3788917217 1.4629281193
| 19> H -3.3354666775 0.5895247764 -0.3242857231
| 20> H -2.4678613259 -0.942805841 -0.4946707398
| 21> H -2.0856563049 0.4106314059 -1.5603751811
| 22> *
| 23>
| 24>                          ****END OF INPUT****

CARTESIAN COORDINATES (ANGSTROEM)
---------------------------------
  C      2.460400   -0.014952   -0.289200
  C      1.172214    0.768774   -0.077326
  C     -0.010908   -0.111187    0.229231
  O      0.063897   -1.322278    0.286190
  C     -1.318514    0.617856    0.453214
  C     -2.372600    0.139279   -0.547161
  H      3.283384    0.657344   -0.512946
  H      2.703461   -0.586949    0.603057
  H      2.342216   -0.716403   -1.111708
  H      1.282770    1.475649    0.748038
  H      0.924958    1.349237   -0.969281
  H     -1.175920    1.694044    0.371954
  H     -1.659078    0.378892    1.462928
  H     -3.335467    0.589525   -0.324286
  H     -2.467861   -0.942806   -0.494671
  H     -2.085656    0.410631   -1.560375

 Total Charge           Charge          ....    0
 Multiplicity           Mult            ....    1
 Number of Electrons    NEL             ....   48
 Basis Dimension        Dim             ....  169

ORBITAL ENERGIES
----------------

  NO   OCC          E(Eh)            E(eV)
   0   2.0000     -18.937563      -515.3173
   1   2.0000     -10.115127      -275.2466
   2   2.0000     -10.041402      -273.2404
   3   2.0000     -10.038891      -273.1721
   4   2.0000     -10.028202      -272.8812
   5   2.0000     -10.019696      -272.6498
   6   2.0000      -1.003694       -27.3119
   7   2.0000      -0.763651       -20.7800
   8   2.0000      -0.735390       -20.0110
   9   2.0000      -0.639849       -17.4112
  10   2.0000      -0.586944       -15.9716
  11   2.0000      -0.491062       -13.3625
  12   2.0000      -0.448633       -12.2079
  13   2.0000      -0.444295       -12.0899
  14   2.0000      -0.422586       -11.4992
  15   2.0000      -0.392489       -10.6802
  16   2.0000      -0.380999       -10.3675
  17   2.0000      -0.355389        -9.6706
  18   2.0000      -0.338358        -9.2072
  19   2.0000      -0.330917        -9.0047
  20   2.0000      -0.326489        -8.8842
  21   2.0000      -0.318965        -8.6795
  22   2.0000      -0.310571        -8.4511
  23   2.0000      -0.213491        -5.8094
  24   0.0000      -0.045085        -1.2268
  25   0.0000       0.076380         2.0784
  26   0.0000       0.107335         2.9207
  27   0.0000       0.115171         3.1340
  28   0.0000       0.130016         3.5379

MULLIKEN ATOMIC CHARGES
-----------------------
   0 C :   -0.477071
   1 C :   -0.237437
   2 C :    0.282510
   3 O :   -0.359958
   4 C :   -0.284467
   5 C :   -0.463141
   6 H :    0.143773
   7 H :    0.155939
   8 H :    0.157211
   9 H :    0.154352
  10 H :    0.152342
  11 H :    0.146241
  12 H :    0.162865
  13 H :    0.150461
  14 H :    0.174983
  15 H :    0.141397
Sum of atomic charges:   -0.0000000

LOEWDIN ATOMIC CHARGES
----------------------
   0 C :   -0.406845
   1 C :   -0.289871
   2 C :    0.224953
   3 O :   -0.468869
   4 C :   -0.291019
   5 C :   -0.397195
   6 H :    0.149353
   7 H :    0.161567
   8 H :    0.161990
   9 H :    0.174710
  10 H :    0.174536
  11 H :    0.158033
  12 H :    0.179360
  13 H :    0.151491
  14 H :    0.165891
  15 H :    0.151914

  Mayer bond orders larger than 0.100000
B(  0-C ,  1-C ) :   0.9310 B(  0-C ,  6-H ) :   0.9745 B(  0-C ,  7-H ) :   0.9748
B(  0-C ,  8-H ) :   0.9764 B(  1-C ,  2-C ) :   0.9325 B(  1-C ,  3-O ) :  -0.1023
B(  1-C ,  9-H ) :   0.9312 B(  1-C , 10-H ) :   0.9333 B(  2-C ,  3-O ) :   1.9181
B(  2-C ,  4-C ) :   0.9061 B(  4-C ,  5-C ) :   0.9095 B(  4-C , 11-H ) :   0.9711
B(  4-C , 12-H ) :   0.9527 B(  5-C , 13-H ) :   0.9736 B(  5-C , 14-H ) :   0.9730
B(  5-C , 15-H ) :   0.9765

Dispersion correction           -0.003664191
FINAL SINGLE POINT ENERGY      -271.704039227547

DIPOLE MOMENT
-------------

Method             : SCF
Type of density    : Electron Density
Multiplicity       :   1
Irrep              :   0
Energy             :  -271.7076679784033786 Eh
Relativity type    :
Basis              : AO
                                X                 Y                 Z
Electronic contribution:      0.071054282      -2.950658553       1.601176817
Nuclear contribution   :     -0.174670324       4.023073619      -1.672530176
                        -----------------------------------------
Total Dipole Moment    :     -0.103616042       1.072415066      -0.071353359
                        -----------------------------------------
Magnitude (a.u.)       :      1.079769262
Magnitude (Debye)      :      2.744555351

Rotational constants in cm-1:             0.250824             0.068177             0.060151
Rotational constants in MHz :          7519.529233          2043.888387          1803.289859

                             ****ORCA TERMINATED NORMALLY****
TOTAL RUN TIME: 0 days 0 hours 0 minutes 17 seconds 336 msec
