                         Program Version 6.0.0  -   RELEASE  -
|  1> ! r2scan-3c def2/J RI DEFGRID2 scfconv6 printgap
|  2> %output
|  3>     printlevel normal
|  4> end
|  5> %cpcm
|  6>     smd true
|  7>     smdsolvent "water"
|  8> end
|  9> * xyz 0 1
| 10> C 2.4604003172 -0.0149517375 -0.2891995817
| 11> C 1.1722141936 0.7687740236 -0.0773260528
| 12> C -0.0109082292 -0.1111869178 0.2292313776
| 13> O 0.0638970502 -1.322277876 0.2861897418
| 14> C -1.3185136659 0.6178560735 0.453214009
| 15> C -2.3726000148 0.1392793622 -0.5471614423
| 16> H 3.2833843051 0.6573436286 -0.5129457909
| 17> H 2.7034608973 -0.5869489368 0.6030567286
| 18> H 2.3422156015 -0.7164030371 -1.1117083496
| 19> H 1.2827695834 1.4756492089 0.7480375232
| 20> H 0.9249581874 1.3492368359 -0.9692812515
| 21> H -1.1759202499 1.6940439536 0.3719543973
| 22> H -1.6590783922 0.3788917217 1.4629281193
| 23> H -3.3354666775 0.5895247764 -0.3242857231
| 24> H -2.4678613259 -0.942805841 -0.4946707398
| 25> H -2.0856563049 0.4106314059 -1.5603751811
| 26> *
| 27>
| 28>                          ****END OF INPUT****

CARTESIAN COORDINATES (ANGSTROEM)
---------------------------------
  C      2.460400   -0.014952   -0.289200
  C      1.172214    0.768774   -0.077326
  C     -0.010908   -0.111187    0.229231
  O      0.063897   -1.322278    0.286190
  C     -1.318514    0.617856    0.453214
  C     -2.372600    0.139279   -0.547161
  H      3.283384    0.657344   -0.512946
  H      2.703461   -0.586949    0.603057
  H      2.342216   -0.716403   -1.111708
  H      1.282770    1.475649    0.748038
  H      0.924958    1.349237   -0.969281
  H     -1.175920    1.694044    0.371954
  H     -1.659078    0.378892    1.462928
  H     -3.335467    0.589525   -0.324286
  H     -2.467861   -0.942806   -0.494671
  H     -2.085656    0.410631   -1.560375

 Total Charge           Charge          ....    0
 Multiplicity           Mult            ....    1
 Number of Electrons    NEL             ....   48
 Basis Dimension        Dim             ....  169

ORBITAL ENERGIES
----------------

  NO   OCC          E(Eh)            E(eV)
   0   2.0000     -18.946516      -515.5609
   1   2.0000     -10.121028      -275.4072
   2   2.0000     -10.030624      -272.9472
   3   2.0000     -10.028986      -272.9026
   4   2.0000     -10.018787      -272.6251
   5   2.0000     -10.013309      -272.4760
   6   2.0000      -1.015229       -27.6258
   7   2.0000      -0.756127       -20.5753
   8   2.0000      -0.727049       -19.7840
   9   2.0000      -0.633171       -17.2294
  10   2.0000      -0.578447       -15.7403
  11   2.0000      -0.489823       -13.3288
  12   2.0000      -0.444918       -12.1068
  13   2.0000      -0.437534       -11.9059
  14   2.0000      -0.417006       -11.3473
  15   2.0000      -0.396453       -10.7880
  16   2.0000      -0.374779       -10.1983
  17   2.0000      -0.350362        -9.5338
  18   2.0000      -0.332820        -9.0565
  19   2.0000      -0.325587        -8.8597
  20   2.0000      -0.320419        -8.7191
  21   2.0000      -0.313006        -8.5173
  22   2.0000      -0.305573        -8.3151
  23   2.0000      -0.222765        -6.0617
  24   0.0000      -0.047044        -1.2801
  25   0.0000       0.085997         2.3401
  26   0.0000       0.118485         3.2241
  27   0.0000       0.127270         3.4632
  28   0.0000       0.142588         3.8800

MULLIKEN ATOMIC CHARGES
-----------------------
   0 C :   -0.538153
   1 C :   -0.233839
   2 C :    0.322603
   3 O :   -0.465036
   4 C :   -0.292842
   5 C :   -0.498821
   6 H :    0.163183
   7 H :    0.162656
   8 H :    0.163135
   9 H :    0.184401
  10 H :    0.184055
  11 H :    0.170193
  12 H :    0.182999
  13 H :    0.168015
  14 H :    0.164420
  15 H :    0.163030
Sum of atomic charges:   -0.0000000

LOEWDIN ATOMIC CHARGES
----------------------
   0 C :   -0.416985
   1 C :   -0.282312
   2 C :    0.244662
   3 O :   -0.544721
   4 C :   -0.284725
   5 C :   -0.402173
   6 H :    0.157125
   7 H :    0.159461
   8 H :    0.159646
   9 H :    0.188691
  10 H :    0.188995
  11 H :    0.169776
  12 H :    0.186241
  13 H :    0.158135
  14 H :    0.160004
  15 H :    0.158181

  Mayer bond orders larger than 0.100000
B(  0-C ,  1-C ) :   0.8867 B(  0-C ,  6-H ) :   0.9677 B(  0-C ,  7-H ) :   0.9784
B(  0-C ,  8-H ) :   0.9800 B(  1-C ,  2-C ) :   0.9558 B(  1-C ,  9-H ) :   0.9185
B(  1-C , 10-H ) :   0.9206 B(  2-C ,  3-O ) :   1.8423 B(  2-C ,  4-C ) :   0.9235
B(  4-C ,  5-C ) :   0.8891 B(  4-C , 11-H ) :   0.9614 B(  4-C , 12-H ) :   0.9492
B(  5-C , 13-H ) :   0.9682 B(  5-C , 14-H ) :   0.9744 B(  5-C , 15-H ) :   0.9743

Dispersion correction           -0.003664191
FINAL SINGLE POINT ENERGY      -271.710244132638

DIPOLE MOMENT
-------------

Method             : SCF
Type of density    : Electron Density
Multiplicity       :   1
Irrep              :   0
Energy             :  -271.7138728834951849 Eh
Relativity type    :
Basis              : AO
                                X                 Y                 Z
Electronic contribution:      0.031673119      -2.351457526       1.572879813
Nuclear contribution   :     -0.174670324       4.023073619      -1.672530176
                        -----------------------------------------
Total Dipole Moment    :     -0.142997204       1.671616093      -0.099650363
                        -----------------------------------------
Magnitude (a.u.)       :      1.680678065
Magnitude (Debye)      :      4.271944144

Rotational constants in cm-1:             0.250824             0.068177             0.060151
Rotational constants in MHz :          7519.529233          2043.888387          1803.289859

                             ****ORCA TERMINATED NORMALLY****
TOTAL RUN TIME: 0 days 0 hours 0 minutes 18 seconds 877 msec
