                         Program Version 6.0.0  -   RELEASE  -
|  1> ! pbe def2-sv(p) def2/J RI DEFGRID1 loosescf d4 GCP(DFT/SV(P)) printgap
|  2> %output
|  3>     printlevel normal
|  4> end
|  5> * xyz 0 1
|  6> C -4.2476208555 -0.0253893419 -0.217707659
|  7> C -2.7534975726 -0.1227243807 -0.4992932936
|  8> C -1.9183726572 0.2444131067 0.733687199
|  9> C -0.4509813859 0.1377915688 0.4340421967
| 10> C 0.2266593938 -1.0627419827 0.6117233578
| 11> C 1.5662912181 -1.1799872866 0.2997645838
| 12> C 2.2621568446 -0.0858175782 -0.20496164
| 13> C 1.5952950067 1.1188007755 -0.3893153614
| 14> C 0.2529287818 1.2215451719 -0.0724914819
| 15> O 3.5840564558 -0.2435304907 -0.4985498182
| 16> H -4.5147468605 0.9869872394 0.0768270186
| 17> H -4.8201020622 -0.2884992765 -1.1037155566
| 18> H -4.5284439097 -0.7013237663 0.5867968893
| 19> H -2.4891831746 0.5469068678 -1.320664503
| 20> H -2.5024003717 -1.1395160566 -0.8091408754
| 21> H -2.1791546532 -0.4283895572 1.5529386077
| 22> H -2.1623140572 1.2641771448 1.0378306686
| 23> H -0.3011932545 -1.9196389416 1.0038736345
| 24> H 2.0949495672 -2.10994045 0.4399981843
| 25> H 2.1246334252 1.9765679619 -0.7792617293
| 26> H -0.2534609826 2.1643750842 -0.2197529947
| 27> H 3.9555461177 0.583859092 -0.8393048809
| 28> *
| 29>
| 30>                          ****END OF INPUT****

CARTESIAN COORDINATES (ANGSTROEM)
---------------------------------
  C     -4.247621   -0.025389   -0.217708
  C     -2.753498   -0.122724   -0.499293
  C     -1.918373    0.244413    0.733687
  C     -0.450981    0.137792    0.434042
  C      0.226659   -1.062742    0.611723
  C      1.566291   -1.179987    0.299765
  C      2.262157   -0.085818   -0.204962
  C      1.595295    1.118801   -0.389315
  C      0.252929    1.221545   -0.072491
  O      3.584056   -0.243530   -0.498550
  H     -4.514747    0.986987    0.076827
  H     -4.820102   -0.288499   -1.103716
  H     -4.528444   -0.701324    0.586797
  H     -2.489183    0.546907   -1.320665
  H     -2.502400   -1.139516   -0.809141
  H     -2.179155   -0.428390    1.552939
  H     -2.162314    1.264177    1.037831
  H     -0.301193   -1.919639    1.003874
  H      2.094950   -2.109940    0.439998
  H      2.124633    1.976568   -0.779262
  H     -0.253461    2.164375   -0.219753
  H      3.955546    0.583859   -0.839305

 Total Charge           Charge          ....    0
 Multiplicity           Mult            ....    1
 Number of Electrons    NEL             ....   74
 Basis Dimension        Dim             ....  164

ORBITAL ENERGIES
----------------

  NO   OCC          E(Eh)            E(eV)
   0   2.0000     -18.777068      -510.9500
   1   2.0000      -9.947091      -270.6741
   2   2.0000      -9.890563      -269.1359
   3   2.0000      -9.889036      -269.0943
   4   2.0000      -9.888422      -269.0776
   5   2.0000      -9.887588      -269.0550
   6   2.0000      -9.885159      -268.9888
   7   2.0000      -9.884075      -268.9594
   8   2.0000      -9.882699      -268.9219
   9   2.0000      -9.873131      -268.6615
  10   2.0000      -0.958297       -26.0766
  11   2.0000      -0.773153       -21.0386
  12   2.0000      -0.715564       -19.4715
  13   2.0000      -0.669755       -18.2250
  14   2.0000      -0.664632       -18.0855
  15   2.0000      -0.603246       -16.4152
  16   2.0000      -0.558097       -15.1866
  17   2.0000      -0.535195       -14.5634
  18   2.0000      -0.514478       -13.9997
  19   2.0000      -0.492646       -13.4056
  20   2.0000      -0.437379       -11.9017
  21   2.0000      -0.420971       -11.4552
  22   2.0000      -0.401426       -10.9234
  23   2.0000      -0.387561       -10.5461
  24   2.0000      -0.373077       -10.1519
  25   2.0000      -0.371880       -10.1194
  26   2.0000      -0.359763        -9.7896
  27   2.0000      -0.349161        -9.5011
  28   2.0000      -0.338629        -9.2146
  29   2.0000      -0.319305        -8.6887
  30   2.0000      -0.304926        -8.2975
  31   2.0000      -0.294225        -8.0063
  32   2.0000      -0.289597        -7.8803
  33   2.0000      -0.284590        -7.7441
  34   2.0000      -0.277458        -7.5500
  35   2.0000      -0.226218        -6.1557
  36   2.0000      -0.186794        -5.0829
  37   0.0000      -0.031880        -0.8675
  38   0.0000      -0.014343        -0.3903
  39   0.0000       0.024953         0.6790
  40   0.0000       0.039658         1.0791
  41   0.0000       0.057397         1.5619

MULLIKEN ATOMIC CHARGES
-----------------------
   0 C :   -0.249822
   1 C :   -0.199343
   2 C :   -0.121204
   3 C :    0.105930
   4 C :   -0.119433
   5 C :   -0.120381
   6 C :    0.249140
   7 C :   -0.158587
   8 C :   -0.126820
   9 O :   -0.339464
  10 H :    0.095532
  11 H :    0.103913
  12 H :    0.096143
  13 H :    0.085750
  14 H :    0.087020
  15 H :    0.078775
  16 H :    0.077736
  17 H :    0.037951
  18 H :    0.042491
  19 H :    0.023836
  20 H :    0.035428
  21 H :    0.315409
Sum of atomic charges:   -0.0000000

LOEWDIN ATOMIC CHARGES
----------------------
   0 C :   -0.341288
   1 C :   -0.228494
   2 C :   -0.209477
   3 C :   -0.057641
   4 C :   -0.114138
   5 C :   -0.146912
   6 C :    0.019599
   7 C :   -0.175639
   8 C :   -0.116461
   9 O :   -0.240058
  10 H :    0.116380
  11 H :    0.119584
  12 H :    0.116664
  13 H :    0.115749
  14 H :    0.116320
  15 H :    0.119251
  16 H :    0.118664
  17 H :    0.121741
  18 H :    0.129732
  19 H :    0.118882
  20 H :    0.120696
  21 H :    0.296848

  Mayer bond orders larger than 0.100000
B(  0-C ,  1-C ) :   1.1482 B(  0-C , 10-H ) :   0.9536 B(  0-C , 11-H ) :   0.9524
B(  0-C , 12-H ) :   0.9537 B(  1-C ,  2-C ) :   1.1318 B(  1-C , 13-H ) :   0.9272
B(  1-C , 14-H ) :   0.9271 B(  2-C ,  3-C ) :   1.0621 B(  2-C , 15-H ) :   0.9046
B(  2-C , 16-H ) :   0.9049 B(  3-C ,  4-C ) :   1.3702 B(  3-C ,  8-C ) :   1.3932
B(  4-C ,  5-C ) :   1.3644 B(  4-C , 17-H ) :   0.9624 B(  5-C ,  6-C ) :   1.3578
B(  5-C , 18-H ) :   0.9648 B(  6-C ,  7-C ) :   1.3109 B(  6-C ,  9-O ) :   1.1810
B(  7-C ,  8-C ) :   1.3533 B(  7-C , 19-H ) :   0.9578 B(  8-C , 20-H ) :   0.9580
B(  9-O , 21-H ) :   0.8433

Dispersion correction           -0.021499376
FINAL SINGLE POINT ENERGY      -424.449248210865

DIPOLE MOMENT
-------------

Method             : SCF
Type of density    : Electron Density
Multiplicity       :   1
Irrep              :   0
Energy             :  -424.5187132656467952 Eh
Relativity type    :
Basis              : AO
                                X                 Y                 Z
Electronic contribution:     14.577926507      -0.385993394       0.153312119
Nuclear contribution   :    -14.559660837       0.874107888      -0.357866374
                        -----------------------------------------
Total Dipole Moment    :      0.018265670       0.488114494      -0.204554255
                        -----------------------------------------
Magnitude (a.u.)       :      0.529558153
Magnitude (Debye)      :      1.346029854

Rotational constants in cm-1:             0.139841             0.020464             0.018977
Rotational constants in MHz :          4192.336246           613.483735           568.915050

                             ****ORCA TERMINATED NORMALLY****
TOTAL RUN TIME: 0 days 0 hours 0 minutes 11 seconds 52 msec
