                         Program Version 6.0.0  -   RELEASE  -
|  1> ! pbe def2-sv(p) def2/J RI DEFGRID1 loosescf d4 GCP(DFT/SV(P)) printgap
|  2> %output
|  3>     printlevel normal
|  4> end
|  5> * xyz 0 1
|  6> C 2.3515383463 -0.2890183828 -0.0553991638
|  7> C 0.8495815953 -0.5429132168 0.0052319819
|  8> C 0.0642334931 0.7642685991 -0.0468486552
|  9> C -1.4253733338 0.6216634721 0.0082647275
| 10> C -2.1130460081 -0.5018926418 0.0941152182
| 11> H 2.6686247257 0.3278152335 0.7827376421
| 12> H 2.6150814678 0.2244552398 -0.977549277
| 13> H 2.8991842026 -1.2274853564 -0.0168849772
| 14> H 0.5558752823 -1.1757826339 -0.8345085964
| 15> H 0.6097536928 -1.0729868807 0.9290360654
| 16> H 0.3196817942 1.3016666303 -0.9659371232
| 17> H 0.3744217837 1.4041749719 0.785676004
| 18> H -1.9561388392 1.5658318473 -0.0292461501
| 19> H -3.1893992081 -0.4996043662 0.1279063136
| 20> H -1.6432006882 -1.4690074754 0.1348507727
| 21> *
| 22>
| 23>                          ****END OF INPUT****

CARTESIAN COORDINATES (ANGSTROEM)
---------------------------------
  C      2.351538   -0.289018   -0.055399
  C      0.849582   -0.542913    0.005232
  C      0.064233    0.764269   -0.046849
  C     -1.425373    0.621663    0.008265
  C     -2.113046   -0.501893    0.094115
  H      2.668625    0.327815    0.782738
  H      2.615081    0.224455   -0.977549
  H      2.899184   -1.227485   -0.016885
  H      0.555875   -1.175783   -0.834509
  H      0.609754   -1.072987    0.929036
  H      0.319682    1.301667   -0.965937
  H      0.374422    1.404175    0.785676
  H     -1.956139    1.565832   -0.029246
  H     -3.189399   -0.499604    0.127906
  H     -1.643201   -1.469007    0.134851

 Total Charge           Charge          ....    0
 Multiplicity           Mult            ....    1
 Number of Electrons    NEL             ....   40
 Basis Dimension        Dim             ....   90

ORBITAL ENERGIES
----------------

  NO   OCC          E(Eh)            E(eV)
   0   2.0000      -9.887815      -269.0611
   1   2.0000      -9.887787      -269.0604
   2   2.0000      -9.883910      -268.9549
   3   2.0000      -9.873686      -268.6766
   4   2.0000      -9.871001      -268.6036
   5   2.0000      -0.727251       -19.7895
   6   2.0000      -0.672490       -18.2994
   7   2.0000      -0.604658       -16.4536
   8   2.0000      -0.538408       -14.6508
   9   2.0000      -0.475796       -12.9471
  10   2.0000      -0.419369       -11.4116
  11   2.0000      -0.415956       -11.3187
  12   2.0000      -0.388783       -10.5793
  13   2.0000      -0.349661        -9.5148
  14   2.0000      -0.342271        -9.3137
  15   2.0000      -0.328685        -8.9440
  16   2.0000      -0.296348        -8.0641
  17   2.0000      -0.292656        -7.9636
  18   2.0000      -0.279320        -7.6007
  19   2.0000      -0.224433        -6.1071
  20   0.0000      -0.008380        -0.2280
  21   0.0000       0.041297         1.1237
  22   0.0000       0.063198         1.7197
  23   0.0000       0.077572         2.1109
  24   0.0000       0.083477         2.2715

MULLIKEN ATOMIC CHARGES
-----------------------
   0 C :   -0.257643
   1 C :   -0.216041
   2 C :   -0.128078
   3 C :   -0.129553
   4 C :   -0.201965
   5 H :    0.096634
   6 H :    0.096733
   7 H :    0.102463
   8 H :    0.096230
   9 H :    0.096207
  10 H :    0.092952
  11 H :    0.092892
  12 H :    0.069563
  13 H :    0.093309
  14 H :    0.096300
Sum of atomic charges:    0.0000000

LOEWDIN ATOMIC CHARGES
----------------------
   0 C :   -0.338103
   1 C :   -0.235187
   2 C :   -0.226616
   3 C :   -0.134120
   4 C :   -0.265885
   5 H :    0.116516
   6 H :    0.116536
   7 H :    0.119087
   8 H :    0.117991
   9 H :    0.118028
  10 H :    0.126762
  11 H :    0.126706
  12 H :    0.117945
  13 H :    0.121179
  14 H :    0.119161

  Mayer bond orders larger than 0.100000
B(  0-C ,  1-C ) :   1.1514 B(  0-C ,  5-H ) :   0.9548 B(  0-C ,  6-H ) :   0.9548
B(  0-C ,  7-H ) :   0.9535 B(  1-C ,  2-C ) :   1.1584 B(  1-C ,  8-H ) :   0.9205
B(  1-C ,  9-H ) :   0.9205 B(  2-C ,  3-C ) :   1.0793 B(  2-C , 10-H ) :   0.9023
B(  2-C , 11-H ) :   0.9024 B(  3-C ,  4-C ) :   2.0840 B(  3-C , 12-H ) :   0.9325
B(  4-C , 13-H ) :   0.9199 B(  4-C , 14-H ) :   0.9038

Dispersion correction           -0.009837471
FINAL SINGLE POINT ENERGY      -196.026298374131

DIPOLE MOMENT
-------------

Method             : SCF
Type of density    : Electron Density
Multiplicity       :   1
Irrep              :   0
Energy             :  -196.0751319789646061 Eh
Relativity type    :
Basis              : AO
                                X                 Y                 Z
Electronic contribution:     -2.913260511       0.663441818       0.050948870
Nuclear contribution   :      3.052701288      -0.582532037      -0.059967287
                        -----------------------------------------
Total Dipole Moment    :      0.139440777       0.080909781      -0.009018417
                        -----------------------------------------
Magnitude (a.u.)       :      0.161466575
Magnitude (Debye)      :      0.410415418

Rotational constants in cm-1:             0.469912             0.084596             0.074673
Rotational constants in MHz :         14087.617194          2536.132024          2238.630689

                             ****ORCA TERMINATED NORMALLY****
TOTAL RUN TIME: 0 days 0 hours 0 minutes 6 seconds 258 msec
