                         Program Version 6.0.0  -   RELEASE  -
|  1> ! r2scan-3c def2/J RI DEFGRID2 scfconv6 printgap
|  2> %output
|  3>     printlevel normal
|  4> end
|  5> * xyz 0 1
|  6> C -1.5577642512 -0.8441954726 0.1289911385
|  7> O -1.2516953391 0.444745753 -0.3707459199
|  8> C -0.0709777506 1.0107562233 0.1622478348
|  9> C 1.221721753 0.3530609725 -0.3482249096
| 10> O 1.5702635361 -0.8372268725 0.3250237848
| 11> H -2.4774002825 -1.1453512381 -0.3662183941
| 12> H -1.7157618731 -0.8080397394 1.212663849
| 13> H -0.763238534 -1.5595811748 -0.0963807808
| 14> H -0.0928607444 2.0515154772 -0.1654988602
| 15> H -0.1025673181 0.9743198759 1.2608299961
| 16> H 2.0387375239 1.0806693564 -0.2808356653
| 17> H 1.0851446057 0.0745586349 -1.3957758497
| 18> H 1.8212986983 -0.6299688426 1.2360304065
| 19> *
| 20>
| 21>                          ****END OF INPUT****

CARTESIAN COORDINATES (ANGSTROEM)
---------------------------------
  C     -1.557764   -0.844195    0.128991
  O     -1.251695    0.444746   -0.370746
  C     -0.070978    1.010756    0.162248
  C      1.221722    0.353061   -0.348225
  O      1.570264   -0.837227    0.325024
  H     -2.477400   -1.145351   -0.366218
  H     -1.715762   -0.808040    1.212664
  H     -0.763239   -1.559581   -0.096381
  H     -0.092861    2.051515   -0.165499
  H     -0.102567    0.974320    1.260830
  H      2.038738    1.080669   -0.280836
  H      1.085145    0.074559   -1.395776
  H      1.821299   -0.629969    1.236030

 Total Charge           Charge          ....    0
 Multiplicity           Mult            ....    1
 Number of Electrons    NEL             ....   42
 Basis Dimension        Dim             ....  145

ORBITAL ENERGIES
----------------

  NO   OCC          E(Eh)            E(eV)
   0   2.0000     -18.954807      -515.7865
   1   2.0000     -18.948755      -515.6218
   2   2.0000     -10.079565      -274.2789
   3   2.0000     -10.078231      -274.2426
   4   2.0000     -10.061927      -273.7990
   5   2.0000      -0.999832       -27.2068
   6   2.0000      -0.984976       -26.8026
   7   2.0000      -0.715563       -19.4715
   8   2.0000      -0.644032       -17.5250
   9   2.0000      -0.576843       -15.6967
  10   2.0000      -0.484808       -13.1923
  11   2.0000      -0.456467       -12.4211
  12   2.0000      -0.439535       -11.9603
  13   2.0000      -0.420133       -11.4324
  14   2.0000      -0.389223       -10.5913
  15   2.0000      -0.371660       -10.1134
  16   2.0000      -0.344209        -9.3664
  17   2.0000      -0.301087        -8.1930
  18   2.0000      -0.291345        -7.9279
  19   2.0000      -0.255619        -6.9558
  20   2.0000      -0.209460        -5.6997
  21   0.0000       0.056661         1.5418
  22   0.0000       0.076358         2.0778
  23   0.0000       0.113675         3.0933
  24   0.0000       0.122189         3.3249
  25   0.0000       0.125913         3.4263

MULLIKEN ATOMIC CHARGES
-----------------------
   0 C :   -0.288749
   1 O :   -0.239327
   2 C :   -0.167854
   3 C :   -0.162186
   4 O :   -0.419160
   5 H :    0.141489
   6 H :    0.126051
   7 H :    0.162513
   8 H :    0.144582
   9 H :    0.126641
  10 H :    0.127965
  11 H :    0.152485
  12 H :    0.295551
Sum of atomic charges:    0.0000000

LOEWDIN ATOMIC CHARGES
----------------------
   0 C :   -0.074367
   1 O :   -0.782092
   2 C :    0.009264
   3 C :    0.008911
   4 O :   -0.617647
   5 H :    0.171490
   6 H :    0.154481
   7 H :    0.170421
   8 H :    0.183352
   9 H :    0.164217
  10 H :    0.160145
  11 H :    0.187131
  12 H :    0.264693

  Mayer bond orders larger than 0.100000
B(  0-C ,  1-O ) :   0.8890 B(  0-C ,  5-H ) :   0.9731 B(  0-C ,  6-H ) :   0.9674
B(  0-C ,  7-H ) :   0.9554 B(  1-O ,  2-C ) :   0.9192 B(  2-C ,  3-C ) :   0.9109
B(  2-C ,  8-H ) :   0.9673 B(  2-C ,  9-H ) :   0.9778 B(  3-C ,  4-O ) :   0.9564
B(  3-C , 10-H ) :   0.9708 B(  3-C , 11-H ) :   0.9699 B(  4-O , 12-H ) :   0.8962

Dispersion correction           -0.002543556
FINAL SINGLE POINT ENERGY      -269.488841150903

DIPOLE MOMENT
-------------

Method             : SCF
Type of density    : Electron Density
Multiplicity       :   1
Irrep              :   0
Energy             :  -269.4968578976674962 Eh
Relativity type    :
Basis              : AO
                                X                 Y                 Z
Electronic contribution:      0.523377336       0.235532819      -0.738538542
Nuclear contribution   :     -0.189136179       0.029931420       1.317279239
                        -----------------------------------------
Total Dipole Moment    :      0.334241156       0.265464239       0.578740697
                        -----------------------------------------
Magnitude (a.u.)       :      0.719116964
Magnitude (Debye)      :      1.827850060

Rotational constants in cm-1:             0.280832             0.119404             0.093499
Rotational constants in MHz :          8419.137216          3579.629597          2803.021949

                             ****ORCA TERMINATED NORMALLY****
TOTAL RUN TIME: 0 days 0 hours 0 minutes 15 seconds 442 msec
