                         Program Version 6.0.0  -   RELEASE  -
|  1> ! pbe def2-sv(p) def2/J RI DEFGRID1 loosescf d4 GCP(DFT/SV(P)) printgap
|  2> %output
|  3>     printlevel normal
|  4> end
|  5> * xyz 0 1
|  6> C 0.2205883197 -3.376903423 0.1200535564
|  7> C 0.6808396032 -1.9552478261 0.0656985159
|  8> C 2.0226985447 -1.5891197357 -0.0788820931
|  9> N 2.4148693775 -0.3239622483 -0.1231848186
| 10> C 1.4817218642 0.631897493 -0.0267611896
| 11> N 0.1640206685 0.3847892674 0.107065386
| 12> C -0.2028641808 -0.8808093054 0.1541992701
| 13> O -1.5444064176 -1.1248052138 0.2667366055
| 14> C -2.2955936571 -0.0004452733 0.6192213235
| 15> O -2.4766835762 0.2530505037 1.7960743827
| 16> N -2.80628363 0.6671763892 -0.4061481769
| 17> C -3.5719213833 1.8735009463 -0.169026093
| 18> C -2.543946221 0.3528842647 -1.7937559511
| 19> N 1.8684557969 1.9116112747 -0.0801190462
| 20> C 3.2518580767 2.2815199261 -0.2548056321
| 21> C 0.9276365388 2.998425284 0.0399444771
| 22> C 3.0927853786 -2.6248414518 -0.1924162656
| 23> H 0.4178989918 -3.8799318073 -0.8257116096
| 24> H 0.7447523101 -3.9167702892 0.9068122014
| 25> H -0.8469343085 -3.4082374053 0.3209629119
| 26> H -3.0733233748 2.7195414657 -0.6414621261
| 27> H -3.6379334892 2.0380010278 0.9035091815
| 28> H -4.5726190943 1.7607190951 -0.5847949592
| 29> H -2.2420868575 -0.6862967482 -1.8938207257
| 30> H -1.7500848988 0.9953619924 -2.1799194209
| 31> H -3.4555022627 0.5196449123 -2.3641653596
| 32> H 3.8424359868 1.3776404141 -0.3645713499
| 33> H 3.5997728583 2.8443105866 0.6133093406
| 34> H 3.3557883241 2.9031131873 -1.1455091259
| 35> H -0.0459177347 2.594452192 0.3029501363
| 36> H 0.858753101 3.5425981981 -0.9043255161
| 37> H 1.2600215537 3.6839114598 0.8206346999
| 38> H 4.0538476497 -2.139211581 -0.3240085657
| 39> H 3.1142367606 -3.2360200748 0.7073688675
| 40> H 2.891057314 -3.2777526375 -1.038414597
| 41> *
| 42>
| 43>                          ****END OF INPUT****

CARTESIAN COORDINATES (ANGSTROEM)
---------------------------------
  C      0.220588   -3.376903    0.120054
  C      0.680840   -1.955248    0.065699
  C      2.022699   -1.589120   -0.078882
  N      2.414869   -0.323962   -0.123185
  C      1.481722    0.631897   -0.026761
  N      0.164021    0.384789    0.107065
  C     -0.202864   -0.880809    0.154199
  O     -1.544406   -1.124805    0.266737
  C     -2.295594   -0.000445    0.619221
  O     -2.476684    0.253051    1.796074
  N     -2.806284    0.667176   -0.406148
  C     -3.571921    1.873501   -0.169026
  C     -2.543946    0.352884   -1.793756
  N      1.868456    1.911611   -0.080119
  C      3.251858    2.281520   -0.254806
  C      0.927637    2.998425    0.039944
  C      3.092785   -2.624841   -0.192416
  H      0.417899   -3.879932   -0.825712
  H      0.744752   -3.916770    0.906812
  H     -0.846934   -3.408237    0.320963
  H     -3.073323    2.719541   -0.641462
  H     -3.637933    2.038001    0.903509
  H     -4.572619    1.760719   -0.584795
  H     -2.242087   -0.686297   -1.893821
  H     -1.750085    0.995362   -2.179919
  H     -3.455502    0.519645   -2.364165
  H      3.842436    1.377640   -0.364571
  H      3.599773    2.844311    0.613309
  H      3.355788    2.903113   -1.145509
  H     -0.045918    2.594452    0.302950
  H      0.858753    3.542598   -0.904326
  H      1.260022    3.683911    0.820635
  H      4.053848   -2.139212   -0.324009
  H      3.114237   -3.236020    0.707369
  H      2.891057   -3.277753   -1.038415

 Total Charge           Charge          ....    0
 Multiplicity           Mult            ....    1
 Number of Electrons    NEL             ....  128
 Basis Dimension        Dim             ....  274

ORBITAL ENERGIES
----------------

  NO   OCC          E(Eh)            E(eV)
   0   2.0000     -18.796667      -511.4833
   1   2.0000     -18.713954      -509.2326
   2   2.0000     -14.033208      -381.8630
   3   2.0000     -14.021903      -381.5554
   4   2.0000     -13.974273      -380.2593
   5   2.0000     -13.965291      -380.0149
   6   2.0000     -10.017709      -272.5957
   7   2.0000      -9.981794      -271.6184
   8   2.0000      -9.976988      -271.4876
   9   2.0000      -9.932106      -270.2664
  10   2.0000      -9.923673      -270.0369
  11   2.0000      -9.919716      -269.9292
  12   2.0000      -9.912222      -269.7253
  13   2.0000      -9.909482      -269.6507
  14   2.0000      -9.889593      -269.1095
  15   2.0000      -9.880909      -268.8732
  16   2.0000      -9.879702      -268.8404
  17   2.0000      -1.008445       -27.4412
  18   2.0000      -0.920401       -25.0454
  19   2.0000      -0.905313       -24.6348
  20   2.0000      -0.859242       -23.3812
  21   2.0000      -0.842760       -22.9327
  22   2.0000      -0.791144       -21.5281
  23   2.0000      -0.724542       -19.7158
  24   2.0000      -0.668920       -18.2022
  25   2.0000      -0.658706       -17.9243
  26   2.0000      -0.652739       -17.7619
  27   2.0000      -0.647407       -17.6168
  28   2.0000      -0.637837       -17.3564
  29   2.0000      -0.593023       -16.1370
  30   2.0000      -0.570184       -15.5155
  31   2.0000      -0.526338       -14.3224
  32   2.0000      -0.514874       -14.0104
  33   2.0000      -0.490339       -13.3428
  34   2.0000      -0.477753       -13.0003
  35   2.0000      -0.452020       -12.3001
  36   2.0000      -0.437571       -11.9069
  37   2.0000      -0.434622       -11.8267
  38   2.0000      -0.429648       -11.6913
  39   2.0000      -0.410572       -11.1722
  40   2.0000      -0.402956       -10.9650
  41   2.0000      -0.391637       -10.6570
  42   2.0000      -0.377095       -10.2613
  43   2.0000      -0.370166       -10.0727
  44   2.0000      -0.367713       -10.0060
  45   2.0000      -0.363430        -9.8894
  46   2.0000      -0.361592        -9.8394
  47   2.0000      -0.358346        -9.7511
  48   2.0000      -0.357326        -9.7233
  49   2.0000      -0.357001        -9.7145
  50   2.0000      -0.345854        -9.4112
  51   2.0000      -0.343938        -9.3590
  52   2.0000      -0.338642        -9.2149
  53   2.0000      -0.337582        -9.1861
  54   2.0000      -0.328397        -8.9361
  55   2.0000      -0.319424        -8.6920
  56   2.0000      -0.302499        -8.2314
  57   2.0000      -0.256485        -6.9793
  58   2.0000      -0.254072        -6.9137
  59   2.0000      -0.239288        -6.5114
  60   2.0000      -0.210485        -5.7276
  61   2.0000      -0.207911        -5.6575
  62   2.0000      -0.193642        -5.2693
  63   2.0000      -0.172781        -4.7016
  64   0.0000      -0.039986        -1.0881
  65   0.0000      -0.012770        -0.3475
  66   0.0000       0.009088         0.2473
  67   0.0000       0.026299         0.7156
  68   0.0000       0.042043         1.1440

MULLIKEN ATOMIC CHARGES
-----------------------
   0 C :   -0.182513
   1 C :   -0.140272
   2 C :   -0.123490
   3 N :   -0.108758
   4 C :    0.052919
   5 N :   -0.140879
   6 C :    0.125525
   7 O :   -0.242765
   8 C :    0.186621
   9 O :   -0.203216
  10 N :   -0.227007
  11 C :   -0.176890
  12 C :   -0.170355
  13 N :   -0.205925
  14 C :   -0.167821
  15 C :   -0.179698
  16 C :   -0.186430
  17 H :    0.103345
  18 H :    0.104378
  19 H :    0.116871
  20 H :    0.110538
  21 H :    0.145199
  22 H :    0.114151
  23 H :    0.141957
  24 H :    0.110606
  25 H :    0.109868
  26 H :    0.140511
  27 H :    0.104215
  28 H :    0.099738
  29 H :    0.155010
  30 H :    0.099829
  31 H :    0.104922
  32 H :    0.105647
  33 H :    0.114779
  34 H :    0.109390
Sum of atomic charges:    0.0000000

LOEWDIN ATOMIC CHARGES
----------------------
   0 C :   -0.323144
   1 C :   -0.138381
   2 C :    0.007510
   3 N :   -0.130780
   4 C :    0.031371
   5 N :   -0.144266
   6 C :    0.069155
   7 O :   -0.059589
   8 C :    0.043297
   9 O :   -0.186736
  10 N :   -0.044729
  11 C :   -0.246513
  12 C :   -0.251100
  13 N :   -0.038892
  14 C :   -0.254234
  15 C :   -0.254240
  16 C :   -0.330245
  17 H :    0.126210
  18 H :    0.128079
  19 H :    0.132827
  20 H :    0.116907
  21 H :    0.139128
  22 H :    0.118220
  23 H :    0.131814
  24 H :    0.116777
  25 H :    0.118748
  26 H :    0.134179
  27 H :    0.113805
  28 H :    0.112204
  29 H :    0.135505
  30 H :    0.111062
  31 H :    0.115777
  32 H :    0.130748
  33 H :    0.135983
  34 H :    0.133542

  Mayer bond orders larger than 0.100000
B(  0-C ,  1-C ) :   1.1628 B(  0-C , 17-H ) :   0.9259 B(  0-C , 18-H ) :   0.9233
B(  0-C , 19-H ) :   0.9259 B(  1-C ,  2-C ) :   1.3391 B(  1-C ,  6-C ) :   1.3385
B(  2-C ,  3-N ) :   1.5782 B(  2-C , 16-C ) :   1.1618 B(  3-N ,  4-C ) :   1.4303
B(  4-C ,  5-N ) :   1.4060 B(  4-C , 13-N ) :   1.2076 B(  5-N ,  6-C ) :   1.4783
B(  6-C ,  7-O ) :   1.1068 B(  7-O ,  8-C ) :   0.9714 B(  8-C ,  9-O ) :   2.0862
B(  8-C , 10-N ) :   1.2264 B(  9-O , 10-N ) :   0.1024 B( 10-N , 11-C ) :   1.0113
B( 10-N , 12-C ) :   1.0079 B( 11-C , 20-H ) :   0.9487 B( 11-C , 21-H ) :   0.9337
B( 11-C , 22-H ) :   0.9525 B( 12-C , 23-H ) :   0.9431 B( 12-C , 24-H ) :   0.9446
B( 12-C , 25-H ) :   0.9470 B( 13-N , 14-C ) :   1.0167 B( 13-N , 15-C ) :   1.0180
B( 14-C , 26-H ) :   0.9226 B( 14-C , 27-H ) :   0.9499 B( 14-C , 28-H ) :   0.9497
B( 15-C , 29-H ) :   0.9252 B( 15-C , 30-H ) :   0.9497 B( 15-C , 31-H ) :   0.9484
B( 16-C , 32-H ) :   0.9277 B( 16-C , 33-H ) :   0.9230 B( 16-C , 34-H ) :   0.9234

Dispersion correction           -0.041009270
FINAL SINGLE POINT ENERGY      -797.788135092920

DIPOLE MOMENT
-------------

Method             : SCF
Type of density    : Electron Density
Multiplicity       :   1
Irrep              :   0
Energy             :  -797.9065921448129757 Eh
Relativity type    :
Basis              : AO
                                X                 Y                 Z
Electronic contribution:     -4.049754277      -3.569632479       5.802457928
Nuclear contribution   :      4.184467350       4.162412019      -7.187796093
                        -----------------------------------------
Total Dipole Moment    :      0.134713072       0.592779540      -1.385338164
                        -----------------------------------------
Magnitude (a.u.)       :      1.512844018
Magnitude (Debye)      :      3.845343900

Rotational constants in cm-1:             0.020093             0.012998             0.008904
Rotational constants in MHz :           602.378438           389.678986           266.939574

                             ****ORCA TERMINATED NORMALLY****
TOTAL RUN TIME: 0 days 0 hours 0 minutes 26 seconds 671 msec
