                         Program Version 6.0.0  -   RELEASE  -
|  1> ! r2scan-3c def2/J RI DEFGRID2 scfconv6 printgap
|  2> %output
|  3>     printlevel normal
|  4> end
|  5> * xyz 0 1
|  6> C -2.6125913609 -0.3493482093 0.1715893673
|  7> C -1.6509727791 -1.268723768 -0.2128399289
|  8> C -0.3427401573 -0.8659188363 -0.4125711024
|  9> C 0.0267673023 0.4608989417 -0.2229173855
| 10> C -0.9438015556 1.3734604077 0.1709436865
| 11> C -2.2549666543 0.9739496681 0.3635348839
| 12> C 1.4509334595 0.8996102793 -0.4266683711
| 13> C 2.4370889169 0.1565198173 0.4902059807
| 14> O 2.7299141141 -1.1570574739 0.0686012734
| 15> H -3.6347734609 -0.6631769557 0.322486238
| 16> H -1.9216083584 -2.3039904408 -0.3599210581
| 17> H 0.4041582401 -1.5901921128 -0.6995188379
| 18> H -0.6723130597 2.4079867677 0.3262221084
| 19> H -2.9982481403 1.6969858754 0.6658567295
| 20> H 1.7416414374 0.7283639597 -1.4664337033
| 21> H 1.5338115704 1.9675802747 -0.2225019023
| 22> H 3.3655252129 0.7374633302 0.5699228093
| 23> H 2.0086091951 0.0530120164 1.4901240314
| 24> H 3.1984966744 -1.1175124146 -0.7770835512
| 25> *
| 26>
| 27>                          ****END OF INPUT****

CARTESIAN COORDINATES (ANGSTROEM)
---------------------------------
  C     -2.612591   -0.349348    0.171589
  C     -1.650973   -1.268724   -0.212840
  C     -0.342740   -0.865919   -0.412571
  C      0.026767    0.460899   -0.222917
  C     -0.943802    1.373460    0.170944
  C     -2.254967    0.973950    0.363535
  C      1.450933    0.899610   -0.426668
  C      2.437089    0.156520    0.490206
  O      2.729914   -1.157057    0.068601
  H     -3.634773   -0.663177    0.322486
  H     -1.921608   -2.303990   -0.359921
  H      0.404158   -1.590192   -0.699519
  H     -0.672313    2.407987    0.326222
  H     -2.998248    1.696986    0.665857
  H      1.741641    0.728364   -1.466434
  H      1.533812    1.967580   -0.222502
  H      3.365525    0.737463    0.569923
  H      2.008609    0.053012    1.490124
  H      3.198497   -1.117512   -0.777084

 Total Charge           Charge          ....    0
 Multiplicity           Mult            ....    1
 Number of Electrons    NEL             ....   66
 Basis Dimension        Dim             ....  226

ORBITAL ENERGIES
----------------

  NO   OCC          E(Eh)            E(eV)
   0   2.0000     -18.954124      -515.7679
   1   2.0000     -10.081318      -274.3266
   2   2.0000     -10.039148      -273.1791
   3   2.0000     -10.037890      -273.1449
   4   2.0000     -10.030587      -272.9461
   5   2.0000     -10.029396      -272.9137
   6   2.0000     -10.029287      -272.9108
   7   2.0000     -10.028406      -272.8868
   8   2.0000     -10.024544      -272.7817
   9   2.0000      -0.991651       -26.9842
  10   2.0000      -0.825660       -22.4673
  11   2.0000      -0.752292       -20.4709
  12   2.0000      -0.711311       -19.3557
  13   2.0000      -0.684675       -18.6310
  14   2.0000      -0.604977       -16.4623
  15   2.0000      -0.571852       -15.5609
  16   2.0000      -0.549438       -14.9510
  17   2.0000      -0.490244       -13.3402
  18   2.0000      -0.463073       -12.6009
  19   2.0000      -0.436654       -11.8820
  20   2.0000      -0.427112       -11.6223
  21   2.0000      -0.414481       -11.2786
  22   2.0000      -0.391996       -10.6668
  23   2.0000      -0.383454       -10.4343
  24   2.0000      -0.368339       -10.0230
  25   2.0000      -0.352460        -9.5909
  26   2.0000      -0.332224        -9.0403
  27   2.0000      -0.313334        -8.5262
  28   2.0000      -0.305911        -8.3243
  29   2.0000      -0.293207        -7.9786
  30   2.0000      -0.245880        -6.6907
  31   2.0000      -0.232632        -6.3302
  32   2.0000      -0.221308        -6.0221
  33   0.0000      -0.028934        -0.7873
  34   0.0000      -0.025590        -0.6963
  35   0.0000       0.059064         1.6072
  36   0.0000       0.085264         2.3202
  37   0.0000       0.101172         2.7530

MULLIKEN ATOMIC CHARGES
-----------------------
   0 C :   -0.146383
   1 C :   -0.179625
   2 C :   -0.185906
   3 C :    0.157829
   4 C :   -0.217496
   5 C :   -0.160640
   6 C :   -0.314831
   7 C :   -0.173013
   8 O :   -0.416760
   9 H :    0.145525
  10 H :    0.144778
  11 H :    0.178265
  12 H :    0.144856
  13 H :    0.144412
  14 H :    0.153254
  15 H :    0.144103
  16 H :    0.131551
  17 H :    0.153808
  18 H :    0.296272
Sum of atomic charges:   -0.0000000

LOEWDIN ATOMIC CHARGES
----------------------
   0 C :   -0.172953
   1 C :   -0.160758
   2 C :   -0.154229
   3 C :   -0.094225
   4 C :   -0.166493
   5 C :   -0.164097
   6 C :   -0.269771
   7 C :    0.014181
   8 O :   -0.619462
   9 H :    0.165803
  10 H :    0.166497
  11 H :    0.182750
  12 H :    0.166569
  13 H :    0.166176
  14 H :    0.169194
  15 H :    0.166459
  16 H :    0.156928
  17 H :    0.182861
  18 H :    0.264571

  Mayer bond orders larger than 0.100000
B(  0-C ,  1-C ) :   1.4110 B(  0-C ,  5-C ) :   1.4349 B(  0-C ,  9-H ) :   0.9476
B(  1-C ,  2-C ) :   1.4412 B(  1-C , 10-H ) :   0.9532 B(  2-C ,  3-C ) :   1.4188
B(  2-C , 11-H ) :   0.9390 B(  3-C ,  4-C ) :   1.4070 B(  3-C ,  6-C ) :   0.7979
B(  4-C ,  5-C ) :   1.4432 B(  4-C , 12-H ) :   0.9389 B(  5-C , 13-H ) :   0.9465
B(  6-C ,  7-C ) :   0.8842 B(  6-C , 14-H ) :   0.9994 B(  6-C , 15-H ) :   0.9934
B(  7-C ,  8-O ) :   0.9456 B(  7-C , 16-H ) :   0.9734 B(  7-C , 17-H ) :   0.9809
B(  8-O , 18-H ) :   0.8942

Dispersion correction           -0.006135777
FINAL SINGLE POINT ENERGY      -385.987464877970

DIPOLE MOMENT
-------------

Method             : SCF
Type of density    : Electron Density
Multiplicity       :   1
Irrep              :   0
Energy             :  -385.9885763253649316 Eh
Relativity type    :
Basis              : AO
                                X                 Y                 Z
Electronic contribution:     -2.561731021      -1.326378286      -0.193540899
Nuclear contribution   :      2.878698699       1.780871740      -0.140503390
                        -----------------------------------------
Total Dipole Moment    :      0.316967678       0.454493454      -0.334044289
                        -----------------------------------------
Magnitude (a.u.)       :      0.647007261
Magnitude (Debye)      :      1.644561762

Rotational constants in cm-1:             0.124087             0.035088             0.028861
Rotational constants in MHz :          3720.041719          1051.918324           865.225311

                             ****ORCA TERMINATED NORMALLY****
TOTAL RUN TIME: 0 days 0 hours 0 minutes 25 seconds 477 msec
