                         Program Version 6.0.0  -   RELEASE  -
|  1> ! r2scan-3c def2/J RI DEFGRID2 scfconv6 printgap
|  2> %output
|  3>     printlevel normal
|  4> end
|  5> %cpcm
|  6>     smd true
|  7>     smdsolvent "water"
|  8> end
|  9> * xyz 0 1
| 10> C -2.6125913609 -0.3493482093 0.1715893673
| 11> C -1.6509727791 -1.268723768 -0.2128399289
| 12> C -0.3427401573 -0.8659188363 -0.4125711024
| 13> C 0.0267673023 0.4608989417 -0.2229173855
| 14> C -0.9438015556 1.3734604077 0.1709436865
| 15> C -2.2549666543 0.9739496681 0.3635348839
| 16> C 1.4509334595 0.8996102793 -0.4266683711
| 17> C 2.4370889169 0.1565198173 0.4902059807
| 18> O 2.7299141141 -1.1570574739 0.0686012734
| 19> H -3.6347734609 -0.6631769557 0.322486238
| 20> H -1.9216083584 -2.3039904408 -0.3599210581
| 21> H 0.4041582401 -1.5901921128 -0.6995188379
| 22> H -0.6723130597 2.4079867677 0.3262221084
| 23> H -2.9982481403 1.6969858754 0.6658567295
| 24> H 1.7416414374 0.7283639597 -1.4664337033
| 25> H 1.5338115704 1.9675802747 -0.2225019023
| 26> H 3.3655252129 0.7374633302 0.5699228093
| 27> H 2.0086091951 0.0530120164 1.4901240314
| 28> H 3.1984966744 -1.1175124146 -0.7770835512
| 29> *
| 30>
| 31>                          ****END OF INPUT****

CARTESIAN COORDINATES (ANGSTROEM)
---------------------------------
  C     -2.612591   -0.349348    0.171589
  C     -1.650973   -1.268724   -0.212840
  C     -0.342740   -0.865919   -0.412571
  C      0.026767    0.460899   -0.222917
  C     -0.943802    1.373460    0.170944
  C     -2.254967    0.973950    0.363535
  C      1.450933    0.899610   -0.426668
  C      2.437089    0.156520    0.490206
  O      2.729914   -1.157057    0.068601
  H     -3.634773   -0.663177    0.322486
  H     -1.921608   -2.303990   -0.359921
  H      0.404158   -1.590192   -0.699519
  H     -0.672313    2.407987    0.326222
  H     -2.998248    1.696986    0.665857
  H      1.741641    0.728364   -1.466434
  H      1.533812    1.967580   -0.222502
  H      3.365525    0.737463    0.569923
  H      2.008609    0.053012    1.490124
  H      3.198497   -1.117512   -0.777084

 Total Charge           Charge          ....    0
 Multiplicity           Mult            ....    1
 Number of Electrons    NEL             ....   66
 Basis Dimension        Dim             ....  226

ORBITAL ENERGIES
----------------

  NO   OCC          E(Eh)            E(eV)
   0   2.0000     -18.951249      -515.6897
   1   2.0000     -10.072496      -274.0866
   2   2.0000     -10.039342      -273.1844
   3   2.0000     -10.030783      -272.9515
   4   2.0000     -10.030727      -272.9500
   5   2.0000     -10.028835      -272.8985
   6   2.0000     -10.028175      -272.8805
   7   2.0000     -10.026436      -272.8332
   8   2.0000     -10.026221      -272.8274
   9   2.0000      -0.987846       -26.8806
  10   2.0000      -0.827477       -22.5168
  11   2.0000      -0.748187       -20.3592
  12   2.0000      -0.712834       -19.3972
  13   2.0000      -0.680710       -18.5231
  14   2.0000      -0.598914       -16.2973
  15   2.0000      -0.571413       -15.5490
  16   2.0000      -0.546825       -14.8799
  17   2.0000      -0.486448       -13.2369
  18   2.0000      -0.456984       -12.4352
  19   2.0000      -0.432729       -11.7751
  20   2.0000      -0.421806       -11.4779
  21   2.0000      -0.411532       -11.1983
  22   2.0000      -0.389362       -10.5951
  23   2.0000      -0.381868       -10.3912
  24   2.0000      -0.364669        -9.9232
  25   2.0000      -0.348482        -9.4827
  26   2.0000      -0.331647        -9.0246
  27   2.0000      -0.311571        -8.4783
  28   2.0000      -0.304089        -8.2747
  29   2.0000      -0.289013        -7.8644
  30   2.0000      -0.245659        -6.6847
  31   2.0000      -0.237568        -6.4645
  32   2.0000      -0.222989        -6.0679
  33   0.0000      -0.032648        -0.8884
  34   0.0000      -0.028028        -0.7627
  35   0.0000       0.078684         2.1411
  36   0.0000       0.096201         2.6178
  37   0.0000       0.108957         2.9649

MULLIKEN ATOMIC CHARGES
-----------------------
   0 C :   -0.182906
   1 C :   -0.217591
   2 C :   -0.221509
   3 C :    0.114699
   4 C :   -0.240448
   5 C :   -0.194767
   6 C :   -0.287982
   7 C :   -0.176044
   8 O :   -0.493957
   9 H :    0.177866
  10 H :    0.175862
  11 H :    0.190063
  12 H :    0.178473
  13 H :    0.176488
  14 H :    0.175268
  15 H :    0.166622
  16 H :    0.147798
  17 H :    0.160648
  18 H :    0.351417
Sum of atomic charges:   -0.0000000

LOEWDIN ATOMIC CHARGES
----------------------
   0 C :   -0.187913
   1 C :   -0.173902
   2 C :   -0.171653
   3 C :   -0.097688
   4 C :   -0.174049
   5 C :   -0.174827
   6 C :   -0.266516
   7 C :    0.015614
   8 O :   -0.651541
   9 H :    0.176033
  10 H :    0.176555
  11 H :    0.185467
  12 H :    0.178888
  13 H :    0.176792
  14 H :    0.179857
  15 H :    0.175624
  16 H :    0.166816
  17 H :    0.182360
  18 H :    0.284083

  Mayer bond orders larger than 0.100000
B(  0-C ,  1-C ) :   1.3763 B(  0-C ,  5-C ) :   1.3924 B(  0-C ,  9-H ) :   0.9552
B(  1-C ,  2-C ) :   1.4039 B(  1-C , 10-H ) :   0.9627 B(  2-C ,  3-C ) :   1.3743
B(  2-C , 11-H ) :   0.9522 B(  3-C ,  4-C ) :   1.3882 B(  3-C ,  6-C ) :   0.8157
B(  4-C ,  5-C ) :   1.4013 B(  4-C , 12-H ) :   0.9503 B(  5-C , 13-H ) :   0.9568
B(  6-C ,  7-C ) :   0.8813 B(  6-C , 14-H ) :   0.9864 B(  6-C , 15-H ) :   0.9863
B(  7-C ,  8-O ) :   0.9342 B(  7-C , 16-H ) :   0.9626 B(  7-C , 17-H ) :   0.9832
B(  8-O , 18-H ) :   0.8667

Dispersion correction           -0.006135777
FINAL SINGLE POINT ENERGY      -385.997272650405

DIPOLE MOMENT
-------------

Method             : SCF
Type of density    : Electron Density
Multiplicity       :   1
Irrep              :   0
Energy             :  -385.9983840978002263 Eh
Relativity type    :
Basis              : AO
                                X                 Y                 Z
Electronic contribution:     -2.408814273      -1.041728413      -0.355064170
Nuclear contribution   :      2.878698699       1.780871740      -0.140503390
                        -----------------------------------------
Total Dipole Moment    :      0.469884426       0.739143327      -0.495567560
                        -----------------------------------------
Magnitude (a.u.)       :      1.006335649
Magnitude (Debye)      :      2.557901940

Rotational constants in cm-1:             0.124087             0.035088             0.028861
Rotational constants in MHz :          3720.041719          1051.918324           865.225311

                             ****ORCA TERMINATED NORMALLY****
TOTAL RUN TIME: 0 days 0 hours 0 minutes 29 seconds 796 msec
