                         Program Version 6.0.0  -   RELEASE  -
|  1> ! r2scan-3c def2/J RI DEFGRID2 scfconv6 printgap
|  2> %output
|  3>     printlevel normal
|  4> end
|  5> * xyz 0 1
|  6> C -3.6602962028 1.1893557007 -0.811396834
|  7> C -3.0309862493 -0.1340657412 -0.4077576482
|  8> O -1.6045939591 -0.0552449636 -0.5560738555
|  9> C -0.8283792812 -0.3001403433 0.494768512
| 10> O -1.2600677677 -0.6178842632 1.5900846681
| 11> C 0.6106343475 -0.1519129768 0.1912754526
| 12> C 1.0552849193 0.2652449132 -1.0622882323
| 13> C 2.4107444669 0.3926466114 -1.3011883616
| 14> C 3.3261585776 0.105708979 -0.299770134
| 15> C 2.887666083 -0.3100807911 0.9482153255
| 16> C 1.5343807436 -0.4382117519 1.1954801169
| 17> H -3.3937123223 1.4313595307 -1.8361008887
| 18> H -4.7395206779 1.1103815406 -0.7309171431
| 19> H -3.3126142142 1.9868107463 -0.159723572
| 20> H -3.3642453918 -0.9424795922 -1.0636112842
| 21> H -3.2598160856 -0.3870567981 0.6321084573
| 22> H 0.3349863129 0.4854599131 -1.8336532689
| 23> H 2.7555259524 0.7167255852 -2.2706677714
| 24> H 4.3831375255 0.206460947 -0.491943771
| 25> H 3.5997761076 -0.5339699416 1.7269967682
| 26> H 1.1655696989 -0.7595490998 2.1580495523
| 27> *
| 28>
| 29>                          ****END OF INPUT****

CARTESIAN COORDINATES (ANGSTROEM)
---------------------------------
  C     -3.660296    1.189356   -0.811397
  C     -3.030986   -0.134066   -0.407758
  O     -1.604594   -0.055245   -0.556074
  C     -0.828379   -0.300140    0.494769
  O     -1.260068   -0.617884    1.590085
  C      0.610634   -0.151913    0.191275
  C      1.055285    0.265245   -1.062288
  C      2.410744    0.392647   -1.301188
  C      3.326159    0.105709   -0.299770
  C      2.887666   -0.310081    0.948215
  C      1.534381   -0.438212    1.195480
  H     -3.393712    1.431360   -1.836101
  H     -4.739521    1.110382   -0.730917
  H     -3.312614    1.986811   -0.159724
  H     -3.364245   -0.942480   -1.063611
  H     -3.259816   -0.387057    0.632108
  H      0.334986    0.485460   -1.833653
  H      2.755526    0.716726   -2.270668
  H      4.383138    0.206461   -0.491944
  H      3.599776   -0.533970    1.726997
  H      1.165570   -0.759549    2.158050

 Total Charge           Charge          ....    0
 Multiplicity           Mult            ....    1
 Number of Electrons    NEL             ....   80
 Basis Dimension        Dim             ....  269

ORBITAL ENERGIES
----------------

  NO   OCC          E(Eh)            E(eV)
   0   2.0000     -18.998448      -516.9741
   1   2.0000     -18.928294      -515.0651
   2   2.0000     -10.156466      -276.3715
   3   2.0000     -10.091154      -274.5943
   4   2.0000     -10.054035      -273.5842
   5   2.0000     -10.047815      -273.4149
   6   2.0000     -10.046912      -273.3904
   7   2.0000     -10.044944      -273.3368
   8   2.0000     -10.044601      -273.3275
   9   2.0000     -10.044024      -273.3118
  10   2.0000     -10.032194      -272.9899
  11   2.0000      -1.072251       -29.1774
  12   2.0000      -0.975523       -26.5453
  13   2.0000      -0.838576       -22.8188
  14   2.0000      -0.758209       -20.6319
  15   2.0000      -0.728802       -19.8317
  16   2.0000      -0.725762       -19.7490
  17   2.0000      -0.640610       -17.4319
  18   2.0000      -0.592159       -16.1135
  19   2.0000      -0.579959       -15.7815
  20   2.0000      -0.533645       -14.5212
  21   2.0000      -0.512312       -13.9407
  22   2.0000      -0.463683       -12.6175
  23   2.0000      -0.457358       -12.4453
  24   2.0000      -0.437581       -11.9072
  25   2.0000      -0.422379       -11.4935
  26   2.0000      -0.414314       -11.2741
  27   2.0000      -0.404373       -11.0036
  28   2.0000      -0.399869       -10.8810
  29   2.0000      -0.377025       -10.2594
  30   2.0000      -0.370002       -10.0683
  31   2.0000      -0.352323        -9.5872
  32   2.0000      -0.341580        -9.2949
  33   2.0000      -0.330023        -8.9804
  34   2.0000      -0.321886        -8.7590
  35   2.0000      -0.306172        -8.3314
  36   2.0000      -0.271666        -7.3924
  37   2.0000      -0.248147        -6.7524
  38   2.0000      -0.246414        -6.7053
  39   2.0000      -0.240805        -6.5526
  40   0.0000      -0.075211        -2.0466
  41   0.0000      -0.039931        -1.0866
  42   0.0000       0.027593         0.7508
  43   0.0000       0.070500         1.9184
  44   0.0000       0.092309         2.5119

MULLIKEN ATOMIC CHARGES
-----------------------
   0 C :   -0.444355
   1 C :   -0.166443
   2 O :   -0.152966
   3 C :    0.379775
   4 O :   -0.444561
   5 C :    0.090440
   6 C :   -0.201518
   7 C :   -0.152395
   8 C :   -0.113932
   9 C :   -0.157933
  10 C :   -0.223807
  11 H :    0.152079
  12 H :    0.147385
  13 H :    0.154704
  14 H :    0.143600
  15 H :    0.191258
  16 H :    0.172187
  17 H :    0.147440
  18 H :    0.148653
  19 H :    0.147988
  20 H :    0.182401
Sum of atomic charges:   -0.0000000

LOEWDIN ATOMIC CHARGES
----------------------
   0 C :   -0.386848
   1 C :    0.033255
   2 O :   -0.602906
   3 C :    0.391804
   4 O :   -0.449524
   5 C :   -0.032220
   6 C :   -0.114098
   7 C :   -0.162441
   8 C :   -0.145088
   9 C :   -0.160113
  10 C :   -0.105574
  11 H :    0.156950
  12 H :    0.159482
  13 H :    0.159432
  14 H :    0.175747
  15 H :    0.197309
  16 H :    0.187694
  17 H :    0.168735
  18 H :    0.168309
  19 H :    0.169594
  20 H :    0.190501

  Mayer bond orders larger than 0.100000
B(  0-C ,  1-C ) :   0.9491 B(  0-C , 11-H ) :   0.9730 B(  0-C , 12-H ) :   0.9665
B(  0-C , 13-H ) :   0.9720 B(  1-C ,  2-O ) :   0.7668 B(  1-C , 14-H ) :   0.9539
B(  1-C , 15-H ) :   0.9715 B(  2-O ,  3-C ) :   1.1642 B(  2-O ,  5-C ) :  -0.1202
B(  3-C ,  4-O ) :   1.8748 B(  3-C ,  5-C ) :   1.0226 B(  5-C ,  6-C ) :   1.3832
B(  5-C , 10-C ) :   1.4764 B(  6-C ,  7-C ) :   1.3816 B(  6-C , 16-H ) :   0.9506
B(  7-C ,  8-C ) :   1.4064 B(  7-C , 17-H ) :   0.9523 B(  8-C ,  9-C ) :   1.3993
B(  8-C , 18-H ) :   0.9458 B(  9-C , 10-C ) :   1.3735 B(  9-C , 19-H ) :   0.9558
B( 10-C , 20-H ) :   0.9410

Dispersion correction           -0.006874888
FINAL SINGLE POINT ENERGY      -499.328857358478

DIPOLE MOMENT
-------------

Method             : SCF
Type of density    : Electron Density
Multiplicity       :   1
Irrep              :   0
Energy             :  -499.3315407657826199 Eh
Relativity type    :
Basis              : AO
                                X                 Y                 Z
Electronic contribution:      5.625540856      -2.804127750       2.824611912
Nuclear contribution   :     -5.512826754       3.099257893      -3.614896394
                        -----------------------------------------
Total Dipole Moment    :      0.112714102       0.295130143      -0.790284482
                        -----------------------------------------
Magnitude (a.u.)       :      0.851090966
Magnitude (Debye)      :      2.163301315

Rotational constants in cm-1:             0.093524             0.020465             0.017317
Rotational constants in MHz :          2803.787052           613.514329           519.142713

                             ****ORCA TERMINATED NORMALLY****
TOTAL RUN TIME: 0 days 0 hours 0 minutes 40 seconds 525 msec
