                         Program Version 6.0.0  -   RELEASE  -
|  1> ! r2scan-3c def2/J RI DEFGRID2 scfconv6 printgap
|  2> %output
|  3>     printlevel normal
|  4> end
|  5> %cpcm
|  6>     smd true
|  7>     smdsolvent "water"
|  8> end
|  9> * xyz 0 1
| 10> C -3.6602962028 1.1893557007 -0.811396834
| 11> C -3.0309862493 -0.1340657412 -0.4077576482
| 12> O -1.6045939591 -0.0552449636 -0.5560738555
| 13> C -0.8283792812 -0.3001403433 0.494768512
| 14> O -1.2600677677 -0.6178842632 1.5900846681
| 15> C 0.6106343475 -0.1519129768 0.1912754526
| 16> C 1.0552849193 0.2652449132 -1.0622882323
| 17> C 2.4107444669 0.3926466114 -1.3011883616
| 18> C 3.3261585776 0.105708979 -0.299770134
| 19> C 2.887666083 -0.3100807911 0.9482153255
| 20> C 1.5343807436 -0.4382117519 1.1954801169
| 21> H -3.3937123223 1.4313595307 -1.8361008887
| 22> H -4.7395206779 1.1103815406 -0.7309171431
| 23> H -3.3126142142 1.9868107463 -0.159723572
| 24> H -3.3642453918 -0.9424795922 -1.0636112842
| 25> H -3.2598160856 -0.3870567981 0.6321084573
| 26> H 0.3349863129 0.4854599131 -1.8336532689
| 27> H 2.7555259524 0.7167255852 -2.2706677714
| 28> H 4.3831375255 0.206460947 -0.491943771
| 29> H 3.5997761076 -0.5339699416 1.7269967682
| 30> H 1.1655696989 -0.7595490998 2.1580495523
| 31> *
| 32>
| 33>                          ****END OF INPUT****

CARTESIAN COORDINATES (ANGSTROEM)
---------------------------------
  C     -3.660296    1.189356   -0.811397
  C     -3.030986   -0.134066   -0.407758
  O     -1.604594   -0.055245   -0.556074
  C     -0.828379   -0.300140    0.494769
  O     -1.260068   -0.617884    1.590085
  C      0.610634   -0.151913    0.191275
  C      1.055285    0.265245   -1.062288
  C      2.410744    0.392647   -1.301188
  C      3.326159    0.105709   -0.299770
  C      2.887666   -0.310081    0.948215
  C      1.534381   -0.438212    1.195480
  H     -3.393712    1.431360   -1.836101
  H     -4.739521    1.110382   -0.730917
  H     -3.312614    1.986811   -0.159724
  H     -3.364245   -0.942480   -1.063611
  H     -3.259816   -0.387057    0.632108
  H      0.334986    0.485460   -1.833653
  H      2.755526    0.716726   -2.270668
  H      4.383138    0.206461   -0.491944
  H      3.599776   -0.533970    1.726997
  H      1.165570   -0.759549    2.158050

 Total Charge           Charge          ....    0
 Multiplicity           Mult            ....    1
 Number of Electrons    NEL             ....   80
 Basis Dimension        Dim             ....  269

ORBITAL ENERGIES
----------------

  NO   OCC          E(Eh)            E(eV)
   0   2.0000     -19.003287      -517.1057
   1   2.0000     -18.943659      -515.4832
   2   2.0000     -10.168860      -276.7087
   3   2.0000     -10.083758      -274.3930
   4   2.0000     -10.055608      -273.6270
   5   2.0000     -10.045855      -273.3616
   6   2.0000     -10.045370      -273.3484
   7   2.0000     -10.044542      -273.3259
   8   2.0000     -10.041264      -273.2367
   9   2.0000     -10.041160      -273.2339
  10   2.0000     -10.018725      -272.6234
  11   2.0000      -1.079698       -29.3801
  12   2.0000      -0.989258       -26.9191
  13   2.0000      -0.838971       -22.8296
  14   2.0000      -0.755850       -20.5677
  15   2.0000      -0.726666       -19.7736
  16   2.0000      -0.721961       -19.6455
  17   2.0000      -0.636864       -17.3299
  18   2.0000      -0.590015       -16.0551
  19   2.0000      -0.576760       -15.6944
  20   2.0000      -0.531019       -14.4498
  21   2.0000      -0.512222       -13.9383
  22   2.0000      -0.464482       -12.6392
  23   2.0000      -0.459015       -12.4904
  24   2.0000      -0.442016       -12.0279
  25   2.0000      -0.421492       -11.4694
  26   2.0000      -0.418433       -11.3861
  27   2.0000      -0.401907       -10.9365
  28   2.0000      -0.396306       -10.7840
  29   2.0000      -0.370584       -10.0841
  30   2.0000      -0.365713        -9.9516
  31   2.0000      -0.349681        -9.5153
  32   2.0000      -0.339325        -9.2335
  33   2.0000      -0.327657        -8.9160
  34   2.0000      -0.317649        -8.6437
  35   2.0000      -0.304357        -8.2820
  36   2.0000      -0.278017        -7.5652
  37   2.0000      -0.257706        -7.0125
  38   2.0000      -0.249814        -6.7978
  39   2.0000      -0.248158        -6.7527
  40   0.0000      -0.080186        -2.1820
  41   0.0000      -0.040301        -1.0967
  42   0.0000       0.022373         0.6088
  43   0.0000       0.072298         1.9673
  44   0.0000       0.100481         2.7342

MULLIKEN ATOMIC CHARGES
-----------------------
   0 C :   -0.485067
   1 C :   -0.152086
   2 O :   -0.164218
   3 C :    0.416023
   4 O :   -0.518377
   5 C :    0.092643
   6 C :   -0.214132
   7 C :   -0.191021
   8 C :   -0.131702
   9 C :   -0.203096
  10 C :   -0.245647
  11 H :    0.166107
  12 H :    0.168989
  13 H :    0.164353
  14 H :    0.169907
  15 H :    0.184789
  16 H :    0.195948
  17 H :    0.182834
  18 H :    0.185275
  19 H :    0.182708
  20 H :    0.195769
Sum of atomic charges:   -0.0000000

LOEWDIN ATOMIC CHARGES
----------------------
   0 C :   -0.389848
   1 C :    0.039316
   2 O :   -0.600748
   3 C :    0.397366
   4 O :   -0.507218
   5 C :   -0.044340
   6 C :   -0.116133
   7 C :   -0.163152
   8 C :   -0.142995
   9 C :   -0.162407
  10 C :   -0.116945
  11 H :    0.161360
  12 H :    0.167932
  13 H :    0.161375
  14 H :    0.186870
  15 H :    0.195747
  16 H :    0.195805
  17 H :    0.181622
  18 H :    0.181403
  19 H :    0.181942
  20 H :    0.193047

  Mayer bond orders larger than 0.100000
B(  0-C ,  1-C ) :   0.9434 B(  0-C , 11-H ) :   0.9701 B(  0-C , 12-H ) :   0.9605
B(  0-C , 13-H ) :   0.9695 B(  1-C ,  2-O ) :   0.7557 B(  1-C , 14-H ) :   0.9448
B(  1-C , 15-H ) :   0.9669 B(  2-O ,  3-C ) :   1.1830 B(  2-O ,  5-C ) :  -0.1067
B(  3-C ,  4-O ) :   1.8195 B(  3-C ,  5-C ) :   1.0245 B(  5-C ,  6-C ) :   1.3360
B(  5-C , 10-C ) :   1.4035 B(  6-C ,  7-C ) :   1.3690 B(  6-C , 16-H ) :   0.9592
B(  7-C ,  8-C ) :   1.3757 B(  7-C , 17-H ) :   0.9589 B(  8-C ,  9-C ) :   1.3745
B(  8-C , 18-H ) :   0.9484 B(  9-C , 10-C ) :   1.3708 B(  9-C , 19-H ) :   0.9609
B( 10-C , 20-H ) :   0.9505

Dispersion correction           -0.006874888
FINAL SINGLE POINT ENERGY      -499.334169658662

DIPOLE MOMENT
-------------

Method             : SCF
Type of density    : Electron Density
Multiplicity       :   1
Irrep              :   0
Energy             :  -499.3368530659664088 Eh
Relativity type    :
Basis              : AO
                                X                 Y                 Z
Electronic contribution:      5.793615071      -2.684888430       2.428128726
Nuclear contribution   :     -5.512826754       3.099257893      -3.614896394
                        -----------------------------------------
Total Dipole Moment    :      0.280788316       0.414369463      -1.186767668
                        -----------------------------------------
Magnitude (a.u.)       :      1.288006843
Magnitude (Debye)      :      3.273853218

Rotational constants in cm-1:             0.093524             0.020465             0.017317
Rotational constants in MHz :          2803.787052           613.514329           519.142713

                             ****ORCA TERMINATED NORMALLY****
TOTAL RUN TIME: 0 days 0 hours 0 minutes 48 seconds 752 msec
