                         Program Version 6.0.0  -   RELEASE  -
|  1> ! r2scan-3c def2/J RI DEFGRID2 scfconv6 printgap
|  2> %output
|  3>     printlevel normal
|  4> end
|  5> %cpcm
|  6>     smd true
|  7>     smdsolvent "water"
|  8> end
|  9> * xyz 0 1
| 10> C -1.9351011594 0.2681579077 -0.5962273568
| 11> C -1.0515947725 0.2472830552 0.6474027048
| 12> N -0.0053098204 -0.7625141421 0.5517471374
| 13> C 1.0364726342 -0.5199483948 -0.4325539632
| 14> C 1.9296585883 0.6981293278 -0.1711335986
| 15> H -1.404003811 0.6794657912 -1.4503697903
| 16> H -2.2541232348 -0.7421206483 -0.8354902582
| 17> H -2.8116043369 0.8829213543 -0.4107103193
| 18> H -1.6652305944 -0.0253851189 1.510125733
| 19> H -0.6551558537 1.260546606 0.8290075406
| 20> H 0.4274842253 -0.8737053474 1.4632333852
| 21> H 1.658276672 -1.4195721535 -0.4524159569
| 22> H 0.5609155527 -0.4238363431 -1.4103429564
| 23> H 2.3868489991 0.6288613494 0.8144771745
| 24> H 2.7183540009 0.7425197259 -0.9168980565
| 25> H 1.3570769346 1.6211956389 -0.2240929981
| 26> *
| 27>
| 28>                          ****END OF INPUT****

CARTESIAN COORDINATES (ANGSTROEM)
---------------------------------
  C     -1.935101    0.268158   -0.596227
  C     -1.051595    0.247283    0.647403
  N     -0.005310   -0.762514    0.551747
  C      1.036473   -0.519948   -0.432554
  C      1.929659    0.698129   -0.171134
  H     -1.404004    0.679466   -1.450370
  H     -2.254123   -0.742121   -0.835490
  H     -2.811604    0.882921   -0.410710
  H     -1.665231   -0.025385    1.510126
  H     -0.655156    1.260547    0.829008
  H      0.427484   -0.873705    1.463233
  H      1.658277   -1.419572   -0.452416
  H      0.560916   -0.423836   -1.410343
  H      2.386849    0.628861    0.814477
  H      2.718354    0.742520   -0.916898
  H      1.357077    1.621196   -0.224093

 Total Charge           Charge          ....    0
 Multiplicity           Mult            ....    1
 Number of Electrons    NEL             ....   42
 Basis Dimension        Dim             ....  155

ORBITAL ENERGIES
----------------

  NO   OCC          E(Eh)            E(eV)
   0   2.0000     -14.132840      -384.5741
   1   2.0000     -10.041135      -273.2332
   2   2.0000     -10.040000      -273.2023
   3   2.0000     -10.007386      -272.3148
   4   2.0000     -10.005992      -272.2769
   5   2.0000      -0.860461       -23.4143
   6   2.0000      -0.714035       -19.4299
   7   2.0000      -0.674059       -18.3421
   8   2.0000      -0.590628       -16.0718
   9   2.0000      -0.531830       -14.4718
  10   2.0000      -0.456929       -12.4337
  11   2.0000      -0.427265       -11.6265
  12   2.0000      -0.391636       -10.6570
  13   2.0000      -0.375725       -10.2240
  14   2.0000      -0.364077        -9.9070
  15   2.0000      -0.337959        -9.1963
  16   2.0000      -0.326216        -8.8768
  17   2.0000      -0.317876        -8.6498
  18   2.0000      -0.297603        -8.0982
  19   2.0000      -0.290628        -7.9084
  20   2.0000      -0.185296        -5.0422
  21   0.0000       0.087458         2.3798
  22   0.0000       0.111845         3.0435
  23   0.0000       0.124114         3.3773
  24   0.0000       0.137833         3.7506
  25   0.0000       0.142468         3.8767

MULLIKEN ATOMIC CHARGES
-----------------------
   0 C :   -0.503616
   1 C :   -0.189702
   2 N :   -0.394808
   3 C :   -0.221653
   4 C :   -0.494904
   5 H :    0.158474
   6 H :    0.156937
   7 H :    0.159682
   8 H :    0.154364
   9 H :    0.129940
  10 H :    0.270939
  11 H :    0.155050
  12 H :    0.150787
  13 H :    0.154219
  14 H :    0.157165
  15 H :    0.157127
Sum of atomic charges:   -0.0000000

LOEWDIN ATOMIC CHARGES
----------------------
   0 C :   -0.409642
   1 C :   -0.074923
   2 N :   -0.874920
   3 C :   -0.082285
   4 C :   -0.422783
   5 H :    0.153109
   6 H :    0.156159
   7 H :    0.156883
   8 H :    0.176960
   9 H :    0.152748
  10 H :    0.255174
  11 H :    0.175354
  12 H :    0.175341
  13 H :    0.153929
  14 H :    0.155855
  15 H :    0.153039

  Mayer bond orders larger than 0.100000
B(  0-C ,  1-C ) :   0.9035 B(  0-C ,  5-H ) :   0.9692 B(  0-C ,  6-H ) :   0.9756
B(  0-C ,  7-H ) :   0.9701 B(  1-C ,  2-N ) :   0.9239 B(  1-C ,  8-H ) :   0.9720
B(  1-C ,  9-H ) :   0.9563 B(  2-N ,  3-C ) :   0.9607 B(  2-N , 10-H ) :   0.8988
B(  3-C ,  4-C ) :   0.8754 B(  3-C , 11-H ) :   0.9761 B(  3-C , 12-H ) :   0.9745
B(  4-C , 13-H ) :   0.9740 B(  4-C , 14-H ) :   0.9681 B(  4-C , 15-H ) :   0.9725

Dispersion correction           -0.003547787
FINAL SINGLE POINT ENERGY      -213.717140058967

DIPOLE MOMENT
-------------

Method             : SCF
Type of density    : Electron Density
Multiplicity       :   1
Irrep              :   0
Energy             :  -213.7258260717735823 Eh
Relativity type    :
Basis              : AO
                                X                 Y                 Z
Electronic contribution:     -0.030168682      -1.734866680       1.219929616
Nuclear contribution   :      0.299095895       2.182574518      -1.013447277
                        -----------------------------------------
Total Dipole Moment    :      0.268927213       0.447707839       0.206482339
                        -----------------------------------------
Magnitude (a.u.)       :      0.561604052
Magnitude (Debye)      :      1.427484056

Rotational constants in cm-1:             0.296656             0.095723             0.090660
Rotational constants in MHz :          8893.537259          2869.702321          2717.930405

                             ****ORCA TERMINATED NORMALLY****
TOTAL RUN TIME: 0 days 0 hours 0 minutes 18 seconds 789 msec
