                         Program Version 6.0.0  -   RELEASE  -
|  1> ! pbe def2-sv(p) def2/J RI DEFGRID1 loosescf d4 GCP(DFT/SV(P)) printgap
|  2> %output
|  3>     printlevel normal
|  4> end
|  5> * xyz 0 1
|  6> C -1.9588430439 -1.3954323076 0.3946335046
|  7> C -1.4930893826 -0.0060783577 -0.0440654123
|  8> C -1.6023779886 0.9666983279 1.1276280305
|  9> C -0.09475556 -0.0651010062 -0.70102428
| 10> C 0.1534964902 1.1750966638 -1.5606579888
| 11> C 1.06357513 -0.3560795935 0.2823387422
| 12> C 2.1096441761 -1.2492994895 -0.3886538695
| 13> C 1.7588515397 0.8877095116 0.837533479
| 14> H -1.3251020338 -1.7912116572 1.1845890023
| 15> H -2.9773958668 -1.3469925043 0.7729743013
| 16> H -1.9374132385 -2.0905220133 -0.4417470706
| 17> H -2.1841766436 0.3368971258 -0.8240905122
| 18> H -1.294515783 1.9673714205 0.8367673496
| 19> H -0.9929338803 0.6376969951 1.9651108841
| 20> H -2.635948505 1.0190055588 1.4641060401
| 21> H -0.1359311163 -0.9176340363 -1.3905073096
| 22> H 1.1180559399 1.1079602335 -2.0575201569
| 23> H 0.1333073302 2.0847175877 -0.9681249911
| 24> H -0.6146063651 1.2523633433 -2.3275565968
| 25> H 0.6534098486 -0.9144782972 1.1296259935
| 26> H 2.5212397298 -0.7609900345 -1.2693420927
| 27> H 2.9275554223 -1.4575913244 0.2977100987
| 28> H 1.6712322019 -2.196787053 -0.6941592691
| 29> H 2.4709731203 0.5905809435 1.6053352885
| 30> H 1.0518391417 1.5791465622 1.2836438516
| 31> H 2.3071148875 1.4067697219 0.0560530097
| 32> *
| 33>
| 34>                          ****END OF INPUT****

CARTESIAN COORDINATES (ANGSTROEM)
---------------------------------
  C     -1.958843   -1.395432    0.394634
  C     -1.493089   -0.006078   -0.044065
  C     -1.602378    0.966698    1.127628
  C     -0.094756   -0.065101   -0.701024
  C      0.153496    1.175097   -1.560658
  C      1.063575   -0.356080    0.282339
  C      2.109644   -1.249299   -0.388654
  C      1.758852    0.887710    0.837533
  H     -1.325102   -1.791212    1.184589
  H     -2.977396   -1.346993    0.772974
  H     -1.937413   -2.090522   -0.441747
  H     -2.184177    0.336897   -0.824091
  H     -1.294516    1.967371    0.836767
  H     -0.992934    0.637697    1.965111
  H     -2.635949    1.019006    1.464106
  H     -0.135931   -0.917634   -1.390507
  H      1.118056    1.107960   -2.057520
  H      0.133307    2.084718   -0.968125
  H     -0.614606    1.252363   -2.327557
  H      0.653410   -0.914478    1.129626
  H      2.521240   -0.760990   -1.269342
  H      2.927555   -1.457591    0.297710
  H      1.671232   -2.196787   -0.694159
  H      2.470973    0.590581    1.605335
  H      1.051839    1.579147    1.283644
  H      2.307115    1.406770    0.056053

 Total Charge           Charge          ....    0
 Multiplicity           Mult            ....    1
 Number of Electrons    NEL             ....   66
 Basis Dimension        Dim             ....  148

ORBITAL ENERGIES
----------------

  NO   OCC          E(Eh)            E(eV)
   0   2.0000      -9.888844      -269.0891
   1   2.0000      -9.888333      -269.0752
   2   2.0000      -9.885635      -269.0018
   3   2.0000      -9.868855      -268.5452
   4   2.0000      -9.868035      -268.5229
   5   2.0000      -9.867971      -268.5211
   6   2.0000      -9.867780      -268.5160
   7   2.0000      -9.866788      -268.4890
   8   2.0000      -0.745915       -20.2974
   9   2.0000      -0.695944       -18.9376
  10   2.0000      -0.646695       -17.5975
  11   2.0000      -0.612067       -16.6552
  12   2.0000      -0.601439       -16.3660
  13   2.0000      -0.560786       -15.2597
  14   2.0000      -0.514774       -14.0077
  15   2.0000      -0.464702       -12.6452
  16   2.0000      -0.420648       -11.4464
  17   2.0000      -0.412784       -11.2324
  18   2.0000      -0.396610       -10.7923
  19   2.0000      -0.379511       -10.3270
  20   2.0000      -0.367008        -9.9868
  21   2.0000      -0.353320        -9.6143
  22   2.0000      -0.342927        -9.3315
  23   2.0000      -0.338192        -9.2027
  24   2.0000      -0.330833        -9.0024
  25   2.0000      -0.325794        -8.8653
  26   2.0000      -0.312393        -8.5006
  27   2.0000      -0.302376        -8.2281
  28   2.0000      -0.293759        -7.9936
  29   2.0000      -0.287411        -7.8209
  30   2.0000      -0.265849        -7.2341
  31   2.0000      -0.259236        -7.0542
  32   2.0000      -0.254365        -6.9216
  33   0.0000       0.028652         0.7797
  34   0.0000       0.055138         1.5004
  35   0.0000       0.059092         1.6080
  36   0.0000       0.065752         1.7892
  37   0.0000       0.087784         2.3887

MULLIKEN ATOMIC CHARGES
-----------------------
   0 C :   -0.239485
   1 C :   -0.157807
   2 C :   -0.255175
   3 C :   -0.103963
   4 C :   -0.238726
   5 C :   -0.174673
   6 C :   -0.246476
   7 C :   -0.245535
   8 H :    0.097810
   9 H :    0.095065
  10 H :    0.094918
  11 H :    0.061795
  12 H :    0.105038
  13 H :    0.104678
  14 H :    0.095908
  15 H :    0.056803
  16 H :    0.098754
  17 H :    0.101502
  18 H :    0.094826
  19 H :    0.076238
  20 H :    0.094523
  21 H :    0.094035
  22 H :    0.097831
  23 H :    0.095449
  24 H :    0.101692
  25 H :    0.094975
Sum of atomic charges:   -0.0000000

LOEWDIN ATOMIC CHARGES
----------------------
   0 C :   -0.330111
   1 C :   -0.147637
   2 C :   -0.331291
   3 C :   -0.134600
   4 C :   -0.329004
   5 C :   -0.150889
   6 C :   -0.326755
   7 C :   -0.330871
   8 H :    0.114963
   9 H :    0.117008
  10 H :    0.115371
  11 H :    0.112611
  12 H :    0.115780
  13 H :    0.117172
  14 H :    0.118497
  15 H :    0.112511
  16 H :    0.116146
  17 H :    0.116129
  18 H :    0.117286
  19 H :    0.111979
  20 H :    0.114866
  21 H :    0.115168
  22 H :    0.115192
  23 H :    0.117966
  24 H :    0.116075
  25 H :    0.116434

  Mayer bond orders larger than 0.100000
B(  0-C ,  1-C ) :   1.1163 B(  0-C ,  8-H ) :   0.9410 B(  0-C ,  9-H ) :   0.9489
B(  0-C , 10-H ) :   0.9476 B(  1-C ,  2-C ) :   1.1145 B(  1-C ,  3-C ) :   1.0405
B(  1-C , 11-H ) :   0.8978 B(  2-C , 12-H ) :   0.9425 B(  2-C , 13-H ) :   0.9378
B(  2-C , 14-H ) :   0.9446 B(  3-C ,  4-C ) :   1.1321 B(  3-C ,  5-C ) :   1.0068
B(  3-C , 15-H ) :   0.8968 B(  4-C , 16-H ) :   0.9440 B(  4-C , 17-H ) :   0.9310
B(  4-C , 18-H ) :   0.9421 B(  5-C ,  6-C ) :   1.1089 B(  5-C ,  7-C ) :   1.1248
B(  5-C , 19-H ) :   0.8992 B(  6-C , 20-H ) :   0.9474 B(  6-C , 21-H ) :   0.9494
B(  6-C , 22-H ) :   0.9479 B(  7-C , 23-H ) :   0.9467 B(  7-C , 24-H ) :   0.9414
B(  7-C , 25-H ) :   0.9365

Dispersion correction           -0.023757296
FINAL SINGLE POINT ENERGY      -314.869990641127

DIPOLE MOMENT
-------------

Method             : SCF
Type of density    : Electron Density
Multiplicity       :   1
Irrep              :   0
Energy             :  -314.9567278509126140 Eh
Relativity type    :
Basis              : AO
                                X                 Y                 Z
Electronic contribution:     -0.759019388      -0.481775589      -0.586801655
Nuclear contribution   :      0.709910839       0.474993648       0.584350692
                        -----------------------------------------
Total Dipole Moment    :     -0.049108549      -0.006781941      -0.002450963
                        -----------------------------------------
Magnitude (a.u.)       :      0.049635185
Magnitude (Debye)      :      0.126162613

Rotational constants in cm-1:             0.081540             0.046394             0.043082
Rotational constants in MHz :          2444.498631          1390.871229          1291.560402

                             ****ORCA TERMINATED NORMALLY****
TOTAL RUN TIME: 0 days 0 hours 0 minutes 11 seconds 866 msec
