                         Program Version 6.0.0  -   RELEASE  -
|  1> ! r2scan-3c def2/J RI DEFGRID2 scfconv6 printgap
|  2> %output
|  3>     printlevel normal
|  4> end
|  5> * xyz 0 1
|  6> C -1.1727063896 0.1672535021 -0.494368721
|  7> C -0.0332138017 0.5102311672 0.4867414076
|  8> C 0.931277629 -0.6760314572 0.6108390951
|  9> O 1.6144804993 -0.8013808742 -0.6207044534
| 10> O 0.6438011385 1.6770350375 0.0848288602
| 11> O -2.0488683008 -0.809438241 0.0145404131
| 12> H -0.7440744164 -0.2550777414 -1.4065071239
| 13> H -1.706762009 1.0908018734 -0.7490948839
| 14> H -0.4568399939 0.7332057911 1.4725192689
| 15> H 0.3477008069 -1.5759587513 0.8345140236
| 16> H 1.6415769952 -0.4846039578 1.4247802049
| 17> H 2.1905163531 -1.5756445608 -0.5900875461
| 18> H 1.2233003318 1.4383167639 -0.6555195699
| 19> H -2.546839236 -0.4394251336 0.7567960946
| 20> *
| 21>
| 22>                          ****END OF INPUT****

CARTESIAN COORDINATES (ANGSTROEM)
---------------------------------
  C     -1.172706    0.167254   -0.494369
  C     -0.033214    0.510231    0.486741
  C      0.931278   -0.676031    0.610839
  O      1.614480   -0.801381   -0.620704
  O      0.643801    1.677035    0.084829
  O     -2.048868   -0.809438    0.014540
  H     -0.744074   -0.255078   -1.406507
  H     -1.706762    1.090802   -0.749095
  H     -0.456840    0.733206    1.472519
  H      0.347701   -1.575959    0.834514
  H      1.641577   -0.484604    1.424780
  H      2.190516   -1.575645   -0.590088
  H      1.223300    1.438317   -0.655520
  H     -2.546839   -0.439425    0.756796

 Total Charge           Charge          ....    0
 Multiplicity           Mult            ....    1
 Number of Electrons    NEL             ....   50
 Basis Dimension        Dim             ....  169

ORBITAL ENERGIES
----------------

  NO   OCC          E(Eh)            E(eV)
   0   2.0000     -18.964041      -516.0378
   1   2.0000     -18.954030      -515.7654
   2   2.0000     -18.948236      -515.6077
   3   2.0000     -10.084058      -274.4012
   4   2.0000     -10.080489      -274.3041
   5   2.0000     -10.070988      -274.0455
   6   2.0000      -1.008511       -27.4430
   7   2.0000      -0.990607       -26.9558
   8   2.0000      -0.979849       -26.6630
   9   2.0000      -0.721985       -19.6462
  10   2.0000      -0.644189       -17.5293
  11   2.0000      -0.576583       -15.6896
  12   2.0000      -0.501413       -13.6441
  13   2.0000      -0.474093       -12.9007
  14   2.0000      -0.468144       -12.7388
  15   2.0000      -0.429876       -11.6975
  16   2.0000      -0.420774       -11.4498
  17   2.0000      -0.378196       -10.2912
  18   2.0000      -0.361244        -9.8299
  19   2.0000      -0.331410        -9.0181
  20   2.0000      -0.322597        -8.7783
  21   2.0000      -0.287502        -7.8233
  22   2.0000      -0.264356        -7.1935
  23   2.0000      -0.250729        -6.8227
  24   2.0000      -0.222530        -6.0554
  25   0.0000       0.040286         1.0962
  26   0.0000       0.052451         1.4273
  27   0.0000       0.102711         2.7949
  28   0.0000       0.105948         2.8830
  29   0.0000       0.135691         3.6924

MULLIKEN ATOMIC CHARGES
-----------------------
   0 C :   -0.220477
   1 C :    0.048032
   2 C :   -0.153595
   3 O :   -0.459175
   4 O :   -0.418532
   5 O :   -0.422271
   6 H :    0.157300
   7 H :    0.146013
   8 H :    0.133740
   9 H :    0.142414
  10 H :    0.132861
  11 H :    0.299544
  12 H :    0.316892
  13 H :    0.297253
Sum of atomic charges:   -0.0000000

LOEWDIN ATOMIC CHARGES
----------------------
   0 C :    0.023755
   1 C :    0.074588
   2 C :    0.023398
   3 O :   -0.631517
   4 O :   -0.575486
   5 O :   -0.611410
   6 H :    0.189882
   7 H :    0.166359
   8 H :    0.183169
   9 H :    0.174482
  10 H :    0.163146
  11 H :    0.272383
  12 H :    0.281403
  13 H :    0.265849

  Mayer bond orders larger than 0.100000
B(  0-C ,  1-C ) :   0.9124 B(  0-C ,  5-O ) :   0.9797 B(  0-C ,  6-H ) :   0.9645
B(  0-C ,  7-H ) :   0.9802 B(  1-C ,  2-C ) :   0.9731 B(  1-C ,  4-O ) :   0.9592
B(  1-C ,  8-H ) :   0.9482 B(  2-C ,  3-O ) :   0.9577 B(  2-C ,  9-H ) :   0.9562
B(  2-C , 10-H ) :   0.9589 B(  3-O , 11-H ) :   0.8984 B(  4-O , 12-H ) :   0.8695
B(  5-O , 13-H ) :   0.8959

Dispersion correction           -0.003045054
FINAL SINGLE POINT ENERGY      -344.723845489819

DIPOLE MOMENT
-------------

Method             : SCF
Type of density    : Electron Density
Multiplicity       :   1
Irrep              :   0
Energy             :  -344.7313682595573141 Eh
Relativity type    :
Basis              : AO
                                X                 Y                 Z
Electronic contribution:      0.291883057       0.538751262      -0.619822087
Nuclear contribution   :     -0.045131904      -1.001347640       1.012427646
                        -----------------------------------------
Total Dipole Moment    :      0.246751153      -0.462596378       0.392605558
                        -----------------------------------------
Magnitude (a.u.)       :      0.654996691
Magnitude (Debye)      :      1.664869279

Rotational constants in cm-1:             0.155526             0.089771             0.068406
Rotational constants in MHz :          4662.539467          2691.281816          2050.765202

                             ****ORCA TERMINATED NORMALLY****
TOTAL RUN TIME: 0 days 0 hours 0 minutes 20 seconds 399 msec
