                         Program Version 6.0.0  -   RELEASE  -
|  1> ! r2scan-3c def2/J RI DEFGRID2 scfconv6 printgap
|  2> %output
|  3>     printlevel normal
|  4> end
|  5> %cpcm
|  6>     smd true
|  7>     smdsolvent "water"
|  8> end
|  9> * xyz 0 1
| 10> C -1.1727063896 0.1672535021 -0.494368721
| 11> C -0.0332138017 0.5102311672 0.4867414076
| 12> C 0.931277629 -0.6760314572 0.6108390951
| 13> O 1.6144804993 -0.8013808742 -0.6207044534
| 14> O 0.6438011385 1.6770350375 0.0848288602
| 15> O -2.0488683008 -0.809438241 0.0145404131
| 16> H -0.7440744164 -0.2550777414 -1.4065071239
| 17> H -1.706762009 1.0908018734 -0.7490948839
| 18> H -0.4568399939 0.7332057911 1.4725192689
| 19> H 0.3477008069 -1.5759587513 0.8345140236
| 20> H 1.6415769952 -0.4846039578 1.4247802049
| 21> H 2.1905163531 -1.5756445608 -0.5900875461
| 22> H 1.2233003318 1.4383167639 -0.6555195699
| 23> H -2.546839236 -0.4394251336 0.7567960946
| 24> *
| 25>
| 26>                          ****END OF INPUT****

CARTESIAN COORDINATES (ANGSTROEM)
---------------------------------
  C     -1.172706    0.167254   -0.494369
  C     -0.033214    0.510231    0.486741
  C      0.931278   -0.676031    0.610839
  O      1.614480   -0.801381   -0.620704
  O      0.643801    1.677035    0.084829
  O     -2.048868   -0.809438    0.014540
  H     -0.744074   -0.255078   -1.406507
  H     -1.706762    1.090802   -0.749095
  H     -0.456840    0.733206    1.472519
  H      0.347701   -1.575959    0.834514
  H      1.641577   -0.484604    1.424780
  H      2.190516   -1.575645   -0.590088
  H      1.223300    1.438317   -0.655520
  H     -2.546839   -0.439425    0.756796

 Total Charge           Charge          ....    0
 Multiplicity           Mult            ....    1
 Number of Electrons    NEL             ....   50
 Basis Dimension        Dim             ....  169

ORBITAL ENERGIES
----------------

  NO   OCC          E(Eh)            E(eV)
   0   2.0000     -18.956119      -515.8222
   1   2.0000     -18.955809      -515.8138
   2   2.0000     -18.955407      -515.8028
   3   2.0000     -10.079100      -274.2663
   4   2.0000     -10.071499      -274.0594
   5   2.0000     -10.068759      -273.9849
   6   2.0000      -1.006838       -27.3975
   7   2.0000      -0.989523       -26.9263
   8   2.0000      -0.980710       -26.6865
   9   2.0000      -0.717662       -19.5286
  10   2.0000      -0.639030       -17.3889
  11   2.0000      -0.573391       -15.6028
  12   2.0000      -0.492939       -13.4136
  13   2.0000      -0.472096       -12.8464
  14   2.0000      -0.465442       -12.6653
  15   2.0000      -0.425978       -11.5914
  16   2.0000      -0.418853       -11.3976
  17   2.0000      -0.376711       -10.2508
  18   2.0000      -0.361804        -9.8452
  19   2.0000      -0.331707        -9.0262
  20   2.0000      -0.324502        -8.8301
  21   2.0000      -0.287942        -7.8353
  22   2.0000      -0.270697        -7.3660
  23   2.0000      -0.245937        -6.6923
  24   2.0000      -0.227049        -6.1783
  25   0.0000       0.054731         1.4893
  26   0.0000       0.068869         1.8740
  27   0.0000       0.116366         3.1665
  28   0.0000       0.122800         3.3415
  29   0.0000       0.143292         3.8992

MULLIKEN ATOMIC CHARGES
-----------------------
   0 C :   -0.221418
   1 C :    0.063809
   2 C :   -0.166689
   3 O :   -0.518573
   4 O :   -0.494967
   5 O :   -0.497655
   6 H :    0.162769
   7 H :    0.150970
   8 H :    0.162223
   9 H :    0.149529
  10 H :    0.152011
  11 H :    0.349284
  12 H :    0.354440
  13 H :    0.354266
Sum of atomic charges:    0.0000000

LOEWDIN ATOMIC CHARGES
----------------------
   0 C :    0.023239
   1 C :    0.074659
   2 C :    0.028786
   3 O :   -0.650158
   4 O :   -0.610882
   5 O :   -0.638260
   6 H :    0.188924
   7 H :    0.171157
   8 H :    0.195216
   9 H :    0.178529
  10 H :    0.170574
  11 H :    0.289822
  12 H :    0.292087
  13 H :    0.286308

  Mayer bond orders larger than 0.100000
B(  0-C ,  1-C ) :   0.9093 B(  0-C ,  5-O ) :   0.9760 B(  0-C ,  6-H ) :   0.9690
B(  0-C ,  7-H ) :   0.9703 B(  1-C ,  2-C ) :   0.9600 B(  1-C ,  4-O ) :   0.9331
B(  1-C ,  8-H ) :   0.9420 B(  2-C ,  3-O ) :   0.9430 B(  2-C ,  9-H ) :   0.9581
B(  2-C , 10-H ) :   0.9601 B(  3-O , 11-H ) :   0.8725 B(  4-O , 12-H ) :   0.8502
B(  5-O , 13-H ) :   0.8660

Dispersion correction           -0.003045054
FINAL SINGLE POINT ENERGY      -344.743672361472

DIPOLE MOMENT
-------------

Method             : SCF
Type of density    : Electron Density
Multiplicity       :   1
Irrep              :   0
Energy             :  -344.7511951312097835 Eh
Relativity type    :
Basis              : AO
                                X                 Y                 Z
Electronic contribution:      0.326299384       0.416656965      -0.408429746
Nuclear contribution   :     -0.045131904      -1.001347640       1.012427646
                        -----------------------------------------
Total Dipole Moment    :      0.281167480      -0.584690675       0.603997900
                        -----------------------------------------
Magnitude (a.u.)       :      0.886415140
Magnitude (Debye)      :      2.253088230

Rotational constants in cm-1:             0.155526             0.089771             0.068406
Rotational constants in MHz :          4662.539467          2691.281816          2050.765202

                             ****ORCA TERMINATED NORMALLY****
TOTAL RUN TIME: 0 days 0 hours 0 minutes 23 seconds 939 msec
