                         Program Version 6.0.0  -   RELEASE  -
|  1> ! pbe def2-sv(p) def2/J RI DEFGRID1 loosescf d4 GCP(DFT/SV(P)) printgap
|  2> %output
|  3>     printlevel normal
|  4> end
|  5> * xyz 0 1
|  6> C -2.2479641715 1.1503695633 -0.3932382289
|  7> C -1.8383226063 0.0340590011 0.5719972449
|  8> C -0.5403311513 -0.5755359414 0.1088987666
|  9> O -0.4474129091 -1.6021411749 -0.533833563
| 10> O 0.4974491819 0.1665910193 0.4621677128
| 11> C 1.8147859346 -0.2323452449 0.0461362517
| 12> C 2.6467761362 1.0137369646 -0.1968005475
| 13> H -2.3627511481 0.7555751741 -1.3999684087
| 14> H -3.1936507098 1.5793316515 -0.0763112149
| 15> H -1.4929580926 1.931860119 -0.4061747893
| 16> H -2.5979058143 -0.7464554726 0.5898903227
| 17> H -1.6966364132 0.4446553239 1.5707548381
| 18> H 2.2419196165 -0.8431302953 0.8472720625
| 19> H 1.7236525736 -0.8470889166 -0.8550126759
| 20> H 2.220247538 1.6014099052 -1.0047435051
| 21> H 2.6734210634 1.6210820594 0.7030102423
| 22> H 3.6573328517 0.7228576048 -0.4636252613
| 23> *
| 24>
| 25>                          ****END OF INPUT****

CARTESIAN COORDINATES (ANGSTROEM)
---------------------------------
  C     -2.247964    1.150370   -0.393238
  C     -1.838323    0.034059    0.571997
  C     -0.540331   -0.575536    0.108899
  O     -0.447413   -1.602141   -0.533834
  O      0.497449    0.166591    0.462168
  C      1.814786   -0.232345    0.046136
  C      2.646776    1.013737   -0.196801
  H     -2.362751    0.755575   -1.399968
  H     -3.193651    1.579332   -0.076311
  H     -1.492958    1.931860   -0.406175
  H     -2.597906   -0.746455    0.589890
  H     -1.696636    0.444655    1.570755
  H      2.241920   -0.843130    0.847272
  H      1.723653   -0.847089   -0.855013
  H      2.220248    1.601410   -1.004744
  H      2.673421    1.621082    0.703010
  H      3.657333    0.722858   -0.463625

 Total Charge           Charge          ....    0
 Multiplicity           Mult            ....    1
 Number of Electrons    NEL             ....   56
 Basis Dimension        Dim             ....  118

ORBITAL ENERGIES
----------------

  NO   OCC          E(Eh)            E(eV)
   0   2.0000     -18.797062      -511.4941
   1   2.0000     -18.728327      -509.6237
   2   2.0000     -10.003152      -272.1996
   3   2.0000      -9.945912      -270.6420
   4   2.0000      -9.898036      -269.3393
   5   2.0000      -9.889788      -269.1148
   6   2.0000      -9.887920      -269.0640
   7   2.0000      -1.003504       -27.3067
   8   2.0000      -0.905768       -24.6472
   9   2.0000      -0.722724       -19.6663
  10   2.0000      -0.689319       -18.7573
  11   2.0000      -0.602578       -16.3970
  12   2.0000      -0.560948       -15.2642
  13   2.0000      -0.505263       -13.7489
  14   2.0000      -0.444015       -12.0823
  15   2.0000      -0.442847       -12.0505
  16   2.0000      -0.416163       -11.3244
  17   2.0000      -0.388430       -10.5697
  18   2.0000      -0.381944       -10.3932
  19   2.0000      -0.367590       -10.0026
  20   2.0000      -0.358339        -9.7509
  21   2.0000      -0.336245        -9.1497
  22   2.0000      -0.329289        -8.9604
  23   2.0000      -0.314142        -8.5482
  24   2.0000      -0.312111        -8.4930
  25   2.0000      -0.291423        -7.9300
  26   2.0000      -0.253788        -6.9059
  27   2.0000      -0.213051        -5.7974
  28   0.0000      -0.017691        -0.4814
  29   0.0000       0.038296         1.0421
  30   0.0000       0.058606         1.5948
  31   0.0000       0.077357         2.1050
  32   0.0000       0.088852         2.4178

MULLIKEN ATOMIC CHARGES
-----------------------
   0 C :   -0.304910
   1 C :   -0.130426
   2 C :    0.094517
   3 O :   -0.210646
   4 O :   -0.245813
   5 C :   -0.027181
   6 C :   -0.281823
   7 H :    0.115785
   8 H :    0.115920
   9 H :    0.112372
  10 H :    0.104080
  11 H :    0.101913
  12 H :    0.103554
  13 H :    0.113853
  14 H :    0.113341
  15 H :    0.114020
  16 H :    0.111446
Sum of atomic charges:   -0.0000000

LOEWDIN ATOMIC CHARGES
----------------------
   0 C :   -0.331420
   1 C :   -0.248812
   2 C :    0.034426
   3 O :   -0.172516
   4 O :   -0.071413
   5 C :   -0.111145
   6 C :   -0.351296
   7 H :    0.124878
   8 H :    0.123807
   9 H :    0.121701
  10 H :    0.133985
  11 H :    0.131639
  12 H :    0.115972
  13 H :    0.119164
  14 H :    0.125420
  15 H :    0.125598
  16 H :    0.130013

  Mayer bond orders larger than 0.100000
B(  0-C ,  1-C ) :   1.1389 B(  0-C ,  7-H ) :   0.9536 B(  0-C ,  8-H ) :   0.9523
B(  0-C ,  9-H ) :   0.9539 B(  1-C ,  2-C ) :   1.0262 B(  1-C , 10-H ) :   0.9128
B(  1-C , 11-H ) :   0.9071 B(  2-C ,  3-O ) :   2.0643 B(  2-C ,  4-O ) :   1.1956
B(  4-O ,  5-C ) :   0.9132 B(  5-C ,  6-C ) :   1.1586 B(  5-C , 12-H ) :   0.9369
B(  5-C , 13-H ) :   0.9142 B(  6-C , 14-H ) :   0.9523 B(  6-C , 15-H ) :   0.9486
B(  6-C , 16-H ) :   0.9447

Dispersion correction           -0.011730339
FINAL SINGLE POINT ENERGY      -346.243500356321

DIPOLE MOMENT
-------------

Method             : SCF
Type of density    : Electron Density
Multiplicity       :   1
Irrep              :   0
Energy             :  -346.3080561764636514 Eh
Relativity type    :
Basis              : AO
                                X                 Y                 Z
Electronic contribution:     -0.806349116      -5.108252397       0.741839135
Nuclear contribution   :      1.100903753       5.814207448      -0.465369348
                        -----------------------------------------
Total Dipole Moment    :      0.294554636       0.705955050       0.276469787
                        -----------------------------------------
Magnitude (a.u.)       :      0.813369848
Magnitude (Debye)      :      2.067421853

Rotational constants in cm-1:             0.151551             0.052665             0.043594
Rotational constants in MHz :          4543.392164          1578.846259          1306.929932

                             ****ORCA TERMINATED NORMALLY****
TOTAL RUN TIME: 0 days 0 hours 0 minutes 8 seconds 877 msec
