                         Program Version 6.0.0  -   RELEASE  -
|  1> ! pbe def2-sv(p) def2/J RI DEFGRID1 loosescf d4 GCP(DFT/SV(P)) printgap
|  2> %output
|  3>     printlevel normal
|  4> end
|  5> * xyz 0 1
|  6> C -2.5477549698 -0.1789016266 -0.3248838037
|  7> C -1.2533194851 -0.6549162349 0.3258328352
|  8> C 8.27124e-05 0.0618041594 -0.1945619751
|  9> C -0.0006272588 1.5345597472 0.2088562281
| 10> C 1.2537364623 -0.6538837236 0.3266864693
| 11> C 2.5479244481 -0.1788566186 -0.32525521
| 12> H -2.7637266726 0.8540985018 -0.0665484113
| 13> H -2.4794812408 -0.2571623615 -1.4078009864
| 14> H -3.3813872609 -0.7911320357 0.0110263132
| 15> H -1.1452411848 -1.7257121854 0.1356535354
| 16> H -1.3188148137 -0.5187506997 1.4078121097
| 17> H 0.0004280041 -0.0009054873 -1.2892300254
| 18> H 0.8763460213 2.0423260024 -0.182527705
| 19> H -0.0001873437 1.6282691815 1.2930401583
| 20> H -0.8785629844 2.0412161256 -0.1817511306
| 21> H 1.3194972425 -0.5158032428 1.4083955224
| 22> H 1.1458320302 -1.7250206208 0.1383756053
| 23> H 2.7621023718 0.8555984298 -0.0713317314
| 24> H 2.4805432983 -0.262102913 -1.4078647557
| 25> H 3.3821531074 -0.7884233077 0.0140433512
| 26> *
| 27>
| 28>                          ****END OF INPUT****

CARTESIAN COORDINATES (ANGSTROEM)
---------------------------------
  C     -2.547755   -0.178902   -0.324884
  C     -1.253319   -0.654916    0.325833
  C      0.000083    0.061804   -0.194562
  C     -0.000627    1.534560    0.208856
  C      1.253736   -0.653884    0.326686
  C      2.547924   -0.178857   -0.325255
  H     -2.763727    0.854099   -0.066548
  H     -2.479481   -0.257162   -1.407801
  H     -3.381387   -0.791132    0.011026
  H     -1.145241   -1.725712    0.135654
  H     -1.318815   -0.518751    1.407812
  H      0.000428   -0.000905   -1.289230
  H      0.876346    2.042326   -0.182528
  H     -0.000187    1.628269    1.293040
  H     -0.878563    2.041216   -0.181751
  H      1.319497   -0.515803    1.408396
  H      1.145832   -1.725021    0.138376
  H      2.762102    0.855598   -0.071332
  H      2.480543   -0.262103   -1.407865
  H      3.382153   -0.788423    0.014043

 Total Charge           Charge          ....    0
 Multiplicity           Mult            ....    1
 Number of Electrons    NEL             ....   50
 Basis Dimension        Dim             ....  112

ORBITAL ENERGIES
----------------

  NO   OCC          E(Eh)            E(eV)
   0   2.0000      -9.887481      -269.0520
   1   2.0000      -9.877329      -268.7758
   2   2.0000      -9.877319      -268.7755
   3   2.0000      -9.869099      -268.5518
   4   2.0000      -9.869093      -268.5517
   5   2.0000      -9.868175      -268.5267
   6   2.0000      -0.733502       -19.9596
   7   2.0000      -0.672044       -18.2872
   8   2.0000      -0.632512       -17.2115
   9   2.0000      -0.579742       -15.7756
  10   2.0000      -0.526623       -14.3301
  11   2.0000      -0.491881       -13.3848
  12   2.0000      -0.417396       -11.3579
  13   2.0000      -0.407435       -11.0869
  14   2.0000      -0.384386       -10.4597
  15   2.0000      -0.371347       -10.1049
  16   2.0000      -0.348720        -9.4892
  17   2.0000      -0.342077        -9.3084
  18   2.0000      -0.328115        -8.9285
  19   2.0000      -0.317734        -8.6460
  20   2.0000      -0.305386        -8.3100
  21   2.0000      -0.290755        -7.9119
  22   2.0000      -0.277143        -7.5414
  23   2.0000      -0.269911        -7.3447
  24   2.0000      -0.263885        -7.1807
  25   0.0000       0.035830         0.9750
  26   0.0000       0.062037         1.6881
  27   0.0000       0.062469         1.6999
  28   0.0000       0.072266         1.9664
  29   0.0000       0.097123         2.6428

MULLIKEN ATOMIC CHARGES
-----------------------
   0 C :   -0.263842
   1 C :   -0.151417
   2 C :   -0.178094
   3 C :   -0.255434
   4 C :   -0.151378
   5 C :   -0.263791
   6 H :    0.103611
   7 H :    0.095153
   8 H :    0.099713
   9 H :    0.077902
  10 H :    0.076944
  11 H :    0.062904
  12 H :    0.101913
  13 H :    0.090683
  14 H :    0.101913
  15 H :    0.076930
  16 H :    0.077875
  17 H :    0.103535
  18 H :    0.095163
  19 H :    0.099716
Sum of atomic charges:   -0.0000000

LOEWDIN ATOMIC CHARGES
----------------------
   0 C :   -0.341457
   1 C :   -0.224809
   2 C :   -0.152360
   3 C :   -0.331330
   4 C :   -0.224797
   5 C :   -0.341429
   6 H :    0.116019
   7 H :    0.116373
   8 H :    0.119271
   9 H :    0.112408
  10 H :    0.112994
  11 H :    0.110536
  12 H :    0.117430
  13 H :    0.116681
  14 H :    0.117440
  15 H :    0.112984
  16 H :    0.112405
  17 H :    0.116002
  18 H :    0.116373
  19 H :    0.119265

  Mayer bond orders larger than 0.100000
B(  0-C ,  1-C ) :   1.1594 B(  0-C ,  6-H ) :   0.9475 B(  0-C ,  7-H ) :   0.9531
B(  0-C ,  8-H ) :   0.9504 B(  1-C ,  2-C ) :   1.0883 B(  1-C ,  9-H ) :   0.9223
B(  1-C , 10-H ) :   0.9202 B(  2-C ,  3-C ) :   1.1005 B(  2-C ,  4-C ) :   1.0882
B(  2-C , 11-H ) :   0.9005 B(  3-C , 12-H ) :   0.9451 B(  3-C , 13-H ) :   0.9488
B(  3-C , 14-H ) :   0.9451 B(  4-C ,  5-C ) :   1.1595 B(  4-C , 15-H ) :   0.9201
B(  4-C , 16-H ) :   0.9223 B(  5-C , 17-H ) :   0.9475 B(  5-C , 18-H ) :   0.9531
B(  5-C , 19-H ) :   0.9504

Dispersion correction           -0.014789244
FINAL SINGLE POINT ENERGY      -236.449202614068

DIPOLE MOMENT
-------------

Method             : SCF
Type of density    : Electron Density
Multiplicity       :   1
Irrep              :   0
Energy             :  -236.5171703543061881 Eh
Relativity type    :
Basis              : AO
                                X                 Y                 Z
Electronic contribution:      0.000363410      -0.805248223       0.177801596
Nuclear contribution   :     -0.000468541       0.784767496      -0.186420272
                        -----------------------------------------
Total Dipole Moment    :     -0.000105132      -0.020480728      -0.008618676
                        -----------------------------------------
Magnitude (a.u.)       :      0.022220550
Magnitude (Debye)      :      0.056480148

Rotational constants in cm-1:             0.217763             0.062487             0.054013
Rotational constants in MHz :          6528.375689          1873.317007          1619.256467

                             ****ORCA TERMINATED NORMALLY****
TOTAL RUN TIME: 0 days 0 hours 0 minutes 8 seconds 30 msec
