                         Program Version 6.0.0  -   RELEASE  -
|  1> ! r2scan-3c def2/J RI DEFGRID2 scfconv6 printgap
|  2> %output
|  3>     printlevel normal
|  4> end
|  5> * xyz 0 1
|  6> C 2.4114223732 0.6200548158 -0.6285760686
|  7> C 1.0762793851 -0.081106144 -0.3657873104
|  8> H 0.7200995989 -0.5222853887 -1.3094230745
|  9> C 0.0447459182 0.9302836236 0.148093594
| 10> C -1.4225030413 0.4732800453 0.1782672915
| 11> C -1.9144234694 0.0058453836 -1.1909277814
| 12> C -1.66942597 -0.6037034701 1.2313443292
| 13> O 1.2311605757 -1.1105402405 0.5990524756
| 14> H 2.2866783361 1.3961340719 -1.3777488078
| 15> H 2.7787560689 1.070972435 0.2904234315
| 16> H 3.1517181639 -0.0910706851 -0.9893189925
| 17> H 0.3408780654 1.2142438223 1.1601006421
| 18> H 0.1116650489 1.8158451578 -0.4865827683
| 19> H -2.0083342072 1.3577526045 0.4590206513
| 20> H -2.994928392 -0.1159053176 -1.1753625582
| 21> H -1.4737376088 -0.9525454161 -1.4533763498
| 22> H -1.6607440918 0.7315449834 -1.9602729404
| 23> H -1.392114468 -0.2413376683 2.2183655308
| 24> H -2.7207194533 -0.8825441134 1.2467983865
| 25> H -1.0743499527 -1.4869149909 1.0186207193
| 26> H 1.9560080663 -1.6892310188 0.3282517303
| 27> *
| 28>
| 29>                          ****END OF INPUT****

CARTESIAN COORDINATES (ANGSTROEM)
---------------------------------
  C      2.411422    0.620055   -0.628576
  C      1.076279   -0.081106   -0.365787
  H      0.720100   -0.522285   -1.309423
  C      0.044746    0.930284    0.148094
  C     -1.422503    0.473280    0.178267
  C     -1.914423    0.005845   -1.190928
  C     -1.669426   -0.603703    1.231344
  O      1.231161   -1.110540    0.599052
  H      2.286678    1.396134   -1.377749
  H      2.778756    1.070972    0.290423
  H      3.151718   -0.091071   -0.989319
  H      0.340878    1.214244    1.160101
  H      0.111665    1.815845   -0.486583
  H     -2.008334    1.357753    0.459021
  H     -2.994928   -0.115905   -1.175363
  H     -1.473738   -0.952545   -1.453376
  H     -1.660744    0.731545   -1.960273
  H     -1.392114   -0.241338    2.218366
  H     -2.720719   -0.882544    1.246798
  H     -1.074350   -1.486915    1.018621
  H      1.956008   -1.689231    0.328252

 Total Charge           Charge          ....    0
 Multiplicity           Mult            ....    1
 Number of Electrons    NEL             ....   58
 Basis Dimension        Dim             ....  208

ORBITAL ENERGIES
----------------

  NO   OCC          E(Eh)            E(eV)
   0   2.0000     -18.945764      -515.5405
   1   2.0000     -10.080463      -274.3033
   2   2.0000     -10.027836      -272.8713
   3   2.0000     -10.020752      -272.6785
   4   2.0000     -10.020477      -272.6710
   5   2.0000     -10.010848      -272.4090
   6   2.0000      -9.999380      -272.0970
   7   2.0000      -0.984089       -26.7784
   8   2.0000      -0.772087       -21.0096
   9   2.0000      -0.720614       -19.6089
  10   2.0000      -0.647953       -17.6317
  11   2.0000      -0.639994       -17.4151
  12   2.0000      -0.571416       -15.5490
  13   2.0000      -0.509138       -13.8543
  14   2.0000      -0.479436       -13.0461
  15   2.0000      -0.433832       -11.8052
  16   2.0000      -0.410084       -11.1590
  17   2.0000      -0.400083       -10.8868
  18   2.0000      -0.384324       -10.4580
  19   2.0000      -0.375081       -10.2065
  20   2.0000      -0.348790        -9.4911
  21   2.0000      -0.343733        -9.3534
  22   2.0000      -0.334502        -9.1023
  23   2.0000      -0.325673        -8.8620
  24   2.0000      -0.310073        -8.4375
  25   2.0000      -0.288951        -7.8628
  26   2.0000      -0.286743        -7.8027
  27   2.0000      -0.264829        -7.2064
  28   2.0000      -0.233906        -6.3649
  29   0.0000       0.057843         1.5740
  30   0.0000       0.094736         2.5779
  31   0.0000       0.112358         3.0574
  32   0.0000       0.121990         3.3195
  33   0.0000       0.139692         3.8012

MULLIKEN ATOMIC CHARGES
-----------------------
   0 C :   -0.495976
   1 C :    0.029586
   2 H :    0.131149
   3 C :   -0.307032
   4 C :   -0.004617
   5 C :   -0.527491
   6 C :   -0.505560
   7 O :   -0.407703
   8 H :    0.147823
   9 H :    0.160241
  10 H :    0.134965
  11 H :    0.156936
  12 H :    0.143525
  13 H :    0.148165
  14 H :    0.147640
  15 H :    0.154474
  16 H :    0.148680
  17 H :    0.141827
  18 H :    0.135899
  19 H :    0.181722
  20 H :    0.285748
Sum of atomic charges:   -0.0000000

LOEWDIN ATOMIC CHARGES
----------------------
   0 C :   -0.400056
   1 C :    0.048306
   2 H :    0.162092
   3 C :   -0.271883
   4 C :   -0.241505
   5 C :   -0.420740
   6 C :   -0.414996
   7 O :   -0.619906
   8 H :    0.157695
   9 H :    0.162201
  10 H :    0.149776
  11 H :    0.171952
  12 H :    0.164101
  13 H :    0.154348
  14 H :    0.153777
  15 H :    0.152477
  16 H :    0.152232
  17 H :    0.154279
  18 H :    0.147694
  19 H :    0.170536
  20 H :    0.267621

  Mayer bond orders larger than 0.100000
B(  0-C ,  1-C ) :   0.9156 B(  0-C ,  8-H ) :   0.9735 B(  0-C ,  9-H ) :   0.9824
B(  0-C , 10-H ) :   0.9720 B(  1-C ,  2-H ) :   0.9525 B(  1-C ,  3-C ) :   0.9382
B(  1-C ,  7-O ) :   0.8715 B(  3-C ,  4-C ) :   0.9027 B(  3-C , 11-H ) :   0.9761
B(  3-C , 12-H ) :   0.9768 B(  4-C ,  5-C ) :   0.8911 B(  4-C ,  6-C ) :   0.9192
B(  4-C , 13-H ) :   0.9730 B(  5-C , 14-H ) :   0.9688 B(  5-C , 15-H ) :   0.9797
B(  5-C , 16-H ) :   0.9793 B(  6-C , 17-H ) :   0.9710 B(  6-C , 18-H ) :   0.9735
B(  6-C , 19-H ) :   0.9774 B(  7-O , 20-H ) :   0.9022

Dispersion correction           -0.005628816
FINAL SINGLE POINT ENERGY      -312.201140721292

DIPOLE MOMENT
-------------

Method             : SCF
Type of density    : Electron Density
Multiplicity       :   1
Irrep              :   0
Energy             :  -312.2066953148796529 Eh
Relativity type    :
Basis              : AO
                                X                 Y                 Z
Electronic contribution:      2.211083400      -1.402693459       1.448114077
Nuclear contribution   :     -1.838471390       1.488950811      -1.896054808
                        -----------------------------------------
Total Dipole Moment    :      0.372612009       0.086257352      -0.447940731
                        -----------------------------------------
Magnitude (a.u.)       :      0.589008437
Magnitude (Debye)      :      1.497140466

Rotational constants in cm-1:             0.132327             0.054960             0.047362
Rotational constants in MHz :          3967.055800          1647.661196          1419.879611

                             ****ORCA TERMINATED NORMALLY****
TOTAL RUN TIME: 0 days 0 hours 0 minutes 30 seconds 156 msec
