                         Program Version 6.0.0  -   RELEASE  -
|  1> ! r2scan-3c def2/J RI DEFGRID2 scfconv6 printgap
|  2> %output
|  3>     printlevel normal
|  4> end
|  5> * xyz 0 1
|  6> C 2.0922757105 -0.6960881831 -0.7790814627
|  7> C 1.4758112085 -0.4735439297 0.5971649504
|  8> C 0.1987224243 0.3781015207 0.5671097882
|  9> H -0.1899683071 0.4291504634 1.5993989935
| 10> C -0.9192980097 -0.1840714872 -0.3354593388
| 11> C -1.2890512258 -1.6100014685 0.0678210405
| 12> C -2.1647985437 0.7030758428 -0.2645797099
| 13> O 0.5996577574 1.678575185 0.1617849579
| 14> H 3.0700297195 -1.1598502782 -0.6762601618
| 15> H 2.2115078223 0.2587557722 -1.2845489809
| 16> H 1.4695640488 -1.3426090156 -1.3914386548
| 17> H 1.2631718988 -1.4267357255 1.0797058766
| 18> H 2.1932782818 0.0659073377 1.2192490282
| 19> H -0.5541120084 -0.1807564048 -1.3666641104
| 20> H -1.5603845 -1.6450633405 1.1208852675
| 21> H -2.1402022607 -1.9501665613 -0.5170833623
| 22> H -0.467036264 -2.29849664 -0.1016829772
| 23> H -1.9702468177 1.6946564046 -0.6657675375
| 24> H -2.5075636652 0.7967104629 0.7644517752
| 25> H -2.966061738 0.2615283931 -0.8520048112
| 26> H -0.1452923824 2.2850874469 0.2556586586
| 27> *
| 28>
| 29>                          ****END OF INPUT****

CARTESIAN COORDINATES (ANGSTROEM)
---------------------------------
  C      2.092276   -0.696088   -0.779081
  C      1.475811   -0.473544    0.597165
  C      0.198722    0.378102    0.567110
  H     -0.189968    0.429150    1.599399
  C     -0.919298   -0.184071   -0.335459
  C     -1.289051   -1.610001    0.067821
  C     -2.164799    0.703076   -0.264580
  O      0.599658    1.678575    0.161785
  H      3.070030   -1.159850   -0.676260
  H      2.211508    0.258756   -1.284549
  H      1.469564   -1.342609   -1.391439
  H      1.263172   -1.426736    1.079706
  H      2.193278    0.065907    1.219249
  H     -0.554112   -0.180756   -1.366664
  H     -1.560385   -1.645063    1.120885
  H     -2.140202   -1.950167   -0.517083
  H     -0.467036   -2.298497   -0.101683
  H     -1.970247    1.694656   -0.665768
  H     -2.507564    0.796710    0.764452
  H     -2.966062    0.261528   -0.852005
  H     -0.145292    2.285087    0.255659

 Total Charge           Charge          ....    0
 Multiplicity           Mult            ....    1
 Number of Electrons    NEL             ....   58
 Basis Dimension        Dim             ....  208

ORBITAL ENERGIES
----------------

  NO   OCC          E(Eh)            E(eV)
   0   2.0000     -18.943615      -515.4820
   1   2.0000     -10.076484      -274.1951
   2   2.0000     -10.033636      -273.0291
   3   2.0000     -10.022822      -272.7348
   4   2.0000     -10.021304      -272.6935
   5   2.0000     -10.019622      -272.6478
   6   2.0000     -10.010192      -272.3912
   7   2.0000      -0.982089       -26.7240
   8   2.0000      -0.774244       -21.0682
   9   2.0000      -0.728176       -19.8147
  10   2.0000      -0.654417       -17.8076
  11   2.0000      -0.637297       -17.3417
  12   2.0000      -0.569168       -15.4878
  13   2.0000      -0.518506       -14.1093
  14   2.0000      -0.488592       -13.2953
  15   2.0000      -0.433485       -11.7957
  16   2.0000      -0.407348       -11.0845
  17   2.0000      -0.405616       -11.0374
  18   2.0000      -0.390033       -10.6133
  19   2.0000      -0.368383       -10.0242
  20   2.0000      -0.360508        -9.8099
  21   2.0000      -0.346812        -9.4372
  22   2.0000      -0.330539        -8.9944
  23   2.0000      -0.320432        -8.7194
  24   2.0000      -0.313286        -8.5249
  25   2.0000      -0.301843        -8.2136
  26   2.0000      -0.293853        -7.9961
  27   2.0000      -0.275366        -7.4931
  28   2.0000      -0.230377        -6.2689
  29   0.0000       0.057604         1.5675
  30   0.0000       0.090213         2.4548
  31   0.0000       0.111826         3.0430
  32   0.0000       0.113019         3.0754
  33   0.0000       0.125648         3.4190

MULLIKEN ATOMIC CHARGES
-----------------------
   0 C :   -0.519501
   1 C :   -0.263391
   2 C :    0.006558
   3 H :    0.143521
   4 C :   -0.015314
   5 C :   -0.519063
   6 C :   -0.540412
   7 O :   -0.436478
   8 H :    0.147390
   9 H :    0.177951
  10 H :    0.144541
  11 H :    0.147863
  12 H :    0.150493
  13 H :    0.170940
  14 H :    0.157503
  15 H :    0.145543
  16 H :    0.156458
  17 H :    0.143462
  18 H :    0.160173
  19 H :    0.151710
  20 H :    0.290054
Sum of atomic charges:    0.0000000

LOEWDIN ATOMIC CHARGES
----------------------
   0 C :   -0.420015
   1 C :   -0.278979
   2 C :    0.058253
   3 H :    0.165771
   4 C :   -0.227291
   5 C :   -0.412259
   6 C :   -0.416472
   7 O :   -0.619647
   8 H :    0.150536
   9 H :    0.164853
  10 H :    0.147988
  11 H :    0.157211
  12 H :    0.166935
  13 H :    0.166399
  14 H :    0.156133
  15 H :    0.154259
  16 H :    0.155312
  17 H :    0.150364
  18 H :    0.156054
  19 H :    0.157011
  20 H :    0.267583

  Mayer bond orders larger than 0.100000
B(  0-C ,  1-C ) :   0.8816 B(  0-C ,  8-H ) :   0.9719 B(  0-C ,  9-H ) :   0.9813
B(  0-C , 10-H ) :   0.9764 B(  1-C ,  2-C ) :   0.9355 B(  1-C , 11-H ) :   0.9797
B(  1-C , 12-H ) :   0.9698 B(  2-C ,  3-H ) :   0.9853 B(  2-C ,  4-C ) :   0.8505
B(  2-C ,  7-O ) :   0.8586 B(  4-C ,  5-C ) :   0.8810 B(  4-C ,  6-C ) :   0.8706
B(  4-C , 13-H ) :   0.9582 B(  5-C , 14-H ) :   0.9856 B(  5-C , 15-H ) :   0.9681
B(  5-C , 16-H ) :   0.9686 B(  6-C , 17-H ) :   0.9767 B(  6-C , 18-H ) :   0.9900
B(  6-C , 19-H ) :   0.9721 B(  7-O , 20-H ) :   0.8984

Dispersion correction           -0.005765970
FINAL SINGLE POINT ENERGY      -312.203007478887

DIPOLE MOMENT
-------------

Method             : SCF
Type of density    : Electron Density
Multiplicity       :   1
Irrep              :   0
Energy             :  -312.2085360498936666 Eh
Relativity type    :
Basis              : AO
                                X                 Y                 Z
Electronic contribution:      1.617570729       3.769534746       0.896210640
Nuclear contribution   :     -2.142606250      -3.926522507      -0.763235192
                        -----------------------------------------
Total Dipole Moment    :     -0.525035521      -0.156987761       0.132975448
                        -----------------------------------------
Magnitude (a.u.)       :      0.563905954
Magnitude (Debye)      :      1.433335027

Rotational constants in cm-1:             0.111316             0.066530             0.049423
Rotational constants in MHz :          3337.165183          1994.530212          1481.667701

                             ****ORCA TERMINATED NORMALLY****
TOTAL RUN TIME: 0 days 0 hours 0 minutes 28 seconds 748 msec
