                         Program Version 6.0.0  -   RELEASE  -
|  1> ! r2scan-3c def2/J RI DEFGRID2 scfconv6 printgap
|  2> %output
|  3>     printlevel normal
|  4> end
|  5> %cpcm
|  6>     smd true
|  7>     smdsolvent "water"
|  8> end
|  9> * xyz 0 1
| 10> C 2.0922757105 -0.6960881831 -0.7790814627
| 11> C 1.4758112085 -0.4735439297 0.5971649504
| 12> C 0.1987224243 0.3781015207 0.5671097882
| 13> H -0.1899683071 0.4291504634 1.5993989935
| 14> C -0.9192980097 -0.1840714872 -0.3354593388
| 15> C -1.2890512258 -1.6100014685 0.0678210405
| 16> C -2.1647985437 0.7030758428 -0.2645797099
| 17> O 0.5996577574 1.678575185 0.1617849579
| 18> H 3.0700297195 -1.1598502782 -0.6762601618
| 19> H 2.2115078223 0.2587557722 -1.2845489809
| 20> H 1.4695640488 -1.3426090156 -1.3914386548
| 21> H 1.2631718988 -1.4267357255 1.0797058766
| 22> H 2.1932782818 0.0659073377 1.2192490282
| 23> H -0.5541120084 -0.1807564048 -1.3666641104
| 24> H -1.5603845 -1.6450633405 1.1208852675
| 25> H -2.1402022607 -1.9501665613 -0.5170833623
| 26> H -0.467036264 -2.29849664 -0.1016829772
| 27> H -1.9702468177 1.6946564046 -0.6657675375
| 28> H -2.5075636652 0.7967104629 0.7644517752
| 29> H -2.966061738 0.2615283931 -0.8520048112
| 30> H -0.1452923824 2.2850874469 0.2556586586
| 31> *
| 32>
| 33>                          ****END OF INPUT****

CARTESIAN COORDINATES (ANGSTROEM)
---------------------------------
  C      2.092276   -0.696088   -0.779081
  C      1.475811   -0.473544    0.597165
  C      0.198722    0.378102    0.567110
  H     -0.189968    0.429150    1.599399
  C     -0.919298   -0.184071   -0.335459
  C     -1.289051   -1.610001    0.067821
  C     -2.164799    0.703076   -0.264580
  O      0.599658    1.678575    0.161785
  H      3.070030   -1.159850   -0.676260
  H      2.211508    0.258756   -1.284549
  H      1.469564   -1.342609   -1.391439
  H      1.263172   -1.426736    1.079706
  H      2.193278    0.065907    1.219249
  H     -0.554112   -0.180756   -1.366664
  H     -1.560385   -1.645063    1.120885
  H     -2.140202   -1.950167   -0.517083
  H     -0.467036   -2.298497   -0.101683
  H     -1.970247    1.694656   -0.665768
  H     -2.507564    0.796710    0.764452
  H     -2.966062    0.261528   -0.852005
  H     -0.145292    2.285087    0.255659

 Total Charge           Charge          ....    0
 Multiplicity           Mult            ....    1
 Number of Electrons    NEL             ....   58
 Basis Dimension        Dim             ....  208

ORBITAL ENERGIES
----------------

  NO   OCC          E(Eh)            E(eV)
   0   2.0000     -18.947612      -515.5907
   1   2.0000     -10.071550      -274.0608
   2   2.0000     -10.025115      -272.7972
   3   2.0000     -10.017111      -272.5794
   4   2.0000     -10.008787      -272.3529
   5   2.0000     -10.008244      -272.3382
   6   2.0000     -10.007905      -272.3289
   7   2.0000      -0.984960       -26.8021
   8   2.0000      -0.766314       -20.8525
   9   2.0000      -0.723007       -19.6740
  10   2.0000      -0.642678       -17.4881
  11   2.0000      -0.633204       -17.2304
  12   2.0000      -0.562904       -15.3174
  13   2.0000      -0.513879       -13.9833
  14   2.0000      -0.484043       -13.1715
  15   2.0000      -0.425546       -11.5797
  16   2.0000      -0.400389       -10.8951
  17   2.0000      -0.399531       -10.8718
  18   2.0000      -0.386542       -10.5183
  19   2.0000      -0.361245        -9.8300
  20   2.0000      -0.349776        -9.5179
  21   2.0000      -0.340196        -9.2572
  22   2.0000      -0.326955        -8.8969
  23   2.0000      -0.316146        -8.6028
  24   2.0000      -0.307178        -8.3587
  25   2.0000      -0.295340        -8.0366
  26   2.0000      -0.288005        -7.8370
  27   2.0000      -0.271801        -7.3961
  28   2.0000      -0.233210        -6.3460
  29   0.0000       0.073388         1.9970
  30   0.0000       0.100265         2.7283
  31   0.0000       0.119907         3.2628
  32   0.0000       0.120826         3.2878
  33   0.0000       0.133706         3.6383

MULLIKEN ATOMIC CHARGES
-----------------------
   0 C :   -0.548985
   1 C :   -0.274526
   2 C :    0.010863
   3 H :    0.156964
   4 C :   -0.016260
   5 C :   -0.560839
   6 C :   -0.561211
   7 O :   -0.522543
   8 H :    0.160976
   9 H :    0.166153
  10 H :    0.163493
  11 H :    0.164949
  12 H :    0.155364
  13 H :    0.172294
  14 H :    0.170163
  15 H :    0.159323
  16 H :    0.166948
  17 H :    0.159293
  18 H :    0.169932
  19 H :    0.163273
  20 H :    0.344377
Sum of atomic charges:    0.0000000

LOEWDIN ATOMIC CHARGES
----------------------
   0 C :   -0.427784
   1 C :   -0.282774
   2 C :    0.058442
   3 H :    0.173700
   4 C :   -0.224684
   5 C :   -0.418112
   6 C :   -0.421025
   7 O :   -0.655524
   8 H :    0.154167
   9 H :    0.158526
  10 H :    0.154364
  11 H :    0.164236
  12 H :    0.165184
  13 H :    0.165882
  14 H :    0.159666
  15 H :    0.157749
  16 H :    0.157995
  17 H :    0.156302
  18 H :    0.160132
  19 H :    0.158827
  20 H :    0.284732

  Mayer bond orders larger than 0.100000
B(  0-C ,  1-C ) :   0.8687 B(  0-C ,  8-H ) :   0.9691 B(  0-C ,  9-H ) :   0.9826
B(  0-C , 10-H ) :   0.9729 B(  1-C ,  2-C ) :   0.9232 B(  1-C , 11-H ) :   0.9742
B(  1-C , 12-H ) :   0.9765 B(  2-C ,  3-H ) :   0.9786 B(  2-C ,  4-C ) :   0.8719
B(  2-C ,  7-O ) :   0.8445 B(  4-C ,  5-C ) :   0.8781 B(  4-C ,  6-C ) :   0.8779
B(  4-C , 13-H ) :   0.9577 B(  5-C , 14-H ) :   0.9839 B(  5-C , 15-H ) :   0.9661
B(  5-C , 16-H ) :   0.9652 B(  6-C , 17-H ) :   0.9690 B(  6-C , 18-H ) :   0.9851
B(  6-C , 19-H ) :   0.9719 B(  7-O , 20-H ) :   0.8739

Dispersion correction           -0.005765970
FINAL SINGLE POINT ENERGY      -312.208249349760

DIPOLE MOMENT
-------------

Method             : SCF
Type of density    : Electron Density
Multiplicity       :   1
Irrep              :   0
Energy             :  -312.2137779207668018 Eh
Relativity type    :
Basis              : AO
                                X                 Y                 Z
Electronic contribution:      1.366959106       3.666113892       1.005473180
Nuclear contribution   :     -2.142606250      -3.926522507      -0.763235192
                        -----------------------------------------
Total Dipole Moment    :     -0.775647144      -0.260408615       0.242237988
                        -----------------------------------------
Magnitude (a.u.)       :      0.853299702
Magnitude (Debye)      :      2.168915476

Rotational constants in cm-1:             0.111316             0.066530             0.049423
Rotational constants in MHz :          3337.165183          1994.530212          1481.667701

                             ****ORCA TERMINATED NORMALLY****
TOTAL RUN TIME: 0 days 0 hours 0 minutes 33 seconds 711 msec
