                         Program Version 6.0.0  -   RELEASE  -
|  1> ! r2scan-3c def2/J RI DEFGRID2 scfconv6 printgap
|  2> %output
|  3>     printlevel normal
|  4> end
|  5> * xyz 0 1
|  6> C -1.9511131179 -0.2410185085 -0.5522756778
|  7> O -1.0694566351 -0.2279395561 0.5525534674
|  8> C -0.0535831196 0.7494685799 0.4898171859
|  9> C 1.0902700376 0.425540794 -0.4767970357
| 10> O 1.8658349794 -0.6228608419 0.0638746625
| 11> H -2.3802629447 0.753601906 -0.7161743146
| 12> H -2.7387271907 -0.9443840838 -0.2935393441
| 13> H -1.4547176534 -0.5751520553 -1.4679103074
| 14> H -0.4853264743 1.7226447562 0.2178810993
| 15> H 0.353792083 0.7962332927 1.5019141479
| 16> H 1.6991874013 1.3312912223 -0.5951149693
| 17> H 0.6841648817 0.140824425 -1.4550590718
| 18> H 2.5770968504 -0.8495404083 -0.5509521496
| 19> *
| 20>
| 21>                          ****END OF INPUT****

CARTESIAN COORDINATES (ANGSTROEM)
---------------------------------
  C     -1.951113   -0.241019   -0.552276
  O     -1.069457   -0.227940    0.552553
  C     -0.053583    0.749469    0.489817
  C      1.090270    0.425541   -0.476797
  O      1.865835   -0.622861    0.063875
  H     -2.380263    0.753602   -0.716174
  H     -2.738727   -0.944384   -0.293539
  H     -1.454718   -0.575152   -1.467910
  H     -0.485326    1.722645    0.217881
  H      0.353792    0.796233    1.501914
  H      1.699187    1.331291   -0.595115
  H      0.684165    0.140824   -1.455059
  H      2.577097   -0.849540   -0.550952

 Total Charge           Charge          ....    0
 Multiplicity           Mult            ....    1
 Number of Electrons    NEL             ....   42
 Basis Dimension        Dim             ....  145

ORBITAL ENERGIES
----------------

  NO   OCC          E(Eh)            E(eV)
   0   2.0000     -18.949117      -515.6317
   1   2.0000     -18.948766      -515.6221
   2   2.0000     -10.079215      -274.2694
   3   2.0000     -10.075988      -274.1816
   4   2.0000     -10.069385      -274.0019
   5   2.0000      -0.998075       -27.1590
   6   2.0000      -0.981598       -26.7106
   7   2.0000      -0.716663       -19.5014
   8   2.0000      -0.649235       -17.6666
   9   2.0000      -0.563550       -15.3350
  10   2.0000      -0.493513       -13.4292
  11   2.0000      -0.460553       -12.5323
  12   2.0000      -0.429995       -11.7007
  13   2.0000      -0.424657       -11.5555
  14   2.0000      -0.394068       -10.7231
  15   2.0000      -0.366727        -9.9792
  16   2.0000      -0.341312        -9.2876
  17   2.0000      -0.315319        -8.5803
  18   2.0000      -0.276962        -7.5365
  19   2.0000      -0.239462        -6.5161
  20   2.0000      -0.219364        -5.9692
  21   0.0000       0.056530         1.5383
  22   0.0000       0.080207         2.1825
  23   0.0000       0.096818         2.6346
  24   0.0000       0.116681         3.1750
  25   0.0000       0.134699         3.6653

MULLIKEN ATOMIC CHARGES
-----------------------
   0 C :   -0.288756
   1 O :   -0.228043
   2 C :   -0.163796
   3 C :   -0.113054
   4 O :   -0.415170
   5 H :    0.130068
   6 H :    0.149847
   7 H :    0.128726
   8 H :    0.119641
   9 H :    0.150878
  10 H :    0.119695
  11 H :    0.116387
  12 H :    0.293578
Sum of atomic charges:    0.0000000

LOEWDIN ATOMIC CHARGES
----------------------
   0 C :   -0.076145
   1 O :   -0.768536
   2 C :    0.022009
   3 C :    0.011399
   4 O :   -0.612509
   5 H :    0.154589
   6 H :    0.176409
   7 H :    0.151105
   8 H :    0.165160
   9 H :    0.191802
  10 H :    0.158581
  11 H :    0.158663
  12 H :    0.267473

  Mayer bond orders larger than 0.100000
B(  0-C ,  1-O ) :   0.8909 B(  0-C ,  5-H ) :   0.9683 B(  0-C ,  6-H ) :   0.9739
B(  0-C ,  7-H ) :   0.9612 B(  1-O ,  2-C ) :   0.9209 B(  2-C ,  3-C ) :   0.9645
B(  2-C ,  8-H ) :   0.9650 B(  2-C ,  9-H ) :   0.9616 B(  3-C ,  4-O ) :   0.9359
B(  3-C , 10-H ) :   0.9563 B(  3-C , 11-H ) :   0.9656 B(  4-O , 12-H ) :   0.8997

Dispersion correction           -0.002466449
FINAL SINGLE POINT ENERGY      -269.487704709368

DIPOLE MOMENT
-------------

Method             : SCF
Type of density    : Electron Density
Multiplicity       :   1
Irrep              :   0
Energy             :  -269.4957236219401011 Eh
Relativity type    :
Basis              : AO
                                X                 Y                 Z
Electronic contribution:      1.788570516      -1.694333196       2.242509136
Nuclear contribution   :     -1.625079730       2.216000738      -3.142117215
                        -----------------------------------------
Total Dipole Moment    :      0.163490786       0.521667541      -0.899608080
                        -----------------------------------------
Magnitude (a.u.)       :      1.052692242
Magnitude (Debye)      :      2.675731037

Rotational constants in cm-1:             0.361042             0.093428             0.090573
Rotational constants in MHz :         10823.758093          2800.898970          2715.304852

                             ****ORCA TERMINATED NORMALLY****
TOTAL RUN TIME: 0 days 0 hours 0 minutes 15 seconds 277 msec
