                         Program Version 6.0.0  -   RELEASE  -
|  1> ! r2scan-3c def2/J RI DEFGRID2 scfconv6 printgap
|  2> %output
|  3>     printlevel normal
|  4> end
|  5> %cpcm
|  6>     smd true
|  7>     smdsolvent "water"
|  8> end
|  9> * xyz 0 1
| 10> C -1.9511131179 -0.2410185085 -0.5522756778
| 11> O -1.0694566351 -0.2279395561 0.5525534674
| 12> C -0.0535831196 0.7494685799 0.4898171859
| 13> C 1.0902700376 0.425540794 -0.4767970357
| 14> O 1.8658349794 -0.6228608419 0.0638746625
| 15> H -2.3802629447 0.753601906 -0.7161743146
| 16> H -2.7387271907 -0.9443840838 -0.2935393441
| 17> H -1.4547176534 -0.5751520553 -1.4679103074
| 18> H -0.4853264743 1.7226447562 0.2178810993
| 19> H 0.353792083 0.7962332927 1.5019141479
| 20> H 1.6991874013 1.3312912223 -0.5951149693
| 21> H 0.6841648817 0.140824425 -1.4550590718
| 22> H 2.5770968504 -0.8495404083 -0.5509521496
| 23> *
| 24>
| 25>                          ****END OF INPUT****

CARTESIAN COORDINATES (ANGSTROEM)
---------------------------------
  C     -1.951113   -0.241019   -0.552276
  O     -1.069457   -0.227940    0.552553
  C     -0.053583    0.749469    0.489817
  C      1.090270    0.425541   -0.476797
  O      1.865835   -0.622861    0.063875
  H     -2.380263    0.753602   -0.716174
  H     -2.738727   -0.944384   -0.293539
  H     -1.454718   -0.575152   -1.467910
  H     -0.485326    1.722645    0.217881
  H      0.353792    0.796233    1.501914
  H      1.699187    1.331291   -0.595115
  H      0.684165    0.140824   -1.455059
  H      2.577097   -0.849540   -0.550952

 Total Charge           Charge          ....    0
 Multiplicity           Mult            ....    1
 Number of Electrons    NEL             ....   42
 Basis Dimension        Dim             ....  145

ORBITAL ENERGIES
----------------

  NO   OCC          E(Eh)            E(eV)
   0   2.0000     -18.957640      -515.8636
   1   2.0000     -18.952117      -515.7133
   2   2.0000     -10.072202      -274.0785
   3   2.0000     -10.071267      -274.0531
   4   2.0000     -10.062761      -273.8217
   5   2.0000      -1.004059       -27.3218
   6   2.0000      -0.984526       -26.7903
   7   2.0000      -0.713674       -19.4201
   8   2.0000      -0.645058       -17.5529
   9   2.0000      -0.559318       -15.2198
  10   2.0000      -0.490210       -13.3393
  11   2.0000      -0.458712       -12.4822
  12   2.0000      -0.429997       -11.7008
  13   2.0000      -0.423962       -11.5366
  14   2.0000      -0.389724       -10.6049
  15   2.0000      -0.363899        -9.9022
  16   2.0000      -0.337005        -9.1704
  17   2.0000      -0.319852        -8.7036
  18   2.0000      -0.283033        -7.7017
  19   2.0000      -0.243636        -6.6297
  20   2.0000      -0.225500        -6.1362
  21   0.0000       0.068568         1.8658
  22   0.0000       0.085996         2.3401
  23   0.0000       0.110767         3.0141
  24   0.0000       0.127167         3.4604
  25   0.0000       0.143115         3.8944

MULLIKEN ATOMIC CHARGES
-----------------------
   0 C :   -0.306234
   1 O :   -0.307847
   2 C :   -0.166781
   3 C :   -0.129548
   4 O :   -0.505817
   5 H :    0.153590
   6 H :    0.162859
   7 H :    0.151959
   8 H :    0.149294
   9 H :    0.159038
  10 H :    0.144740
  11 H :    0.145798
  12 H :    0.348949
Sum of atomic charges:    0.0000000

LOEWDIN ATOMIC CHARGES
----------------------
   0 C :   -0.075810
   1 O :   -0.817132
   2 C :    0.019583
   3 C :    0.016418
   4 O :   -0.651659
   5 H :    0.165997
   6 H :    0.180336
   7 H :    0.161946
   8 H :    0.179239
   9 H :    0.192096
  10 H :    0.170768
  11 H :    0.171006
  12 H :    0.287213

  Mayer bond orders larger than 0.100000
B(  0-C ,  1-O ) :   0.8832 B(  0-C ,  5-H ) :   0.9627 B(  0-C ,  6-H ) :   0.9675
B(  0-C ,  7-H ) :   0.9541 B(  1-O ,  2-C ) :   0.9104 B(  2-C ,  3-C ) :   0.9517
B(  2-C ,  8-H ) :   0.9568 B(  2-C ,  9-H ) :   0.9601 B(  3-C ,  4-O ) :   0.9174
B(  3-C , 10-H ) :   0.9565 B(  3-C , 11-H ) :   0.9626 B(  4-O , 12-H ) :   0.8722

Dispersion correction           -0.002466449
FINAL SINGLE POINT ENERGY      -269.500398216913

DIPOLE MOMENT
-------------

Method             : SCF
Type of density    : Electron Density
Multiplicity       :   1
Irrep              :   0
Energy             :  -269.5084171294848829 Eh
Relativity type    :
Basis              : AO
                                X                 Y                 Z
Electronic contribution:      1.843123234      -1.391872669       1.808872339
Nuclear contribution   :     -1.625079730       2.216000738      -3.142117215
                        -----------------------------------------
Total Dipole Moment    :      0.218043504       0.824128069      -1.333244876
                        -----------------------------------------
Magnitude (a.u.)       :      1.582489160
Magnitude (Debye)      :      4.022367783

Rotational constants in cm-1:             0.361042             0.093428             0.090573
Rotational constants in MHz :         10823.758093          2800.898970          2715.304852

                             ****ORCA TERMINATED NORMALLY****
TOTAL RUN TIME: 0 days 0 hours 0 minutes 18 seconds 102 msec
