                         Program Version 6.0.0  -   RELEASE  -
|  1> ! pbe def2-sv(p) def2/J RI DEFGRID1 loosescf d4 GCP(DFT/SV(P)) printgap
|  2> %output
|  3>     printlevel normal
|  4> end
|  5> * xyz 0 1
|  6> C -2.4205488317 -0.7371048009 -0.0972865605
|  7> C -1.7479530265 0.5750571167 0.2941626944
|  8> C -0.4428438438 0.886358365 -0.4459986759
|  9> C 0.8006339571 0.0464380119 -0.05219456
| 10> C 2.0593339573 0.8918916721 -0.2783557123
| 11> C 0.9034672552 -1.2326934924 -0.8913183193
| 12> O 0.7977695748 -0.2717525961 1.3361390059
| 13> H -2.5259720609 -0.8022040602 -1.178052217
| 14> H -3.4127670106 -0.7884556437 0.3458988384
| 15> H -1.8603928243 -1.6019810689 0.2480184444
| 16> H -2.4425251251 1.3896799794 0.0751246747
| 17> H -1.5613259007 0.5932285048 1.3699329501
| 18> H -0.5995408689 0.7821205777 -1.52048499
| 19> H -0.2076247437 1.9336851871 -0.2450998243
| 20> H 2.0604051061 1.7335537725 0.4094133648
| 21> H 2.0883469081 1.2603084558 -1.299045865
| 22> H 2.9459944682 0.2936496434 -0.0857027446
| 23> H 1.7589399543 -1.8172393146 -0.5587415833
| 24> H 1.0428610953 -0.9792570014 -1.9382066022
| 25> H 0.0091769401 -1.8414494461 -0.7991979943
| 26> H 0.1450618928 -0.9654554398 1.4958698029
| 27> *
| 28>
| 29>                          ****END OF INPUT****

CARTESIAN COORDINATES (ANGSTROEM)
---------------------------------
  C     -2.420549   -0.737105   -0.097287
  C     -1.747953    0.575057    0.294163
  C     -0.442844    0.886358   -0.445999
  C      0.800634    0.046438   -0.052195
  C      2.059334    0.891892   -0.278356
  C      0.903467   -1.232693   -0.891318
  O      0.797770   -0.271753    1.336139
  H     -2.525972   -0.802204   -1.178052
  H     -3.412767   -0.788456    0.345899
  H     -1.860393   -1.601981    0.248018
  H     -2.442525    1.389680    0.075125
  H     -1.561326    0.593229    1.369933
  H     -0.599541    0.782121   -1.520485
  H     -0.207625    1.933685   -0.245100
  H      2.060405    1.733554    0.409413
  H      2.088347    1.260308   -1.299046
  H      2.945994    0.293650   -0.085703
  H      1.758940   -1.817239   -0.558742
  H      1.042861   -0.979257   -1.938207
  H      0.009177   -1.841449   -0.799198
  H      0.145062   -0.965455    1.495870

 Total Charge           Charge          ....    0
 Multiplicity           Mult            ....    1
 Number of Electrons    NEL             ....   58
 Basis Dimension        Dim             ....  126

ORBITAL ENERGIES
----------------

  NO   OCC          E(Eh)            E(eV)
   0   2.0000     -18.738464      -509.8995
   1   2.0000      -9.944783      -270.6113
   2   2.0000      -9.884554      -268.9724
   3   2.0000      -9.878722      -268.8137
   4   2.0000      -9.878063      -268.7958
   5   2.0000      -9.873607      -268.6745
   6   2.0000      -9.867326      -268.5036
   7   2.0000      -0.917008       -24.9531
   8   2.0000      -0.719568       -19.5804
   9   2.0000      -0.684951       -18.6385
  10   2.0000      -0.619105       -16.8467
  11   2.0000      -0.607515       -16.5313
  12   2.0000      -0.531070       -14.4512
  13   2.0000      -0.504558       -13.7297
  14   2.0000      -0.435446       -11.8491
  15   2.0000      -0.419037       -11.4026
  16   2.0000      -0.406619       -11.0647
  17   2.0000      -0.381392       -10.3782
  18   2.0000      -0.371557       -10.1106
  19   2.0000      -0.353532        -9.6201
  20   2.0000      -0.340900        -9.2763
  21   2.0000      -0.335357        -9.1255
  22   2.0000      -0.334969        -9.1150
  23   2.0000      -0.309674        -8.4266
  24   2.0000      -0.295277        -8.0349
  25   2.0000      -0.286392        -7.7931
  26   2.0000      -0.282844        -7.6966
  27   2.0000      -0.259805        -7.0697
  28   2.0000      -0.212344        -5.7782
  29   0.0000       0.016380         0.4457
  30   0.0000       0.054773         1.4905
  31   0.0000       0.062646         1.7047
  32   0.0000       0.076909         2.0928
  33   0.0000       0.077475         2.1082

MULLIKEN ATOMIC CHARGES
-----------------------
   0 C :   -0.289094
   1 C :   -0.199390
   2 C :   -0.097032
   3 C :   -0.048147
   4 C :   -0.213902
   5 C :   -0.246689
   6 O :   -0.419090
   7 H :    0.100743
   8 H :    0.104194
   9 H :    0.100206
  10 H :    0.085519
  11 H :    0.086914
  12 H :    0.071464
  13 H :    0.073173
  14 H :    0.105106
  15 H :    0.095030
  16 H :    0.096988
  17 H :    0.103278
  18 H :    0.095490
  19 H :    0.097618
  20 H :    0.297619
Sum of atomic charges:    0.0000000

LOEWDIN ATOMIC CHARGES
----------------------
   0 C :   -0.345719
   1 C :   -0.241360
   2 C :   -0.227078
   3 C :   -0.013776
   4 C :   -0.326059
   5 C :   -0.342606
   6 O :   -0.315860
   7 H :    0.118312
   8 H :    0.121265
   9 H :    0.106571
  10 H :    0.119655
  11 H :    0.113447
  12 H :    0.115669
  13 H :    0.118908
  14 H :    0.122271
  15 H :    0.120032
  16 H :    0.119308
  17 H :    0.120421
  18 H :    0.122701
  19 H :    0.114651
  20 H :    0.279246

  Mayer bond orders larger than 0.100000
B(  0-C ,  1-C ) :   1.1537 B(  0-C ,  7-H ) :   0.9519 B(  0-C ,  8-H ) :   0.9475
B(  0-C ,  9-H ) :   0.9414 B(  1-C ,  2-C ) :   1.1380 B(  1-C , 10-H ) :   0.9215
B(  1-C , 11-H ) :   0.9136 B(  2-C ,  3-C ) :   1.0086 B(  2-C , 12-H ) :   0.9088
B(  2-C , 13-H ) :   0.9082 B(  3-C ,  4-C ) :   1.0871 B(  3-C ,  5-C ) :   1.0990
B(  3-C ,  6-O ) :   1.0497 B(  4-C , 14-H ) :   0.9375 B(  4-C , 15-H ) :   0.9467
B(  4-C , 16-H ) :   0.9442 B(  5-C , 17-H ) :   0.9404 B(  5-C , 18-H ) :   0.9366
B(  5-C , 19-H ) :   0.9323 B(  6-O , 20-H ) :   0.8434

Dispersion correction           -0.017101337
FINAL SINGLE POINT ENERGY      -311.517931931301

DIPOLE MOMENT
-------------

Method             : SCF
Type of density    : Electron Density
Multiplicity       :   1
Irrep              :   0
Energy             :  -311.5972809874841687 Eh
Relativity type    :
Basis              : AO
                                X                 Y                 Z
Electronic contribution:      2.013919501       0.522286658       3.091825309
Nuclear contribution   :     -2.389260773      -0.763772733      -3.432869334
                        -----------------------------------------
Total Dipole Moment    :     -0.375341272      -0.241486075      -0.341044025
                        -----------------------------------------
Magnitude (a.u.)       :      0.561700651
Magnitude (Debye)      :      1.427729592

Rotational constants in cm-1:             0.131061             0.056628             0.053580
Rotational constants in MHz :          3929.099257          1697.663751          1606.292576

                             ****ORCA TERMINATED NORMALLY****
TOTAL RUN TIME: 0 days 0 hours 0 minutes 8 seconds 401 msec
