                         Program Version 6.0.0  -   RELEASE  -
|  1> ! r2scan-3c def2/J RI DEFGRID2 scfconv6 printgap
|  2> %output
|  3>     printlevel normal
|  4> end
|  5> * xyz 0 1
|  6> C -2.776157315 0.0040233411 -0.0019744987
|  7> C -1.3613763542 0.3978759627 -0.4102100108
|  8> C -0.3174398088 -0.2494678335 0.5021038018
|  9> C 1.1098056276 -0.0116614535 0.0744138486
| 10> C 1.5595474476 1.1660775794 -0.3290641568
| 11> C 2.0039218972 -1.2121292178 0.1578249789
| 12> H -3.5068622611 0.4756714512 -0.6545261581
| 13> H -2.9772482604 0.3147731817 1.020983092
| 14> H -2.9062224864 -1.0742491528 -0.063905742
| 15> H -1.1764958182 0.0868814247 -1.4407740181
| 16> H -1.2666526135 1.4836568271 -0.3700173773
| 17> H -0.4500380943 0.1324590913 1.51901853
| 18> H -0.5016812465 -1.3254716876 0.533576055
| 19> H 2.5864361227 1.3073919648 -0.6218066342
| 20> H 0.9310237015 2.0375668794 -0.385451065
| 21> H 1.9945966746 -1.6143239777 1.1700417338
| 22> H 1.6455166774 -1.9920258481 -0.5129931769
| 23> H 3.0261599496 -0.9610755079 -0.1118469849
| 24> *
| 25>
| 26>                          ****END OF INPUT****

CARTESIAN COORDINATES (ANGSTROEM)
---------------------------------
  C     -2.776157    0.004023   -0.001974
  C     -1.361376    0.397876   -0.410210
  C     -0.317440   -0.249468    0.502104
  C      1.109806   -0.011661    0.074414
  C      1.559547    1.166078   -0.329064
  C      2.003922   -1.212129    0.157825
  H     -3.506862    0.475671   -0.654526
  H     -2.977248    0.314773    1.020983
  H     -2.906222   -1.074249   -0.063906
  H     -1.176496    0.086881   -1.440774
  H     -1.266653    1.483657   -0.370017
  H     -0.450038    0.132459    1.519019
  H     -0.501681   -1.325472    0.533576
  H      2.586436    1.307392   -0.621807
  H      0.931024    2.037567   -0.385451
  H      1.994597   -1.614324    1.170042
  H      1.645517   -1.992026   -0.512993
  H      3.026160   -0.961076   -0.111847

 Total Charge           Charge          ....    0
 Multiplicity           Mult            ....    1
 Number of Electrons    NEL             ....   48
 Basis Dimension        Dim             ....  174

ORBITAL ENERGIES
----------------

  NO   OCC          E(Eh)            E(eV)
   0   2.0000     -10.036629      -273.1106
   1   2.0000     -10.027653      -272.8663
   2   2.0000     -10.025694      -272.8130
   3   2.0000     -10.022221      -272.7185
   4   2.0000     -10.016373      -272.5594
   5   2.0000     -10.006366      -272.2871
   6   2.0000      -0.785062       -21.3626
   7   2.0000      -0.732193       -19.9240
   8   2.0000      -0.652890       -17.7661
   9   2.0000      -0.643089       -17.4993
  10   2.0000      -0.560234       -15.2447
  11   2.0000      -0.488467       -13.2919
  12   2.0000      -0.438742       -11.9388
  13   2.0000      -0.427711       -11.6386
  14   2.0000      -0.401606       -10.9283
  15   2.0000      -0.388997       -10.5851
  16   2.0000      -0.372217       -10.1285
  17   2.0000      -0.350331        -9.5330
  18   2.0000      -0.341828        -9.3016
  19   2.0000      -0.330039        -8.9808
  20   2.0000      -0.306466        -8.3394
  21   2.0000      -0.302687        -8.2365
  22   2.0000      -0.284570        -7.7436
  23   2.0000      -0.220294        -5.9945
  24   0.0000      -0.005222        -0.1421
  25   0.0000       0.096954         2.6383
  26   0.0000       0.104595         2.8462
  27   0.0000       0.119967         3.2645
  28   0.0000       0.130083         3.5397

MULLIKEN ATOMIC CHARGES
-----------------------
   0 C :   -0.472259
   1 C :   -0.223871
   2 C :   -0.305123
   3 C :    0.127241
   4 C :   -0.376411
   5 C :   -0.499847
   6 H :    0.147191
   7 H :    0.140463
   8 H :    0.142120
   9 H :    0.149350
  10 H :    0.132464
  11 H :    0.163752
  12 H :    0.141349
  13 H :    0.140717
  14 H :    0.135815
  15 H :    0.154587
  16 H :    0.155558
  17 H :    0.146902
Sum of atomic charges:   -0.0000000

LOEWDIN ATOMIC CHARGES
----------------------
   0 C :   -0.425505
   1 C :   -0.304151
   2 C :   -0.291385
   3 C :   -0.129875
   4 C :   -0.332306
   5 C :   -0.396464
   6 H :    0.150986
   7 H :    0.149808
   8 H :    0.149361
   9 H :    0.156052
  10 H :    0.151630
  11 H :    0.170075
  12 H :    0.159478
  13 H :    0.156564
  14 H :    0.156793
  15 H :    0.161180
  16 H :    0.160357
  17 H :    0.157402

  Mayer bond orders larger than 0.100000
B(  0-C ,  1-C ) :   0.9044 B(  0-C ,  6-H ) :   0.9753 B(  0-C ,  7-H ) :   0.9814
B(  0-C ,  8-H ) :   0.9840 B(  1-C ,  2-C ) :   0.9247 B(  1-C ,  9-H ) :   0.9765
B(  1-C , 10-H ) :   0.9545 B(  2-C ,  3-C ) :   0.8578 B(  2-C , 11-H ) :   0.9658
B(  2-C , 12-H ) :   1.0085 B(  3-C ,  4-C ) :   1.8686 B(  3-C ,  5-C ) :   0.8873
B(  4-C , 13-H ) :   0.9713 B(  4-C , 14-H ) :   0.9878 B(  5-C , 15-H ) :   0.9728
B(  5-C , 16-H ) :   0.9705 B(  5-C , 17-H ) :   0.9902

Dispersion correction           -0.004392304
FINAL SINGLE POINT ENERGY      -235.759990725783

DIPOLE MOMENT
-------------

Method             : SCF
Type of density    : Electron Density
Multiplicity       :   1
Irrep              :   0
Energy             :  -235.7632070376133981 Eh
Relativity type    :
Basis              : AO
                                X                 Y                 Z
Electronic contribution:      2.330542842       0.875614376      -0.012325741
Nuclear contribution   :     -2.440600802      -1.058947172       0.077209180
                        -----------------------------------------
Total Dipole Moment    :     -0.110057960      -0.183332796       0.064883439
                        -----------------------------------------
Magnitude (a.u.)       :      0.223458115
Magnitude (Debye)      :      0.567985390

Rotational constants in cm-1:             0.243627             0.060694             0.051852
Rotational constants in MHz :          7303.760879          1819.555420          1554.485853

                             ****ORCA TERMINATED NORMALLY****
TOTAL RUN TIME: 0 days 0 hours 0 minutes 18 seconds 680 msec
