                         Program Version 6.0.0  -   RELEASE  -
|  1> ! r2scan-3c def2/J RI DEFGRID2 scfconv6 printgap
|  2> %output
|  3>     printlevel normal
|  4> end
|  5> * xyz 0 1
|  6> C -4.0258932578 -0.6238415521 -1.634110148
|  7> C -3.0254510256 -1.5395570427 -0.9379803608
|  8> C -2.4573261984 -1.0310261513 0.3971797978
|  9> H -1.9736352251 -1.8907482258 0.8767196748
| 10> C -3.5044162662 -0.4846222248 1.3573783301
| 11> N -1.3339744932 -0.0918610788 0.1837561367
| 12> C -0.0611343532 -0.6674672964 0.2320050569
| 13> O 0.0862007042 -1.8657086017 0.4089414576
| 14> C 1.044129979 0.2495529214 0.0682649713
| 15> C 0.8670458529 1.5780590241 -0.1404095931
| 16> N -0.4200296859 2.0185285546 -0.1999829339
| 17> C -1.5481188015 1.2412845898 -0.0719453367
| 18> O -2.6410954749 1.7616882617 -0.1888716402
| 19> C 1.9318048043 2.5939502491 -0.3223622176
| 20> Br 2.7647560537 -0.5545074822 0.1623829041
| 21> H -4.2786522877 -1.0393990469 -2.6063299166
| 22> H -4.9381712389 -0.5400428668 -1.051228028
| 23> H -3.6220609603 0.3736253487 -1.7781726562
| 24> H -3.5094458483 -2.4968101713 -0.7363113332
| 25> H -2.1809376821 -1.7392564715 -1.6033066398
| 26> H -4.2405182944 -1.2621788941 1.5380295475
| 27> H -3.0396425737 -0.2182032897 2.3039807173
| 28> H -4.0003113162 0.3910874276 0.9534163118
| 29> H -0.5983297047 3.0025614938 -0.3775757406
| 30> H 1.9155290253 2.9624581372 -1.346660783
| 31> H 2.9107977038 2.1706419309 -0.1208306873
| 32> H 1.7595754082 3.4362851578 0.3433296096
| 33> *
| 34>
| 35>                          ****END OF INPUT****

CARTESIAN COORDINATES (ANGSTROEM)
---------------------------------
  C     -4.025893   -0.623842   -1.634110
  C     -3.025451   -1.539557   -0.937980
  C     -2.457326   -1.031026    0.397180
  H     -1.973635   -1.890748    0.876720
  C     -3.504416   -0.484622    1.357378
  N     -1.333974   -0.091861    0.183756
  C     -0.061134   -0.667467    0.232005
  O      0.086201   -1.865709    0.408941
  C      1.044130    0.249553    0.068265
  C      0.867046    1.578059   -0.140410
  N     -0.420030    2.018529   -0.199983
  C     -1.548119    1.241285   -0.071945
  O     -2.641095    1.761688   -0.188872
  C      1.931805    2.593950   -0.322362
  Br     2.764756   -0.554507    0.162383
  H     -4.278652   -1.039399   -2.606330
  H     -4.938171   -0.540043   -1.051228
  H     -3.622061    0.373625   -1.778173
  H     -3.509446   -2.496810   -0.736311
  H     -2.180938   -1.739256   -1.603307
  H     -4.240518   -1.262179    1.538030
  H     -3.039643   -0.218203    2.303981
  H     -4.000311    0.391087    0.953416
  H     -0.598330    3.002561   -0.377576
  H      1.915529    2.962458   -1.346661
  H      2.910798    2.170642   -0.120831
  H      1.759575    3.436285    0.343330

 Total Charge           Charge          ....    0
 Multiplicity           Mult            ....    1
 Number of Electrons    NEL             ....  132
 Basis Dimension        Dim             ....  368

ORBITAL ENERGIES
----------------

  NO   OCC          E(Eh)            E(eV)
   0   2.0000    -482.235373    -13122.2916
   1   2.0000     -62.306557     -1695.4476
   2   2.0000     -56.087167     -1526.2094
   3   2.0000     -56.084327     -1526.1321
   4   2.0000     -56.084161     -1526.1276
   5   2.0000     -18.932783      -515.1872
   6   2.0000     -18.928546      -515.0719
   7   2.0000     -14.239004      -387.4630
   8   2.0000     -14.228958      -387.1896
   9   2.0000     -10.184292      -277.1287
  10   2.0000     -10.151890      -276.2470
  11   2.0000     -10.130621      -275.6682
  12   2.0000     -10.101250      -274.8690
  13   2.0000     -10.078001      -274.2364
  14   2.0000     -10.069177      -273.9962
  15   2.0000     -10.030280      -272.9378
  16   2.0000     -10.018418      -272.6150
  17   2.0000     -10.009518      -272.3728
  18   2.0000      -8.638388      -235.0625
  19   2.0000      -6.446662      -175.4226
  20   2.0000      -6.432048      -175.0249
  21   2.0000      -6.431361      -175.0062
  22   2.0000      -2.544047       -69.2270
  23   2.0000      -2.540459       -69.1294
  24   2.0000      -2.539971       -69.1161
  25   2.0000      -2.529103       -68.8204
  26   2.0000      -2.529087       -68.8200
  27   2.0000      -1.054806       -28.7027
  28   2.0000      -1.016612       -27.6634
  29   2.0000      -0.958761       -26.0892
  30   2.0000      -0.918451       -24.9923
  31   2.0000      -0.814069       -22.1520
  32   2.0000      -0.774627       -21.0787
  33   2.0000      -0.750162       -20.4129
  34   2.0000      -0.707987       -19.2653
  35   2.0000      -0.691522       -18.8173
  36   2.0000      -0.651052       -17.7160
  37   2.0000      -0.629022       -17.1166
  38   2.0000      -0.608214       -16.5504
  39   2.0000      -0.560133       -15.2420
  40   2.0000      -0.552269       -15.0280
  41   2.0000      -0.514630       -14.0038
  42   2.0000      -0.475186       -12.9305
  43   2.0000      -0.454164       -12.3584
  44   2.0000      -0.439624       -11.9628
  45   2.0000      -0.436685       -11.8828
  46   2.0000      -0.425157       -11.5691
  47   2.0000      -0.413610       -11.2549
  48   2.0000      -0.407368       -11.0850
  49   2.0000      -0.400820       -10.9069
  50   2.0000      -0.390482       -10.6256
  51   2.0000      -0.387583       -10.5467
  52   2.0000      -0.384221       -10.4552
  53   2.0000      -0.364371        -9.9150
  54   2.0000      -0.357788        -9.7359
  55   2.0000      -0.349843        -9.5197
  56   2.0000      -0.335662        -9.1338
  57   2.0000      -0.314918        -8.5694
  58   2.0000      -0.303751        -8.2655
  59   2.0000      -0.302395        -8.2286
  60   2.0000      -0.291438        -7.9304
  61   2.0000      -0.270046        -7.3483
  62   2.0000      -0.258588        -7.0365
  63   2.0000      -0.250139        -6.8066
  64   2.0000      -0.235256        -6.4016
  65   2.0000      -0.218997        -5.9592
  66   0.0000      -0.074481        -2.0267
  67   0.0000      -0.034112        -0.9282
  68   0.0000      -0.025871        -0.7040
  69   0.0000       0.038824         1.0565
  70   0.0000       0.060742         1.6529

MULLIKEN ATOMIC CHARGES
-----------------------
   0 C :   -0.480428
   1 C :   -0.331815
   2 C :   -0.022875
   3 H :    0.212494
   4 C :   -0.535595
   5 N :    0.151440
   6 C :    0.212876
   7 O :   -0.432614
   8 C :   -0.145705
   9 C :    0.214252
  10 N :   -0.025724
  11 C :    0.218553
  12 O :   -0.460685
  13 C :   -0.604037
  14 Br:   -0.080678
  15 H :    0.143237
  16 H :    0.149513
  17 H :    0.178914
  18 H :    0.151259
  19 H :    0.153821
  20 H :    0.155829
  21 H :    0.151125
  22 H :    0.205171
  23 H :    0.280551
  24 H :    0.184114
  25 H :    0.187638
  26 H :    0.169370
Sum of atomic charges:    0.0000000

LOEWDIN ATOMIC CHARGES
----------------------
   0 C :   -0.416095
   1 C :   -0.264604
   2 C :    0.043361
   3 H :    0.225354
   4 C :   -0.367578
   5 N :   -0.617879
   6 C :    0.355144
   7 O :   -0.475015
   8 C :   -0.194712
   9 C :    0.156010
  10 N :   -0.519140
  11 C :    0.461017
  12 O :   -0.432128
  13 C :   -0.350869
  14 Br:    0.257159
  15 H :    0.149114
  16 H :    0.153537
  17 H :    0.172227
  18 H :    0.160812
  19 H :    0.166970
  20 H :    0.160136
  21 H :    0.160610
  22 H :    0.184619
  23 H :    0.299309
  24 H :    0.178604
  25 H :    0.180459
  26 H :    0.173577

  Mayer bond orders larger than 0.100000
B(  0-C ,  1-C ) :   0.9002 B(  0-C , 15-H ) :   0.9703 B(  0-C , 16-H ) :   0.9735
B(  0-C , 17-H ) :   0.9725 B(  1-C ,  2-C ) :   0.8575 B(  1-C , 18-H ) :   0.9736
B(  1-C , 19-H ) :   0.9893 B(  2-C ,  3-H ) :   0.9585 B(  2-C ,  4-C ) :   0.8408
B(  2-C ,  5-N ) :   0.8516 B(  4-C , 20-H ) :   0.9698 B(  4-C , 21-H ) :   0.9730
B(  4-C , 22-H ) :   0.9678 B(  5-N ,  6-C ) :   1.0854 B(  5-N , 11-C ) :   1.1603
B(  6-C ,  7-O ) :   1.9073 B(  6-C ,  8-C ) :   0.9806 B(  6-C , 14-Br) :  -0.1170
B(  8-C ,  9-C ) :   1.4789 B(  8-C , 14-Br) :   1.2060 B(  9-C , 10-N ) :   1.1522
B(  9-C , 13-C ) :   0.8464 B( 10-N , 11-C ) :   1.0343 B( 10-N , 23-H ) :   0.9049
B( 11-C , 12-O ) :   1.8850 B( 13-C , 24-H ) :   0.9593 B( 13-C , 25-H ) :   0.9553
B( 13-C , 26-H ) :   0.9741

Dispersion correction           -0.011425418
FINAL SINGLE POINT ENERGY     -3184.781399337450

DIPOLE MOMENT
-------------

Method             : SCF
Type of density    : Electron Density
Multiplicity       :   1
Irrep              :   0
Energy             : -3184.7916843440843877 Eh
Relativity type    :
Basis              : AO
                                X                 Y                 Z
Electronic contribution:     50.256273113      -6.606027425       4.675689905
Nuclear contribution   :    -49.919081335       8.112914844      -4.886617806
                        -----------------------------------------
Total Dipole Moment    :      0.337191779       1.506887419      -0.210927901
                        -----------------------------------------
Magnitude (a.u.)       :      1.558492402
Magnitude (Debye)      :      3.961372871

Rotational constants in cm-1:             0.032598             0.010499             0.008701
Rotational constants in MHz :           977.251531           314.750485           260.851279

                             ****ORCA TERMINATED NORMALLY****
TOTAL RUN TIME: 0 days 0 hours 1 minutes 23 seconds 762 msec
