                         Program Version 6.0.0  -   RELEASE  -
|  1> ! r2scan-3c def2/J RI DEFGRID2 scfconv6 printgap
|  2> %output
|  3>     printlevel normal
|  4> end
|  5> %cpcm
|  6>     smd true
|  7>     smdsolvent "water"
|  8> end
|  9> * xyz 0 1
| 10> C -4.0258932578 -0.6238415521 -1.634110148
| 11> C -3.0254510256 -1.5395570427 -0.9379803608
| 12> C -2.4573261984 -1.0310261513 0.3971797978
| 13> H -1.9736352251 -1.8907482258 0.8767196748
| 14> C -3.5044162662 -0.4846222248 1.3573783301
| 15> N -1.3339744932 -0.0918610788 0.1837561367
| 16> C -0.0611343532 -0.6674672964 0.2320050569
| 17> O 0.0862007042 -1.8657086017 0.4089414576
| 18> C 1.044129979 0.2495529214 0.0682649713
| 19> C 0.8670458529 1.5780590241 -0.1404095931
| 20> N -0.4200296859 2.0185285546 -0.1999829339
| 21> C -1.5481188015 1.2412845898 -0.0719453367
| 22> O -2.6410954749 1.7616882617 -0.1888716402
| 23> C 1.9318048043 2.5939502491 -0.3223622176
| 24> Br 2.7647560537 -0.5545074822 0.1623829041
| 25> H -4.2786522877 -1.0393990469 -2.6063299166
| 26> H -4.9381712389 -0.5400428668 -1.051228028
| 27> H -3.6220609603 0.3736253487 -1.7781726562
| 28> H -3.5094458483 -2.4968101713 -0.7363113332
| 29> H -2.1809376821 -1.7392564715 -1.6033066398
| 30> H -4.2405182944 -1.2621788941 1.5380295475
| 31> H -3.0396425737 -0.2182032897 2.3039807173
| 32> H -4.0003113162 0.3910874276 0.9534163118
| 33> H -0.5983297047 3.0025614938 -0.3775757406
| 34> H 1.9155290253 2.9624581372 -1.346660783
| 35> H 2.9107977038 2.1706419309 -0.1208306873
| 36> H 1.7595754082 3.4362851578 0.3433296096
| 37> *
| 38>
| 39>                          ****END OF INPUT****

CARTESIAN COORDINATES (ANGSTROEM)
---------------------------------
  C     -4.025893   -0.623842   -1.634110
  C     -3.025451   -1.539557   -0.937980
  C     -2.457326   -1.031026    0.397180
  H     -1.973635   -1.890748    0.876720
  C     -3.504416   -0.484622    1.357378
  N     -1.333974   -0.091861    0.183756
  C     -0.061134   -0.667467    0.232005
  O      0.086201   -1.865709    0.408941
  C      1.044130    0.249553    0.068265
  C      0.867046    1.578059   -0.140410
  N     -0.420030    2.018529   -0.199983
  C     -1.548119    1.241285   -0.071945
  O     -2.641095    1.761688   -0.188872
  C      1.931805    2.593950   -0.322362
  Br     2.764756   -0.554507    0.162383
  H     -4.278652   -1.039399   -2.606330
  H     -4.938171   -0.540043   -1.051228
  H     -3.622061    0.373625   -1.778173
  H     -3.509446   -2.496810   -0.736311
  H     -2.180938   -1.739256   -1.603307
  H     -4.240518   -1.262179    1.538030
  H     -3.039643   -0.218203    2.303981
  H     -4.000311    0.391087    0.953416
  H     -0.598330    3.002561   -0.377576
  H      1.915529    2.962458   -1.346661
  H      2.910798    2.170642   -0.120831
  H      1.759575    3.436285    0.343330

 Total Charge           Charge          ....    0
 Multiplicity           Mult            ....    1
 Number of Electrons    NEL             ....  132
 Basis Dimension        Dim             ....  368

ORBITAL ENERGIES
----------------

  NO   OCC          E(Eh)            E(eV)
   0   2.0000    -482.234649    -13122.2719
   1   2.0000     -62.305891     -1695.4295
   2   2.0000     -56.086456     -1526.1901
   3   2.0000     -56.083674     -1526.1144
   4   2.0000     -56.083521     -1526.1102
   5   2.0000     -18.936143      -515.2786
   6   2.0000     -18.935628      -515.2646
   7   2.0000     -14.228095      -387.1662
   8   2.0000     -14.225807      -387.1039
   9   2.0000     -10.183845      -277.1165
  10   2.0000     -10.155892      -276.3559
  11   2.0000     -10.121255      -275.4133
  12   2.0000     -10.094404      -274.6827
  13   2.0000     -10.074539      -274.1421
  14   2.0000     -10.040409      -273.2134
  15   2.0000     -10.025087      -272.7965
  16   2.0000     -10.013041      -272.4687
  17   2.0000     -10.006988      -272.3040
  18   2.0000      -8.637783      -235.0460
  19   2.0000      -6.445830      -175.4000
  20   2.0000      -6.431555      -175.0115
  21   2.0000      -6.430884      -174.9932
  22   2.0000      -2.543287       -69.2064
  23   2.0000      -2.539776       -69.1108
  24   2.0000      -2.539300       -69.0979
  25   2.0000      -2.528678       -68.8088
  26   2.0000      -2.528662       -68.8084
  27   2.0000      -1.054484       -28.6940
  28   2.0000      -1.023495       -27.8507
  29   2.0000      -0.951761       -25.8987
  30   2.0000      -0.915526       -24.9127
  31   2.0000      -0.807791       -21.9811
  32   2.0000      -0.767839       -20.8940
  33   2.0000      -0.738815       -20.1042
  34   2.0000      -0.701205       -19.0808
  35   2.0000      -0.683714       -18.6048
  36   2.0000      -0.646105       -17.5814
  37   2.0000      -0.619822       -16.8662
  38   2.0000      -0.602163       -16.3857
  39   2.0000      -0.554301       -15.0833
  40   2.0000      -0.545445       -14.8423
  41   2.0000      -0.503187       -13.6924
  42   2.0000      -0.468542       -12.7497
  43   2.0000      -0.448281       -12.1984
  44   2.0000      -0.440386       -11.9835
  45   2.0000      -0.428093       -11.6490
  46   2.0000      -0.416276       -11.3274
  47   2.0000      -0.410064       -11.1584
  48   2.0000      -0.397143       -10.8068
  49   2.0000      -0.394025       -10.7220
  50   2.0000      -0.390118       -10.6156
  51   2.0000      -0.382953       -10.4207
  52   2.0000      -0.372126       -10.1261
  53   2.0000      -0.360872        -9.8198
  54   2.0000      -0.353669        -9.6238
  55   2.0000      -0.345696        -9.4069
  56   2.0000      -0.325809        -8.8657
  57   2.0000      -0.313035        -8.5181
  58   2.0000      -0.301084        -8.1929
  59   2.0000      -0.299232        -8.1425
  60   2.0000      -0.290693        -7.9101
  61   2.0000      -0.270448        -7.3593
  62   2.0000      -0.262070        -7.1313
  63   2.0000      -0.252342        -6.8666
  64   2.0000      -0.243761        -6.6331
  65   2.0000      -0.215120        -5.8537
  66   0.0000      -0.067100        -1.8259
  67   0.0000      -0.030557        -0.8315
  68   0.0000      -0.025294        -0.6883
  69   0.0000       0.056763         1.5446
  70   0.0000       0.077326         2.1041

MULLIKEN ATOMIC CHARGES
-----------------------
   0 C :   -0.534216
   1 C :   -0.322782
   2 C :   -0.017104
   3 H :    0.212419
   4 C :   -0.569140
   5 N :    0.177188
   6 C :    0.202282
   7 O :   -0.508302
   8 C :   -0.148252
   9 C :    0.241321
  10 N :   -0.027254
  11 C :    0.245029
  12 O :   -0.526512
  13 C :   -0.615326
  14 Br:   -0.111728
  15 H :    0.157453
  16 H :    0.165537
  17 H :    0.175228
  18 H :    0.168840
  19 H :    0.161008
  20 H :    0.176235
  21 H :    0.171243
  22 H :    0.191879
  23 H :    0.336506
  24 H :    0.214450
  25 H :    0.181321
  26 H :    0.202678
Sum of atomic charges:    0.0000000

LOEWDIN ATOMIC CHARGES
----------------------
   0 C :   -0.423547
   1 C :   -0.265484
   2 C :    0.045375
   3 H :    0.224704
   4 C :   -0.370578
   5 N :   -0.606034
   6 C :    0.357300
   7 O :   -0.542002
   8 C :   -0.205331
   9 C :    0.182667
  10 N :   -0.480465
  11 C :    0.468197
  12 O :   -0.480655
  13 C :   -0.344636
  14 Br:    0.236687
  15 H :    0.153582
  16 H :    0.156277
  17 H :    0.168229
  18 H :    0.166567
  19 H :    0.168735
  20 H :    0.167216
  21 H :    0.165939
  22 H :    0.178854
  23 H :    0.317555
  24 H :    0.193973
  25 H :    0.176432
  26 H :    0.190442

  Mayer bond orders larger than 0.100000
B(  0-C ,  1-C ) :   0.8832 B(  0-C , 15-H ) :   0.9665 B(  0-C , 16-H ) :   0.9734
B(  0-C , 17-H ) :   0.9758 B(  1-C ,  2-C ) :   0.8568 B(  1-C , 18-H ) :   0.9715
B(  1-C , 19-H ) :   0.9865 B(  2-C ,  3-H ) :   0.9563 B(  2-C ,  4-C ) :   0.8382
B(  2-C ,  5-N ) :   0.8404 B(  4-C , 20-H ) :   0.9651 B(  4-C , 21-H ) :   0.9719
B(  4-C , 22-H ) :   0.9693 B(  5-N ,  6-C ) :   1.0938 B(  5-N , 11-C ) :   1.1700
B(  6-C ,  7-O ) :   1.8658 B(  6-C ,  8-C ) :   0.9958 B(  8-C ,  9-C ) :   1.4515
B(  8-C , 14-Br) :   1.1309 B(  9-C , 10-N ) :   1.1622 B(  9-C , 13-C ) :   0.8579
B( 10-N , 11-C ) :   1.0557 B( 10-N , 23-H ) :   0.8805 B( 11-C , 12-O ) :   1.8281
B( 13-C , 24-H ) :   0.9393 B( 13-C , 25-H ) :   0.9659 B( 13-C , 26-H ) :   0.9543

Dispersion correction           -0.011425418
FINAL SINGLE POINT ENERGY     -3184.797511722842

DIPOLE MOMENT
-------------

Method             : SCF
Type of density    : Electron Density
Multiplicity       :   1
Irrep              :   0
Energy             : -3184.8077967294761947 Eh
Relativity type    :
Basis              : AO
                                X                 Y                 Z
Electronic contribution:     50.402228672      -5.834072973       4.563228847
Nuclear contribution   :    -49.919081335       8.112914844      -4.886617806
                        -----------------------------------------
Total Dipole Moment    :      0.483147338       2.278841870      -0.323388959
                        -----------------------------------------
Magnitude (a.u.)       :      2.351835887
Magnitude (Debye)      :      5.977891754

Rotational constants in cm-1:             0.032598             0.010499             0.008701
Rotational constants in MHz :           977.251531           314.750485           260.851279

                             ****ORCA TERMINATED NORMALLY****
TOTAL RUN TIME: 0 days 0 hours 1 minutes 43 seconds 375 msec
