                         Program Version 6.0.0  -   RELEASE  -
|  1> ! pbe def2-sv(p) def2/J RI DEFGRID1 loosescf d4 GCP(DFT/SV(P)) printgap
|  2> %output
|  3>     printlevel normal
|  4> end
|  5> * xyz 0 1
|  6> C -2.7473519572 -0.0060691479 0.0160054251
|  7> C -1.3152883194 -0.0703743394 -0.5003073648
|  8> C -0.2989493255 0.140314536 0.628679094
|  9> C 1.1142296862 0.1015804378 0.1142144718
| 10> C 1.7804930461 1.2074896692 -0.1777765537
| 11> C 1.7075490999 -1.2625929387 -0.0620144102
| 12> H -2.9460009197 0.9623794301 0.4696824757
| 13> H -2.9173143588 -0.7762418835 0.7651476578
| 14> H -3.4528255139 -0.1557070606 -0.7977395588
| 15> H -1.1440615794 -1.0406762197 -0.9703405484
| 16> H -1.1635536672 0.6982616284 -1.2612971347
| 17> H -0.4934741818 1.1069056097 1.0973330682
| 18> H -0.4386591207 -0.6388275001 1.3811131552
| 19> H 2.7854963765 1.1836975223 -0.5645473667
| 20> H 1.348241129 2.1845706028 -0.0404689635
| 21> H 1.0731611482 -1.8723086262 -0.7029164866
| 22> H 2.6987960596 -1.2042529462 -0.5029268167
| 23> H 1.7820189499 -1.762804461 0.9029157186
| 24> *
| 25>
| 26>                          ****END OF INPUT****

CARTESIAN COORDINATES (ANGSTROEM)
---------------------------------
  C     -2.747352   -0.006069    0.016005
  C     -1.315288   -0.070374   -0.500307
  C     -0.298949    0.140315    0.628679
  C      1.114230    0.101580    0.114214
  C      1.780493    1.207490   -0.177777
  C      1.707549   -1.262593   -0.062014
  H     -2.946001    0.962379    0.469682
  H     -2.917314   -0.776242    0.765148
  H     -3.452826   -0.155707   -0.797740
  H     -1.144062   -1.040676   -0.970341
  H     -1.163554    0.698262   -1.261297
  H     -0.493474    1.106906    1.097333
  H     -0.438659   -0.638828    1.381113
  H      2.785496    1.183698   -0.564547
  H      1.348241    2.184571   -0.040469
  H      1.073161   -1.872309   -0.702916
  H      2.698796   -1.204253   -0.502927
  H      1.782019   -1.762804    0.902916

 Total Charge           Charge          ....    0
 Multiplicity           Mult            ....    1
 Number of Electrons    NEL             ....   48
 Basis Dimension        Dim             ....  108

ORBITAL ENERGIES
----------------

  NO   OCC          E(Eh)            E(eV)
   0   2.0000      -9.895936      -269.2821
   1   2.0000      -9.886125      -269.0151
   2   2.0000      -9.884215      -268.9632
   3   2.0000      -9.878146      -268.7980
   4   2.0000      -9.873833      -268.6807
   5   2.0000      -9.863146      -268.3899
   6   2.0000      -0.737645       -20.0723
   7   2.0000      -0.686596       -18.6832
   8   2.0000      -0.613884       -16.7046
   9   2.0000      -0.601752       -16.3745
  10   2.0000      -0.525956       -14.3120
  11   2.0000      -0.463614       -12.6156
  12   2.0000      -0.423055       -11.5119
  13   2.0000      -0.408677       -11.1207
  14   2.0000      -0.380420       -10.3517
  15   2.0000      -0.378163       -10.2903
  16   2.0000      -0.360448        -9.8083
  17   2.0000      -0.337661        -9.1882
  18   2.0000      -0.324385        -8.8270
  19   2.0000      -0.315398        -8.5824
  20   2.0000      -0.300513        -8.1774
  21   2.0000      -0.287098        -7.8123
  22   2.0000      -0.279851        -7.6151
  23   2.0000      -0.211868        -5.7652
  24   0.0000      -0.007738        -0.2106
  25   0.0000       0.036534         0.9941
  26   0.0000       0.061443         1.6719
  27   0.0000       0.071775         1.9531
  28   0.0000       0.084708         2.3050

MULLIKEN ATOMIC CHARGES
-----------------------
   0 C :   -0.252913
   1 C :   -0.208203
   2 C :   -0.125382
   3 C :   -0.074110
   4 C :   -0.225990
   5 C :   -0.218375
   6 H :    0.097615
   7 H :    0.096387
   8 H :    0.103796
   9 H :    0.088805
  10 H :    0.089821
  11 H :    0.079276
  12 H :    0.075857
  13 H :    0.079473
  14 H :    0.079741
  15 H :    0.109074
  16 H :    0.097076
  17 H :    0.108051
Sum of atomic charges:    0.0000000

LOEWDIN ATOMIC CHARGES
----------------------
   0 C :   -0.340279
   1 C :   -0.227899
   2 C :   -0.211494
   3 C :   -0.057773
   4 C :   -0.270596
   5 C :   -0.323367
   6 H :    0.117057
   7 H :    0.116684
   8 H :    0.119619
   9 H :    0.113720
  10 H :    0.117717
  11 H :    0.120016
  12 H :    0.117035
  13 H :    0.115731
  14 H :    0.115498
  15 H :    0.125791
  16 H :    0.123658
  17 H :    0.128881

  Mayer bond orders larger than 0.100000
B(  0-C ,  1-C ) :   1.1506 B(  0-C ,  6-H ) :   0.9540 B(  0-C ,  7-H ) :   0.9536
B(  0-C ,  8-H ) :   0.9523 B(  1-C ,  2-C ) :   1.1234 B(  1-C ,  9-H ) :   0.9242
B(  1-C , 10-H ) :   0.9282 B(  2-C ,  3-C ) :   1.0655 B(  2-C , 11-H ) :   0.9072
B(  2-C , 12-H ) :   0.9073 B(  3-C ,  4-C ) :   2.0417 B(  3-C ,  5-C ) :   1.1183
B(  4-C , 13-H ) :   0.9071 B(  4-C , 14-H ) :   0.9115 B(  5-C , 15-H ) :   0.9312
B(  5-C , 16-H ) :   0.9411 B(  5-C , 17-H ) :   0.9287

Dispersion correction           -0.013157898
FINAL SINGLE POINT ENERGY      -235.244837772847

DIPOLE MOMENT
-------------

Method             : SCF
Type of density    : Electron Density
Multiplicity       :   1
Irrep              :   0
Energy             :  -235.3026681004528768 Eh
Relativity type    :
Basis              : AO
                                X                 Y                 Z
Electronic contribution:      2.554929462       1.053321001       0.220261751
Nuclear contribution   :     -2.690816412      -1.233688060      -0.210190550
                        -----------------------------------------
Total Dipole Moment    :     -0.135886950      -0.180367059       0.010071200
                        -----------------------------------------
Magnitude (a.u.)       :      0.226050809
Magnitude (Debye)      :      0.574575494

Rotational constants in cm-1:             0.229027             0.062039             0.054280
Rotational constants in MHz :          6866.045236          1859.893672          1627.262156

                             ****ORCA TERMINATED NORMALLY****
TOTAL RUN TIME: 0 days 0 hours 0 minutes 7 seconds 863 msec
