                         Program Version 6.0.0  -   RELEASE  -
|  1> ! pbe def2-sv(p) def2/J RI DEFGRID1 loosescf d4 GCP(DFT/SV(P)) printgap
|  2> %output
|  3>     printlevel normal
|  4> end
|  5> * xyz 0 1
|  6> C 3.1392292987 0.3158138023 1.0335020046
|  7> C 1.930663978 -0.3576759667 0.4471722351
|  8> C 1.4388329188 -1.4561367868 0.9964758947
|  9> C 1.3866856159 0.3082260304 -0.7972907309
| 10> H 2.2540559627 0.5442704774 -1.4250136793
| 11> C 0.4329186844 -0.5370431607 -1.649297179
| 12> C -0.9787632348 -0.7104323523 -1.0702047573
| 13> C -1.3557413356 0.3124627137 -0.04017283
| 14> C -0.6015434191 1.3876237022 0.2326827984
| 15> C 0.6922304143 1.6376102928 -0.4475594088
| 16> C -2.5960973983 0.0967747867 0.6790227291
| 17> O -3.3447137081 -0.8536116415 0.5338129278
| 18> H 3.9115712397 0.4370327841 0.2758373007
| 19> H 2.8881153739 1.3040476857 1.4144033
| 20> H 3.544345066 -0.2696806409 1.853955648
| 21> H 0.5850998056 -1.9815348964 0.6132344937
| 22> H 1.8861113579 -1.8838338101 1.8789999773
| 23> H 0.3504204695 -0.0441089221 -2.6195959415
| 24> H 0.8777148481 -1.5178662482 -1.8194198273
| 25> H -1.7148224303 -0.6577958799 -1.8777170742
| 26> H -1.1133152488 -1.6974081942 -0.6199256529
| 27> H -0.9317592037 2.0999087454 0.9758642103
| 28> H 0.4983169848 2.184361641 -1.3751446161
| 29> H 1.3318795027 2.2661280292 0.1705026093
| 30> H -2.8447119363 0.882942075 1.4171175098
| 31> *
| 32>
| 33>                          ****END OF INPUT****

CARTESIAN COORDINATES (ANGSTROEM)
---------------------------------
  C      3.139229    0.315814    1.033502
  C      1.930664   -0.357676    0.447172
  C      1.438833   -1.456137    0.996476
  C      1.386686    0.308226   -0.797291
  H      2.254056    0.544270   -1.425014
  C      0.432919   -0.537043   -1.649297
  C     -0.978763   -0.710432   -1.070205
  C     -1.355741    0.312463   -0.040173
  C     -0.601543    1.387624    0.232683
  C      0.692230    1.637610   -0.447559
  C     -2.596097    0.096775    0.679023
  O     -3.344714   -0.853612    0.533813
  H      3.911571    0.437033    0.275837
  H      2.888115    1.304048    1.414403
  H      3.544345   -0.269681    1.853956
  H      0.585100   -1.981535    0.613234
  H      1.886111   -1.883834    1.879000
  H      0.350420   -0.044109   -2.619596
  H      0.877715   -1.517866   -1.819420
  H     -1.714822   -0.657796   -1.877717
  H     -1.113315   -1.697408   -0.619926
  H     -0.931759    2.099909    0.975864
  H      0.498317    2.184362   -1.375145
  H      1.331880    2.266128    0.170503
  H     -2.844712    0.882942    1.417118

 Total Charge           Charge          ....    0
 Multiplicity           Mult            ....    1
 Number of Electrons    NEL             ....   82
 Basis Dimension        Dim             ....  182

ORBITAL ENERGIES
----------------

  NO   OCC          E(Eh)            E(eV)
   0   2.0000     -18.736832      -509.8551
   1   2.0000      -9.959583      -271.0140
   2   2.0000      -9.913922      -269.7715
   3   2.0000      -9.910599      -269.6811
   4   2.0000      -9.906966      -269.5823
   5   2.0000      -9.905493      -269.5422
   6   2.0000      -9.903417      -269.4857
   7   2.0000      -9.894719      -269.2490
   8   2.0000      -9.894036      -269.2304
   9   2.0000      -9.885314      -268.9931
  10   2.0000      -9.874947      -268.7110
  11   2.0000      -0.928690       -25.2709
  12   2.0000      -0.782683       -21.2979
  13   2.0000      -0.729125       -19.8405
  14   2.0000      -0.683724       -18.6051
  15   2.0000      -0.680500       -18.5174
  16   2.0000      -0.616474       -16.7751
  17   2.0000      -0.591688       -16.1007
  18   2.0000      -0.561066       -15.2674
  19   2.0000      -0.525871       -14.3097
  20   2.0000      -0.486816       -13.2469
  21   2.0000      -0.452235       -12.3059
  22   2.0000      -0.444967       -12.1082
  23   2.0000      -0.434055       -11.8112
  24   2.0000      -0.406405       -11.0588
  25   2.0000      -0.398494       -10.8436
  26   2.0000      -0.391093       -10.6422
  27   2.0000      -0.381659       -10.3855
  28   2.0000      -0.362953        -9.8764
  29   2.0000      -0.360825        -9.8185
  30   2.0000      -0.356320        -9.6960
  31   2.0000      -0.350504        -9.5377
  32   2.0000      -0.346936        -9.4406
  33   2.0000      -0.326028        -8.8717
  34   2.0000      -0.323553        -8.8043
  35   2.0000      -0.293070        -7.9748
  36   2.0000      -0.285668        -7.7734
  37   2.0000      -0.280733        -7.6391
  38   2.0000      -0.235198        -6.4001
  39   2.0000      -0.223086        -6.0705
  40   2.0000      -0.197229        -5.3669
  41   0.0000      -0.085457        -2.3254
  42   0.0000      -0.017934        -0.4880
  43   0.0000       0.018765         0.5106
  44   0.0000       0.024947         0.6788
  45   0.0000       0.049408         1.3445

MULLIKEN ATOMIC CHARGES
-----------------------
   0 C :   -0.226008
   1 C :   -0.040161
   2 C :   -0.231451
   3 C :   -0.146122
   4 H :    0.070337
   5 C :   -0.094687
   6 C :   -0.124941
   7 C :   -0.012787
   8 C :   -0.185449
   9 C :   -0.054063
  10 C :    0.032277
  11 O :   -0.173776
  12 H :    0.105690
  13 H :    0.112767
  14 H :    0.100812
  15 H :    0.089757
  16 H :    0.083065
  17 H :    0.078382
  18 H :    0.094609
  19 H :    0.105019
  20 H :    0.116061
  21 H :    0.066615
  22 H :    0.110177
  23 H :    0.093528
  24 H :    0.030348
Sum of atomic charges:    0.0000000

LOEWDIN ATOMIC CHARGES
----------------------
   0 C :   -0.322568
   1 C :   -0.053223
   2 C :   -0.260896
   3 C :   -0.127459
   4 H :    0.124504
   5 C :   -0.212506
   6 C :   -0.214165
   7 C :   -0.098603
   8 C :   -0.086074
   9 C :   -0.208961
  10 C :   -0.004508
  11 O :   -0.136972
  12 H :    0.126533
  13 H :    0.125810
  14 H :    0.125871
  15 H :    0.120623
  16 H :    0.119492
  17 H :    0.120796
  18 H :    0.125313
  19 H :    0.139116
  20 H :    0.131495
  21 H :    0.124744
  22 H :    0.139564
  23 H :    0.124969
  24 H :    0.077106

  Mayer bond orders larger than 0.100000
B(  0-C ,  1-C ) :   1.1102 B(  0-C , 12-H ) :   0.9316 B(  0-C , 13-H ) :   0.9281
B(  0-C , 14-H ) :   0.9393 B(  1-C ,  2-C ) :   2.0644 B(  1-C ,  3-C ) :   1.0129
B(  2-C , 15-H ) :   0.8917 B(  2-C , 16-H ) :   0.8988 B(  3-C ,  4-H ) :   0.8729
B(  3-C ,  5-C ) :   1.1072 B(  3-C ,  9-C ) :   1.0560 B(  5-C ,  6-C ) :   1.1133
B(  5-C , 17-H ) :   0.9085 B(  5-C , 18-H ) :   0.9142 B(  6-C ,  7-C ) :   1.0852
B(  6-C , 19-H ) :   0.8880 B(  6-C , 20-H ) :   0.8829 B(  7-C ,  8-C ) :   1.7602
B(  7-C , 10-C ) :   1.0230 B(  8-C ,  9-C ) :   1.0551 B(  8-C , 21-H ) :   0.9257
B(  9-C , 22-H ) :   0.8813 B(  9-C , 23-H ) :   0.9052 B( 10-C , 11-O ) :   2.1148
B( 10-C , 24-H ) :   0.9213

Dispersion correction           -0.027743416
FINAL SINGLE POINT ENERGY      -463.624671340192

DIPOLE MOMENT
-------------

Method             : SCF
Type of density    : Electron Density
Multiplicity       :   1
Irrep              :   0
Energy             :  -463.6996305687841868 Eh
Relativity type    :
Basis              : AO
                                X                 Y                 Z
Electronic contribution:     -9.591539767      -0.684290548       0.773531047
Nuclear contribution   :     10.760943350       1.550767350      -1.058691042
                        -----------------------------------------
Total Dipole Moment    :      1.169403583       0.866476802      -0.285159995
                        -----------------------------------------
Magnitude (a.u.)       :      1.483105866
Magnitude (Debye)      :      3.769755524

Rotational constants in cm-1:             0.064777             0.024053             0.023345
Rotational constants in MHz :          1941.965349           721.092894           699.879836

                             ****ORCA TERMINATED NORMALLY****
TOTAL RUN TIME: 0 days 0 hours 0 minutes 16 seconds 168 msec
