                         Program Version 6.0.0  -   RELEASE  -
|  1> ! r2scan-3c def2/J RI DEFGRID2 scfconv6 printgap
|  2> %output
|  3>     printlevel normal
|  4> end
|  5> * xyz 0 1
|  6> C 3.4147669863 1.1933712048 -0.2622886213
|  7> C 1.9564933415 0.8919344389 -0.5883028254
|  8> C 1.2948212165 -0.052808468 0.4274472116
|  9> H 1.4849660497 0.344439439 1.4309899656
| 10> C 1.8698089379 -1.4696043363 0.3581495157
| 11> C -0.1990085241 -0.0804779121 0.2115456566
| 12> C -1.0623946675 0.3716711915 1.201356958
| 13> C -2.4337640663 0.3531296168 1.0139813652
| 14> C -2.9651176025 -0.1197195356 -0.1730299954
| 15> C -2.1152129205 -0.5723614666 -1.1681871058
| 16> C -0.745612467 -0.5524015682 -0.9765763874
| 17> H 3.8111684669 1.9228030682 -0.964578125
| 18> H 3.5045560487 1.6012067508 0.7422091177
| 19> H 4.0237012914 0.2958079733 -0.3265916664
| 20> H 1.3939042639 1.8291785634 -0.6005291455
| 21> H 1.8911220735 0.4559188669 -1.5866661176
| 22> H 1.7898798744 -1.870553988 -0.6490391128
| 23> H 2.9160844879 -1.4735879789 0.6505931625
| 24> H 1.3235675618 -2.125434888 1.0327739808
| 25> H -0.6565421051 0.742902241 2.1319974098
| 26> H -3.0880646845 0.7084826766 1.7965298221
| 27> H -4.0344433346 -0.1357177839 -0.322306833
| 28> H -2.5218655163 -0.9426531577 -2.0978984354
| 29> H -0.0973115841 -0.9086882474 -1.7629670236
| 30> *
| 31>
| 32>                          ****END OF INPUT****

CARTESIAN COORDINATES (ANGSTROEM)
---------------------------------
  C      3.414767    1.193371   -0.262289
  C      1.956493    0.891934   -0.588303
  C      1.294821   -0.052808    0.427447
  H      1.484966    0.344439    1.430990
  C      1.869809   -1.469604    0.358150
  C     -0.199009   -0.080478    0.211546
  C     -1.062395    0.371671    1.201357
  C     -2.433764    0.353130    1.013981
  C     -2.965118   -0.119720   -0.173030
  C     -2.115213   -0.572361   -1.168187
  C     -0.745612   -0.552402   -0.976576
  H      3.811168    1.922803   -0.964578
  H      3.504556    1.601207    0.742209
  H      4.023701    0.295808   -0.326592
  H      1.393904    1.829179   -0.600529
  H      1.891122    0.455919   -1.586666
  H      1.789880   -1.870554   -0.649039
  H      2.916084   -1.473588    0.650593
  H      1.323568   -2.125435    1.032774
  H     -0.656542    0.742902    2.131997
  H     -3.088065    0.708483    1.796530
  H     -4.034443   -0.135718   -0.322307
  H     -2.521866   -0.942653   -2.097898
  H     -0.097312   -0.908688   -1.762967

 Total Charge           Charge          ....    0
 Multiplicity           Mult            ....    1
 Number of Electrons    NEL             ....   74
 Basis Dimension        Dim             ....  260

ORBITAL ENERGIES
----------------

  NO   OCC          E(Eh)            E(eV)
   0   2.0000     -10.038870      -273.1715
   1   2.0000     -10.037743      -273.1409
   2   2.0000     -10.031309      -272.9658
   3   2.0000     -10.030693      -272.9490
   4   2.0000     -10.029196      -272.9083
   5   2.0000     -10.028662      -272.8938
   6   2.0000     -10.028582      -272.8916
   7   2.0000     -10.026614      -272.8380
   8   2.0000     -10.018568      -272.6191
   9   2.0000     -10.017629      -272.5936
  10   2.0000      -0.828704       -22.5502
  11   2.0000      -0.777102       -21.1460
  12   2.0000      -0.715109       -19.4591
  13   2.0000      -0.712549       -19.3894
  14   2.0000      -0.681812       -18.5531
  15   2.0000      -0.614093       -16.7103
  16   2.0000      -0.577323       -15.7097
  17   2.0000      -0.564450       -15.3595
  18   2.0000      -0.526499       -14.3268
  19   2.0000      -0.481410       -13.0998
  20   2.0000      -0.438113       -11.9217
  21   2.0000      -0.429121       -11.6770
  22   2.0000      -0.411387       -11.1944
  23   2.0000      -0.405699       -11.0396
  24   2.0000      -0.391293       -10.6476
  25   2.0000      -0.383654       -10.4398
  26   2.0000      -0.368238       -10.0203
  27   2.0000      -0.355536        -9.6746
  28   2.0000      -0.339118        -9.2279
  29   2.0000      -0.333318        -9.0700
  30   2.0000      -0.329107        -8.9555
  31   2.0000      -0.313369        -8.5272
  32   2.0000      -0.296540        -8.0693
  33   2.0000      -0.293586        -7.9889
  34   2.0000      -0.282925        -7.6988
  35   2.0000      -0.233909        -6.3650
  36   2.0000      -0.223771        -6.0891
  37   0.0000      -0.029441        -0.8011
  38   0.0000      -0.024880        -0.6770
  39   0.0000       0.076899         2.0925
  40   0.0000       0.095200         2.5905
  41   0.0000       0.100281         2.7288

MULLIKEN ATOMIC CHARGES
-----------------------
   0 C :   -0.502682
   1 C :   -0.227529
   2 C :   -0.103646
   3 H :    0.147768
   4 C :   -0.508797
   5 C :    0.191279
   6 C :   -0.228608
   7 C :   -0.164891
   8 C :   -0.148334
   9 C :   -0.166218
  10 C :   -0.220294
  11 H :    0.149307
  12 H :    0.146552
  13 H :    0.148258
  14 H :    0.154989
  15 H :    0.140689
  16 H :    0.154724
  17 H :    0.151228
  18 H :    0.156643
  19 H :    0.147183
  20 H :    0.144059
  21 H :    0.145515
  22 H :    0.143682
  23 H :    0.149124
Sum of atomic charges:    0.0000000

LOEWDIN ATOMIC CHARGES
----------------------
   0 C :   -0.422110
   1 C :   -0.295226
   2 C :   -0.215932
   3 H :    0.163025
   4 C :   -0.398862
   5 C :   -0.083325
   6 C :   -0.162680
   7 C :   -0.162728
   8 C :   -0.174264
   9 C :   -0.161178
  10 C :   -0.158985
  11 H :    0.152322
  12 H :    0.150979
  13 H :    0.149761
  14 H :    0.160949
  15 H :    0.155409
  16 H :    0.154808
  17 H :    0.152889
  18 H :    0.160489
  19 H :    0.167822
  20 H :    0.166257
  21 H :    0.165967
  22 H :    0.166104
  23 H :    0.168506

  Mayer bond orders larger than 0.100000
B(  0-C ,  1-C ) :   0.9009 B(  0-C , 11-H ) :   0.9738 B(  0-C , 12-H ) :   0.9848
B(  0-C , 13-H ) :   0.9843 B(  1-C ,  2-C ) :   0.9126 B(  1-C , 14-H ) :   0.9696
B(  1-C , 15-H ) :   0.9576 B(  2-C ,  3-H ) :   1.0292 B(  2-C ,  4-C ) :   0.9192
B(  2-C ,  5-C ) :   0.7906 B(  4-C , 16-H ) :   0.9769 B(  4-C , 17-H ) :   0.9750
B(  4-C , 18-H ) :   0.9705 B(  5-C ,  6-C ) :   1.4119 B(  5-C , 10-C ) :   1.3857
B(  6-C ,  7-C ) :   1.4349 B(  6-C , 19-H ) :   0.9475 B(  7-C ,  8-C ) :   1.4332
B(  7-C , 20-H ) :   0.9484 B(  8-C ,  9-C ) :   1.4228 B(  8-C , 21-H ) :   0.9478
B(  9-C , 10-C ) :   1.4588 B(  9-C , 22-H ) :   0.9516 B( 10-C , 23-H ) :   0.9450

Dispersion correction           -0.008262365
FINAL SINGLE POINT ENERGY      -389.378876757976

DIPOLE MOMENT
-------------

Method             : SCF
Type of density    : Electron Density
Multiplicity       :   1
Irrep              :   0
Energy             :  -389.3789361670629887 Eh
Relativity type    :
Basis              : AO
                                X                 Y                 Z
Electronic contribution:    -10.849438015      -0.391394563       0.493083910
Nuclear contribution   :     11.014754439       0.416643117      -0.492990616
                        -----------------------------------------
Total Dipole Moment    :      0.165316424       0.025248554       0.000093294
                        -----------------------------------------
Magnitude (a.u.)       :      0.167233424
Magnitude (Debye)      :      0.425073583

Rotational constants in cm-1:             0.097866             0.024919             0.024047
Rotational constants in MHz :          2933.951052           747.043365           720.918057

                             ****ORCA TERMINATED NORMALLY****
TOTAL RUN TIME: 0 days 0 hours 0 minutes 31 seconds 239 msec
