                         Program Version 6.0.0  -   RELEASE  -
|  1> ! r2scan-3c def2/J RI DEFGRID2 scfconv6 printgap
|  2> %output
|  3>     printlevel normal
|  4> end
|  5> %cpcm
|  6>     smd true
|  7>     smdsolvent "water"
|  8> end
|  9> * xyz 0 1
| 10> C 3.4147669863 1.1933712048 -0.2622886213
| 11> C 1.9564933415 0.8919344389 -0.5883028254
| 12> C 1.2948212165 -0.052808468 0.4274472116
| 13> H 1.4849660497 0.344439439 1.4309899656
| 14> C 1.8698089379 -1.4696043363 0.3581495157
| 15> C -0.1990085241 -0.0804779121 0.2115456566
| 16> C -1.0623946675 0.3716711915 1.201356958
| 17> C -2.4337640663 0.3531296168 1.0139813652
| 18> C -2.9651176025 -0.1197195356 -0.1730299954
| 19> C -2.1152129205 -0.5723614666 -1.1681871058
| 20> C -0.745612467 -0.5524015682 -0.9765763874
| 21> H 3.8111684669 1.9228030682 -0.964578125
| 22> H 3.5045560487 1.6012067508 0.7422091177
| 23> H 4.0237012914 0.2958079733 -0.3265916664
| 24> H 1.3939042639 1.8291785634 -0.6005291455
| 25> H 1.8911220735 0.4559188669 -1.5866661176
| 26> H 1.7898798744 -1.870553988 -0.6490391128
| 27> H 2.9160844879 -1.4735879789 0.6505931625
| 28> H 1.3235675618 -2.125434888 1.0327739808
| 29> H -0.6565421051 0.742902241 2.1319974098
| 30> H -3.0880646845 0.7084826766 1.7965298221
| 31> H -4.0344433346 -0.1357177839 -0.322306833
| 32> H -2.5218655163 -0.9426531577 -2.0978984354
| 33> H -0.0973115841 -0.9086882474 -1.7629670236
| 34> *
| 35>
| 36>                          ****END OF INPUT****

CARTESIAN COORDINATES (ANGSTROEM)
---------------------------------
  C      3.414767    1.193371   -0.262289
  C      1.956493    0.891934   -0.588303
  C      1.294821   -0.052808    0.427447
  H      1.484966    0.344439    1.430990
  C      1.869809   -1.469604    0.358150
  C     -0.199009   -0.080478    0.211546
  C     -1.062395    0.371671    1.201357
  C     -2.433764    0.353130    1.013981
  C     -2.965118   -0.119720   -0.173030
  C     -2.115213   -0.572361   -1.168187
  C     -0.745612   -0.552402   -0.976576
  H      3.811168    1.922803   -0.964578
  H      3.504556    1.601207    0.742209
  H      4.023701    0.295808   -0.326592
  H      1.393904    1.829179   -0.600529
  H      1.891122    0.455919   -1.586666
  H      1.789880   -1.870554   -0.649039
  H      2.916084   -1.473588    0.650593
  H      1.323568   -2.125435    1.032774
  H     -0.656542    0.742902    2.131997
  H     -3.088065    0.708483    1.796530
  H     -4.034443   -0.135718   -0.322307
  H     -2.521866   -0.942653   -2.097898
  H     -0.097312   -0.908688   -1.762967

 Total Charge           Charge          ....    0
 Multiplicity           Mult            ....    1
 Number of Electrons    NEL             ....   74
 Basis Dimension        Dim             ....  260

ORBITAL ENERGIES
----------------

  NO   OCC          E(Eh)            E(eV)
   0   2.0000     -10.037162      -273.1251
   1   2.0000     -10.031481      -272.9705
   2   2.0000     -10.030443      -272.9422
   3   2.0000     -10.029994      -272.9300
   4   2.0000     -10.027867      -272.8721
   5   2.0000     -10.027455      -272.8609
   6   2.0000     -10.027255      -272.8555
   7   2.0000     -10.018701      -272.6227
   8   2.0000     -10.010096      -272.3886
   9   2.0000     -10.008236      -272.3380
  10   2.0000      -0.828892       -22.5553
  11   2.0000      -0.771815       -21.0022
  12   2.0000      -0.712818       -19.3968
  13   2.0000      -0.710596       -19.3363
  14   2.0000      -0.675932       -18.3930
  15   2.0000      -0.607637       -16.5346
  16   2.0000      -0.574316       -15.6279
  17   2.0000      -0.561130       -15.2691
  18   2.0000      -0.520985       -14.1767
  19   2.0000      -0.477415       -12.9911
  20   2.0000      -0.433197       -11.7879
  21   2.0000      -0.422992       -11.5102
  22   2.0000      -0.406339       -11.0571
  23   2.0000      -0.400725       -10.9043
  24   2.0000      -0.386033       -10.5045
  25   2.0000      -0.379547       -10.3280
  26   2.0000      -0.363024        -9.8784
  27   2.0000      -0.347660        -9.4603
  28   2.0000      -0.337242        -9.1768
  29   2.0000      -0.327833        -8.9208
  30   2.0000      -0.323800        -8.8110
  31   2.0000      -0.307826        -8.3764
  32   2.0000      -0.289403        -7.8751
  33   2.0000      -0.286598        -7.7987
  34   2.0000      -0.276964        -7.5366
  35   2.0000      -0.237355        -6.4587
  36   2.0000      -0.225861        -6.1460
  37   0.0000      -0.031630        -0.8607
  38   0.0000      -0.026942        -0.7331
  39   0.0000       0.086478         2.3532
  40   0.0000       0.102054         2.7770
  41   0.0000       0.110245         2.9999

MULLIKEN ATOMIC CHARGES
-----------------------
   0 C :   -0.542121
   1 C :   -0.251032
   2 C :   -0.040843
   3 H :    0.166001
   4 C :   -0.557496
   5 C :    0.119702
   6 C :   -0.248559
   7 C :   -0.204025
   8 C :   -0.182188
   9 C :   -0.204065
  10 C :   -0.241000
  11 H :    0.158909
  12 H :    0.158654
  13 H :    0.161032
  14 H :    0.158048
  15 H :    0.157810
  16 H :    0.172666
  17 H :    0.166119
  18 H :    0.162387
  19 H :    0.178098
  20 H :    0.175444
  21 H :    0.177479
  22 H :    0.175057
  23 H :    0.183923
Sum of atomic charges:    0.0000000

LOEWDIN ATOMIC CHARGES
----------------------
   0 C :   -0.428941
   1 C :   -0.297231
   2 C :   -0.213724
   3 H :    0.169167
   4 C :   -0.406184
   5 C :   -0.090834
   6 C :   -0.172619
   7 C :   -0.175439
   8 C :   -0.188725
   9 C :   -0.173892
  10 C :   -0.168843
  11 H :    0.154361
  12 H :    0.154079
  13 H :    0.153393
  14 H :    0.159997
  15 H :    0.159871
  16 H :    0.159635
  17 H :    0.157915
  18 H :    0.159988
  19 H :    0.178609
  20 H :    0.176551
  21 H :    0.175885
  22 H :    0.176401
  23 H :    0.180580

  Mayer bond orders larger than 0.100000
B(  0-C ,  1-C ) :   0.8969 B(  0-C , 11-H ) :   0.9715 B(  0-C , 12-H ) :   0.9822
B(  0-C , 13-H ) :   0.9807 B(  1-C ,  2-C ) :   0.8929 B(  1-C , 14-H ) :   0.9712
B(  1-C , 15-H ) :   0.9589 B(  2-C ,  3-H ) :   1.0254 B(  2-C ,  4-C ) :   0.8949
B(  2-C ,  5-C ) :   0.7951 B(  4-C , 16-H ) :   0.9751 B(  4-C , 17-H ) :   0.9700
B(  4-C , 18-H ) :   0.9707 B(  5-C ,  6-C ) :   1.3865 B(  5-C , 10-C ) :   1.3686
B(  6-C ,  7-C ) :   1.3984 B(  6-C , 19-H ) :   0.9556 B(  7-C ,  8-C ) :   1.3918
B(  7-C , 20-H ) :   0.9592 B(  8-C ,  9-C ) :   1.3811 B(  8-C , 21-H ) :   0.9552
B(  9-C , 10-C ) :   1.4174 B(  9-C , 22-H ) :   0.9628 B( 10-C , 23-H ) :   0.9513

Dispersion correction           -0.008262365
FINAL SINGLE POINT ENERGY      -389.379530757319

DIPOLE MOMENT
-------------

Method             : SCF
Type of density    : Electron Density
Multiplicity       :   1
Irrep              :   0
Energy             :  -389.3795901664060466 Eh
Relativity type    :
Basis              : AO
                                X                 Y                 Z
Electronic contribution:    -10.728340372      -0.396529870       0.495102701
Nuclear contribution   :     11.014754439       0.416643117      -0.492990616
                        -----------------------------------------
Total Dipole Moment    :      0.286414067       0.020113247       0.002112085
                        -----------------------------------------
Magnitude (a.u.)       :      0.287127187
Magnitude (Debye)      :      0.729819309

Rotational constants in cm-1:             0.097866             0.024919             0.024047
Rotational constants in MHz :          2933.951052           747.043365           720.918057

                             ****ORCA TERMINATED NORMALLY****
TOTAL RUN TIME: 0 days 0 hours 0 minutes 37 seconds 913 msec
