                         Program Version 6.0.0  -   RELEASE  -
|  1> ! pbe def2-sv(p) def2/J RI DEFGRID1 loosescf d4 GCP(DFT/SV(P)) printgap
|  2> %output
|  3>     printlevel normal
|  4> end
|  5> * xyz 0 1
|  6> C 2.1643518583 -0.3852192393 1.1960665176
|  7> C 1.3194295647 -0.5077992946 -0.0663459534
|  8> C 0.2790019 0.6146636054 -0.2090759519
|  9> H 0.5416857283 1.4215487538 0.4956759531
| 10> C -1.1770098478 0.1913215151 0.0844736265
| 11> C -1.6654251509 -0.8876989931 -0.8815991792
| 12> C -1.3533777875 -0.2499410452 1.5342728839
| 13> O 0.3945748786 1.1191878568 -1.533486003
| 14> H 2.890563655 -1.1932508301 1.2360752864
| 15> H 1.5431983005 -0.4356922791 2.0863707488
| 16> H 2.7025270879 0.5598366515 1.2046699429
| 17> H 1.9672076587 -0.4476104139 -0.9430620145
| 18> H 0.8305384682 -1.4802554634 -0.0882976283
| 19> H -1.7939030101 1.0857935075 -0.0740290921
| 20> H -1.3706870912 -0.6404468898 -1.8988013966
| 21> H -1.2465334985 -1.8583831533 -0.6295160933
| 22> H -2.7488166119 -0.9658085474 -0.8387882021
| 23> H -2.4029773299 -0.4518079156 1.7334637053
| 24> H -1.0160979469 0.5271633037 2.2164209622
| 25> H -0.7886856346 -1.1568234044 1.7324211086
| 26> H -0.211149481 1.8640119396 -1.6457227136
| 27> *
| 28>
| 29>                          ****END OF INPUT****

CARTESIAN COORDINATES (ANGSTROEM)
---------------------------------
  C      2.164352   -0.385219    1.196067
  C      1.319430   -0.507799   -0.066346
  C      0.279002    0.614664   -0.209076
  H      0.541686    1.421549    0.495676
  C     -1.177010    0.191322    0.084474
  C     -1.665425   -0.887699   -0.881599
  C     -1.353378   -0.249941    1.534273
  O      0.394575    1.119188   -1.533486
  H      2.890564   -1.193251    1.236075
  H      1.543198   -0.435692    2.086371
  H      2.702527    0.559837    1.204670
  H      1.967208   -0.447610   -0.943062
  H      0.830538   -1.480255   -0.088298
  H     -1.793903    1.085794   -0.074029
  H     -1.370687   -0.640447   -1.898801
  H     -1.246533   -1.858383   -0.629516
  H     -2.748817   -0.965809   -0.838788
  H     -2.402977   -0.451808    1.733464
  H     -1.016098    0.527163    2.216421
  H     -0.788686   -1.156823    1.732421
  H     -0.211149    1.864012   -1.645723

 Total Charge           Charge          ....    0
 Multiplicity           Mult            ....    1
 Number of Electrons    NEL             ....   58
 Basis Dimension        Dim             ....  126

ORBITAL ENERGIES
----------------

  NO   OCC          E(Eh)            E(eV)
   0   2.0000     -18.737923      -509.8848
   1   2.0000      -9.931295      -270.2443
   2   2.0000      -9.893967      -269.2285
   3   2.0000      -9.877084      -268.7691
   4   2.0000      -9.875819      -268.7347
   5   2.0000      -9.872260      -268.6379
   6   2.0000      -9.867884      -268.5188
   7   2.0000      -0.914803       -24.8931
   8   2.0000      -0.726004       -19.7556
   9   2.0000      -0.683019       -18.5859
  10   2.0000      -0.610356       -16.6086
  11   2.0000      -0.597019       -16.2457
  12   2.0000      -0.539421       -14.6784
  13   2.0000      -0.491267       -13.3680
  14   2.0000      -0.451860       -12.2957
  15   2.0000      -0.428434       -11.6583
  16   2.0000      -0.397280       -10.8105
  17   2.0000      -0.374526       -10.1914
  18   2.0000      -0.371698       -10.1144
  19   2.0000      -0.357841        -9.7374
  20   2.0000      -0.340577        -9.2676
  21   2.0000      -0.322262        -8.7692
  22   2.0000      -0.319508        -8.6942
  23   2.0000      -0.308095        -8.3837
  24   2.0000      -0.295731        -8.0473
  25   2.0000      -0.287104        -7.8125
  26   2.0000      -0.282230        -7.6799
  27   2.0000      -0.258898        -7.0450
  28   2.0000      -0.209108        -5.6901
  29   0.0000       0.024619         0.6699
  30   0.0000       0.042340         1.1521
  31   0.0000       0.064619         1.7584
  32   0.0000       0.069719         1.8971
  33   0.0000       0.086333         2.3493

MULLIKEN ATOMIC CHARGES
-----------------------
   0 C :   -0.296596
   1 C :   -0.166522
   2 C :    0.070963
   3 H :    0.054066
   4 C :   -0.201855
   5 C :   -0.241353
   6 C :   -0.251537
   7 O :   -0.418922
   8 H :    0.102255
   9 H :    0.103380
  10 H :    0.105571
  11 H :    0.098066
  12 H :    0.091639
  13 H :    0.054720
  14 H :    0.101935
  15 H :    0.100000
  16 H :    0.095683
  17 H :    0.100574
  18 H :    0.099260
  19 H :    0.106599
  20 H :    0.292073
Sum of atomic charges:    0.0000000

LOEWDIN ATOMIC CHARGES
----------------------
   0 C :   -0.340509
   1 C :   -0.238040
   2 C :   -0.042090
   3 H :    0.092471
   4 C :   -0.170451
   5 C :   -0.336078
   6 C :   -0.330045
   7 O :   -0.327857
   8 H :    0.119610
   9 H :    0.115029
  10 H :    0.118571
  11 H :    0.128251
  12 H :    0.115881
  13 H :    0.106843
  14 H :    0.119161
  15 H :    0.116043
  16 H :    0.118145
  17 H :    0.120592
  18 H :    0.116494
  19 H :    0.118761
  20 H :    0.279217

  Mayer bond orders larger than 0.100000
B(  0-C ,  1-C ) :   1.1519 B(  0-C ,  8-H ) :   0.9508 B(  0-C ,  9-H ) :   0.9492
B(  0-C , 10-H ) :   0.9523 B(  1-C ,  2-C ) :   1.0381 B(  1-C , 11-H ) :   0.9133
B(  1-C , 12-H ) :   0.9204 B(  2-C ,  3-H ) :   0.9189 B(  2-C ,  4-C ) :   1.0347
B(  2-C ,  7-O ) :   1.0549 B(  4-C ,  5-C ) :   1.1049 B(  4-C ,  6-C ) :   1.1036
B(  4-C , 13-H ) :   0.8940 B(  5-C , 14-H ) :   0.9380 B(  5-C , 15-H ) :   0.9432
B(  5-C , 16-H ) :   0.9491 B(  6-C , 17-H ) :   0.9458 B(  6-C , 18-H ) :   0.9454
B(  6-C , 19-H ) :   0.9407 B(  7-O , 20-H ) :   0.8496

Dispersion correction           -0.016935696
FINAL SINGLE POINT ENERGY      -311.514918343641

DIPOLE MOMENT
-------------

Method             : SCF
Type of density    : Electron Density
Multiplicity       :   1
Irrep              :   0
Energy             :  -311.5944248864285555 Eh
Relativity type    :
Basis              : AO
                                X                 Y                 Z
Electronic contribution:      0.660816895       3.214172269      -3.962103521
Nuclear contribution   :     -1.029060281      -2.958986920       4.280486024
                        -----------------------------------------
Total Dipole Moment    :     -0.368243385       0.255185350       0.318382502
                        -----------------------------------------
Magnitude (a.u.)       :      0.549627302
Magnitude (Debye)      :      1.397041578

Rotational constants in cm-1:             0.096964             0.068925             0.050704
Rotational constants in MHz :          2906.922293          2066.311634          1520.075090

                             ****ORCA TERMINATED NORMALLY****
TOTAL RUN TIME: 0 days 0 hours 0 minutes 9 seconds 215 msec
