                         Program Version 6.0.0  -   RELEASE  -
|  1> ! r2scan-3c def2/J RI DEFGRID2 scfconv6 printgap
|  2> %output
|  3>     printlevel normal
|  4> end
|  5> * xyz 0 1
|  6> C 1.6052063063 0.6415172488 1.2656541539
|  7> C 1.2021017077 0.3925028678 -0.1861521706
|  8> H 0.9305044202 1.3502011074 -0.6571371028
|  9> C 0.03398698 -0.5906000286 -0.3159536848
| 10> C -1.2834858319 -0.1646539027 0.337816596
| 11> C -1.8193291529 1.1407974359 -0.2462779583
| 12> C -2.3149252792 -1.2777730028 0.1534753639
| 13> O 2.2728418569 -0.1846008644 -0.9243031382
| 14> H 0.7953832198 1.1240559011 1.8033691634
| 15> H 1.8439310925 -0.3017388068 1.751073063
| 16> H 2.478582118 1.2889183296 1.3102439765
| 17> H -0.1298667512 -0.7580854601 -1.3831962172
| 18> H 0.3607614006 -1.5404861539 0.1134519865
| 19> H -1.1199732146 -0.0284999266 1.4114185943
| 20> H -2.7992724532 1.362032682 0.1702306703
| 21> H -1.9156930757 1.0592603773 -1.3266236952
| 22> H -1.1599224836 1.9741646229 -0.0195588425
| 23> H -1.9526653361 -2.2113978695 0.576811399
| 24> H -3.2489397192 -1.0168068747 0.6451490814
| 25> H -2.5151856644 -1.4357509948 -0.9039013854
| 26> H 3.0564045985 0.3747878464 -0.8378394297
| 27> *
| 28>
| 29>                          ****END OF INPUT****

CARTESIAN COORDINATES (ANGSTROEM)
---------------------------------
  C      1.605206    0.641517    1.265654
  C      1.202102    0.392503   -0.186152
  H      0.930504    1.350201   -0.657137
  C      0.033987   -0.590600   -0.315954
  C     -1.283486   -0.164654    0.337817
  C     -1.819329    1.140797   -0.246278
  C     -2.314925   -1.277773    0.153475
  O      2.272842   -0.184601   -0.924303
  H      0.795383    1.124056    1.803369
  H      1.843931   -0.301739    1.751073
  H      2.478582    1.288918    1.310244
  H     -0.129867   -0.758085   -1.383196
  H      0.360761   -1.540486    0.113452
  H     -1.119973   -0.028500    1.411419
  H     -2.799272    1.362033    0.170231
  H     -1.915693    1.059260   -1.326624
  H     -1.159922    1.974165   -0.019559
  H     -1.952665   -2.211398    0.576811
  H     -3.248940   -1.016807    0.645149
  H     -2.515186   -1.435751   -0.903901
  H      3.056405    0.374788   -0.837839

 Total Charge           Charge          ....    0
 Multiplicity           Mult            ....    1
 Number of Electrons    NEL             ....   58
 Basis Dimension        Dim             ....  208

ORBITAL ENERGIES
----------------

  NO   OCC          E(Eh)            E(eV)
   0   2.0000     -18.942637      -515.4554
   1   2.0000     -10.079202      -274.2690
   2   2.0000     -10.034867      -273.0626
   3   2.0000     -10.020371      -272.6682
   4   2.0000     -10.019015      -272.6313
   5   2.0000     -10.016000      -272.5492
   6   2.0000     -10.014547      -272.5097
   7   2.0000      -0.980009       -26.6674
   8   2.0000      -0.779528       -21.2120
   9   2.0000      -0.718584       -19.5537
  10   2.0000      -0.653078       -17.7712
  11   2.0000      -0.649013       -17.6605
  12   2.0000      -0.568800       -15.4778
  13   2.0000      -0.516731       -14.0610
  14   2.0000      -0.474933       -12.9236
  15   2.0000      -0.439946       -11.9716
  16   2.0000      -0.413281       -11.2459
  17   2.0000      -0.403417       -10.9775
  18   2.0000      -0.395677       -10.7669
  19   2.0000      -0.372259       -10.1297
  20   2.0000      -0.356569        -9.7027
  21   2.0000      -0.348730        -9.4894
  22   2.0000      -0.329701        -8.9716
  23   2.0000      -0.325171        -8.8483
  24   2.0000      -0.310899        -8.4600
  25   2.0000      -0.295341        -8.0366
  26   2.0000      -0.291183        -7.9235
  27   2.0000      -0.276012        -7.5107
  28   2.0000      -0.232772        -6.3341
  29   0.0000       0.064953         1.7674
  30   0.0000       0.083411         2.2697
  31   0.0000       0.116496         3.1700
  32   0.0000       0.121330         3.3016
  33   0.0000       0.124375         3.3844

MULLIKEN ATOMIC CHARGES
-----------------------
   0 C :   -0.504301
   1 C :    0.039603
   2 H :    0.133387
   3 C :   -0.298934
   4 C :   -0.045938
   5 C :   -0.499446
   6 C :   -0.484133
   7 O :   -0.421858
   8 H :    0.153715
   9 H :    0.164229
  10 H :    0.135697
  11 H :    0.158231
  12 H :    0.149797
  13 H :    0.148552
  14 H :    0.144143
  15 H :    0.156587
  16 H :    0.147618
  17 H :    0.145669
  18 H :    0.146405
  19 H :    0.149294
  20 H :    0.281682
Sum of atomic charges:    0.0000000

LOEWDIN ATOMIC CHARGES
----------------------
   0 C :   -0.401181
   1 C :    0.049128
   2 H :    0.160591
   3 C :   -0.266141
   4 C :   -0.245458
   5 C :   -0.417917
   6 C :   -0.414450
   7 O :   -0.618298
   8 H :    0.157785
   9 H :    0.162068
  10 H :    0.151751
  11 H :    0.171144
  12 H :    0.168425
  13 H :    0.154792
  14 H :    0.153364
  15 H :    0.155908
  16 H :    0.151089
  17 H :    0.153757
  18 H :    0.151808
  19 H :    0.154754
  20 H :    0.267082

  Mayer bond orders larger than 0.100000
B(  0-C ,  1-C ) :   0.8950 B(  0-C ,  8-H ) :   0.9695 B(  0-C ,  9-H ) :   0.9820
B(  0-C , 10-H ) :   0.9675 B(  1-C ,  2-H ) :   0.9698 B(  1-C ,  3-C ) :   0.9316
B(  1-C ,  7-O ) :   0.8999 B(  3-C ,  4-C ) :   0.8904 B(  3-C , 11-H ) :   0.9788
B(  3-C , 12-H ) :   0.9788 B(  4-C ,  5-C ) :   0.8884 B(  4-C ,  6-C ) :   0.9072
B(  4-C , 13-H ) :   0.9528 B(  5-C , 14-H ) :   0.9717 B(  5-C , 15-H ) :   0.9862
B(  5-C , 16-H ) :   0.9706 B(  6-C , 17-H ) :   0.9767 B(  6-C , 18-H ) :   0.9756
B(  6-C , 19-H ) :   0.9882 B(  7-O , 20-H ) :   0.9033

Dispersion correction           -0.005574026
FINAL SINGLE POINT ENERGY      -312.203450605276

DIPOLE MOMENT
-------------

Method             : SCF
Type of density    : Electron Density
Multiplicity       :   1
Irrep              :   0
Energy             :  -312.2089768357981825 Eh
Relativity type    :
Basis              : AO
                                X                 Y                 Z
Electronic contribution:      5.005385761      -0.686021966      -2.118373534
Nuclear contribution   :     -5.009791323       1.161197470       2.475691400
                        -----------------------------------------
Total Dipole Moment    :     -0.004405562       0.475175504       0.357317867
                        -----------------------------------------
Magnitude (a.u.)       :      0.594547918
Magnitude (Debye)      :      1.511220708

Rotational constants in cm-1:             0.141995             0.046425             0.043610
Rotational constants in MHz :          4256.917171          1391.779505          1307.409791

                             ****ORCA TERMINATED NORMALLY****
TOTAL RUN TIME: 0 days 0 hours 0 minutes 30 seconds 746 msec
