                         Program Version 6.0.0  -   RELEASE  -
|  1> ! r2scan-3c def2/J RI DEFGRID2 scfconv6 printgap
|  2> %output
|  3>     printlevel normal
|  4> end
|  5> %cpcm
|  6>     smd true
|  7>     smdsolvent "water"
|  8> end
|  9> * xyz 0 1
| 10> C 1.6052063063 0.6415172488 1.2656541539
| 11> C 1.2021017077 0.3925028678 -0.1861521706
| 12> H 0.9305044202 1.3502011074 -0.6571371028
| 13> C 0.03398698 -0.5906000286 -0.3159536848
| 14> C -1.2834858319 -0.1646539027 0.337816596
| 15> C -1.8193291529 1.1407974359 -0.2462779583
| 16> C -2.3149252792 -1.2777730028 0.1534753639
| 17> O 2.2728418569 -0.1846008644 -0.9243031382
| 18> H 0.7953832198 1.1240559011 1.8033691634
| 19> H 1.8439310925 -0.3017388068 1.751073063
| 20> H 2.478582118 1.2889183296 1.3102439765
| 21> H -0.1298667512 -0.7580854601 -1.3831962172
| 22> H 0.3607614006 -1.5404861539 0.1134519865
| 23> H -1.1199732146 -0.0284999266 1.4114185943
| 24> H -2.7992724532 1.362032682 0.1702306703
| 25> H -1.9156930757 1.0592603773 -1.3266236952
| 26> H -1.1599224836 1.9741646229 -0.0195588425
| 27> H -1.9526653361 -2.2113978695 0.576811399
| 28> H -3.2489397192 -1.0168068747 0.6451490814
| 29> H -2.5151856644 -1.4357509948 -0.9039013854
| 30> H 3.0564045985 0.3747878464 -0.8378394297
| 31> *
| 32>
| 33>                          ****END OF INPUT****

CARTESIAN COORDINATES (ANGSTROEM)
---------------------------------
  C      1.605206    0.641517    1.265654
  C      1.202102    0.392503   -0.186152
  H      0.930504    1.350201   -0.657137
  C      0.033987   -0.590600   -0.315954
  C     -1.283486   -0.164654    0.337817
  C     -1.819329    1.140797   -0.246278
  C     -2.314925   -1.277773    0.153475
  O      2.272842   -0.184601   -0.924303
  H      0.795383    1.124056    1.803369
  H      1.843931   -0.301739    1.751073
  H      2.478582    1.288918    1.310244
  H     -0.129867   -0.758085   -1.383196
  H      0.360761   -1.540486    0.113452
  H     -1.119973   -0.028500    1.411419
  H     -2.799272    1.362033    0.170231
  H     -1.915693    1.059260   -1.326624
  H     -1.159922    1.974165   -0.019559
  H     -1.952665   -2.211398    0.576811
  H     -3.248940   -1.016807    0.645149
  H     -2.515186   -1.435751   -0.903901
  H      3.056405    0.374788   -0.837839

 Total Charge           Charge          ....    0
 Multiplicity           Mult            ....    1
 Number of Electrons    NEL             ....   58
 Basis Dimension        Dim             ....  208

ORBITAL ENERGIES
----------------

  NO   OCC          E(Eh)            E(eV)
   0   2.0000     -18.947391      -515.5847
   1   2.0000     -10.074293      -274.1355
   2   2.0000     -10.026831      -272.8439
   3   2.0000     -10.014433      -272.5066
   4   2.0000     -10.009376      -272.3690
   5   2.0000     -10.006405      -272.2881
   6   2.0000     -10.006300      -272.2853
   7   2.0000      -0.983515       -26.7628
   8   2.0000      -0.772391       -21.0178
   9   2.0000      -0.711461       -19.3598
  10   2.0000      -0.645607       -17.5679
  11   2.0000      -0.641099       -17.4452
  12   2.0000      -0.563519       -15.3341
  13   2.0000      -0.510260       -13.8849
  14   2.0000      -0.471418       -12.8279
  15   2.0000      -0.433144       -11.7864
  16   2.0000      -0.409399       -11.1403
  17   2.0000      -0.395909       -10.7732
  18   2.0000      -0.388263       -10.5652
  19   2.0000      -0.363549        -9.8927
  20   2.0000      -0.348342        -9.4789
  21   2.0000      -0.341043        -9.2802
  22   2.0000      -0.326393        -8.8816
  23   2.0000      -0.319165        -8.6849
  24   2.0000      -0.306977        -8.3533
  25   2.0000      -0.288685        -7.8555
  26   2.0000      -0.283652        -7.7186
  27   2.0000      -0.272303        -7.4097
  28   2.0000      -0.237719        -6.4687
  29   0.0000       0.080974         2.2034
  30   0.0000       0.092899         2.5279
  31   0.0000       0.126129         3.4321
  32   0.0000       0.130370         3.5475
  33   0.0000       0.131757         3.5853

MULLIKEN ATOMIC CHARGES
-----------------------
   0 C :   -0.547570
   1 C :    0.060138
   2 H :    0.146234
   3 C :   -0.318742
   4 C :   -0.023656
   5 C :   -0.544481
   6 C :   -0.532071
   7 O :   -0.513492
   8 H :    0.170389
   9 H :    0.167377
  10 H :    0.161645
  11 H :    0.159708
  12 H :    0.155880
  13 H :    0.160860
  14 H :    0.155877
  15 H :    0.165639
  16 H :    0.162232
  17 H :    0.156408
  18 H :    0.159136
  19 H :    0.160072
  20 H :    0.338417
Sum of atomic charges:    0.0000000

LOEWDIN ATOMIC CHARGES
----------------------
   0 C :   -0.405008
   1 C :    0.050750
   2 H :    0.167898
   3 C :   -0.273448
   4 C :   -0.240816
   5 C :   -0.425176
   6 C :   -0.423433
   7 O :   -0.657002
   8 H :    0.164341
   9 H :    0.162019
  10 H :    0.160254
  11 H :    0.169592
  12 H :    0.168475
  13 H :    0.159471
  14 H :    0.156042
  15 H :    0.157539
  16 H :    0.155542
  17 H :    0.155631
  18 H :    0.155055
  19 H :    0.156539
  20 H :    0.285736

  Mayer bond orders larger than 0.100000
B(  0-C ,  1-C ) :   0.9029 B(  0-C ,  8-H ) :   0.9643 B(  0-C ,  9-H ) :   0.9777
B(  0-C , 10-H ) :   0.9637 B(  1-C ,  2-H ) :   0.9658 B(  1-C ,  3-C ) :   0.9255
B(  1-C ,  7-O ) :   0.8803 B(  3-C ,  4-C ) :   0.9021 B(  3-C , 11-H ) :   0.9752
B(  3-C , 12-H ) :   0.9723 B(  4-C ,  5-C ) :   0.8827 B(  4-C ,  6-C ) :   0.8901
B(  4-C , 13-H ) :   0.9548 B(  5-C , 14-H ) :   0.9704 B(  5-C , 15-H ) :   0.9846
B(  5-C , 16-H ) :   0.9673 B(  6-C , 17-H ) :   0.9753 B(  6-C , 18-H ) :   0.9728
B(  6-C , 19-H ) :   0.9871 B(  7-O , 20-H ) :   0.8776

Dispersion correction           -0.005574026
FINAL SINGLE POINT ENERGY      -312.209592401669

DIPOLE MOMENT
-------------

Method             : SCF
Type of density    : Electron Density
Multiplicity       :   1
Irrep              :   0
Energy             :  -312.2151186321917180 Eh
Relativity type    :
Basis              : AO
                                X                 Y                 Z
Electronic contribution:      5.007361692      -0.418266842      -1.941806023
Nuclear contribution   :     -5.009791323       1.161197470       2.475691400
                        -----------------------------------------
Total Dipole Moment    :     -0.002429631       0.742930628       0.533885377
                        -----------------------------------------
Magnitude (a.u.)       :      0.914869071
Magnitude (Debye)      :      2.325412374

Rotational constants in cm-1:             0.141995             0.046425             0.043610
Rotational constants in MHz :          4256.917171          1391.779505          1307.409791

                             ****ORCA TERMINATED NORMALLY****
TOTAL RUN TIME: 0 days 0 hours 0 minutes 35 seconds 465 msec
