                         Program Version 6.0.0  -   RELEASE  -
|  1> ! pbe def2-sv(p) def2/J RI DEFGRID1 loosescf d4 GCP(DFT/SV(P)) printgap
|  2> %output
|  3>     printlevel normal
|  4> end
|  5> * xyz 0 1
|  6> C 1.8538022156 -1.0501620677 0.390973961
|  7> C 1.2820439639 0.2914746874 0.8333780819
|  8> C 0.1716548163 0.8681031922 -0.0574715828
|  9> H -0.0424248049 1.8751034174 0.3470116721
| 10> C -1.1844849653 0.1224219431 -0.0892360707
| 11> C -1.1430661608 -1.2074948825 -0.8418908137
| 12> C -1.7591291768 -0.0608543589 1.3125390921
| 13> O 0.7081378633 1.0104963645 -1.3631660006
| 14> H 1.1722817909 -1.8665083065 0.6057942287
| 15> H 2.7859810246 -1.2398013717 0.9180164338
| 16> H 2.0571911671 -1.0303328857 -0.6759284233
| 17> H 0.9132566517 0.2292972383 1.8567499605
| 18> H 2.0898813994 1.0271055249 0.8147808179
| 19> H -1.8619373588 0.7879542407 -0.6420880619
| 20> H -0.4934612888 -1.1315555959 -1.7100484509
| 21> H -0.778207023 -2.0078276355 -0.2060219754
| 22> H -2.1427317641 -1.474191228 -1.1773255259
| 23> H -1.7750838256 0.8850284233 1.8495821305
| 24> H -1.1694969047 -0.7744745976 1.8816938952
| 25> H -2.7768460392 -0.4376309961 1.2462654365
| 26> H 0.0659880143 1.4691780823 -1.92037332
| 27> *
| 28>
| 29>                          ****END OF INPUT****

CARTESIAN COORDINATES (ANGSTROEM)
---------------------------------
  C      1.853802   -1.050162    0.390974
  C      1.282044    0.291475    0.833378
  C      0.171655    0.868103   -0.057472
  H     -0.042425    1.875103    0.347012
  C     -1.184485    0.122422   -0.089236
  C     -1.143066   -1.207495   -0.841891
  C     -1.759129   -0.060854    1.312539
  O      0.708138    1.010496   -1.363166
  H      1.172282   -1.866508    0.605794
  H      2.785981   -1.239801    0.918016
  H      2.057191   -1.030333   -0.675928
  H      0.913257    0.229297    1.856750
  H      2.089881    1.027106    0.814781
  H     -1.861937    0.787954   -0.642088
  H     -0.493461   -1.131556   -1.710048
  H     -0.778207   -2.007828   -0.206022
  H     -2.142732   -1.474191   -1.177326
  H     -1.775084    0.885028    1.849582
  H     -1.169497   -0.774475    1.881694
  H     -2.776846   -0.437631    1.246265
  H      0.065988    1.469178   -1.920373

 Total Charge           Charge          ....    0
 Multiplicity           Mult            ....    1
 Number of Electrons    NEL             ....   58
 Basis Dimension        Dim             ....  126

ORBITAL ENERGIES
----------------

  NO   OCC          E(Eh)            E(eV)
   0   2.0000     -18.740417      -509.9527
   1   2.0000      -9.932493      -270.2769
   2   2.0000      -9.893819      -269.2245
   3   2.0000      -9.878762      -268.8148
   4   2.0000      -9.875482      -268.7255
   5   2.0000      -9.866941      -268.4931
   6   2.0000      -9.864001      -268.4131
   7   2.0000      -0.917601       -24.9692
   8   2.0000      -0.723921       -19.6989
   9   2.0000      -0.679739       -18.4966
  10   2.0000      -0.611763       -16.6469
  11   2.0000      -0.598468       -16.2851
  12   2.0000      -0.533621       -14.5206
  13   2.0000      -0.494965       -13.4687
  14   2.0000      -0.446684       -12.1549
  15   2.0000      -0.429420       -11.6851
  16   2.0000      -0.392544       -10.6817
  17   2.0000      -0.376646       -10.2491
  18   2.0000      -0.368709       -10.0331
  19   2.0000      -0.354553        -9.6479
  20   2.0000      -0.340289        -9.2597
  21   2.0000      -0.329773        -8.9736
  22   2.0000      -0.318850        -8.6763
  23   2.0000      -0.299330        -8.1452
  24   2.0000      -0.298134        -8.1126
  25   2.0000      -0.284809        -7.7500
  26   2.0000      -0.280231        -7.6255
  27   2.0000      -0.255907        -6.9636
  28   2.0000      -0.210781        -5.7357
  29   0.0000       0.018840         0.5127
  30   0.0000       0.048306         1.3145
  31   0.0000       0.063189         1.7195
  32   0.0000       0.071715         1.9515
  33   0.0000       0.084778         2.3069

MULLIKEN ATOMIC CHARGES
-----------------------
   0 C :   -0.280915
   1 C :   -0.167031
   2 C :    0.054962
   3 H :    0.051186
   4 C :   -0.187473
   5 C :   -0.234663
   6 C :   -0.259055
   7 O :   -0.416600
   8 H :    0.100432
   9 H :    0.097072
  10 H :    0.116587
  11 H :    0.086986
  12 H :    0.086660
  13 H :    0.055339
  14 H :    0.099640
  15 H :    0.100305
  16 H :    0.093913
  17 H :    0.098490
  18 H :    0.107783
  19 H :    0.100247
  20 H :    0.296134
Sum of atomic charges:    0.0000000

LOEWDIN ATOMIC CHARGES
----------------------
   0 C :   -0.344917
   1 C :   -0.235081
   2 C :   -0.047420
   3 H :    0.095007
   4 C :   -0.171196
   5 C :   -0.336951
   6 C :   -0.329506
   7 O :   -0.325710
   8 H :    0.113180
   9 H :    0.118298
  10 H :    0.125505
  11 H :    0.118313
  12 H :    0.122428
  13 H :    0.108184
  14 H :    0.118501
  15 H :    0.115999
  16 H :    0.117200
  17 H :    0.116449
  18 H :    0.118418
  19 H :    0.120504
  20 H :    0.282797

  Mayer bond orders larger than 0.100000
B(  0-C ,  1-C ) :   1.1722 B(  0-C ,  8-H ) :   0.9446 B(  0-C ,  9-H ) :   0.9485
B(  0-C , 10-H ) :   0.9451 B(  1-C ,  2-C ) :   1.0851 B(  1-C , 11-H ) :   0.9172
B(  1-C , 12-H ) :   0.9129 B(  2-C ,  3-H ) :   0.8972 B(  2-C ,  4-C ) :   1.0253
B(  2-C ,  7-O ) :   1.0458 B(  4-C ,  5-C ) :   1.1164 B(  4-C ,  6-C ) :   1.1044
B(  4-C , 13-H ) :   0.8923 B(  5-C , 14-H ) :   0.9337 B(  5-C , 15-H ) :   0.9425
B(  5-C , 16-H ) :   0.9462 B(  6-C , 17-H ) :   0.9480 B(  6-C , 18-H ) :   0.9416
B(  6-C , 19-H ) :   0.9465 B(  7-O , 20-H ) :   0.8485

Dispersion correction           -0.017421576
FINAL SINGLE POINT ENERGY      -311.515239969750

DIPOLE MOMENT
-------------

Method             : SCF
Type of density    : Electron Density
Multiplicity       :   1
Irrep              :   0
Energy             :  -311.5946057757562357 Eh
Relativity type    :
Basis              : AO
                                X                 Y                 Z
Electronic contribution:      1.315138234       3.685220013      -2.909447799
Nuclear contribution   :     -1.824171726      -3.445565758       2.970737039
                        -----------------------------------------
Total Dipole Moment    :     -0.509033492       0.239654255       0.061289240
                        -----------------------------------------
Magnitude (a.u.)       :      0.565955500
Magnitude (Debye)      :      1.438544559

Rotational constants in cm-1:             0.098837             0.066658             0.060281
Rotational constants in MHz :          2963.067694          1998.351801          1807.189418

                             ****ORCA TERMINATED NORMALLY****
TOTAL RUN TIME: 0 days 0 hours 0 minutes 9 seconds 474 msec
