                         Program Version 6.0.0  -   RELEASE  -
|  1> ! r2scan-3c def2/J RI DEFGRID2 scfconv6 printgap
|  2> %output
|  3>     printlevel normal
|  4> end
|  5> %cpcm
|  6>     smd true
|  7>     smdsolvent "water"
|  8> end
|  9> * xyz 0 1
| 10> C -2.7010956829 -1.1120487735 -0.0037647435
| 11> C -2.3770571705 0.3706589873 -0.1430499151
| 12> C -0.9117959611 0.6543546536 -0.4806751342
| 13> C 0.0697846312 0.2467653692 0.6286107066
| 14> C 0.7288059125 -1.1137898101 0.367400634
| 15> C 1.9352050395 -0.8214177069 -0.542283754
| 16> C 2.1671402167 0.6973802994 -0.4677702968
| 17> C 1.287811737 1.1734384197 0.687842612
| 18> H -3.7656271197 -1.2483662538 0.1737360742
| 19> H -2.435796661 -1.6471073706 -0.913113457
| 20> H -2.1587897409 -1.5510470228 0.8294103661
| 21> H -3.000703107 0.7941594035 -0.9343398191
| 22> H -2.6345580055 0.8837600449 0.7868604421
| 23> H -0.6522141641 0.1426300052 -1.4085631982
| 24> H -0.8171393585 1.7276610472 -0.6621152757
| 25> H -0.4608860911 0.2511831747 1.5846387547
| 26> H 1.070481502 -1.5357606744 1.3139115466
| 27> H 0.0441600916 -1.8251881612 -0.0883364714
| 28> H 2.8127147409 -1.3706046171 -0.2025274468
| 29> H 1.7350034492 -1.1295370127 -1.5681484735
| 30> H 3.2159722241 0.9446723353 -0.3097760125
| 31> H 1.8468267902 1.1749107214 -1.394014023
| 32> H 1.8084308928 1.025732194 1.6358085724
| 33> H 1.0230686444 2.2267319095 0.6046974812
| 34> *
| 35>
| 36>                          ****END OF INPUT****

CARTESIAN COORDINATES (ANGSTROEM)
---------------------------------
  C     -2.701096   -1.112049   -0.003765
  C     -2.377057    0.370659   -0.143050
  C     -0.911796    0.654355   -0.480675
  C      0.069785    0.246765    0.628611
  C      0.728806   -1.113790    0.367401
  C      1.935205   -0.821418   -0.542284
  C      2.167140    0.697380   -0.467770
  C      1.287812    1.173438    0.687843
  H     -3.765627   -1.248366    0.173736
  H     -2.435797   -1.647107   -0.913113
  H     -2.158790   -1.551047    0.829410
  H     -3.000703    0.794159   -0.934340
  H     -2.634558    0.883760    0.786860
  H     -0.652214    0.142630   -1.408563
  H     -0.817139    1.727661   -0.662115
  H     -0.460886    0.251183    1.584639
  H      1.070482   -1.535761    1.313912
  H      0.044160   -1.825188   -0.088336
  H      2.812715   -1.370605   -0.202527
  H      1.735003   -1.129537   -1.568148
  H      3.215972    0.944672   -0.309776
  H      1.846827    1.174911   -1.394014
  H      1.808431    1.025732    1.635809
  H      1.023069    2.226732    0.604697

 Total Charge           Charge          ....    0
 Multiplicity           Mult            ....    1
 Number of Electrons    NEL             ....   64
 Basis Dimension        Dim             ....  232

ORBITAL ENERGIES
----------------

  NO   OCC          E(Eh)            E(eV)
   0   2.0000     -10.016888      -272.5734
   1   2.0000     -10.014791      -272.5163
   2   2.0000     -10.011103      -272.4160
   3   2.0000     -10.010959      -272.4121
   4   2.0000     -10.009979      -272.3854
   5   2.0000     -10.009542      -272.3735
   6   2.0000     -10.009190      -272.3639
   7   2.0000     -10.005874      -272.2737
   8   2.0000      -0.799478       -21.7549
   9   2.0000      -0.740141       -20.1403
  10   2.0000      -0.675308       -18.3761
  11   2.0000      -0.664018       -18.0688
  12   2.0000      -0.623333       -16.9617
  13   2.0000      -0.546172       -14.8621
  14   2.0000      -0.518362       -14.1054
  15   2.0000      -0.500835       -13.6284
  16   2.0000      -0.445362       -12.1189
  17   2.0000      -0.432012       -11.7556
  18   2.0000      -0.409725       -11.1492
  19   2.0000      -0.400084       -10.8868
  20   2.0000      -0.368780       -10.0350
  21   2.0000      -0.363546        -9.8926
  22   2.0000      -0.349411        -9.5080
  23   2.0000      -0.319489        -8.6937
  24   2.0000      -0.307045        -8.3551
  25   2.0000      -0.297735        -8.1018
  26   2.0000      -0.295763        -8.0481
  27   2.0000      -0.293524        -7.9872
  28   2.0000      -0.280595        -7.6354
  29   2.0000      -0.273287        -7.4365
  30   2.0000      -0.264174        -7.1885
  31   2.0000      -0.260829        -7.0975
  32   0.0000       0.085039         2.3140
  33   0.0000       0.098072         2.6687
  34   0.0000       0.111899         3.0449
  35   0.0000       0.118927         3.2362
  36   0.0000       0.126470         3.4414

MULLIKEN ATOMIC CHARGES
-----------------------
   0 C :   -0.527853
   1 C :   -0.275087
   2 C :   -0.324172
   3 C :    0.026023
   4 C :   -0.385037
   5 C :   -0.374036
   6 C :   -0.287055
   7 C :   -0.420620
   8 H :    0.153291
   9 H :    0.157979
  10 H :    0.162607
  11 H :    0.147074
  12 H :    0.152046
  13 H :    0.158926
  14 H :    0.155712
  15 H :    0.169606
  16 H :    0.162224
  17 H :    0.166763
  18 H :    0.160504
  19 H :    0.167938
  20 H :    0.160325
  21 H :    0.162164
  22 H :    0.167549
  23 H :    0.163129
Sum of atomic charges:    0.0000000

LOEWDIN ATOMIC CHARGES
----------------------
   0 C :   -0.435928
   1 C :   -0.314691
   2 C :   -0.298509
   3 C :   -0.230699
   4 C :   -0.305324
   5 C :   -0.314999
   6 C :   -0.310354
   7 C :   -0.302750
   8 H :    0.151009
   9 H :    0.151992
  10 H :    0.153226
  11 H :    0.152130
  12 H :    0.152632
  13 H :    0.160981
  14 H :    0.160049
  15 H :    0.163176
  16 H :    0.158969
  17 H :    0.161645
  18 H :    0.158417
  19 H :    0.157398
  20 H :    0.156662
  21 H :    0.156873
  22 H :    0.158993
  23 H :    0.159102

  Mayer bond orders larger than 0.100000
B(  0-C ,  1-C ) :   0.8665 B(  0-C ,  8-H ) :   0.9660 B(  0-C ,  9-H ) :   0.9788
B(  0-C , 10-H ) :   0.9773 B(  1-C ,  2-C ) :   0.8878 B(  1-C , 11-H ) :   0.9736
B(  1-C , 12-H ) :   0.9977 B(  2-C ,  3-C ) :   0.8706 B(  2-C , 13-H ) :   0.9737
B(  2-C , 14-H ) :   0.9779 B(  3-C ,  4-C ) :   0.8705 B(  3-C ,  7-C ) :   0.8636
B(  3-C , 15-H ) :   0.9542 B(  4-C ,  5-C ) :   0.9338 B(  4-C , 16-H ) :   0.9730
B(  4-C , 17-H ) :   0.9643 B(  5-C ,  6-C ) :   0.9183 B(  5-C , 18-H ) :   0.9771
B(  5-C , 19-H ) :   0.9934 B(  6-C ,  7-C ) :   0.8849 B(  6-C , 20-H ) :   0.9543
B(  6-C , 21-H ) :   0.9853 B(  7-C , 22-H ) :   0.9983 B(  7-C , 23-H ) :   0.9713

Dispersion correction           -0.007233434
FINAL SINGLE POINT ENERGY      -314.376132002955

DIPOLE MOMENT
-------------

Method             : SCF
Type of density    : Electron Density
Multiplicity       :   1
Irrep              :   0
Energy             :  -314.3791864685998689 Eh
Relativity type    :
Basis              : AO
                                X                 Y                 Z
Electronic contribution:      2.189563912       1.086094154       0.535081423
Nuclear contribution   :     -2.222560696      -1.065912960      -0.517744918
                        -----------------------------------------
Total Dipole Moment    :     -0.032996784       0.020181193       0.017336505
                        -----------------------------------------
Magnitude (a.u.)       :      0.042386587
Magnitude (Debye)      :      0.107738141

Rotational constants in cm-1:             0.128869             0.041274             0.036443
Rotational constants in MHz :          3863.405079          1237.360170          1092.539149

                             ****ORCA TERMINATED NORMALLY****
TOTAL RUN TIME: 0 days 0 hours 0 minutes 30 seconds 983 msec
