                         Program Version 6.0.0  -   RELEASE  -
|  1> ! r2scan-3c def2/J RI DEFGRID2 scfconv6 printgap
|  2> %output
|  3>     printlevel normal
|  4> end
|  5> * xyz 0 1
|  6> C -1.6343173927 0.1517559383 1.5144976597
|  7> C -1.2702017077 -0.4630942079 0.1623772539
|  8> C -2.4948208326 -0.3980839798 -0.7533046353
|  9> C -0.0464243889 0.1827334961 -0.5351772011
| 10> C 0.065604255 1.6812207825 -0.2592079709
| 11> C 1.2631990223 -0.5902623996 -0.2584055601
| 12> C 2.4045922691 -0.0798674433 -1.1403786826
| 13> C 1.7090443275 -0.5859954557 1.2020678985
| 14> H -2.4055935452 -0.4512977628 1.9899535083
| 15> H -0.7801457578 0.1949813746 2.1822139526
| 16> H -2.0259312428 1.1574699211 1.3885832488
| 17> H -1.0363050155 -1.5217289823 0.3257486381
| 18> H -2.3117777247 -0.9308325636 -1.6838600486
| 19> H -2.7390142446 0.6350512643 -0.9907759098
| 20> H -3.3571904441 -0.8482412039 -0.266583655
| 21> H -0.217965412 0.0737928733 -1.6137874654
| 22> H -0.879118106 2.1710861277 -0.4821655908
| 23> H 0.8262258779 2.1260033787 -0.8948544733
| 24> H 0.3200615886 1.8824505575 0.7765786494
| 25> H 1.0712976291 -1.6328850568 -0.5434400092
| 26> H 2.7386576752 0.9012530852 -0.8134761164
| 27> H 3.2521072375 -0.7593807305 -1.0830722148
| 28> H 2.0909339531 -0.0131545658 -2.1798041598
| 29> H 0.9769875305 -1.0760430903 1.8373043687
| 30> H 1.8672617614 0.4280389518 1.5594149546
| 31> H 2.6491252098 -1.1258911337 1.2967824162
| 32> *
| 33>
| 34>                          ****END OF INPUT****

CARTESIAN COORDINATES (ANGSTROEM)
---------------------------------
  C     -1.634317    0.151756    1.514498
  C     -1.270202   -0.463094    0.162377
  C     -2.494821   -0.398084   -0.753305
  C     -0.046424    0.182733   -0.535177
  C      0.065604    1.681221   -0.259208
  C      1.263199   -0.590262   -0.258406
  C      2.404592   -0.079867   -1.140379
  C      1.709044   -0.585995    1.202068
  H     -2.405594   -0.451298    1.989954
  H     -0.780146    0.194981    2.182214
  H     -2.025931    1.157470    1.388583
  H     -1.036305   -1.521729    0.325749
  H     -2.311778   -0.930833   -1.683860
  H     -2.739014    0.635051   -0.990776
  H     -3.357190   -0.848241   -0.266584
  H     -0.217965    0.073793   -1.613787
  H     -0.879118    2.171086   -0.482166
  H      0.826226    2.126003   -0.894854
  H      0.320062    1.882451    0.776579
  H      1.071298   -1.632885   -0.543440
  H      2.738658    0.901253   -0.813476
  H      3.252107   -0.759381   -1.083072
  H      2.090934   -0.013155   -2.179804
  H      0.976988   -1.076043    1.837304
  H      1.867262    0.428039    1.559415
  H      2.649125   -1.125891    1.296782

 Total Charge           Charge          ....    0
 Multiplicity           Mult            ....    1
 Number of Electrons    NEL             ....   66
 Basis Dimension        Dim             ....  242

ORBITAL ENERGIES
----------------

  NO   OCC          E(Eh)            E(eV)
   0   2.0000     -10.029182      -272.9079
   1   2.0000     -10.028751      -272.8962
   2   2.0000     -10.026108      -272.8243
   3   2.0000     -10.012401      -272.4513
   4   2.0000     -10.012290      -272.4483
   5   2.0000     -10.011833      -272.4358
   6   2.0000     -10.011813      -272.4353
   7   2.0000     -10.011044      -272.4144
   8   2.0000      -0.793037       -21.5796
   9   2.0000      -0.742960       -20.2170
  10   2.0000      -0.686385       -18.6775
  11   2.0000      -0.650563       -17.7027
  12   2.0000      -0.642899       -17.4942
  13   2.0000      -0.607137       -16.5210
  14   2.0000      -0.533956       -14.5297
  15   2.0000      -0.495340       -13.4789
  16   2.0000      -0.441803       -12.0221
  17   2.0000      -0.430910       -11.7257
  18   2.0000      -0.418108       -11.3773
  19   2.0000      -0.394062       -10.7230
  20   2.0000      -0.374729       -10.1969
  21   2.0000      -0.367675       -10.0050
  22   2.0000      -0.358059        -9.7433
  23   2.0000      -0.350743        -9.5442
  24   2.0000      -0.346300        -9.4233
  25   2.0000      -0.336182        -9.1480
  26   2.0000      -0.335257        -9.1228
  27   2.0000      -0.317587        -8.6420
  28   2.0000      -0.301128        -8.1941
  29   2.0000      -0.294180        -8.0051
  30   2.0000      -0.277153        -7.5417
  31   2.0000      -0.272225        -7.4076
  32   2.0000      -0.262557        -7.1445
  33   0.0000       0.073486         1.9996
  34   0.0000       0.103267         2.8100
  35   0.0000       0.109968         2.9924
  36   0.0000       0.112791         3.0692
  37   0.0000       0.124575         3.3898

MULLIKEN ATOMIC CHARGES
-----------------------
   0 C :   -0.488881
   1 C :   -0.097767
   2 C :   -0.500304
   3 C :   -0.035201
   4 C :   -0.572126
   5 C :   -0.002135
   6 C :   -0.522504
   7 C :   -0.545023
   8 H :    0.149351
   9 H :    0.158941
  10 H :    0.151301
  11 H :    0.154465
  12 H :    0.147823
  13 H :    0.151678
  14 H :    0.143970
  15 H :    0.156665
  16 H :    0.155433
  17 H :    0.157237
  18 H :    0.165852
  19 H :    0.155698
  20 H :    0.156974
  21 H :    0.149599
  22 H :    0.147638
  23 H :    0.154299
  24 H :    0.163130
  25 H :    0.143889
Sum of atomic charges:   -0.0000000

LOEWDIN ATOMIC CHARGES
----------------------
   0 C :   -0.415858
   1 C :   -0.239727
   2 C :   -0.414917
   3 C :   -0.226458
   4 C :   -0.411324
   5 C :   -0.238252
   6 C :   -0.418330
   7 C :   -0.416758
   8 H :    0.153696
   9 H :    0.154027
  10 H :    0.154235
  11 H :    0.157763
  12 H :    0.151553
  13 H :    0.152890
  14 H :    0.151931
  15 H :    0.162347
  16 H :    0.154871
  17 H :    0.155922
  18 H :    0.154815
  19 H :    0.156469
  20 H :    0.153187
  21 H :    0.152852
  22 H :    0.153590
  23 H :    0.154145
  24 H :    0.153344
  25 H :    0.153987

  Mayer bond orders larger than 0.100000
B(  0-C ,  1-C ) :   0.8903 B(  0-C ,  8-H ) :   0.9744 B(  0-C ,  9-H ) :   0.9775
B(  0-C , 10-H ) :   0.9732 B(  1-C ,  2-C ) :   0.9062 B(  1-C ,  3-C ) :   0.8505
B(  1-C , 11-H ) :   0.9896 B(  2-C , 12-H ) :   0.9810 B(  2-C , 13-H ) :   0.9845
B(  2-C , 14-H ) :   0.9754 B(  3-C ,  4-C ) :   0.8475 B(  3-C ,  5-C ) :   0.8560
B(  3-C , 15-H ) :   1.0071 B(  4-C , 16-H ) :   0.9801 B(  4-C , 17-H ) :   0.9705
B(  4-C , 18-H ) :   0.9786 B(  5-C ,  6-C ) :   0.8976 B(  5-C ,  7-C ) :   0.8631
B(  5-C , 19-H ) :   0.9830 B(  6-C , 20-H ) :   0.9848 B(  6-C , 21-H ) :   0.9742
B(  6-C , 22-H ) :   0.9777 B(  7-C , 23-H ) :   0.9716 B(  7-C , 24-H ) :   0.9901
B(  7-C , 25-H ) :   0.9673

Dispersion correction           -0.008128343
FINAL SINGLE POINT ENERGY      -315.583204021043

DIPOLE MOMENT
-------------

Method             : SCF
Type of density    : Electron Density
Multiplicity       :   1
Irrep              :   0
Energy             :  -315.5879829751661418 Eh
Relativity type    :
Basis              : AO
                                X                 Y                 Z
Electronic contribution:     -0.031083759      -1.200033828      -0.781114114
Nuclear contribution   :      0.037167122       1.135806438       0.754995044
                        -----------------------------------------
Total Dipole Moment    :      0.006083363      -0.064227390      -0.026119070
                        -----------------------------------------
Magnitude (a.u.)       :      0.069601514
Magnitude (Debye)      :      0.176912990

Rotational constants in cm-1:             0.095813             0.042495             0.039048
Rotational constants in MHz :          2872.396530          1273.956342          1170.639520

                             ****ORCA TERMINATED NORMALLY****
TOTAL RUN TIME: 0 days 0 hours 0 minutes 27 seconds 781 msec
