                         Program Version 6.0.0  -   RELEASE  -
|  1> ! r2scan-3c def2/J RI DEFGRID2 scfconv6 printgap
|  2> %output
|  3>     printlevel normal
|  4> end
|  5> %cpcm
|  6>     smd true
|  7>     smdsolvent "water"
|  8> end
|  9> * xyz 0 1
| 10> C -1.6343173927 0.1517559383 1.5144976597
| 11> C -1.2702017077 -0.4630942079 0.1623772539
| 12> C -2.4948208326 -0.3980839798 -0.7533046353
| 13> C -0.0464243889 0.1827334961 -0.5351772011
| 14> C 0.065604255 1.6812207825 -0.2592079709
| 15> C 1.2631990223 -0.5902623996 -0.2584055601
| 16> C 2.4045922691 -0.0798674433 -1.1403786826
| 17> C 1.7090443275 -0.5859954557 1.2020678985
| 18> H -2.4055935452 -0.4512977628 1.9899535083
| 19> H -0.7801457578 0.1949813746 2.1822139526
| 20> H -2.0259312428 1.1574699211 1.3885832488
| 21> H -1.0363050155 -1.5217289823 0.3257486381
| 22> H -2.3117777247 -0.9308325636 -1.6838600486
| 23> H -2.7390142446 0.6350512643 -0.9907759098
| 24> H -3.3571904441 -0.8482412039 -0.266583655
| 25> H -0.217965412 0.0737928733 -1.6137874654
| 26> H -0.879118106 2.1710861277 -0.4821655908
| 27> H 0.8262258779 2.1260033787 -0.8948544733
| 28> H 0.3200615886 1.8824505575 0.7765786494
| 29> H 1.0712976291 -1.6328850568 -0.5434400092
| 30> H 2.7386576752 0.9012530852 -0.8134761164
| 31> H 3.2521072375 -0.7593807305 -1.0830722148
| 32> H 2.0909339531 -0.0131545658 -2.1798041598
| 33> H 0.9769875305 -1.0760430903 1.8373043687
| 34> H 1.8672617614 0.4280389518 1.5594149546
| 35> H 2.6491252098 -1.1258911337 1.2967824162
| 36> *
| 37>
| 38>                          ****END OF INPUT****

CARTESIAN COORDINATES (ANGSTROEM)
---------------------------------
  C     -1.634317    0.151756    1.514498
  C     -1.270202   -0.463094    0.162377
  C     -2.494821   -0.398084   -0.753305
  C     -0.046424    0.182733   -0.535177
  C      0.065604    1.681221   -0.259208
  C      1.263199   -0.590262   -0.258406
  C      2.404592   -0.079867   -1.140379
  C      1.709044   -0.585995    1.202068
  H     -2.405594   -0.451298    1.989954
  H     -0.780146    0.194981    2.182214
  H     -2.025931    1.157470    1.388583
  H     -1.036305   -1.521729    0.325749
  H     -2.311778   -0.930833   -1.683860
  H     -2.739014    0.635051   -0.990776
  H     -3.357190   -0.848241   -0.266584
  H     -0.217965    0.073793   -1.613787
  H     -0.879118    2.171086   -0.482166
  H      0.826226    2.126003   -0.894854
  H      0.320062    1.882451    0.776579
  H      1.071298   -1.632885   -0.543440
  H      2.738658    0.901253   -0.813476
  H      3.252107   -0.759381   -1.083072
  H      2.090934   -0.013155   -2.179804
  H      0.976988   -1.076043    1.837304
  H      1.867262    0.428039    1.559415
  H      2.649125   -1.125891    1.296782

 Total Charge           Charge          ....    0
 Multiplicity           Mult            ....    1
 Number of Electrons    NEL             ....   66
 Basis Dimension        Dim             ....  242

ORBITAL ENERGIES
----------------

  NO   OCC          E(Eh)            E(eV)
   0   2.0000     -10.020971      -272.6845
   1   2.0000     -10.020706      -272.6773
   2   2.0000     -10.017636      -272.5937
   3   2.0000     -10.004382      -272.2331
   4   2.0000     -10.003773      -272.2165
   5   2.0000     -10.003743      -272.2157
   6   2.0000     -10.003077      -272.1976
   7   2.0000     -10.003053      -272.1969
   8   2.0000      -0.784733       -21.3537
   9   2.0000      -0.735023       -20.0010
  10   2.0000      -0.678333       -18.4584
  11   2.0000      -0.642991       -17.4967
  12   2.0000      -0.635424       -17.2908
  13   2.0000      -0.599172       -16.3043
  14   2.0000      -0.526344       -14.3225
  15   2.0000      -0.487248       -13.2587
  16   2.0000      -0.433363       -11.7924
  17   2.0000      -0.422732       -11.5031
  18   2.0000      -0.410137       -11.1604
  19   2.0000      -0.386264       -10.5108
  20   2.0000      -0.366777        -9.9805
  21   2.0000      -0.359574        -9.7845
  22   2.0000      -0.350345        -9.5334
  23   2.0000      -0.342189        -9.3114
  24   2.0000      -0.338318        -9.2061
  25   2.0000      -0.328208        -8.9310
  26   2.0000      -0.327298        -8.9062
  27   2.0000      -0.309518        -8.4224
  28   2.0000      -0.293305        -7.9812
  29   2.0000      -0.285929        -7.7805
  30   2.0000      -0.268801        -7.3145
  31   2.0000      -0.263890        -7.1808
  32   2.0000      -0.254508        -6.9255
  33   0.0000       0.082412         2.2425
  34   0.0000       0.110986         3.0201
  35   0.0000       0.118099         3.2136
  36   0.0000       0.120878         3.2893
  37   0.0000       0.131640         3.5821

MULLIKEN ATOMIC CHARGES
-----------------------
   0 C :   -0.532162
   1 C :   -0.075188
   2 C :   -0.548160
   3 C :   -0.033006
   4 C :   -0.606594
   5 C :    0.006166
   6 C :   -0.561347
   7 C :   -0.581763
   8 H :    0.159361
   9 H :    0.168091
  10 H :    0.160624
  11 H :    0.161088
  12 H :    0.158048
  13 H :    0.164695
  14 H :    0.153950
  15 H :    0.162467
  16 H :    0.167958
  17 H :    0.164878
  18 H :    0.174723
  19 H :    0.161651
  20 H :    0.166328
  21 H :    0.160125
  22 H :    0.157157
  23 H :    0.163510
  24 H :    0.173730
  25 H :    0.153670
Sum of atomic charges:   -0.0000000

LOEWDIN ATOMIC CHARGES
----------------------
   0 C :   -0.423811
   1 C :   -0.237514
   2 C :   -0.424167
   3 C :   -0.225314
   4 C :   -0.419100
   5 C :   -0.236742
   6 C :   -0.426831
   7 C :   -0.424477
   8 H :    0.155446
   9 H :    0.156182
  10 H :    0.155878
  11 H :    0.159692
  12 H :    0.153621
  13 H :    0.155827
  14 H :    0.153545
  15 H :    0.163949
  16 H :    0.157671
  17 H :    0.157136
  18 H :    0.157123
  19 H :    0.158141
  20 H :    0.155375
  21 H :    0.154738
  22 H :    0.155601
  23 H :    0.156479
  24 H :    0.156180
  25 H :    0.155371

  Mayer bond orders larger than 0.100000
B(  0-C ,  1-C ) :   0.8781 B(  0-C ,  8-H ) :   0.9728 B(  0-C ,  9-H ) :   0.9753
B(  0-C , 10-H ) :   0.9741 B(  1-C ,  2-C ) :   0.8956 B(  1-C ,  3-C ) :   0.8517
B(  1-C , 11-H ) :   0.9909 B(  2-C , 12-H ) :   0.9781 B(  2-C , 13-H ) :   0.9828
B(  2-C , 14-H ) :   0.9745 B(  3-C ,  4-C ) :   0.8446 B(  3-C ,  5-C ) :   0.8566
B(  3-C , 15-H ) :   1.0073 B(  4-C , 16-H ) :   0.9771 B(  4-C , 17-H ) :   0.9685
B(  4-C , 18-H ) :   0.9758 B(  5-C ,  6-C ) :   0.8899 B(  5-C ,  7-C ) :   0.8607
B(  5-C , 19-H ) :   0.9840 B(  6-C , 20-H ) :   0.9819 B(  6-C , 21-H ) :   0.9727
B(  6-C , 22-H ) :   0.9758 B(  7-C , 23-H ) :   0.9693 B(  7-C , 24-H ) :   0.9861
B(  7-C , 25-H ) :   0.9668

Dispersion correction           -0.008128343
FINAL SINGLE POINT ENERGY      -315.579042872137

DIPOLE MOMENT
-------------

Method             : SCF
Type of density    : Electron Density
Multiplicity       :   1
Irrep              :   0
Energy             :  -315.5838218262603618 Eh
Relativity type    :
Basis              : AO
                                X                 Y                 Z
Electronic contribution:     -0.033969723      -1.213124910      -0.785261216
Nuclear contribution   :      0.037167122       1.135806438       0.754995044
                        -----------------------------------------
Total Dipole Moment    :      0.003197399      -0.077318472      -0.030266172
                        -----------------------------------------
Magnitude (a.u.)       :      0.083092783
Magnitude (Debye)      :      0.211205069

Rotational constants in cm-1:             0.095813             0.042495             0.039048
Rotational constants in MHz :          2872.396530          1273.956342          1170.639520

                             ****ORCA TERMINATED NORMALLY****
TOTAL RUN TIME: 0 days 0 hours 0 minutes 33 seconds 403 msec
