                         Program Version 6.0.0  -   RELEASE  -
|  1> ! r2scan-3c def2/J RI DEFGRID2 scfconv6 printgap
|  2> %output
|  3>     printlevel normal
|  4> end
|  5> * xyz 0 1
|  6> C -2.2527343035 -0.2196631795 0.1098046569
|  7> O -0.9113480698 -0.2696911129 -0.3234162552
|  8> C -0.0949506387 0.7225538705 0.2714010448
|  9> C 1.3263112992 0.5427608255 -0.2591748228
| 10> O 1.9154618981 -0.6548109545 0.1876304252
| 11> H -2.7085055895 0.7434971245 -0.1430619828
| 12> H -2.319672823 -0.3740583065 1.1921492565
| 13> H -2.7704709274 -1.0214227125 -0.4102971942
| 14> H -0.4655806604 1.7242070334 0.0139763572
| 15> H -0.1037286713 0.6097760676 1.364836086
| 16> H 1.9609888862 1.3502962968 0.108978984
| 17> H 1.301131637 0.5709969313 -1.3558335789
| 18> H 1.3379831013 -1.3884412973 -0.0695045082
| 19> *
| 20>
| 21>                          ****END OF INPUT****

CARTESIAN COORDINATES (ANGSTROEM)
---------------------------------
  C     -2.252734   -0.219663    0.109805
  O     -0.911348   -0.269691   -0.323416
  C     -0.094951    0.722554    0.271401
  C      1.326311    0.542761   -0.259175
  O      1.915462   -0.654811    0.187630
  H     -2.708506    0.743497   -0.143062
  H     -2.319673   -0.374058    1.192149
  H     -2.770471   -1.021423   -0.410297
  H     -0.465581    1.724207    0.013976
  H     -0.103729    0.609776    1.364836
  H      1.960989    1.350296    0.108979
  H      1.301132    0.570997   -1.355834
  H      1.337983   -1.388441   -0.069505

 Total Charge           Charge          ....    0
 Multiplicity           Mult            ....    1
 Number of Electrons    NEL             ....   42
 Basis Dimension        Dim             ....  145

ORBITAL ENERGIES
----------------

  NO   OCC          E(Eh)            E(eV)
   0   2.0000     -18.960802      -515.9497
   1   2.0000     -18.944156      -515.4967
   2   2.0000     -10.079257      -274.2705
   3   2.0000     -10.076871      -274.2056
   4   2.0000     -10.076764      -274.2027
   5   2.0000      -1.008530       -27.4435
   6   2.0000      -0.979587       -26.6559
   7   2.0000      -0.720728       -19.6120
   8   2.0000      -0.644041       -17.5253
   9   2.0000      -0.578431       -15.7399
  10   2.0000      -0.481653       -13.1064
  11   2.0000      -0.461718       -12.5640
  12   2.0000      -0.450263       -12.2523
  13   2.0000      -0.420709       -11.4481
  14   2.0000      -0.385691       -10.4952
  15   2.0000      -0.380368       -10.3504
  16   2.0000      -0.352374        -9.5886
  17   2.0000      -0.300760        -8.1841
  18   2.0000      -0.294915        -8.0251
  19   2.0000      -0.235245        -6.4013
  20   2.0000      -0.231161        -6.2902
  21   0.0000       0.054879         1.4933
  22   0.0000       0.093817         2.5529
  23   0.0000       0.112087         3.0500
  24   0.0000       0.112680         3.0662
  25   0.0000       0.131935         3.5901

MULLIKEN ATOMIC CHARGES
-----------------------
   0 C :   -0.282442
   1 O :   -0.253701
   2 C :   -0.143306
   3 C :   -0.140332
   4 O :   -0.423013
   5 H :    0.132143
   6 H :    0.133775
   7 H :    0.147945
   8 H :    0.118973
   9 H :    0.133325
  10 H :    0.131977
  11 H :    0.133022
  12 H :    0.311633
Sum of atomic charges:    0.0000000

LOEWDIN ATOMIC CHARGES
----------------------
   0 C :   -0.070763
   1 O :   -0.802401
   2 C :    0.014895
   3 C :    0.022008
   4 O :   -0.600717
   5 H :    0.155925
   6 H :    0.156253
   7 H :    0.174928
   8 H :    0.164881
   9 H :    0.168653
  10 H :    0.178860
  11 H :    0.164634
  12 H :    0.272843

  Mayer bond orders larger than 0.100000
B(  0-C ,  1-O ) :   0.8953 B(  0-C ,  5-H ) :   0.9676 B(  0-C ,  6-H ) :   0.9658
B(  0-C ,  7-H ) :   0.9725 B(  1-O ,  2-C ) :   0.9156 B(  2-C ,  3-C ) :   0.9743
B(  2-C ,  8-H ) :   0.9407 B(  2-C ,  9-H ) :   0.9494 B(  3-C ,  4-O ) :   0.9697
B(  3-C , 10-H ) :   0.9647 B(  3-C , 11-H ) :   0.9716 B(  4-O , 12-H ) :   0.8789

Dispersion correction           -0.002402608
FINAL SINGLE POINT ENERGY      -269.494683337759

DIPOLE MOMENT
-------------

Method             : SCF
Type of density    : Electron Density
Multiplicity       :   1
Irrep              :   0
Energy             :  -269.5027945039007591 Eh
Relativity type    :
Basis              : AO
                                X                 Y                 Z
Electronic contribution:      2.753701373      -1.714104609      -0.629078667
Nuclear contribution   :     -3.519973530       2.064170958       0.655869111
                        -----------------------------------------
Total Dipole Moment    :     -0.766272158       0.350066349       0.026790444
                        -----------------------------------------
Magnitude (a.u.)       :      0.842874366
Magnitude (Debye)      :      2.142416377

Rotational constants in cm-1:             0.454543             0.087894             0.080277
Rotational constants in MHz :         13626.846799          2635.005047          2406.635099

                             ****ORCA TERMINATED NORMALLY****
TOTAL RUN TIME: 0 days 0 hours 0 minutes 15 seconds 599 msec
