                         Program Version 6.0.0  -   RELEASE  -
|  1> ! r2scan-3c def2/J RI DEFGRID2 scfconv6 printgap
|  2> %output
|  3>     printlevel normal
|  4> end
|  5> * xyz 0 1
|  6> C 1.9156813827 -1.0546604484 0.2896629801
|  7> C 1.260251894 0.1900482296 0.8819468571
|  8> C 0.1799724429 0.8485670263 0.0037244114
|  9> H -0.0403037037 1.8285148411 0.4670934263
| 10> C -1.1813772087 0.1316252475 -0.114986788
| 11> C -1.1173980079 -1.2115619983 -0.8378300173
| 12> C -1.8629240671 -0.0153088984 1.2424394883
| 13> O 0.6483461292 1.0701659218 -1.3171443276
| 14> H 2.0799898389 -0.9222033937 -0.7768207415
| 15> H 1.3018036818 -1.9374673316 0.4334715933
| 16> H 2.8757519313 -1.2304011313 0.7693797051
| 17> H 0.8288597312 -0.0347081575 1.8565650285
| 18> H 2.0370635452 0.9440705997 1.0399856674
| 19> H -1.7869478979 0.8041347364 -0.7352071433
| 20> H -2.1172094521 -1.5063578534 -1.1482245929
| 21> H -0.4910719508 -1.1289293054 -1.7213774601
| 22> H -0.7225457782 -1.9879970377 -0.1900865768
| 23> H -2.8810397847 -0.3695648777 1.1036555196
| 24> H -1.8974179103 0.938088252 1.7647057423
| 25> H -1.3362977828 -0.7348183755 1.8641395753
| 26> H 1.4600485749 1.5929239341 -1.2766187162
| 27> *
| 28>
| 29>                          ****END OF INPUT****

CARTESIAN COORDINATES (ANGSTROEM)
---------------------------------
  C      1.915681   -1.054660    0.289663
  C      1.260252    0.190048    0.881947
  C      0.179972    0.848567    0.003724
  H     -0.040304    1.828515    0.467093
  C     -1.181377    0.131625   -0.114987
  C     -1.117398   -1.211562   -0.837830
  C     -1.862924   -0.015309    1.242439
  O      0.648346    1.070166   -1.317144
  H      2.079990   -0.922203   -0.776821
  H      1.301804   -1.937467    0.433472
  H      2.875752   -1.230401    0.769380
  H      0.828860   -0.034708    1.856565
  H      2.037064    0.944071    1.039986
  H     -1.786948    0.804135   -0.735207
  H     -2.117209   -1.506358   -1.148225
  H     -0.491072   -1.128929   -1.721377
  H     -0.722546   -1.987997   -0.190087
  H     -2.881040   -0.369565    1.103656
  H     -1.897418    0.938088    1.764706
  H     -1.336298   -0.734818    1.864140
  H      1.460049    1.592924   -1.276619

 Total Charge           Charge          ....    0
 Multiplicity           Mult            ....    1
 Number of Electrons    NEL             ....   58
 Basis Dimension        Dim             ....  208

ORBITAL ENERGIES
----------------

  NO   OCC          E(Eh)            E(eV)
   0   2.0000     -18.945738      -515.5398
   1   2.0000     -10.077129      -274.2126
   2   2.0000     -10.030604      -272.9466
   3   2.0000     -10.026948      -272.8471
   4   2.0000     -10.017035      -272.5774
   5   2.0000     -10.012866      -272.4639
   6   2.0000     -10.007113      -272.3074
   7   2.0000      -0.984119       -26.7792
   8   2.0000      -0.770381       -20.9631
   9   2.0000      -0.725748       -19.7486
  10   2.0000      -0.649375       -17.6704
  11   2.0000      -0.640091       -17.4178
  12   2.0000      -0.575564       -15.6619
  13   2.0000      -0.508284       -13.8311
  14   2.0000      -0.465338       -12.6625
  15   2.0000      -0.447563       -12.1788
  16   2.0000      -0.425735       -11.5848
  17   2.0000      -0.398968       -10.8565
  18   2.0000      -0.387655       -10.5486
  19   2.0000      -0.360707        -9.8153
  20   2.0000      -0.349964        -9.5230
  21   2.0000      -0.341204        -9.2846
  22   2.0000      -0.333988        -9.0883
  23   2.0000      -0.330118        -8.9830
  24   2.0000      -0.302521        -8.2320
  25   2.0000      -0.300319        -8.1721
  26   2.0000      -0.292009        -7.9460
  27   2.0000      -0.266931        -7.2636
  28   2.0000      -0.233092        -6.3428
  29   0.0000       0.058271         1.5856
  30   0.0000       0.091482         2.4893
  31   0.0000       0.111335         3.0296
  32   0.0000       0.122898         3.3442
  33   0.0000       0.128508         3.4969

MULLIKEN ATOMIC CHARGES
-----------------------
   0 C :   -0.473534
   1 C :   -0.313457
   2 C :    0.048314
   3 H :    0.128476
   4 C :    0.019353
   5 C :   -0.561480
   6 C :   -0.517759
   7 O :   -0.439382
   8 H :    0.173355
   9 H :    0.140724
  10 H :    0.144696
  11 H :    0.150590
  12 H :    0.141658
  13 H :    0.151668
  14 H :    0.147613
  15 H :    0.178891
  16 H :    0.141391
  17 H :    0.149101
  18 H :    0.147881
  19 H :    0.154277
  20 H :    0.287623
Sum of atomic charges:   -0.0000000

LOEWDIN ATOMIC CHARGES
----------------------
   0 C :   -0.420258
   1 C :   -0.294249
   2 C :    0.057775
   3 H :    0.166068
   4 C :   -0.209794
   5 C :   -0.407285
   6 C :   -0.413009
   7 O :   -0.628564
   8 H :    0.163340
   9 H :    0.150006
  10 H :    0.148820
  11 H :    0.162025
  12 H :    0.154014
  13 H :    0.168081
  14 H :    0.152519
  15 H :    0.169568
  16 H :    0.149496
  17 H :    0.156337
  18 H :    0.154367
  19 H :    0.151616
  20 H :    0.269125

  Mayer bond orders larger than 0.100000
B(  0-C ,  1-C ) :   0.8687 B(  0-C ,  8-H ) :   0.9884 B(  0-C ,  9-H ) :   0.9709
B(  0-C , 10-H ) :   0.9691 B(  1-C ,  2-C ) :   0.9118 B(  1-C , 11-H ) :   0.9705
B(  1-C , 12-H ) :   0.9731 B(  2-C ,  3-H ) :   0.9619 B(  2-C ,  4-C ) :   0.9414
B(  2-C ,  7-O ) :   0.8971 B(  4-C ,  5-C ) :   0.8884 B(  4-C ,  6-C ) :   0.8899
B(  4-C , 13-H ) :   0.9511 B(  5-C , 14-H ) :   0.9667 B(  5-C , 15-H ) :   0.9700
B(  5-C , 16-H ) :   0.9840 B(  6-C , 17-H ) :   0.9669 B(  6-C , 18-H ) :   0.9749
B(  6-C , 19-H ) :   0.9837 B(  7-O , 20-H ) :   0.9005

Dispersion correction           -0.005882082
FINAL SINGLE POINT ENERGY      -312.198367238037

DIPOLE MOMENT
-------------

Method             : SCF
Type of density    : Electron Density
Multiplicity       :   1
Irrep              :   0
Energy             :  -312.2038744157869132 Eh
Relativity type    :
Basis              : AO
                                X                 Y                 Z
Electronic contribution:      0.884393346       3.715764436      -2.795310800
Nuclear contribution   :     -0.637070083      -3.497273111       3.217736948
                        -----------------------------------------
Total Dipole Moment    :      0.247323263       0.218491325       0.422426148
                        -----------------------------------------
Magnitude (a.u.)       :      0.536051403
Magnitude (Debye)      :      1.362534383

Rotational constants in cm-1:             0.101720             0.064364             0.059850
Rotational constants in MHz :          3049.498093          1929.586473          1794.260804

                             ****ORCA TERMINATED NORMALLY****
TOTAL RUN TIME: 0 days 0 hours 0 minutes 25 seconds 121 msec
