                         Program Version 6.0.0  -   RELEASE  -
|  1> ! r2scan-3c def2/J RI DEFGRID2 scfconv6 printgap
|  2> %output
|  3>     printlevel normal
|  4> end
|  5> %cpcm
|  6>     smd true
|  7>     smdsolvent "water"
|  8> end
|  9> * xyz 0 1
| 10> C 1.9156813827 -1.0546604484 0.2896629801
| 11> C 1.260251894 0.1900482296 0.8819468571
| 12> C 0.1799724429 0.8485670263 0.0037244114
| 13> H -0.0403037037 1.8285148411 0.4670934263
| 14> C -1.1813772087 0.1316252475 -0.114986788
| 15> C -1.1173980079 -1.2115619983 -0.8378300173
| 16> C -1.8629240671 -0.0153088984 1.2424394883
| 17> O 0.6483461292 1.0701659218 -1.3171443276
| 18> H 2.0799898389 -0.9222033937 -0.7768207415
| 19> H 1.3018036818 -1.9374673316 0.4334715933
| 20> H 2.8757519313 -1.2304011313 0.7693797051
| 21> H 0.8288597312 -0.0347081575 1.8565650285
| 22> H 2.0370635452 0.9440705997 1.0399856674
| 23> H -1.7869478979 0.8041347364 -0.7352071433
| 24> H -2.1172094521 -1.5063578534 -1.1482245929
| 25> H -0.4910719508 -1.1289293054 -1.7213774601
| 26> H -0.7225457782 -1.9879970377 -0.1900865768
| 27> H -2.8810397847 -0.3695648777 1.1036555196
| 28> H -1.8974179103 0.938088252 1.7647057423
| 29> H -1.3362977828 -0.7348183755 1.8641395753
| 30> H 1.4600485749 1.5929239341 -1.2766187162
| 31> *
| 32>
| 33>                          ****END OF INPUT****

CARTESIAN COORDINATES (ANGSTROEM)
---------------------------------
  C      1.915681   -1.054660    0.289663
  C      1.260252    0.190048    0.881947
  C      0.179972    0.848567    0.003724
  H     -0.040304    1.828515    0.467093
  C     -1.181377    0.131625   -0.114987
  C     -1.117398   -1.211562   -0.837830
  C     -1.862924   -0.015309    1.242439
  O      0.648346    1.070166   -1.317144
  H      2.079990   -0.922203   -0.776821
  H      1.301804   -1.937467    0.433472
  H      2.875752   -1.230401    0.769380
  H      0.828860   -0.034708    1.856565
  H      2.037064    0.944071    1.039986
  H     -1.786948    0.804135   -0.735207
  H     -2.117209   -1.506358   -1.148225
  H     -0.491072   -1.128929   -1.721377
  H     -0.722546   -1.987997   -0.190087
  H     -2.881040   -0.369565    1.103656
  H     -1.897418    0.938088    1.764706
  H     -1.336298   -0.734818    1.864140
  H      1.460049    1.592924   -1.276619

 Total Charge           Charge          ....    0
 Multiplicity           Mult            ....    1
 Number of Electrons    NEL             ....   58
 Basis Dimension        Dim             ....  208

ORBITAL ENERGIES
----------------

  NO   OCC          E(Eh)            E(eV)
   0   2.0000     -18.946977      -515.5735
   1   2.0000     -10.071330      -274.0548
   2   2.0000     -10.026210      -272.8270
   3   2.0000     -10.016717      -272.5687
   4   2.0000     -10.008565      -272.3469
   5   2.0000     -10.006196      -272.2824
   6   2.0000     -10.004817      -272.2449
   7   2.0000      -0.984309       -26.7844
   8   2.0000      -0.764965       -20.8157
   9   2.0000      -0.718366       -19.5477
  10   2.0000      -0.645431       -17.5631
  11   2.0000      -0.633979       -17.2514
  12   2.0000      -0.569360       -15.4931
  13   2.0000      -0.503835       -13.7100
  14   2.0000      -0.460528       -12.5316
  15   2.0000      -0.441070       -12.0021
  16   2.0000      -0.420489       -11.4421
  17   2.0000      -0.395207       -10.7541
  18   2.0000      -0.379811       -10.3352
  19   2.0000      -0.355569        -9.6755
  20   2.0000      -0.345123        -9.3913
  21   2.0000      -0.340433        -9.2637
  22   2.0000      -0.328062        -8.9270
  23   2.0000      -0.322915        -8.7870
  24   2.0000      -0.297904        -8.1064
  25   2.0000      -0.295878        -8.0512
  26   2.0000      -0.288457        -7.8493
  27   2.0000      -0.261669        -7.1204
  28   2.0000      -0.234335        -6.3766
  29   0.0000       0.074023         2.0143
  30   0.0000       0.101999         2.7755
  31   0.0000       0.120135         3.2690
  32   0.0000       0.129835         3.5330
  33   0.0000       0.135222         3.6796

MULLIKEN ATOMIC CHARGES
-----------------------
   0 C :   -0.527754
   1 C :   -0.303956
   2 C :    0.052569
   3 H :    0.141700
   4 C :    0.025812
   5 C :   -0.591759
   6 C :   -0.559738
   7 O :   -0.521506
   8 H :    0.169388
   9 H :    0.157218
  10 H :    0.157086
  11 H :    0.161626
  12 H :    0.159442
  13 H :    0.155576
  14 H :    0.161942
  15 H :    0.166120
  16 H :    0.163925
  17 H :    0.160050
  18 H :    0.160403
  19 H :    0.170535
  20 H :    0.341321
Sum of atomic charges:   -0.0000000

LOEWDIN ATOMIC CHARGES
----------------------
   0 C :   -0.427884
   1 C :   -0.291733
   2 C :    0.059478
   3 H :    0.173225
   4 C :   -0.211012
   5 C :   -0.416647
   6 C :   -0.418607
   7 O :   -0.662228
   8 H :    0.159377
   9 H :    0.152959
  10 H :    0.152509
  11 H :    0.166306
  12 H :    0.161523
  13 H :    0.166760
  14 H :    0.155969
  15 H :    0.162914
  16 H :    0.156212
  17 H :    0.158608
  18 H :    0.158331
  19 H :    0.156787
  20 H :    0.287153

  Mayer bond orders larger than 0.100000
B(  0-C ,  1-C ) :   0.8500 B(  0-C ,  8-H ) :   0.9904 B(  0-C ,  9-H ) :   0.9715
B(  0-C , 10-H ) :   0.9656 B(  1-C ,  2-C ) :   0.9238 B(  1-C , 11-H ) :   0.9690
B(  1-C , 12-H ) :   0.9687 B(  2-C ,  3-H ) :   0.9588 B(  2-C ,  4-C ) :   0.9302
B(  2-C ,  7-O ) :   0.8859 B(  4-C ,  5-C ) :   0.8693 B(  4-C ,  6-C ) :   0.8915
B(  4-C , 13-H ) :   0.9566 B(  5-C , 14-H ) :   0.9654 B(  5-C , 15-H ) :   0.9720
B(  5-C , 16-H ) :   0.9804 B(  6-C , 17-H ) :   0.9647 B(  6-C , 18-H ) :   0.9713
B(  6-C , 19-H ) :   0.9809 B(  7-O , 20-H ) :   0.8752

Dispersion correction           -0.005882082
FINAL SINGLE POINT ENERGY      -312.203270089469

DIPOLE MOMENT
-------------

Method             : SCF
Type of density    : Electron Density
Multiplicity       :   1
Irrep              :   0
Energy             :  -312.2087772672191477 Eh
Relativity type    :
Basis              : AO
                                X                 Y                 Z
Electronic contribution:      0.993935707       3.808021262      -2.500867596
Nuclear contribution   :     -0.637070083      -3.497273111       3.217736948
                        -----------------------------------------
Total Dipole Moment    :      0.356865623       0.310748151       0.716869352
                        -----------------------------------------
Magnitude (a.u.)       :      0.858964001
Magnitude (Debye)      :      2.183312979

Rotational constants in cm-1:             0.101720             0.064364             0.059850
Rotational constants in MHz :          3049.498093          1929.586473          1794.260804

                             ****ORCA TERMINATED NORMALLY****
TOTAL RUN TIME: 0 days 0 hours 0 minutes 33 seconds 505 msec
