                         Program Version 6.0.0  -   RELEASE  -
|  1> ! r2scan-3c def2/J RI DEFGRID2 scfconv6 printgap
|  2> %output
|  3>     printlevel normal
|  4> end
|  5> %cpcm
|  6>     smd true
|  7>     smdsolvent "water"
|  8> end
|  9> * xyz 0 1
| 10> C -2.3964713969 -0.2297756368 -0.9364873926
| 11> C -1.7413349953 0.7263881718 0.0542330046
| 12> C -0.5837066817 0.1288825519 0.8584898602
| 13> C 0.7753120888 -0.0853931149 0.1563274703
| 14> C 1.2273367132 1.1593395404 -0.6080994067
| 15> C 0.7868158447 -1.3082804843 -0.7667235656
| 16> O 1.7598440903 -0.2752826964 1.1807308194
| 17> H -1.7489393813 -0.4351547423 -1.7830259658
| 18> H -3.3163684091 0.2079210893 -1.3179181855
| 19> H -2.6420560159 -1.1723226891 -0.4527763179
| 20> H -1.4097141579 1.6247940864 -0.46619779
| 21> H -2.5008906775 1.0349779238 0.7771506788
| 22> H -0.3800321557 0.8032724822 1.6956016887
| 23> H -0.9085362483 -0.826728118 1.2801412301
| 24> H 2.2604023313 1.0254764443 -0.9186158664
| 25> H 1.1758720017 2.0309250027 0.0389644494
| 26> H 0.6114817598 1.3197008419 -1.4863958379
| 27> H 0.3467307193 -2.1712243326 -0.2718773655
| 28> H 1.8165149322 -1.5432307842 -1.0290590061
| 29> H 0.2378842808 -1.1127082086 -1.6807126414
| 30> H 1.5458384598 -1.0772726988 1.6756402132
| 31> *
| 32>
| 33>                          ****END OF INPUT****

CARTESIAN COORDINATES (ANGSTROEM)
---------------------------------
  C     -2.396471   -0.229776   -0.936487
  C     -1.741335    0.726388    0.054233
  C     -0.583707    0.128883    0.858490
  C      0.775312   -0.085393    0.156327
  C      1.227337    1.159340   -0.608099
  C      0.786816   -1.308280   -0.766724
  O      1.759844   -0.275283    1.180731
  H     -1.748939   -0.435155   -1.783026
  H     -3.316368    0.207921   -1.317918
  H     -2.642056   -1.172323   -0.452776
  H     -1.409714    1.624794   -0.466198
  H     -2.500891    1.034978    0.777151
  H     -0.380032    0.803272    1.695602
  H     -0.908536   -0.826728    1.280141
  H      2.260402    1.025476   -0.918616
  H      1.175872    2.030925    0.038964
  H      0.611482    1.319701   -1.486396
  H      0.346731   -2.171224   -0.271877
  H      1.816515   -1.543231   -1.029059
  H      0.237884   -1.112708   -1.680713
  H      1.545838   -1.077273    1.675640

 Total Charge           Charge          ....    0
 Multiplicity           Mult            ....    1
 Number of Electrons    NEL             ....   58
 Basis Dimension        Dim             ....  208

ORBITAL ENERGIES
----------------

  NO   OCC          E(Eh)            E(eV)
   0   2.0000     -18.944372      -515.5026
   1   2.0000     -10.083099      -274.3751
   2   2.0000     -10.017576      -272.5921
   3   2.0000     -10.014235      -272.5012
   4   2.0000     -10.008741      -272.3517
   5   2.0000     -10.006829      -272.2997
   6   2.0000     -10.006539      -272.2918
   7   2.0000      -0.982295       -26.7296
   8   2.0000      -0.761893       -20.7322
   9   2.0000      -0.715418       -19.4675
  10   2.0000      -0.651048       -17.7159
  11   2.0000      -0.643785       -17.5183
  12   2.0000      -0.561179       -15.2705
  13   2.0000      -0.520024       -14.1506
  14   2.0000      -0.456503       -12.4221
  15   2.0000      -0.427592       -11.6354
  16   2.0000      -0.409013       -11.1298
  17   2.0000      -0.395147       -10.7525
  18   2.0000      -0.381530       -10.3819
  19   2.0000      -0.362323        -9.8593
  20   2.0000      -0.347574        -9.4580
  21   2.0000      -0.341106        -9.2820
  22   2.0000      -0.335960        -9.1419
  23   2.0000      -0.322461        -8.7746
  24   2.0000      -0.303834        -8.2677
  25   2.0000      -0.292450        -7.9580
  26   2.0000      -0.283424        -7.7124
  27   2.0000      -0.275305        -7.4914
  28   2.0000      -0.234967        -6.3938
  29   0.0000       0.079634         2.1669
  30   0.0000       0.093087         2.5330
  31   0.0000       0.118035         3.2119
  32   0.0000       0.131415         3.5760
  33   0.0000       0.133485         3.6323

MULLIKEN ATOMIC CHARGES
-----------------------
   0 C :   -0.509437
   1 C :   -0.274332
   2 C :   -0.273873
   3 C :    0.237933
   4 C :   -0.564535
   5 C :   -0.540968
   6 O :   -0.510729
   7 H :    0.154485
   8 H :    0.153462
   9 H :    0.157399
  10 H :    0.158288
  11 H :    0.147336
  12 H :    0.159002
  13 H :    0.155873
  14 H :    0.165407
  15 H :    0.167831
  16 H :    0.178819
  17 H :    0.166449
  18 H :    0.164009
  19 H :    0.169483
  20 H :    0.338096
Sum of atomic charges:    0.0000000

LOEWDIN ATOMIC CHARGES
----------------------
   0 C :   -0.432460
   1 C :   -0.310041
   2 C :   -0.279954
   3 C :    0.063983
   4 C :   -0.383003
   5 C :   -0.392700
   6 O :   -0.652696
   7 H :    0.150925
   8 H :    0.152204
   9 H :    0.153064
  10 H :    0.157736
  11 H :    0.156321
  12 H :    0.171540
  13 H :    0.165276
  14 H :    0.167702
  15 H :    0.165804
  16 H :    0.166478
  17 H :    0.163140
  18 H :    0.165541
  19 H :    0.164319
  20 H :    0.286821

  Mayer bond orders larger than 0.100000
B(  0-C ,  1-C ) :   0.8832 B(  0-C ,  7-H ) :   0.9760 B(  0-C ,  8-H ) :   0.9669
B(  0-C ,  9-H ) :   0.9824 B(  1-C ,  2-C ) :   0.8886 B(  1-C , 10-H ) :   0.9770
B(  1-C , 11-H ) :   0.9580 B(  2-C ,  3-C ) :   0.9015 B(  2-C , 12-H ) :   0.9717
B(  2-C , 13-H ) :   0.9741 B(  3-C ,  4-C ) :   0.9178 B(  3-C ,  5-C ) :   0.9386
B(  3-C ,  6-O ) :   0.8420 B(  4-C , 14-H ) :   0.9680 B(  4-C , 15-H ) :   0.9679
B(  4-C , 16-H ) :   0.9680 B(  5-C , 17-H ) :   0.9648 B(  5-C , 18-H ) :   0.9697
B(  5-C , 19-H ) :   0.9661 B(  6-O , 20-H ) :   0.8780

Dispersion correction           -0.005843305
FINAL SINGLE POINT ENERGY      -312.209337010604

DIPOLE MOMENT
-------------

Method             : SCF
Type of density    : Electron Density
Multiplicity       :   1
Irrep              :   0
Energy             :  -312.2146828454617662 Eh
Relativity type    :
Basis              : AO
                                X                 Y                 Z
Electronic contribution:      3.823749723      -0.176831792       3.478407421
Nuclear contribution   :     -4.581966046      -0.277629228      -3.677978978
                        -----------------------------------------
Total Dipole Moment    :     -0.758216324      -0.454461020      -0.199571557
                        -----------------------------------------
Magnitude (a.u.)       :      0.906231548
Magnitude (Debye)      :      2.303457535

Rotational constants in cm-1:             0.128241             0.055298             0.052898
Rotational constants in MHz :          3844.563964          1657.796774          1585.840592

                             ****ORCA TERMINATED NORMALLY****
TOTAL RUN TIME: 0 days 0 hours 0 minutes 32 seconds 656 msec
