                         Program Version 6.0.0  -   RELEASE  -
|  1> ! r2scan-3c def2/J RI DEFGRID2 scfconv6 printgap
|  2> %output
|  3>     printlevel normal
|  4> end
|  5> * xyz 0 1
|  6> C -2.6042256555 -0.4371966386 -0.5777329389
|  7> C -1.7008017602 0.1316084993 0.5111144129
|  8> C -0.4819416365 0.8824200725 -0.0438283927
|  9> C 0.832267136 0.0742049737 0.0029620504
| 10> C 1.9844435973 0.9633398273 -0.4839141115
| 11> C 0.7606053971 -1.1878279252 -0.8574851047
| 12> O 1.0896495752 -0.3721847551 1.3319918061
| 13> H -2.9981848786 0.3651746912 -1.198139805
| 14> H -3.4431972902 -0.9660275797 -0.1307859291
| 15> H -2.0640672963 -1.1300643781 -1.216237214
| 16> H -2.2935578648 0.8121233602 1.1260031664
| 17> H -1.351953355 -0.6727375162 1.162562605
| 18> H -0.6677400425 1.1821131887 -1.0754643289
| 19> H -0.3262632697 1.7943506102 0.538060307
| 20> H 2.0370236654 1.8801519922 0.0999704605
| 21> H 1.8402739142 1.2253698782 -1.5277873741
| 22> H 2.927619623 0.4316672619 -0.3822878958
| 23> H 0.4946857361 -0.9347881759 -1.8788669348
| 24> H 0.0275872647 -1.8756592407 -0.4474897529
| 25> H 1.7275996225 -1.6844249581 -0.851324608
| 26> H 1.2083424733 0.3976888811 1.9038996534
| 27> *
| 28>
| 29>                          ****END OF INPUT****

CARTESIAN COORDINATES (ANGSTROEM)
---------------------------------
  C     -2.604226   -0.437197   -0.577733
  C     -1.700802    0.131608    0.511114
  C     -0.481942    0.882420   -0.043828
  C      0.832267    0.074205    0.002962
  C      1.984444    0.963340   -0.483914
  C      0.760605   -1.187828   -0.857485
  O      1.089650   -0.372185    1.331992
  H     -2.998185    0.365175   -1.198140
  H     -3.443197   -0.966028   -0.130786
  H     -2.064067   -1.130064   -1.216237
  H     -2.293558    0.812123    1.126003
  H     -1.351953   -0.672738    1.162563
  H     -0.667740    1.182113   -1.075464
  H     -0.326263    1.794351    0.538060
  H      2.037024    1.880152    0.099970
  H      1.840274    1.225370   -1.527787
  H      2.927620    0.431667   -0.382288
  H      0.494686   -0.934788   -1.878867
  H      0.027587   -1.875659   -0.447490
  H      1.727600   -1.684425   -0.851325
  H      1.208342    0.397689    1.903900

 Total Charge           Charge          ....    0
 Multiplicity           Mult            ....    1
 Number of Electrons    NEL             ....   58
 Basis Dimension        Dim             ....  208

ORBITAL ENERGIES
----------------

  NO   OCC          E(Eh)            E(eV)
   0   2.0000     -18.943174      -515.4700
   1   2.0000     -10.087388      -274.4918
   2   2.0000     -10.022218      -272.7184
   3   2.0000     -10.019389      -272.6414
   4   2.0000     -10.017614      -272.5931
   5   2.0000     -10.014588      -272.5108
   6   2.0000     -10.012778      -272.4615
   7   2.0000      -0.983007       -26.7490
   8   2.0000      -0.767236       -20.8776
   9   2.0000      -0.724115       -19.7042
  10   2.0000      -0.658523       -17.9193
  11   2.0000      -0.646498       -17.5921
  12   2.0000      -0.558971       -15.2104
  13   2.0000      -0.534886       -14.5550
  14   2.0000      -0.450898       -12.2696
  15   2.0000      -0.435022       -11.8376
  16   2.0000      -0.428924       -11.6716
  17   2.0000      -0.392575       -10.6825
  18   2.0000      -0.382936       -10.4202
  19   2.0000      -0.370656       -10.0861
  20   2.0000      -0.355884        -9.6841
  21   2.0000      -0.352001        -9.5784
  22   2.0000      -0.336856        -9.1663
  23   2.0000      -0.329744        -8.9728
  24   2.0000      -0.306597        -8.3429
  25   2.0000      -0.298110        -8.1120
  26   2.0000      -0.290076        -7.8934
  27   2.0000      -0.274939        -7.4815
  28   2.0000      -0.233008        -6.3405
  29   0.0000       0.058215         1.5841
  30   0.0000       0.098194         2.6720
  31   0.0000       0.110702         3.0124
  32   0.0000       0.119865         3.2617
  33   0.0000       0.122882         3.3438

MULLIKEN ATOMIC CHARGES
-----------------------
   0 C :   -0.496328
   1 C :   -0.262627
   2 C :   -0.262409
   3 C :    0.144779
   4 C :   -0.461324
   5 C :   -0.526805
   6 O :   -0.409130
   7 H :    0.144657
   8 H :    0.145707
   9 H :    0.149873
  10 H :    0.138906
  11 H :    0.178569
  12 H :    0.149346
  13 H :    0.150291
  14 H :    0.138729
  15 H :    0.150828
  16 H :    0.165054
  17 H :    0.158126
  18 H :    0.165021
  19 H :    0.153478
  20 H :    0.285259
Sum of atomic charges:    0.0000000

LOEWDIN ATOMIC CHARGES
----------------------
   0 C :   -0.425568
   1 C :   -0.314970
   2 C :   -0.281156
   3 C :    0.058407
   4 C :   -0.390293
   5 C :   -0.372332
   6 O :   -0.607923
   7 H :    0.147536
   8 H :    0.150301
   9 H :    0.149950
  10 H :    0.151974
  11 H :    0.170188
  12 H :    0.164445
  13 H :    0.159783
  14 H :    0.154760
  15 H :    0.160432
  16 H :    0.163553
  17 H :    0.159374
  18 H :    0.166764
  19 H :    0.164119
  20 H :    0.270655

  Mayer bond orders larger than 0.100000
B(  0-C ,  1-C ) :   0.9000 B(  0-C ,  7-H ) :   0.9868 B(  0-C ,  8-H ) :   0.9751
B(  0-C ,  9-H ) :   0.9766 B(  1-C ,  2-C ) :   0.8258 B(  1-C , 10-H ) :   0.9638
B(  1-C , 11-H ) :   0.9794 B(  2-C ,  3-C ) :   0.9275 B(  2-C , 12-H ) :   0.9775
B(  2-C , 13-H ) :   0.9717 B(  3-C ,  4-C ) :   0.9568 B(  3-C ,  5-C ) :   0.9162
B(  3-C ,  6-O ) :   0.8862 B(  4-C , 14-H ) :   0.9655 B(  4-C , 15-H ) :   0.9780
B(  4-C , 16-H ) :   0.9785 B(  5-C , 17-H ) :   0.9797 B(  5-C , 18-H ) :   0.9665
B(  5-C , 19-H ) :   0.9647 B(  6-O , 20-H ) :   0.9009

Dispersion correction           -0.005736703
FINAL SINGLE POINT ENERGY      -312.204927865111

DIPOLE MOMENT
-------------

Method             : SCF
Type of density    : Electron Density
Multiplicity       :   1
Irrep              :   0
Energy             :  -312.2102115202230266 Eh
Relativity type    :
Basis              : AO
                                X                 Y                 Z
Electronic contribution:      2.669002188      -0.237311564       3.462433071
Nuclear contribution   :     -2.687458205       0.768403265      -3.618325044
                        -----------------------------------------
Total Dipole Moment    :     -0.018456017       0.531091701      -0.155891973
                        -----------------------------------------
Magnitude (a.u.)       :      0.553806217
Magnitude (Debye)      :      1.407663536

Rotational constants in cm-1:             0.134369             0.053565             0.051892
Rotational constants in MHz :          4028.285926          1605.837386          1555.682053

                             ****ORCA TERMINATED NORMALLY****
TOTAL RUN TIME: 0 days 0 hours 0 minutes 27 seconds 543 msec
