                         Program Version 6.0.0  -   RELEASE  -
|  1> ! r2scan-3c def2/J RI DEFGRID2 scfconv6 printgap
|  2> %output
|  3>     printlevel normal
|  4> end
|  5> %cpcm
|  6>     smd true
|  7>     smdsolvent "water"
|  8> end
|  9> * xyz 0 1
| 10> C -2.6042256555 -0.4371966386 -0.5777329389
| 11> C -1.7008017602 0.1316084993 0.5111144129
| 12> C -0.4819416365 0.8824200725 -0.0438283927
| 13> C 0.832267136 0.0742049737 0.0029620504
| 14> C 1.9844435973 0.9633398273 -0.4839141115
| 15> C 0.7606053971 -1.1878279252 -0.8574851047
| 16> O 1.0896495752 -0.3721847551 1.3319918061
| 17> H -2.9981848786 0.3651746912 -1.198139805
| 18> H -3.4431972902 -0.9660275797 -0.1307859291
| 19> H -2.0640672963 -1.1300643781 -1.216237214
| 20> H -2.2935578648 0.8121233602 1.1260031664
| 21> H -1.351953355 -0.6727375162 1.162562605
| 22> H -0.6677400425 1.1821131887 -1.0754643289
| 23> H -0.3262632697 1.7943506102 0.538060307
| 24> H 2.0370236654 1.8801519922 0.0999704605
| 25> H 1.8402739142 1.2253698782 -1.5277873741
| 26> H 2.927619623 0.4316672619 -0.3822878958
| 27> H 0.4946857361 -0.9347881759 -1.8788669348
| 28> H 0.0275872647 -1.8756592407 -0.4474897529
| 29> H 1.7275996225 -1.6844249581 -0.851324608
| 30> H 1.2083424733 0.3976888811 1.9038996534
| 31> *
| 32>
| 33>                          ****END OF INPUT****

CARTESIAN COORDINATES (ANGSTROEM)
---------------------------------
  C     -2.604226   -0.437197   -0.577733
  C     -1.700802    0.131608    0.511114
  C     -0.481942    0.882420   -0.043828
  C      0.832267    0.074205    0.002962
  C      1.984444    0.963340   -0.483914
  C      0.760605   -1.187828   -0.857485
  O      1.089650   -0.372185    1.331992
  H     -2.998185    0.365175   -1.198140
  H     -3.443197   -0.966028   -0.130786
  H     -2.064067   -1.130064   -1.216237
  H     -2.293558    0.812123    1.126003
  H     -1.351953   -0.672738    1.162563
  H     -0.667740    1.182113   -1.075464
  H     -0.326263    1.794351    0.538060
  H      2.037024    1.880152    0.099970
  H      1.840274    1.225370   -1.527787
  H      2.927620    0.431667   -0.382288
  H      0.494686   -0.934788   -1.878867
  H      0.027587   -1.875659   -0.447490
  H      1.727600   -1.684425   -0.851325
  H      1.208342    0.397689    1.903900

 Total Charge           Charge          ....    0
 Multiplicity           Mult            ....    1
 Number of Electrons    NEL             ....   58
 Basis Dimension        Dim             ....  208

ORBITAL ENERGIES
----------------

  NO   OCC          E(Eh)            E(eV)
   0   2.0000     -18.945918      -515.5446
   1   2.0000     -10.082487      -274.3584
   2   2.0000     -10.014158      -272.4991
   3   2.0000     -10.012540      -272.4551
   4   2.0000     -10.008200      -272.3370
   5   2.0000     -10.007467      -272.3170
   6   2.0000     -10.006229      -272.2833
   7   2.0000      -0.984496       -26.7895
   8   2.0000      -0.760707       -20.6999
   9   2.0000      -0.717967       -19.5369
  10   2.0000      -0.651471       -17.7274
  11   2.0000      -0.638737       -17.3809
  12   2.0000      -0.553331       -15.0569
  13   2.0000      -0.530745       -14.4423
  14   2.0000      -0.446014       -12.1367
  15   2.0000      -0.429412       -11.6849
  16   2.0000      -0.421461       -11.4685
  17   2.0000      -0.387484       -10.5440
  18   2.0000      -0.376287       -10.2393
  19   2.0000      -0.363657        -9.8956
  20   2.0000      -0.349006        -9.4969
  21   2.0000      -0.345071        -9.3899
  22   2.0000      -0.331970        -9.0333
  23   2.0000      -0.324935        -8.8419
  24   2.0000      -0.301269        -8.1979
  25   2.0000      -0.292499        -7.9593
  26   2.0000      -0.285446        -7.7674
  27   2.0000      -0.270604        -7.3635
  28   2.0000      -0.235335        -6.4038
  29   0.0000       0.073794         2.0080
  30   0.0000       0.105852         2.8804
  31   0.0000       0.118998         3.2381
  32   0.0000       0.130670         3.5557
  33   0.0000       0.134640         3.6637

MULLIKEN ATOMIC CHARGES
-----------------------
   0 C :   -0.531609
   1 C :   -0.272783
   2 C :   -0.278659
   3 C :    0.195920
   4 C :   -0.515095
   5 C :   -0.570237
   6 O :   -0.499716
   7 H :    0.156552
   8 H :    0.153454
   9 H :    0.159367
  10 H :    0.151287
  11 H :    0.163733
  12 H :    0.164407
  13 H :    0.168661
  14 H :    0.162516
  15 H :    0.169281
  16 H :    0.167210
  17 H :    0.179449
  18 H :    0.172273
  19 H :    0.163005
  20 H :    0.340984
Sum of atomic charges:   -0.0000000

LOEWDIN ATOMIC CHARGES
----------------------
   0 C :   -0.432788
   1 C :   -0.317045
   2 C :   -0.280383
   3 C :    0.061611
   4 C :   -0.395070
   5 C :   -0.381624
   6 O :   -0.644066
   7 H :    0.151131
   8 H :    0.151374
   9 H :    0.152513
  10 H :    0.154973
  11 H :    0.164057
  12 H :    0.169530
  13 H :    0.167000
  14 H :    0.162487
  15 H :    0.166184
  16 H :    0.163051
  17 H :    0.167768
  18 H :    0.166811
  19 H :    0.164049
  20 H :    0.288439

  Mayer bond orders larger than 0.100000
B(  0-C ,  1-C ) :   0.8970 B(  0-C ,  7-H ) :   0.9831 B(  0-C ,  8-H ) :   0.9732
B(  0-C ,  9-H ) :   0.9748 B(  1-C ,  2-C ) :   0.8148 B(  1-C , 10-H ) :   0.9654
B(  1-C , 11-H ) :   0.9832 B(  2-C ,  3-C ) :   0.9214 B(  2-C , 12-H ) :   0.9767
B(  2-C , 13-H ) :   0.9702 B(  3-C ,  4-C ) :   0.9428 B(  3-C ,  5-C ) :   0.9170
B(  3-C ,  6-O ) :   0.8610 B(  4-C , 14-H ) :   0.9662 B(  4-C , 15-H ) :   0.9746
B(  4-C , 16-H ) :   0.9742 B(  5-C , 17-H ) :   0.9726 B(  5-C , 18-H ) :   0.9632
B(  5-C , 19-H ) :   0.9651 B(  6-O , 20-H ) :   0.8750

Dispersion correction           -0.005736703
FINAL SINGLE POINT ENERGY      -312.210252651847

DIPOLE MOMENT
-------------

Method             : SCF
Type of density    : Electron Density
Multiplicity       :   1
Irrep              :   0
Energy             :  -312.2155363069593932 Eh
Relativity type    :
Basis              : AO
                                X                 Y                 Z
Electronic contribution:      2.636240725       0.073286606       3.347148902
Nuclear contribution   :     -2.687458205       0.768403265      -3.618325044
                        -----------------------------------------
Total Dipole Moment    :     -0.051217480       0.841689870      -0.271176142
                        -----------------------------------------
Magnitude (a.u.)       :      0.885777380
Magnitude (Debye)      :      2.251467174

Rotational constants in cm-1:             0.134369             0.053565             0.051892
Rotational constants in MHz :          4028.285926          1605.837386          1555.682053

                             ****ORCA TERMINATED NORMALLY****
TOTAL RUN TIME: 0 days 0 hours 0 minutes 32 seconds 599 msec
