                         Program Version 6.0.0  -   RELEASE  -
|  1> ! r2scan-3c def2/J RI DEFGRID2 scfconv6 printgap
|  2> %output
|  3>     printlevel normal
|  4> end
|  5> * xyz 0 1
|  6> C -1.9588430439 -1.3954323076 0.3946335046
|  7> C -1.4930893826 -0.0060783577 -0.0440654123
|  8> C -1.6023779886 0.9666983279 1.1276280305
|  9> C -0.09475556 -0.0651010062 -0.70102428
| 10> C 0.1534964902 1.1750966638 -1.5606579888
| 11> C 1.06357513 -0.3560795935 0.2823387422
| 12> C 2.1096441761 -1.2492994895 -0.3886538695
| 13> C 1.7588515397 0.8877095116 0.837533479
| 14> H -1.3251020338 -1.7912116572 1.1845890023
| 15> H -2.9773958668 -1.3469925043 0.7729743013
| 16> H -1.9374132385 -2.0905220133 -0.4417470706
| 17> H -2.1841766436 0.3368971258 -0.8240905122
| 18> H -1.294515783 1.9673714205 0.8367673496
| 19> H -0.9929338803 0.6376969951 1.9651108841
| 20> H -2.635948505 1.0190055588 1.4641060401
| 21> H -0.1359311163 -0.9176340363 -1.3905073096
| 22> H 1.1180559399 1.1079602335 -2.0575201569
| 23> H 0.1333073302 2.0847175877 -0.9681249911
| 24> H -0.6146063651 1.2523633433 -2.3275565968
| 25> H 0.6534098486 -0.9144782972 1.1296259935
| 26> H 2.5212397298 -0.7609900345 -1.2693420927
| 27> H 2.9275554223 -1.4575913244 0.2977100987
| 28> H 1.6712322019 -2.196787053 -0.6941592691
| 29> H 2.4709731203 0.5905809435 1.6053352885
| 30> H 1.0518391417 1.5791465622 1.2836438516
| 31> H 2.3071148875 1.4067697219 0.0560530097
| 32> *
| 33>
| 34>                          ****END OF INPUT****

CARTESIAN COORDINATES (ANGSTROEM)
---------------------------------
  C     -1.958843   -1.395432    0.394634
  C     -1.493089   -0.006078   -0.044065
  C     -1.602378    0.966698    1.127628
  C     -0.094756   -0.065101   -0.701024
  C      0.153496    1.175097   -1.560658
  C      1.063575   -0.356080    0.282339
  C      2.109644   -1.249299   -0.388654
  C      1.758852    0.887710    0.837533
  H     -1.325102   -1.791212    1.184589
  H     -2.977396   -1.346993    0.772974
  H     -1.937413   -2.090522   -0.441747
  H     -2.184177    0.336897   -0.824091
  H     -1.294516    1.967371    0.836767
  H     -0.992934    0.637697    1.965111
  H     -2.635949    1.019006    1.464106
  H     -0.135931   -0.917634   -1.390507
  H      1.118056    1.107960   -2.057520
  H      0.133307    2.084718   -0.968125
  H     -0.614606    1.252363   -2.327557
  H      0.653410   -0.914478    1.129626
  H      2.521240   -0.760990   -1.269342
  H      2.927555   -1.457591    0.297710
  H      1.671232   -2.196787   -0.694159
  H      2.470973    0.590581    1.605335
  H      1.051839    1.579147    1.283644
  H      2.307115    1.406770    0.056053

 Total Charge           Charge          ....    0
 Multiplicity           Mult            ....    1
 Number of Electrons    NEL             ....   66
 Basis Dimension        Dim             ....  242

ORBITAL ENERGIES
----------------

  NO   OCC          E(Eh)            E(eV)
   0   2.0000     -10.029090      -272.9054
   1   2.0000     -10.028870      -272.8994
   2   2.0000     -10.025954      -272.8201
   3   2.0000     -10.012890      -272.4646
   4   2.0000     -10.012218      -272.4463
   5   2.0000     -10.012067      -272.4422
   6   2.0000     -10.011959      -272.4393
   7   2.0000     -10.010864      -272.4095
   8   2.0000      -0.793400       -21.5895
   9   2.0000      -0.741652       -20.1814
  10   2.0000      -0.689693       -18.7675
  11   2.0000      -0.652124       -17.7452
  12   2.0000      -0.642256       -17.4767
  13   2.0000      -0.597472       -16.2580
  14   2.0000      -0.546735       -14.8774
  15   2.0000      -0.491895       -13.3852
  16   2.0000      -0.438545       -11.9334
  17   2.0000      -0.430309       -11.7093
  18   2.0000      -0.413675       -11.2567
  19   2.0000      -0.395516       -10.7625
  20   2.0000      -0.382808       -10.4167
  21   2.0000      -0.367979       -10.0132
  22   2.0000      -0.357773        -9.7355
  23   2.0000      -0.352618        -9.5952
  24   2.0000      -0.344794        -9.3823
  25   2.0000      -0.339594        -9.2408
  26   2.0000      -0.325301        -8.8519
  27   2.0000      -0.314624        -8.5614
  28   2.0000      -0.305409        -8.3106
  29   2.0000      -0.299043        -8.1374
  30   2.0000      -0.276417        -7.5217
  31   2.0000      -0.269416        -7.3312
  32   2.0000      -0.263815        -7.1788
  33   0.0000       0.073938         2.0120
  34   0.0000       0.103309         2.8112
  35   0.0000       0.108781         2.9601
  36   0.0000       0.115076         3.1314
  37   0.0000       0.123684         3.3656

MULLIKEN ATOMIC CHARGES
-----------------------
   0 C :   -0.504151
   1 C :   -0.018084
   2 C :   -0.540003
   3 C :   -0.058297
   4 C :   -0.547523
   5 C :   -0.073818
   6 C :   -0.507470
   7 C :   -0.499779
   8 H :    0.150363
   9 H :    0.147652
  10 H :    0.148228
  11 H :    0.148896
  12 H :    0.157252
  13 H :    0.159589
  14 H :    0.146281
  15 H :    0.157314
  16 H :    0.156844
  17 H :    0.161712
  18 H :    0.147698
  19 H :    0.155449
  20 H :    0.152486
  21 H :    0.143392
  22 H :    0.149138
  23 H :    0.149004
  24 H :    0.164700
  25 H :    0.153127
Sum of atomic charges:    0.0000000

LOEWDIN ATOMIC CHARGES
----------------------
   0 C :   -0.417021
   1 C :   -0.236168
   2 C :   -0.416235
   3 C :   -0.226152
   4 C :   -0.410773
   5 C :   -0.239660
   6 C :   -0.413909
   7 C :   -0.415044
   8 H :    0.151100
   9 H :    0.152901
  10 H :    0.152828
  11 H :    0.157419
  12 H :    0.152419
  13 H :    0.153961
  14 H :    0.153513
  15 H :    0.162497
  16 H :    0.153296
  17 H :    0.153870
  18 H :    0.153681
  19 H :    0.156902
  20 H :    0.153019
  21 H :    0.151691
  22 H :    0.151964
  23 H :    0.153773
  24 H :    0.155529
  25 H :    0.154598

  Mayer bond orders larger than 0.100000
B(  0-C ,  1-C ) :   0.9223 B(  0-C ,  8-H ) :   0.9799 B(  0-C ,  9-H ) :   0.9768
B(  0-C , 10-H ) :   0.9807 B(  1-C ,  2-C ) :   0.8508 B(  1-C ,  3-C ) :   0.8643
B(  1-C , 11-H ) :   0.9895 B(  2-C , 12-H ) :   0.9844 B(  2-C , 13-H ) :   0.9777
B(  2-C , 14-H ) :   0.9662 B(  3-C ,  4-C ) :   0.8893 B(  3-C ,  5-C ) :   0.8090
B(  3-C , 15-H ) :   1.0125 B(  4-C , 16-H ) :   0.9858 B(  4-C , 17-H ) :   0.9785
B(  4-C , 18-H ) :   0.9729 B(  5-C ,  6-C ) :   0.8991 B(  5-C ,  7-C ) :   0.8742
B(  5-C , 19-H ) :   0.9935 B(  6-C , 20-H ) :   0.9865 B(  6-C , 21-H ) :   0.9757
B(  6-C , 22-H ) :   0.9824 B(  7-C , 23-H ) :   0.9754 B(  7-C , 24-H ) :   0.9781
B(  7-C , 25-H ) :   0.9737

Dispersion correction           -0.008197539
FINAL SINGLE POINT ENERGY      -315.583483889301

DIPOLE MOMENT
-------------

Method             : SCF
Type of density    : Electron Density
Multiplicity       :   1
Irrep              :   0
Energy             :  -315.5881944560744046 Eh
Relativity type    :
Basis              : AO
                                X                 Y                 Z
Electronic contribution:     -0.760290392      -0.493986701      -0.597618025
Nuclear contribution   :      0.709910839       0.474993648       0.584350692
                        -----------------------------------------
Total Dipole Moment    :     -0.050379553      -0.018993053      -0.013267333
                        -----------------------------------------
Magnitude (a.u.)       :      0.055451398
Magnitude (Debye)      :      0.140946253

Rotational constants in cm-1:             0.081540             0.046394             0.043082
Rotational constants in MHz :          2444.498631          1390.871229          1291.560402

                             ****ORCA TERMINATED NORMALLY****
TOTAL RUN TIME: 0 days 0 hours 0 minutes 27 seconds 978 msec
