                         Program Version 6.0.0  -   RELEASE  -
|  1> ! r2scan-3c def2/J RI DEFGRID2 scfconv6 printgap
|  2> %output
|  3>     printlevel normal
|  4> end
|  5> %cpcm
|  6>     smd true
|  7>     smdsolvent "water"
|  8> end
|  9> * xyz 0 1
| 10> C -1.9588430439 -1.3954323076 0.3946335046
| 11> C -1.4930893826 -0.0060783577 -0.0440654123
| 12> C -1.6023779886 0.9666983279 1.1276280305
| 13> C -0.09475556 -0.0651010062 -0.70102428
| 14> C 0.1534964902 1.1750966638 -1.5606579888
| 15> C 1.06357513 -0.3560795935 0.2823387422
| 16> C 2.1096441761 -1.2492994895 -0.3886538695
| 17> C 1.7588515397 0.8877095116 0.837533479
| 18> H -1.3251020338 -1.7912116572 1.1845890023
| 19> H -2.9773958668 -1.3469925043 0.7729743013
| 20> H -1.9374132385 -2.0905220133 -0.4417470706
| 21> H -2.1841766436 0.3368971258 -0.8240905122
| 22> H -1.294515783 1.9673714205 0.8367673496
| 23> H -0.9929338803 0.6376969951 1.9651108841
| 24> H -2.635948505 1.0190055588 1.4641060401
| 25> H -0.1359311163 -0.9176340363 -1.3905073096
| 26> H 1.1180559399 1.1079602335 -2.0575201569
| 27> H 0.1333073302 2.0847175877 -0.9681249911
| 28> H -0.6146063651 1.2523633433 -2.3275565968
| 29> H 0.6534098486 -0.9144782972 1.1296259935
| 30> H 2.5212397298 -0.7609900345 -1.2693420927
| 31> H 2.9275554223 -1.4575913244 0.2977100987
| 32> H 1.6712322019 -2.196787053 -0.6941592691
| 33> H 2.4709731203 0.5905809435 1.6053352885
| 34> H 1.0518391417 1.5791465622 1.2836438516
| 35> H 2.3071148875 1.4067697219 0.0560530097
| 36> *
| 37>
| 38>                          ****END OF INPUT****

CARTESIAN COORDINATES (ANGSTROEM)
---------------------------------
  C     -1.958843   -1.395432    0.394634
  C     -1.493089   -0.006078   -0.044065
  C     -1.602378    0.966698    1.127628
  C     -0.094756   -0.065101   -0.701024
  C      0.153496    1.175097   -1.560658
  C      1.063575   -0.356080    0.282339
  C      2.109644   -1.249299   -0.388654
  C      1.758852    0.887710    0.837533
  H     -1.325102   -1.791212    1.184589
  H     -2.977396   -1.346993    0.772974
  H     -1.937413   -2.090522   -0.441747
  H     -2.184177    0.336897   -0.824091
  H     -1.294516    1.967371    0.836767
  H     -0.992934    0.637697    1.965111
  H     -2.635949    1.019006    1.464106
  H     -0.135931   -0.917634   -1.390507
  H      1.118056    1.107960   -2.057520
  H      0.133307    2.084718   -0.968125
  H     -0.614606    1.252363   -2.327557
  H      0.653410   -0.914478    1.129626
  H      2.521240   -0.760990   -1.269342
  H      2.927555   -1.457591    0.297710
  H      1.671232   -2.196787   -0.694159
  H      2.470973    0.590581    1.605335
  H      1.051839    1.579147    1.283644
  H      2.307115    1.406770    0.056053

 Total Charge           Charge          ....    0
 Multiplicity           Mult            ....    1
 Number of Electrons    NEL             ....   66
 Basis Dimension        Dim             ....  242

ORBITAL ENERGIES
----------------

  NO   OCC          E(Eh)            E(eV)
   0   2.0000     -10.020806      -272.6800
   1   2.0000     -10.020512      -272.6720
   2   2.0000     -10.017456      -272.5888
   3   2.0000     -10.004389      -272.2333
   4   2.0000     -10.003937      -272.2210
   5   2.0000     -10.003888      -272.2196
   6   2.0000     -10.003287      -272.2033
   7   2.0000     -10.002946      -272.1940
   8   2.0000      -0.785016       -21.3614
   9   2.0000      -0.733619       -19.9628
  10   2.0000      -0.681655       -18.5488
  11   2.0000      -0.644401       -17.5351
  12   2.0000      -0.634770       -17.2730
  13   2.0000      -0.589628       -16.0446
  14   2.0000      -0.538808       -14.6617
  15   2.0000      -0.483785       -13.1645
  16   2.0000      -0.430230       -11.7071
  17   2.0000      -0.422018       -11.4837
  18   2.0000      -0.405427       -11.0322
  19   2.0000      -0.387713       -10.5502
  20   2.0000      -0.374851       -10.2002
  21   2.0000      -0.360089        -9.7985
  22   2.0000      -0.349806        -9.5187
  23   2.0000      -0.344217        -9.3666
  24   2.0000      -0.336542        -9.1578
  25   2.0000      -0.331742        -9.0272
  26   2.0000      -0.317266        -8.6333
  27   2.0000      -0.306501        -8.3403
  28   2.0000      -0.296910        -8.0793
  29   2.0000      -0.291192        -7.9237
  30   2.0000      -0.268234        -7.2990
  31   2.0000      -0.260972        -7.1014
  32   2.0000      -0.255491        -6.9523
  33   0.0000       0.082954         2.2573
  34   0.0000       0.110685         3.0119
  35   0.0000       0.117152         3.1879
  36   0.0000       0.123734         3.3670
  37   0.0000       0.131062         3.5664

MULLIKEN ATOMIC CHARGES
-----------------------
   0 C :   -0.553388
   1 C :   -0.008138
   2 C :   -0.574788
   3 C :   -0.050160
   4 C :   -0.589034
   5 C :   -0.056470
   6 C :   -0.553271
   7 C :   -0.541931
   8 H :    0.163541
   9 H :    0.158362
  10 H :    0.158608
  11 H :    0.155620
  12 H :    0.168106
  13 H :    0.168504
  14 H :    0.156184
  15 H :    0.162913
  16 H :    0.168504
  17 H :    0.172023
  18 H :    0.157811
  19 H :    0.166551
  20 H :    0.165180
  21 H :    0.153524
  22 H :    0.158506
  23 H :    0.159073
  24 H :    0.172311
  25 H :    0.161860
Sum of atomic charges:    0.0000000

LOEWDIN ATOMIC CHARGES
----------------------
   0 C :   -0.426380
   1 C :   -0.234663
   2 C :   -0.424031
   3 C :   -0.224972
   4 C :   -0.419319
   5 C :   -0.237773
   6 C :   -0.423222
   7 C :   -0.422920
   8 H :    0.154060
   9 H :    0.154844
  10 H :    0.154844
  11 H :    0.159001
  12 H :    0.155578
  13 H :    0.156293
  14 H :    0.154900
  15 H :    0.164051
  16 H :    0.156066
  17 H :    0.156287
  18 H :    0.155222
  19 H :    0.160206
  20 H :    0.155802
  21 H :    0.153362
  22 H :    0.153733
  23 H :    0.155439
  24 H :    0.157490
  25 H :    0.156100

  Mayer bond orders larger than 0.100000
B(  0-C ,  1-C ) :   0.9111 B(  0-C ,  8-H ) :   0.9785 B(  0-C ,  9-H ) :   0.9753
B(  0-C , 10-H ) :   0.9781 B(  1-C ,  2-C ) :   0.8478 B(  1-C ,  3-C ) :   0.8627
B(  1-C , 11-H ) :   0.9912 B(  2-C , 12-H ) :   0.9796 B(  2-C , 13-H ) :   0.9762
B(  2-C , 14-H ) :   0.9657 B(  3-C ,  4-C ) :   0.8797 B(  3-C ,  5-C ) :   0.8095
B(  3-C , 15-H ) :   1.0125 B(  4-C , 16-H ) :   0.9819 B(  4-C , 17-H ) :   0.9766
B(  4-C , 18-H ) :   0.9720 B(  5-C ,  6-C ) :   0.8878 B(  5-C ,  7-C ) :   0.8654
B(  5-C , 19-H ) :   0.9931 B(  6-C , 20-H ) :   0.9845 B(  6-C , 21-H ) :   0.9747
B(  6-C , 22-H ) :   0.9797 B(  7-C , 23-H ) :   0.9740 B(  7-C , 24-H ) :   0.9755
B(  7-C , 25-H ) :   0.9747

Dispersion correction           -0.008197539
FINAL SINGLE POINT ENERGY      -315.579290127939

DIPOLE MOMENT
-------------

Method             : SCF
Type of density    : Electron Density
Multiplicity       :   1
Irrep              :   0
Energy             :  -315.5840006947125289 Eh
Relativity type    :
Basis              : AO
                                X                 Y                 Z
Electronic contribution:     -0.767794514      -0.495644703      -0.596941319
Nuclear contribution   :      0.709910839       0.474993648       0.584350692
                        -----------------------------------------
Total Dipole Moment    :     -0.057883675      -0.020651055      -0.012590628
                        -----------------------------------------
Magnitude (a.u.)       :      0.062733642
Magnitude (Debye)      :      0.159456245

Rotational constants in cm-1:             0.081540             0.046394             0.043082
Rotational constants in MHz :          2444.498631          1390.871229          1291.560402

                             ****ORCA TERMINATED NORMALLY****
TOTAL RUN TIME: 0 days 0 hours 0 minutes 33 seconds 501 msec
