                         Program Version 6.0.0  -   RELEASE  -
|  1> ! r2scan-3c def2/J RI DEFGRID2 scfconv6 printgap
|  2> %output
|  3>     printlevel normal
|  4> end
|  5> %cpcm
|  6>     smd true
|  7>     smdsolvent "water"
|  8> end
|  9> * xyz 0 1
| 10> C 2.4754199414 0.8218140755 0.2860943881
| 11> C 1.5326219117 0.0051169966 -0.591130916
| 12> C 0.3900129514 -0.6390319047 0.2128779104
| 13> C -1.0081168518 -0.2752849901 -0.3018941342
| 14> C -1.3358794919 1.1884669532 -0.0148509719
| 15> C -2.0591313104 -1.1784844546 0.3415877784
| 16> H 2.9290424829 0.1917507445 1.0479537834
| 17> H 3.2702024081 1.2609223 -0.3128240543
| 18> H 1.9347557277 1.6252463965 0.7811520008
| 19> H 1.1191174798 0.6543219951 -1.3649123532
| 20> H 2.1078475563 -0.7698099494 -1.1011417301
| 21> H 0.496294394 -1.7251969272 0.1894375095
| 22> H 0.461172158 -0.3318689473 1.2583285496
| 23> H -1.0317074547 -0.4362800814 -1.3859933103
| 24> H -1.3532381889 1.3647542179 1.0586821726
| 25> H -2.3113813339 1.4469132952 -0.4204808746
| 26> H -0.5968082171 1.850040964 -0.4587711318
| 27> H -3.0536380984 -0.9207796077 -0.015052538
| 28> H -1.8688341086 -2.222213657 0.1023137835
| 29> H -2.0423723836 -1.0653964128 1.4235026727
| 30> *
| 31>
| 32>                          ****END OF INPUT****

CARTESIAN COORDINATES (ANGSTROEM)
---------------------------------
  C      2.475420    0.821814    0.286094
  C      1.532622    0.005117   -0.591131
  C      0.390013   -0.639032    0.212878
  C     -1.008117   -0.275285   -0.301894
  C     -1.335879    1.188467   -0.014851
  C     -2.059131   -1.178484    0.341588
  H      2.929042    0.191751    1.047954
  H      3.270202    1.260922   -0.312824
  H      1.934756    1.625246    0.781152
  H      1.119117    0.654322   -1.364912
  H      2.107848   -0.769810   -1.101142
  H      0.496294   -1.725197    0.189438
  H      0.461172   -0.331869    1.258329
  H     -1.031707   -0.436280   -1.385993
  H     -1.353238    1.364754    1.058682
  H     -2.311381    1.446913   -0.420481
  H     -0.596808    1.850041   -0.458771
  H     -3.053638   -0.920780   -0.015053
  H     -1.868834   -2.222214    0.102314
  H     -2.042372   -1.065396    1.423503

 Total Charge           Charge          ....    0
 Multiplicity           Mult            ....    1
 Number of Electrons    NEL             ....   50
 Basis Dimension        Dim             ....  184

ORBITAL ENERGIES
----------------

  NO   OCC          E(Eh)            E(eV)
   0   2.0000     -10.022599      -272.7288
   1   2.0000     -10.013550      -272.4826
   2   2.0000     -10.009795      -272.3804
   3   2.0000     -10.006857      -272.3004
   4   2.0000     -10.004806      -272.2446
   5   2.0000     -10.004696      -272.2416
   6   2.0000      -0.771563       -20.9953
   7   2.0000      -0.719356       -19.5747
   8   2.0000      -0.640639       -17.4327
   9   2.0000      -0.633545       -17.2396
  10   2.0000      -0.549877       -14.9629
  11   2.0000      -0.515886       -14.0380
  12   2.0000      -0.426311       -11.6005
  13   2.0000      -0.412269       -11.2184
  14   2.0000      -0.403915       -10.9911
  15   2.0000      -0.371498       -10.1090
  16   2.0000      -0.357543        -9.7292
  17   2.0000      -0.350647        -9.5416
  18   2.0000      -0.342255        -9.3132
  19   2.0000      -0.318391        -8.6639
  20   2.0000      -0.303293        -8.2530
  21   2.0000      -0.300635        -8.1807
  22   2.0000      -0.279749        -7.6124
  23   2.0000      -0.272684        -7.4201
  24   2.0000      -0.267188        -7.2705
  25   0.0000       0.094172         2.5625
  26   0.0000       0.108480         2.9519
  27   0.0000       0.124878         3.3981
  28   0.0000       0.126292         3.4366
  29   0.0000       0.144360         3.9282

MULLIKEN ATOMIC CHARGES
-----------------------
   0 C :   -0.522495
   1 C :   -0.261468
   2 C :   -0.299025
   3 C :   -0.026920
   4 C :   -0.541276
   5 C :   -0.525887
   6 H :    0.154789
   7 H :    0.152359
   8 H :    0.154679
   9 H :    0.156171
  10 H :    0.150571
  11 H :    0.153746
  12 H :    0.160415
  13 H :    0.151848
  14 H :    0.161368
  15 H :    0.156438
  16 H :    0.157337
  17 H :    0.155604
  18 H :    0.155916
  19 H :    0.155831
Sum of atomic charges:    0.0000000

LOEWDIN ATOMIC CHARGES
----------------------
   0 C :   -0.433839
   1 C :   -0.321362
   2 C :   -0.309231
   3 C :   -0.245754
   4 C :   -0.426811
   5 C :   -0.427996
   6 H :    0.151141
   7 H :    0.150339
   8 H :    0.150385
   9 H :    0.154823
  10 H :    0.153524
  11 H :    0.159080
  12 H :    0.159670
  13 H :    0.155880
  14 H :    0.155432
  15 H :    0.154842
  16 H :    0.155500
  17 H :    0.154340
  18 H :    0.154380
  19 H :    0.155653

  Mayer bond orders larger than 0.100000
B(  0-C ,  1-C ) :   0.8913 B(  0-C ,  6-H ) :   0.9785 B(  0-C ,  7-H ) :   0.9733
B(  0-C ,  8-H ) :   0.9797 B(  1-C ,  2-C ) :   0.8233 B(  1-C ,  9-H ) :   0.9914
B(  1-C , 10-H ) :   0.9695 B(  2-C ,  3-C ) :   0.8881 B(  2-C , 11-H ) :   0.9690
B(  2-C , 12-H ) :   1.0003 B(  3-C ,  4-C ) :   0.8958 B(  3-C ,  5-C ) :   0.8991
B(  3-C , 13-H ) :   0.9579 B(  4-C , 14-H ) :   0.9868 B(  4-C , 15-H ) :   0.9710
B(  4-C , 16-H ) :   0.9672 B(  5-C , 17-H ) :   0.9748 B(  5-C , 18-H ) :   0.9751
B(  5-C , 19-H ) :   0.9831

Dispersion correction           -0.004981449
FINAL SINGLE POINT ENERGY      -236.980956497140

DIPOLE MOMENT
-------------

Method             : SCF
Type of density    : Electron Density
Multiplicity       :   1
Irrep              :   0
Energy             :  -236.9854420767449881 Eh
Relativity type    :
Basis              : AO
                                X                 Y                 Z
Electronic contribution:     -0.047263011      -0.895188326      -0.817996814
Nuclear contribution   :      0.056714115       0.865363931       0.752587716
                        -----------------------------------------
Total Dipole Moment    :      0.009451104      -0.029824395      -0.065409097
                        -----------------------------------------
Magnitude (a.u.)       :      0.072506330
Magnitude (Debye)      :      0.184296446

Rotational constants in cm-1:             0.210825             0.061465             0.053620
Rotational constants in MHz :          6320.361214          1842.665910          1607.488695

                             ****ORCA TERMINATED NORMALLY****
TOTAL RUN TIME: 0 days 0 hours 0 minutes 19 seconds 769 msec
