                         Program Version 6.0.0  -   RELEASE  -
|  1> ! pbe def2-sv(p) def2/J RI DEFGRID1 loosescf d4 GCP(DFT/SV(P)) printgap
|  2> %output
|  3>     printlevel normal
|  4> end
|  5> * xyz 0 1
|  6> C -2.1744540536 -0.5773790342 -0.5549405208
|  7> C -1.3199033166 -0.2684275516 0.669760125
|  8> C -0.4959366603 1.011064084 0.5217235593
|  9> C 0.614749032 0.8999045765 -0.5304487488
| 10> C 1.5740901534 -0.1317368756 -0.1932207675
| 11> C 2.3565963823 -0.987534638 0.1039041064
| 12> H -2.8054512203 -1.4419502349 -0.3633249919
| 13> H -1.5540986408 -0.801146028 -1.4189967493
| 14> H -2.8153890734 0.2682037609 -0.7961034701
| 15> H -1.9740022072 -0.1591182589 1.5380207265
| 16> H -0.6452924974 -1.105292393 0.8644666111
| 17> H -1.15587333 1.8368697271 0.2468504113
| 18> H -0.0409014937 1.2496935177 1.4859842389
| 19> H 1.1420957311 1.8550852198 -0.6019053303
| 20> H 0.1854377422 0.6770492897 -1.5097614088
| 21> H 3.0483456862 -1.7346204109 0.3548443551
| 22> *
| 23>
| 24>                          ****END OF INPUT****

CARTESIAN COORDINATES (ANGSTROEM)
---------------------------------
  C     -2.174454   -0.577379   -0.554941
  C     -1.319903   -0.268428    0.669760
  C     -0.495937    1.011064    0.521724
  C      0.614749    0.899905   -0.530449
  C      1.574090   -0.131737   -0.193221
  C      2.356596   -0.987535    0.103904
  H     -2.805451   -1.441950   -0.363325
  H     -1.554099   -0.801146   -1.418997
  H     -2.815389    0.268204   -0.796103
  H     -1.974002   -0.159118    1.538021
  H     -0.645292   -1.105292    0.864467
  H     -1.155873    1.836870    0.246850
  H     -0.040901    1.249694    1.485984
  H      1.142096    1.855085   -0.601905
  H      0.185438    0.677049   -1.509761
  H      3.048346   -1.734620    0.354844

 Total Charge           Charge          ....    0
 Multiplicity           Mult            ....    1
 Number of Electrons    NEL             ....   46
 Basis Dimension        Dim             ....  104

ORBITAL ENERGIES
----------------

  NO   OCC          E(Eh)            E(eV)
   0   2.0000      -9.910393      -269.6755
   1   2.0000      -9.891674      -269.1661
   2   2.0000      -9.889269      -269.1007
   3   2.0000      -9.882577      -268.9186
   4   2.0000      -9.875923      -268.7375
   5   2.0000      -9.874504      -268.6989
   6   2.0000      -0.738092       -20.0845
   7   2.0000      -0.681034       -18.5319
   8   2.0000      -0.636653       -17.3242
   9   2.0000      -0.584985       -15.9182
  10   2.0000      -0.516303       -14.0493
  11   2.0000      -0.468458       -12.7474
  12   2.0000      -0.427022       -11.6199
  13   2.0000      -0.423401       -11.5213
  14   2.0000      -0.397439       -10.8149
  15   2.0000      -0.360640        -9.8135
  16   2.0000      -0.353416        -9.6169
  17   2.0000      -0.340141        -9.2557
  18   2.0000      -0.292401        -7.9566
  19   2.0000      -0.292164        -7.9502
  20   2.0000      -0.290061        -7.8930
  21   2.0000      -0.233375        -6.3505
  22   2.0000      -0.232554        -6.3281
  23   0.0000       0.014516         0.3950
  24   0.0000       0.021023         0.5721
  25   0.0000       0.044935         1.2228
  26   0.0000       0.068018         1.8509
  27   0.0000       0.079133         2.1533

MULLIKEN ATOMIC CHARGES
-----------------------
   0 C :   -0.294239
   1 C :   -0.187191
   2 C :   -0.169846
   3 C :   -0.116454
   4 C :    0.404461
   5 C :   -0.604521
   6 H :    0.105165
   7 H :    0.108225
   8 H :    0.096449
   9 H :    0.087593
  10 H :    0.108406
  11 H :    0.085568
  12 H :    0.096968
  13 H :    0.112511
  14 H :    0.115166
  15 H :    0.051738
Sum of atomic charges:    0.0000000

LOEWDIN ATOMIC CHARGES
----------------------
   0 C :   -0.342997
   1 C :   -0.237419
   2 C :   -0.216053
   3 C :   -0.227947
   4 C :   -0.028219
   5 C :   -0.206122
   6 H :    0.121452
   7 H :    0.117132
   8 H :    0.115606
   9 H :    0.117094
  10 H :    0.123530
  11 H :    0.115937
  12 H :    0.122003
  13 H :    0.143178
  14 H :    0.139690
  15 H :    0.143134

  Mayer bond orders larger than 0.100000
B(  0-C ,  1-C ) :   1.1494 B(  0-C ,  6-H ) :   0.9515 B(  0-C ,  7-H ) :   0.9513
B(  0-C ,  8-H ) :   0.9547 B(  1-C ,  2-C ) :   1.1250 B(  1-C ,  9-H ) :   0.9264
B(  1-C , 10-H ) :   0.9196 B(  2-C ,  3-C ) :   1.0960 B(  2-C , 11-H ) :   0.9195
B(  2-C , 12-H ) :   0.9235 B(  3-C ,  4-C ) :   1.1178 B(  3-C , 13-H ) :   0.8829
B(  3-C , 14-H ) :   0.8832 B(  4-C ,  5-C ) :   2.2198 B(  4-C , 15-H ) :  -0.1288
B(  5-C , 15-H ) :   1.0907

Dispersion correction           -0.011738462
FINAL SINGLE POINT ENERGY      -234.010245947760

DIPOLE MOMENT
-------------

Method             : SCF
Type of density    : Electron Density
Multiplicity       :   1
Irrep              :   0
Energy             :  -234.0598380414411110 Eh
Relativity type    :
Basis              : AO
                                X                 Y                 Z
Electronic contribution:      5.995922965      -0.448242281       0.176438281
Nuclear contribution   :     -6.206130284       0.604909207      -0.187564643
                        -----------------------------------------
Total Dipole Moment    :     -0.210207319       0.156666927      -0.011126362
                        -----------------------------------------
Magnitude (a.u.)       :      0.262403199
Magnitude (Debye)      :      0.666975927

Rotational constants in cm-1:             0.206900             0.068985             0.062132
Rotational constants in MHz :          6202.699541          2068.110810          1862.684647

                             ****ORCA TERMINATED NORMALLY****
TOTAL RUN TIME: 0 days 0 hours 0 minutes 7 seconds 511 msec
