                         Program Version 6.0.0  -   RELEASE  -
|  1> ! r2scan-3c def2/J RI DEFGRID2 scfconv6 printgap
|  2> %output
|  3>     printlevel normal
|  4> end
|  5> * xyz 0 1
|  6> C -1.4344394718 0.0154961097 0.6500207907
|  7> C 0.0687961201 0.3069549462 0.5163770188
|  8> C 0.8538688966 -0.9092896381 -0.0054146559
|  9> O 2.2413942612 -0.6659245831 -0.0008242998
| 10> O 0.2845973936 1.4151804491 -0.3337821889
| 11> O -2.0372264101 -0.1953325304 -0.6085202007
| 12> H -1.9248449878 0.8980235447 1.0680579224
| 13> H -1.5933780818 -0.8317429861 1.3226137542
| 14> H 0.4722692384 0.5890723363 1.4946000552
| 15> H 0.5264824762 -1.1518409579 -1.0261683962
| 16> H 0.6928722686 -1.7723405431 0.6433436338
| 17> H 2.3925994092 0.2049004772 -0.3998866354
| 18> H -0.360276011 1.3614382169 -1.0575459248
| 19> H -1.8657080364 -1.0972989282 -0.9088327914
| 20> *
| 21>
| 22>                          ****END OF INPUT****

CARTESIAN COORDINATES (ANGSTROEM)
---------------------------------
  C     -1.434439    0.015496    0.650021
  C      0.068796    0.306955    0.516377
  C      0.853869   -0.909290   -0.005415
  O      2.241394   -0.665925   -0.000824
  O      0.284597    1.415180   -0.333782
  O     -2.037226   -0.195333   -0.608520
  H     -1.924845    0.898024    1.068058
  H     -1.593378   -0.831743    1.322614
  H      0.472269    0.589072    1.494600
  H      0.526482   -1.151841   -1.026168
  H      0.692872   -1.772341    0.643344
  H      2.392599    0.204900   -0.399887
  H     -0.360276    1.361438   -1.057546
  H     -1.865708   -1.097299   -0.908833

 Total Charge           Charge          ....    0
 Multiplicity           Mult            ....    1
 Number of Electrons    NEL             ....   50
 Basis Dimension        Dim             ....  169

ORBITAL ENERGIES
----------------

  NO   OCC          E(Eh)            E(eV)
   0   2.0000     -18.973139      -516.2854
   1   2.0000     -18.957610      -515.8628
   2   2.0000     -18.947125      -515.5775
   3   2.0000     -10.091901      -274.6146
   4   2.0000     -10.088638      -274.5258
   5   2.0000     -10.080880      -274.3147
   6   2.0000      -1.017325       -27.6828
   7   2.0000      -0.995761       -27.0960
   8   2.0000      -0.977553       -26.6006
   9   2.0000      -0.729419       -19.8485
  10   2.0000      -0.653277       -17.7766
  11   2.0000      -0.584968       -15.9178
  12   2.0000      -0.504387       -13.7251
  13   2.0000      -0.489560       -13.3216
  14   2.0000      -0.458878       -12.4867
  15   2.0000      -0.440163       -11.9775
  16   2.0000      -0.418594       -11.3905
  17   2.0000      -0.405691       -11.0394
  18   2.0000      -0.367896       -10.0110
  19   2.0000      -0.329344        -8.9619
  20   2.0000      -0.318055        -8.6547
  21   2.0000      -0.306055        -8.3282
  22   2.0000      -0.270315        -7.3557
  23   2.0000      -0.258191        -7.0257
  24   2.0000      -0.225621        -6.1395
  25   0.0000       0.030352         0.8259
  26   0.0000       0.062029         1.6879
  27   0.0000       0.097030         2.6403
  28   0.0000       0.102249         2.7823
  29   0.0000       0.125296         3.4095

MULLIKEN ATOMIC CHARGES
-----------------------
   0 C :   -0.215890
   1 C :    0.084391
   2 C :   -0.202436
   3 O :   -0.422265
   4 O :   -0.440934
   5 O :   -0.448365
   6 H :    0.156001
   7 H :    0.136726
   8 H :    0.148688
   9 H :    0.125917
  10 H :    0.135842
  11 H :    0.316498
  12 H :    0.317827
  13 H :    0.308000
Sum of atomic charges:   -0.0000000

LOEWDIN ATOMIC CHARGES
----------------------
   0 C :    0.021905
   1 C :    0.061218
   2 C :    0.012304
   3 O :   -0.598514
   4 O :   -0.588090
   5 O :   -0.611085
   6 H :    0.186104
   7 H :    0.166228
   8 H :    0.189393
   9 H :    0.159194
  10 H :    0.177649
  11 H :    0.275901
  12 H :    0.280009
  13 H :    0.267782

  Mayer bond orders larger than 0.100000
B(  0-C ,  1-C ) :   0.9072 B(  0-C ,  5-O ) :   0.9697 B(  0-C ,  6-H ) :   0.9703
B(  0-C ,  7-H ) :   0.9822 B(  1-C ,  2-C ) :   0.9013 B(  1-C ,  4-O ) :   0.9388
B(  1-C ,  8-H ) :   0.9429 B(  2-C ,  3-O ) :   0.9619 B(  2-C ,  9-H ) :   0.9787
B(  2-C , 10-H ) :   0.9705 B(  3-O , 11-H ) :   0.8708 B(  4-O , 12-H ) :   0.8681
B(  5-O , 13-H ) :   0.8930

Dispersion correction           -0.003060260
FINAL SINGLE POINT ENERGY      -344.726285167461

DIPOLE MOMENT
-------------

Method             : SCF
Type of density    : Electron Density
Multiplicity       :   1
Irrep              :   0
Energy             :  -344.7339515715938205 Eh
Relativity type    :
Basis              : AO
                                X                 Y                 Z
Electronic contribution:      0.906395375       1.255185858      -1.049608362
Nuclear contribution   :     -1.550093719      -1.680287472       1.051928655
                        -----------------------------------------
Total Dipole Moment    :     -0.643698344      -0.425101614       0.002320293
                        -----------------------------------------
Magnitude (a.u.)       :      0.771404125
Magnitude (Debye)      :      1.960753462

Rotational constants in cm-1:             0.205699             0.074666             0.065098
Rotational constants in MHz :          6166.687734          2238.425185          1951.590735

                             ****ORCA TERMINATED NORMALLY****
TOTAL RUN TIME: 0 days 0 hours 0 minutes 21 seconds 362 msec
