                         Program Version 6.0.0  -   RELEASE  -
|  1> ! r2scan-3c def2/J RI DEFGRID2 scfconv6 printgap
|  2> %output
|  3>     printlevel normal
|  4> end
|  5> %cpcm
|  6>     smd true
|  7>     smdsolvent "water"
|  8> end
|  9> * xyz 0 1
| 10> C -1.4344394718 0.0154961097 0.6500207907
| 11> C 0.0687961201 0.3069549462 0.5163770188
| 12> C 0.8538688966 -0.9092896381 -0.0054146559
| 13> O 2.2413942612 -0.6659245831 -0.0008242998
| 14> O 0.2845973936 1.4151804491 -0.3337821889
| 15> O -2.0372264101 -0.1953325304 -0.6085202007
| 16> H -1.9248449878 0.8980235447 1.0680579224
| 17> H -1.5933780818 -0.8317429861 1.3226137542
| 18> H 0.4722692384 0.5890723363 1.4946000552
| 19> H 0.5264824762 -1.1518409579 -1.0261683962
| 20> H 0.6928722686 -1.7723405431 0.6433436338
| 21> H 2.3925994092 0.2049004772 -0.3998866354
| 22> H -0.360276011 1.3614382169 -1.0575459248
| 23> H -1.8657080364 -1.0972989282 -0.9088327914
| 24> *
| 25>
| 26>                          ****END OF INPUT****

CARTESIAN COORDINATES (ANGSTROEM)
---------------------------------
  C     -1.434439    0.015496    0.650021
  C      0.068796    0.306955    0.516377
  C      0.853869   -0.909290   -0.005415
  O      2.241394   -0.665925   -0.000824
  O      0.284597    1.415180   -0.333782
  O     -2.037226   -0.195333   -0.608520
  H     -1.924845    0.898024    1.068058
  H     -1.593378   -0.831743    1.322614
  H      0.472269    0.589072    1.494600
  H      0.526482   -1.151841   -1.026168
  H      0.692872   -1.772341    0.643344
  H      2.392599    0.204900   -0.399887
  H     -0.360276    1.361438   -1.057546
  H     -1.865708   -1.097299   -0.908833

 Total Charge           Charge          ....    0
 Multiplicity           Mult            ....    1
 Number of Electrons    NEL             ....   50
 Basis Dimension        Dim             ....  169

ORBITAL ENERGIES
----------------

  NO   OCC          E(Eh)            E(eV)
   0   2.0000     -18.958714      -515.8928
   1   2.0000     -18.955357      -515.8015
   2   2.0000     -18.952228      -515.7163
   3   2.0000     -10.078405      -274.2473
   4   2.0000     -10.074784      -274.1488
   5   2.0000     -10.069629      -274.0085
   6   2.0000      -1.008473       -27.4419
   7   2.0000      -0.990393       -26.9500
   8   2.0000      -0.977139       -26.5893
   9   2.0000      -0.717456       -19.5230
  10   2.0000      -0.640801       -17.4371
  11   2.0000      -0.576091       -15.6762
  12   2.0000      -0.491862       -13.3842
  13   2.0000      -0.481392       -13.0993
  14   2.0000      -0.448277       -12.1982
  15   2.0000      -0.431560       -11.7434
  16   2.0000      -0.408070       -11.1042
  17   2.0000      -0.400196       -10.8899
  18   2.0000      -0.361502        -9.8370
  19   2.0000      -0.325618        -8.8605
  20   2.0000      -0.313075        -8.5192
  21   2.0000      -0.302353        -8.2274
  22   2.0000      -0.265017        -7.2115
  23   2.0000      -0.255344        -6.9483
  24   2.0000      -0.224623        -6.1123
  25   0.0000       0.056861         1.5473
  26   0.0000       0.072777         1.9804
  27   0.0000       0.113493         3.0883
  28   0.0000       0.119396         3.2489
  29   0.0000       0.140444         3.8217

MULLIKEN ATOMIC CHARGES
-----------------------
   0 C :   -0.213053
   1 C :    0.070979
   2 C :   -0.195834
   3 O :   -0.503568
   4 O :   -0.501042
   5 O :   -0.509621
   6 H :    0.164278
   7 H :    0.160305
   8 H :    0.161000
   9 H :    0.148462
  10 H :    0.157004
  11 H :    0.352005
  12 H :    0.351062
  13 H :    0.358022
Sum of atomic charges:   -0.0000000

LOEWDIN ATOMIC CHARGES
----------------------
   0 C :    0.026557
   1 C :    0.064819
   2 C :    0.016949
   3 O :   -0.640870
   4 O :   -0.617116
   5 O :   -0.633491
   6 H :    0.187953
   7 H :    0.179007
   8 H :    0.194063
   9 H :    0.171283
  10 H :    0.187609
  11 H :    0.286559
  12 H :    0.290504
  13 H :    0.286175

  Mayer bond orders larger than 0.100000
B(  0-C ,  1-C ) :   0.9304 B(  0-C ,  5-O ) :   0.9631 B(  0-C ,  6-H ) :   0.9675
B(  0-C ,  7-H ) :   0.9689 B(  1-C ,  2-C ) :   0.9335 B(  1-C ,  4-O ) :   0.9231
B(  1-C ,  8-H ) :   0.9360 B(  2-C ,  3-O ) :   0.9372 B(  2-C ,  9-H ) :   0.9664
B(  2-C , 10-H ) :   0.9614 B(  3-O , 11-H ) :   0.8541 B(  4-O , 12-H ) :   0.8515
B(  5-O , 13-H ) :   0.8669

Dispersion correction           -0.003060260
FINAL SINGLE POINT ENERGY      -344.746093221188

DIPOLE MOMENT
-------------

Method             : SCF
Type of density    : Electron Density
Multiplicity       :   1
Irrep              :   0
Energy             :  -344.7537596253202992 Eh
Relativity type    :
Basis              : AO
                                X                 Y                 Z
Electronic contribution:      0.690661574       1.013088727      -1.058049484
Nuclear contribution   :     -1.550093719      -1.680287472       1.051928655
                        -----------------------------------------
Total Dipole Moment    :     -0.859432145      -0.667198745      -0.006120829
                        -----------------------------------------
Magnitude (a.u.)       :      1.088032740
Magnitude (Debye)      :      2.765559442

Rotational constants in cm-1:             0.205699             0.074666             0.065098
Rotational constants in MHz :          6166.687734          2238.425185          1951.590735

                             ****ORCA TERMINATED NORMALLY****
TOTAL RUN TIME: 0 days 0 hours 0 minutes 24 seconds 277 msec
