                         Program Version 6.0.0  -   RELEASE  -
|  1> ! pbe def2-sv(p) def2/J RI DEFGRID1 loosescf d4 GCP(DFT/SV(P)) printgap
|  2> %output
|  3>     printlevel normal
|  4> end
|  5> * xyz 0 1
|  6> C -1.3475476502 -0.4402141281 -0.3110103485
|  7> C 0.0310301183 -0.0126397828 0.2263563375
|  8> C 1.1446689868 -0.7230430847 -0.5573628938
|  9> O 2.3487180956 -0.6144650996 0.1678512082
| 10> O 0.1771153488 1.3865107533 0.2193140798
| 11> O -2.4040745148 0.3065859084 0.2385365748
| 12> H -1.4905371952 -1.5127515521 -0.1249584275
| 13> H -1.396954928 -0.2623159253 -1.3887354317
| 14> H 0.1293633714 -0.2917944041 1.2813920905
| 15> H 1.2423046893 -0.2568391453 -1.5462666931
| 16> H 0.8668640967 -1.7772718037 -0.6858731214
| 17> H 3.0701271608 -1.0087996363 -0.3416304723
| 18> H 0.0442978015 1.7204175333 -0.6794799383
| 19> H -2.3504214555 0.279970912 1.2039079825
| 20> *
| 21>
| 22>                          ****END OF INPUT****

CARTESIAN COORDINATES (ANGSTROEM)
---------------------------------
  C     -1.347548   -0.440214   -0.311010
  C      0.031030   -0.012640    0.226356
  C      1.144669   -0.723043   -0.557363
  O      2.348718   -0.614465    0.167851
  O      0.177115    1.386511    0.219314
  O     -2.404075    0.306586    0.238537
  H     -1.490537   -1.512752   -0.124958
  H     -1.396955   -0.262316   -1.388735
  H      0.129363   -0.291794    1.281392
  H      1.242305   -0.256839   -1.546267
  H      0.866864   -1.777272   -0.685873
  H      3.070127   -1.008800   -0.341630
  H      0.044298    1.720418   -0.679480
  H     -2.350421    0.279971    1.203908

 Total Charge           Charge          ....    0
 Multiplicity           Mult            ....    1
 Number of Electrons    NEL             ....   50
 Basis Dimension        Dim             ....  100

ORBITAL ENERGIES
----------------

  NO   OCC          E(Eh)            E(eV)
   0   2.0000     -18.747003      -510.1319
   1   2.0000     -18.742876      -510.0196
   2   2.0000     -18.741752      -509.9890
   3   2.0000      -9.938378      -270.4370
   4   2.0000      -9.936021      -270.3729
   5   2.0000      -9.932678      -270.2819
   6   2.0000      -0.935380       -25.4530
   7   2.0000      -0.920868       -25.0581
   8   2.0000      -0.906625       -24.6705
   9   2.0000      -0.684142       -18.6164
  10   2.0000      -0.601770       -16.3750
  11   2.0000      -0.552987       -15.0475
  12   2.0000      -0.481378       -13.0990
  13   2.0000      -0.459740       -12.5102
  14   2.0000      -0.424320       -11.5463
  15   2.0000      -0.411244       -11.1905
  16   2.0000      -0.394220       -10.7273
  17   2.0000      -0.386947       -10.5294
  18   2.0000      -0.340983        -9.2786
  19   2.0000      -0.303824        -8.2675
  20   2.0000      -0.280847        -7.6422
  21   2.0000      -0.271085        -7.3766
  22   2.0000      -0.223033        -6.0690
  23   2.0000      -0.218064        -5.9338
  24   2.0000      -0.206789        -5.6270
  25   0.0000       0.020353         0.5538
  26   0.0000       0.031768         0.8645
  27   0.0000       0.041084         1.1179
  28   0.0000       0.065724         1.7885
  29   0.0000       0.083520         2.2727

MULLIKEN ATOMIC CHARGES
-----------------------
   0 C :    0.021534
   1 C :   -0.015606
   2 C :    0.025180
   3 O :   -0.423964
   4 O :   -0.412793
   5 O :   -0.422965
   6 H :    0.073534
   7 H :    0.072407
   8 H :    0.073700
   9 H :    0.054219
  10 H :    0.066114
  11 H :    0.298932
  12 H :    0.292292
  13 H :    0.297416
Sum of atomic charges:    0.0000000

LOEWDIN ATOMIC CHARGES
----------------------
   0 C :   -0.141711
   1 C :   -0.092806
   2 C :   -0.135412
   3 O :   -0.341550
   4 O :   -0.314258
   5 O :   -0.334002
   6 H :    0.097157
   7 H :    0.107352
   8 H :    0.115690
   9 H :    0.092392
  10 H :    0.095288
  11 H :    0.285784
  12 H :    0.281351
  13 H :    0.284725

  Mayer bond orders larger than 0.100000
B(  0-C ,  1-C ) :   1.0264 B(  0-C ,  5-O ) :   1.0919 B(  0-C ,  6-H ) :   0.9123
B(  0-C ,  7-H ) :   0.9135 B(  1-C ,  2-C ) :   1.0361 B(  1-C ,  4-O ) :   1.0587
B(  1-C ,  8-H ) :   0.8891 B(  2-C ,  3-O ) :   1.1076 B(  2-C ,  9-H ) :   0.9017
B(  2-C , 10-H ) :   0.9152 B(  3-O , 11-H ) :   0.8516 B(  4-O , 12-H ) :   0.8524
B(  5-O , 13-H ) :   0.8522

Dispersion correction           -0.008954594
FINAL SINGLE POINT ENERGY      -344.001115242794

DIPOLE MOMENT
-------------

Method             : SCF
Type of density    : Electron Density
Multiplicity       :   1
Irrep              :   0
Energy             :  -344.0734619375216425 Eh
Relativity type    :
Basis              : AO
                                X                 Y                 Z
Electronic contribution:      0.238155561       2.153129758       1.518540838
Nuclear contribution   :      0.109739070      -2.901122188      -2.131285158
                        -----------------------------------------
Total Dipole Moment    :      0.347894630      -0.747992430      -0.612744320
                        -----------------------------------------
Magnitude (a.u.)       :      1.027608364
Magnitude (Debye)      :      2.611972885

Rotational constants in cm-1:             0.258235             0.064634             0.056103
Rotational constants in MHz :          7741.698768          1937.671341          1681.914970

                             ****ORCA TERMINATED NORMALLY****
TOTAL RUN TIME: 0 days 0 hours 0 minutes 6 seconds 636 msec
