                         Program Version 6.0.0  -   RELEASE  -
|  1> ! r2scan-3c def2/J RI DEFGRID2 scfconv6 printgap
|  2> %output
|  3>     printlevel normal
|  4> end
|  5> * xyz 0 1
|  6> C -2.3704463194 0.7168078584 0.7640458713
|  7> C -1.2402312953 -0.2711269092 0.4685636025
|  8> C -1.8315010824 -1.4496256846 -0.3081585132
|  9> C -0.0749203003 0.381417753 -0.3091509916
| 10> C 0.2610404777 1.7770904774 0.2204764964
| 11> C 1.1764984315 -0.5271794747 -0.3276351508
| 12> C 2.0949034371 -0.1814224339 -1.5005842434
| 13> C 1.9697829674 -0.4921169864 0.9782849986
| 14> H -3.2071413553 0.1911176382 1.219465493
| 15> H -2.0533262336 1.4963425676 1.4496354751
| 16> H -2.7208467887 1.1791089568 -0.1563954054
| 17> H -0.8569253028 -0.6425892687 1.4250034703
| 18> H -2.2478584861 -1.1041777499 -1.2524003004
| 19> H -2.6291306105 -1.9144035729 0.2671871472
| 20> H -1.0876112544 -2.2120084867 -0.5217373176
| 21> H -0.4059916271 0.4931887143 -1.349017759
| 22> H 0.4023442509 1.7614709723 1.2979400185
| 23> H -0.5336335442 2.4790339528 -0.0147659215
| 24> H 1.1722624023 2.1469087215 -0.2420831676
| 25> H 0.8388276176 -1.5569393383 -0.4793218321
| 26> H 1.5577797845 -0.2549447488 -2.443566518
| 27> H 2.4889081084 0.8277321286 -1.4075670423
| 28> H 2.9368923461 -0.8693909323 -1.5320405007
| 29> H 2.4505457393 0.4721297807 1.1175759395
| 30> H 2.744815192 -1.2553672008 0.957767629
| 31> H 1.3273373218 -0.6871848409 1.8330386178
| 32> *
| 33>
| 34>                          ****END OF INPUT****

CARTESIAN COORDINATES (ANGSTROEM)
---------------------------------
  C     -2.370446    0.716808    0.764046
  C     -1.240231   -0.271127    0.468564
  C     -1.831501   -1.449626   -0.308159
  C     -0.074920    0.381418   -0.309151
  C      0.261040    1.777090    0.220476
  C      1.176498   -0.527179   -0.327635
  C      2.094903   -0.181422   -1.500584
  C      1.969783   -0.492117    0.978285
  H     -3.207141    0.191118    1.219465
  H     -2.053326    1.496343    1.449635
  H     -2.720847    1.179109   -0.156395
  H     -0.856925   -0.642589    1.425003
  H     -2.247858   -1.104178   -1.252400
  H     -2.629131   -1.914404    0.267187
  H     -1.087611   -2.212008   -0.521737
  H     -0.405992    0.493189   -1.349018
  H      0.402344    1.761471    1.297940
  H     -0.533634    2.479034   -0.014766
  H      1.172262    2.146909   -0.242083
  H      0.838828   -1.556939   -0.479322
  H      1.557780   -0.254945   -2.443567
  H      2.488908    0.827732   -1.407567
  H      2.936892   -0.869391   -1.532041
  H      2.450546    0.472130    1.117576
  H      2.744815   -1.255367    0.957768
  H      1.327337   -0.687185    1.833039

 Total Charge           Charge          ....    0
 Multiplicity           Mult            ....    1
 Number of Electrons    NEL             ....   66
 Basis Dimension        Dim             ....  242

ORBITAL ENERGIES
----------------

  NO   OCC          E(Eh)            E(eV)
   0   2.0000     -10.029348      -272.9124
   1   2.0000     -10.028240      -272.8823
   2   2.0000     -10.026831      -272.8440
   3   2.0000     -10.012040      -272.4415
   4   2.0000     -10.011978      -272.4398
   5   2.0000     -10.011947      -272.4389
   6   2.0000     -10.011724      -272.4329
   7   2.0000     -10.011280      -272.4208
   8   2.0000      -0.794090       -21.6083
   9   2.0000      -0.743027       -20.2188
  10   2.0000      -0.687272       -18.7016
  11   2.0000      -0.647525       -17.6201
  12   2.0000      -0.645712       -17.5707
  13   2.0000      -0.600578       -16.3426
  14   2.0000      -0.538522       -14.6539
  15   2.0000      -0.501763       -13.6537
  16   2.0000      -0.445264       -12.1163
  17   2.0000      -0.423295       -11.5184
  18   2.0000      -0.409508       -11.1433
  19   2.0000      -0.395560       -10.7637
  20   2.0000      -0.382356       -10.4044
  21   2.0000      -0.370234       -10.0746
  22   2.0000      -0.361726        -9.8431
  23   2.0000      -0.351946        -9.5769
  24   2.0000      -0.341546        -9.2939
  25   2.0000      -0.338440        -9.2094
  26   2.0000      -0.322695        -8.7810
  27   2.0000      -0.313028        -8.5179
  28   2.0000      -0.306567        -8.3421
  29   2.0000      -0.301133        -8.1942
  30   2.0000      -0.278177        -7.5696
  31   2.0000      -0.268989        -7.3196
  32   2.0000      -0.266056        -7.2398
  33   0.0000       0.078938         2.1480
  34   0.0000       0.104432         2.8418
  35   0.0000       0.107523         2.9259
  36   0.0000       0.111244         3.0271
  37   0.0000       0.121119         3.2958

MULLIKEN ATOMIC CHARGES
-----------------------
   0 C :   -0.502937
   1 C :   -0.037469
   2 C :   -0.514933
   3 C :   -0.067971
   4 C :   -0.556020
   5 C :   -0.049283
   6 C :   -0.496917
   7 C :   -0.515161
   8 H :    0.143351
   9 H :    0.156795
  10 H :    0.159769
  11 H :    0.150393
  12 H :    0.152836
  13 H :    0.147624
  14 H :    0.140079
  15 H :    0.164711
  16 H :    0.170681
  17 H :    0.159860
  18 H :    0.152859
  19 H :    0.138489
  20 H :    0.148055
  21 H :    0.149367
  22 H :    0.146679
  23 H :    0.155704
  24 H :    0.150173
  25 H :    0.153268
Sum of atomic charges:   -0.0000000

LOEWDIN ATOMIC CHARGES
----------------------
   0 C :   -0.415232
   1 C :   -0.238097
   2 C :   -0.416949
   3 C :   -0.226311
   4 C :   -0.412375
   5 C :   -0.240117
   6 C :   -0.414228
   7 C :   -0.415642
   8 H :    0.152722
   9 H :    0.154152
  10 H :    0.154833
  11 H :    0.157970
  12 H :    0.153883
  13 H :    0.152431
  14 H :    0.149769
  15 H :    0.162093
  16 H :    0.156431
  17 H :    0.155500
  18 H :    0.153908
  19 H :    0.157497
  20 H :    0.152851
  21 H :    0.151148
  22 H :    0.152738
  23 H :    0.154902
  24 H :    0.153589
  25 H :    0.152535

  Mayer bond orders larger than 0.100000
B(  0-C ,  1-C ) :   0.8656 B(  0-C ,  8-H ) :   0.9760 B(  0-C ,  9-H ) :   0.9689
B(  0-C , 10-H ) :   0.9936 B(  1-C ,  2-C ) :   0.9210 B(  1-C ,  3-C ) :   0.8732
B(  1-C , 11-H ) :   0.9598 B(  2-C , 12-H ) :   0.9920 B(  2-C , 13-H ) :   0.9766
B(  2-C , 14-H ) :   0.9691 B(  3-C ,  4-C ) :   0.8120 B(  3-C ,  5-C ) :   0.8673
B(  3-C , 15-H ) :   1.0103 B(  4-C , 16-H ) :   0.9843 B(  4-C , 17-H ) :   0.9661
B(  4-C , 18-H ) :   0.9832 B(  5-C ,  6-C ) :   0.9116 B(  5-C ,  7-C ) :   0.8867
B(  5-C , 19-H ) :   0.9811 B(  6-C , 20-H ) :   0.9838 B(  6-C , 21-H ) :   0.9852
B(  6-C , 22-H ) :   0.9748 B(  7-C , 23-H ) :   0.9736 B(  7-C , 24-H ) :   0.9734
B(  7-C , 25-H ) :   0.9825

Dispersion correction           -0.008039382
FINAL SINGLE POINT ENERGY      -315.584751057504

DIPOLE MOMENT
-------------

Method             : SCF
Type of density    : Electron Density
Multiplicity       :   1
Irrep              :   0
Energy             :  -315.5896406472080571 Eh
Relativity type    :
Basis              : AO
                                X                 Y                 Z
Electronic contribution:     -0.176338013      -0.552256657      -0.151070199
Nuclear contribution   :      0.166286860       0.516014504       0.158284779
                        -----------------------------------------
Total Dipole Moment    :     -0.010051153      -0.036242153       0.007214580
                        -----------------------------------------
Magnitude (a.u.)       :      0.038295816
Magnitude (Debye)      :      0.097340228

Rotational constants in cm-1:             0.092209             0.043327             0.038051
Rotational constants in MHz :          2764.361356          1298.908807          1140.745663

                             ****ORCA TERMINATED NORMALLY****
TOTAL RUN TIME: 0 days 0 hours 0 minutes 27 seconds 616 msec
