                         Program Version 6.0.0  -   RELEASE  -
|  1> ! r2scan-3c def2/J RI DEFGRID2 scfconv6 printgap
|  2> %output
|  3>     printlevel normal
|  4> end
|  5> %cpcm
|  6>     smd true
|  7>     smdsolvent "water"
|  8> end
|  9> * xyz 0 1
| 10> C -2.3704463194 0.7168078584 0.7640458713
| 11> C -1.2402312953 -0.2711269092 0.4685636025
| 12> C -1.8315010824 -1.4496256846 -0.3081585132
| 13> C -0.0749203003 0.381417753 -0.3091509916
| 14> C 0.2610404777 1.7770904774 0.2204764964
| 15> C 1.1764984315 -0.5271794747 -0.3276351508
| 16> C 2.0949034371 -0.1814224339 -1.5005842434
| 17> C 1.9697829674 -0.4921169864 0.9782849986
| 18> H -3.2071413553 0.1911176382 1.219465493
| 19> H -2.0533262336 1.4963425676 1.4496354751
| 20> H -2.7208467887 1.1791089568 -0.1563954054
| 21> H -0.8569253028 -0.6425892687 1.4250034703
| 22> H -2.2478584861 -1.1041777499 -1.2524003004
| 23> H -2.6291306105 -1.9144035729 0.2671871472
| 24> H -1.0876112544 -2.2120084867 -0.5217373176
| 25> H -0.4059916271 0.4931887143 -1.349017759
| 26> H 0.4023442509 1.7614709723 1.2979400185
| 27> H -0.5336335442 2.4790339528 -0.0147659215
| 28> H 1.1722624023 2.1469087215 -0.2420831676
| 29> H 0.8388276176 -1.5569393383 -0.4793218321
| 30> H 1.5577797845 -0.2549447488 -2.443566518
| 31> H 2.4889081084 0.8277321286 -1.4075670423
| 32> H 2.9368923461 -0.8693909323 -1.5320405007
| 33> H 2.4505457393 0.4721297807 1.1175759395
| 34> H 2.744815192 -1.2553672008 0.957767629
| 35> H 1.3273373218 -0.6871848409 1.8330386178
| 36> *
| 37>
| 38>                          ****END OF INPUT****

CARTESIAN COORDINATES (ANGSTROEM)
---------------------------------
  C     -2.370446    0.716808    0.764046
  C     -1.240231   -0.271127    0.468564
  C     -1.831501   -1.449626   -0.308159
  C     -0.074920    0.381418   -0.309151
  C      0.261040    1.777090    0.220476
  C      1.176498   -0.527179   -0.327635
  C      2.094903   -0.181422   -1.500584
  C      1.969783   -0.492117    0.978285
  H     -3.207141    0.191118    1.219465
  H     -2.053326    1.496343    1.449635
  H     -2.720847    1.179109   -0.156395
  H     -0.856925   -0.642589    1.425003
  H     -2.247858   -1.104178   -1.252400
  H     -2.629131   -1.914404    0.267187
  H     -1.087611   -2.212008   -0.521737
  H     -0.405992    0.493189   -1.349018
  H      0.402344    1.761471    1.297940
  H     -0.533634    2.479034   -0.014766
  H      1.172262    2.146909   -0.242083
  H      0.838828   -1.556939   -0.479322
  H      1.557780   -0.254945   -2.443567
  H      2.488908    0.827732   -1.407567
  H      2.936892   -0.869391   -1.532041
  H      2.450546    0.472130    1.117576
  H      2.744815   -1.255367    0.957768
  H      1.327337   -0.687185    1.833039

 Total Charge           Charge          ....    0
 Multiplicity           Mult            ....    1
 Number of Electrons    NEL             ....   66
 Basis Dimension        Dim             ....  242

ORBITAL ENERGIES
----------------

  NO   OCC          E(Eh)            E(eV)
   0   2.0000     -10.021140      -272.6891
   1   2.0000     -10.020069      -272.6599
   2   2.0000     -10.018448      -272.6158
   3   2.0000     -10.004107      -272.2256
   4   2.0000     -10.003898      -272.2199
   5   2.0000     -10.003824      -272.2179
   6   2.0000     -10.003819      -272.2177
   7   2.0000     -10.002836      -272.1910
   8   2.0000      -0.785899       -21.3854
   9   2.0000      -0.735185       -20.0054
  10   2.0000      -0.679429       -18.4882
  11   2.0000      -0.640126       -17.4187
  12   2.0000      -0.638397       -17.3717
  13   2.0000      -0.592846       -16.1321
  14   2.0000      -0.530846       -14.4450
  15   2.0000      -0.493633       -13.4324
  16   2.0000      -0.437021       -11.8920
  17   2.0000      -0.415488       -11.3060
  18   2.0000      -0.401648       -10.9294
  19   2.0000      -0.387692       -10.5496
  20   2.0000      -0.374478       -10.1901
  21   2.0000      -0.362575        -9.8662
  22   2.0000      -0.353888        -9.6298
  23   2.0000      -0.344221        -9.3667
  24   2.0000      -0.333657        -9.0793
  25   2.0000      -0.330424        -8.9913
  26   2.0000      -0.314841        -8.5673
  27   2.0000      -0.305081        -8.3017
  28   2.0000      -0.298346        -8.1184
  29   2.0000      -0.293286        -7.9807
  30   2.0000      -0.269928        -7.3451
  31   2.0000      -0.260756        -7.0955
  32   2.0000      -0.258056        -7.0221
  33   0.0000       0.087871         2.3911
  34   0.0000       0.112277         3.0552
  35   0.0000       0.115367         3.1393
  36   0.0000       0.119686         3.2568
  37   0.0000       0.127840         3.4787

MULLIKEN ATOMIC CHARGES
-----------------------
   0 C :   -0.543085
   1 C :   -0.026072
   2 C :   -0.562414
   3 C :   -0.067857
   4 C :   -0.586394
   5 C :   -0.032645
   6 C :   -0.546450
   7 C :   -0.558262
   8 H :    0.154320
   9 H :    0.164269
  10 H :    0.169934
  11 H :    0.160879
  12 H :    0.163176
  13 H :    0.158910
  14 H :    0.153143
  15 H :    0.171127
  16 H :    0.177683
  17 H :    0.166569
  18 H :    0.165097
  19 H :    0.149343
  20 H :    0.158002
  21 H :    0.163943
  22 H :    0.157024
  23 H :    0.163710
  24 H :    0.160581
  25 H :    0.165467
Sum of atomic charges:    0.0000000

LOEWDIN ATOMIC CHARGES
----------------------
   0 C :   -0.423481
   1 C :   -0.236632
   2 C :   -0.426245
   3 C :   -0.225613
   4 C :   -0.419585
   5 C :   -0.238630
   6 C :   -0.423772
   7 C :   -0.424061
   8 H :    0.154543
   9 H :    0.155731
  10 H :    0.157146
  11 H :    0.160804
  12 H :    0.155829
  13 H :    0.154569
  14 H :    0.152737
  15 H :    0.163757
  16 H :    0.158306
  17 H :    0.156486
  18 H :    0.156753
  19 H :    0.160293
  20 H :    0.154695
  21 H :    0.154464
  22 H :    0.154533
  23 H :    0.156397
  24 H :    0.155369
  25 H :    0.155605

  Mayer bond orders larger than 0.100000
B(  0-C ,  1-C ) :   0.8585 B(  0-C ,  8-H ) :   0.9753 B(  0-C ,  9-H ) :   0.9673
B(  0-C , 10-H ) :   0.9904 B(  1-C ,  2-C ) :   0.9091 B(  1-C ,  3-C ) :   0.8736
B(  1-C , 11-H ) :   0.9611 B(  2-C , 12-H ) :   0.9900 B(  2-C , 13-H ) :   0.9748
B(  2-C , 14-H ) :   0.9671 B(  3-C ,  4-C ) :   0.8124 B(  3-C ,  5-C ) :   0.8654
B(  3-C , 15-H ) :   1.0101 B(  4-C , 16-H ) :   0.9809 B(  4-C , 17-H ) :   0.9651
B(  4-C , 18-H ) :   0.9798 B(  5-C ,  6-C ) :   0.8993 B(  5-C ,  7-C ) :   0.8767
B(  5-C , 19-H ) :   0.9826 B(  6-C , 20-H ) :   0.9814 B(  6-C , 21-H ) :   0.9832
B(  6-C , 22-H ) :   0.9736 B(  7-C , 23-H ) :   0.9730 B(  7-C , 24-H ) :   0.9721
B(  7-C , 25-H ) :   0.9791

Dispersion correction           -0.008039382
FINAL SINGLE POINT ENERGY      -315.580555454454

DIPOLE MOMENT
-------------

Method             : SCF
Type of density    : Electron Density
Multiplicity       :   1
Irrep              :   0
Energy             :  -315.5854450441582344 Eh
Relativity type    :
Basis              : AO
                                X                 Y                 Z
Electronic contribution:     -0.174263452      -0.566085484      -0.144756962
Nuclear contribution   :      0.166286860       0.516014504       0.158284779
                        -----------------------------------------
Total Dipole Moment    :     -0.007976592      -0.050070980       0.013527817
                        -----------------------------------------
Magnitude (a.u.)       :      0.052476003
Magnitude (Debye)      :      0.133383400

Rotational constants in cm-1:             0.092209             0.043327             0.038051
Rotational constants in MHz :          2764.361356          1298.908807          1140.745663

                             ****ORCA TERMINATED NORMALLY****
TOTAL RUN TIME: 0 days 0 hours 0 minutes 33 seconds 56 msec
