                         Program Version 6.0.0  -   RELEASE  -
|  1> ! pbe def2-sv(p) def2/J RI DEFGRID1 loosescf d4 GCP(DFT/SV(P)) printgap
|  2> %output
|  3>     printlevel normal
|  4> end
|  5> * xyz 0 1
|  6> C -3.3373053677 0.6445918944 0.4728437461
|  7> C -3.1365538052 0.6976181597 -0.896268115
|  8> C -1.9305805947 0.2883297632 -1.4372413534
|  9> C -0.9153941196 -0.1853498782 -0.6162572962
| 10> C -1.1248670518 -0.2407552726 0.7553036609
| 11> C -2.3283432289 0.1761257854 1.2969525807
| 12> C 0.3885091405 -0.6520590423 -1.2244560023
| 13> N 1.5200943936 -0.3860547898 -0.3749915914
| 14> C 2.1689180221 -1.2758165505 0.4308497607
| 15> C 3.1257296883 -0.5611208376 1.0916583162
| 16> N 3.0727676918 0.7461057906 0.7151139543
| 17> C 2.0996191918 0.8135682792 -0.1569841434
| 18> H -4.275675072 0.9683954887 0.896360218
| 19> H -3.9188452971 1.0627732465 -1.5440759693
| 20> H -1.7766963653 0.3349077369 -2.5051720022
| 21> H -0.342817461 -0.6040712279 1.4065870476
| 22> H -2.4770639966 0.1330905562 2.3652886698
| 23> H 0.3432713141 -1.7316064489 -1.3988394295
| 24> H 0.5421398264 -0.1534590774 -2.1855135838
| 25> H 1.9108777527 -2.3139211451 0.4617049836
| 26> H 3.8472631917 -0.8971531496 1.8089978917
| 27> H 1.78924576 1.7113422477 -0.6523823378
| 28> *
| 29>
| 30>                          ****END OF INPUT****

CARTESIAN COORDINATES (ANGSTROEM)
---------------------------------
  C     -3.337305    0.644592    0.472844
  C     -3.136554    0.697618   -0.896268
  C     -1.930581    0.288330   -1.437241
  C     -0.915394   -0.185350   -0.616257
  C     -1.124867   -0.240755    0.755304
  C     -2.328343    0.176126    1.296953
  C      0.388509   -0.652059   -1.224456
  N      1.520094   -0.386055   -0.374992
  C      2.168918   -1.275817    0.430850
  C      3.125730   -0.561121    1.091658
  N      3.072768    0.746106    0.715114
  C      2.099619    0.813568   -0.156984
  H     -4.275675    0.968395    0.896360
  H     -3.918845    1.062773   -1.544076
  H     -1.776696    0.334908   -2.505172
  H     -0.342817   -0.604071    1.406587
  H     -2.477064    0.133091    2.365289
  H      0.343271   -1.731606   -1.398839
  H      0.542140   -0.153459   -2.185514
  H      1.910878   -2.313921    0.461705
  H      3.847263   -0.897153    1.808998
  H      1.789246    1.711342   -0.652382

 Total Charge           Charge          ....    0
 Multiplicity           Mult            ....    1
 Number of Electrons    NEL             ....   84
 Basis Dimension        Dim             ....  188

ORBITAL ENERGIES
----------------

  NO   OCC          E(Eh)            E(eV)
   0   2.0000     -14.057768      -382.5313
   1   2.0000     -13.958672      -379.8348
   2   2.0000      -9.949949      -270.7519
   3   2.0000      -9.926490      -270.1135
   4   2.0000      -9.914539      -269.7883
   5   2.0000      -9.910325      -269.6737
   6   2.0000      -9.902364      -269.4570
   7   2.0000      -9.902162      -269.4515
   8   2.0000      -9.902090      -269.4496
   9   2.0000      -9.901263      -269.4271
  10   2.0000      -9.901246      -269.4266
  11   2.0000      -9.892877      -269.1989
  12   2.0000      -0.937607       -25.5136
  13   2.0000      -0.812681       -22.1142
  14   2.0000      -0.783566       -21.3219
  15   2.0000      -0.706361       -19.2211
  16   2.0000      -0.680312       -18.5122
  17   2.0000      -0.668037       -18.1782
  18   2.0000      -0.636503       -17.3201
  19   2.0000      -0.557593       -15.1729
  20   2.0000      -0.545619       -14.8470
  21   2.0000      -0.539382       -14.6773
  22   2.0000      -0.512564       -13.9476
  23   2.0000      -0.491691       -13.3796
  24   2.0000      -0.472812       -12.8659
  25   2.0000      -0.428786       -11.6679
  26   2.0000      -0.416389       -11.3305
  27   2.0000      -0.407765       -11.0959
  28   2.0000      -0.401906       -10.9364
  29   2.0000      -0.385683       -10.4950
  30   2.0000      -0.384067       -10.4510
  31   2.0000      -0.372336       -10.1318
  32   2.0000      -0.360953        -9.8220
  33   2.0000      -0.353927        -9.6308
  34   2.0000      -0.335946        -9.1416
  35   2.0000      -0.315265        -8.5788
  36   2.0000      -0.309291        -8.4162
  37   2.0000      -0.243417        -6.6237
  38   2.0000      -0.239725        -6.5232
  39   2.0000      -0.234297        -6.3756
  40   2.0000      -0.209389        -5.6978
  41   2.0000      -0.199581        -5.4309
  42   0.0000      -0.047093        -1.2815
  43   0.0000      -0.045593        -1.2407
  44   0.0000      -0.006051        -0.1647
  45   0.0000       0.033623         0.9149
  46   0.0000       0.039387         1.0718

MULLIKEN ATOMIC CHARGES
-----------------------
   0 C :   -0.045143
   1 C :   -0.046993
   2 C :   -0.112177
   3 C :    0.018094
   4 C :   -0.108368
   5 C :   -0.046454
   6 C :    0.028793
   7 N :   -0.132478
   8 C :   -0.044671
   9 C :   -0.085545
  10 N :   -0.123716
  11 C :   -0.006459
  12 H :    0.057922
  13 H :    0.056066
  14 H :    0.040691
  15 H :    0.068498
  16 H :    0.057775
  17 H :    0.120783
  18 H :    0.103846
  19 H :    0.065954
  20 H :    0.060535
  21 H :    0.073047
Sum of atomic charges:   -0.0000000

LOEWDIN ATOMIC CHARGES
----------------------
   0 C :   -0.121856
   1 C :   -0.117559
   2 C :   -0.123340
   3 C :   -0.058837
   4 C :   -0.118976
   5 C :   -0.114912
   6 C :   -0.125823
   7 N :    0.056752
   8 C :   -0.159093
   9 C :   -0.149509
  10 N :   -0.114059
  11 C :   -0.109375
  12 H :    0.125661
  13 H :    0.125766
  14 H :    0.122261
  15 H :    0.131354
  16 H :    0.126939
  17 H :    0.138910
  18 H :    0.131283
  19 H :    0.122380
  20 H :    0.115707
  21 H :    0.116326

  Mayer bond orders larger than 0.100000
B(  0-C ,  1-C ) :   1.3828 B(  0-C ,  5-C ) :   1.3771 B(  0-C , 12-H ) :   0.9653
B(  1-C ,  2-C ) :   1.3767 B(  1-C , 13-H ) :   0.9630 B(  2-C ,  3-C ) :   1.3914
B(  2-C , 14-H ) :   0.9621 B(  3-C ,  4-C ) :   1.4009 B(  3-C ,  6-C ) :   1.0427
B(  4-C ,  5-C ) :   1.3835 B(  4-C , 15-H ) :   0.9526 B(  5-C , 16-H ) :   0.9640
B(  6-C ,  7-N ) :   0.9965 B(  6-C , 17-H ) :   0.8988 B(  6-C , 18-H ) :   0.9104
B(  7-N ,  8-C ) :   1.1836 B(  7-N , 11-C ) :   1.2126 B(  8-C ,  9-C ) :   1.4675
B(  8-C , 19-H ) :   0.9628 B(  9-C , 10-N ) :   1.4130 B(  9-C , 20-H ) :   0.9791
B( 10-N , 11-C ) :   1.6346 B( 11-C , 21-H ) :   0.9573

Dispersion correction           -0.025953458
FINAL SINGLE POINT ENERGY      -495.510079398928

DIPOLE MOMENT
-------------

Method             : SCF
Type of density    : Electron Density
Multiplicity       :   1
Irrep              :   0
Energy             :  -495.5721727851694141 Eh
Relativity type    :
Basis              : AO
                                X                 Y                 Z
Electronic contribution:      2.893632690       0.730780867       0.584655300
Nuclear contribution   :     -4.063619231      -1.395617963      -1.261890517
                        -----------------------------------------
Total Dipole Moment    :     -1.169986540      -0.664837096      -0.677235218
                        -----------------------------------------
Magnitude (a.u.)       :      1.506494079
Magnitude (Debye)      :      3.829203637

Rotational constants in cm-1:             0.085641             0.018147             0.016923
Rotational constants in MHz :          2567.441843           544.021848           507.341148

                             ****ORCA TERMINATED NORMALLY****
TOTAL RUN TIME: 0 days 0 hours 0 minutes 13 seconds 615 msec
