                         Program Version 6.0.0  -   RELEASE  -
|  1> ! pbe def2-sv(p) def2/J RI DEFGRID1 loosescf d4 GCP(DFT/SV(P)) printgap
|  2> %output
|  3>     printlevel normal
|  4> end
|  5> * xyz 0 1
|  6> C -2.275802305 0.4625384694 0.7999157747
|  7> C -1.7105706424 0.4748686955 -0.6157104566
|  8> C -0.5456690691 -0.4974981633 -0.8170160804
|  9> C 0.7664847963 -0.1765837338 -0.0671060032
| 10> C 1.2075063807 1.2729285919 -0.2783238993
| 11> C 1.8604249886 -1.1247480333 -0.582107585
| 12> O 0.6212804638 -0.3440712496 1.3406072025
| 13> H -1.5055320493 0.7204989516 1.521436091
| 14> H -2.6619297805 -0.5243002817 1.0466931094
| 15> H -3.0889984909 1.1795838353 0.8874283497
| 16> H -2.503170598 0.1939622289 -1.3144442604
| 17> H -1.3941227692 1.485787563 -0.8738582171
| 18> H -0.8721078255 -1.4980996192 -0.5194961797
| 19> H -0.3090930438 -0.53176457 -1.8822655247
| 20> H 0.5396339936 1.9455511664 0.2512892178
| 21> H 1.2085906403 1.5178513763 -1.3357958368
| 22> H 2.208423811 1.4087343012 0.1228497948
| 23> H 2.759392357 -1.0059505263 0.0185169362
| 24> H 2.0995836963 -0.8992297757 -1.6170158797
| 25> H 1.5322677173 -2.1604345863 -0.5188271714
| 26> H 0.4383664811 -1.2742606367 1.5271436566
| 27> *
| 28>
| 29>                          ****END OF INPUT****

CARTESIAN COORDINATES (ANGSTROEM)
---------------------------------
  C     -2.275802    0.462538    0.799916
  C     -1.710571    0.474869   -0.615710
  C     -0.545669   -0.497498   -0.817016
  C      0.766485   -0.176584   -0.067106
  C      1.207506    1.272929   -0.278324
  C      1.860425   -1.124748   -0.582108
  O      0.621280   -0.344071    1.340607
  H     -1.505532    0.720499    1.521436
  H     -2.661930   -0.524300    1.046693
  H     -3.088998    1.179584    0.887428
  H     -2.503171    0.193962   -1.314444
  H     -1.394123    1.485788   -0.873858
  H     -0.872108   -1.498100   -0.519496
  H     -0.309093   -0.531765   -1.882266
  H      0.539634    1.945551    0.251289
  H      1.208591    1.517851   -1.335796
  H      2.208424    1.408734    0.122850
  H      2.759392   -1.005951    0.018517
  H      2.099584   -0.899230   -1.617016
  H      1.532268   -2.160435   -0.518827
  H      0.438366   -1.274261    1.527144

 Total Charge           Charge          ....    0
 Multiplicity           Mult            ....    1
 Number of Electrons    NEL             ....   58
 Basis Dimension        Dim             ....  126

ORBITAL ENERGIES
----------------

  NO   OCC          E(Eh)            E(eV)
   0   2.0000     -18.738500      -509.9005
   1   2.0000      -9.946501      -270.6581
   2   2.0000      -9.881032      -268.8766
   3   2.0000      -9.879341      -268.8305
   4   2.0000      -9.873170      -268.6626
   5   2.0000      -9.870761      -268.5971
   6   2.0000      -9.861331      -268.3405
   7   2.0000      -0.917896       -24.9772
   8   2.0000      -0.720596       -19.6084
   9   2.0000      -0.678864       -18.4728
  10   2.0000      -0.618351       -16.8262
  11   2.0000      -0.603271       -16.4158
  12   2.0000      -0.529774       -14.4159
  13   2.0000      -0.503221       -13.6933
  14   2.0000      -0.435652       -11.8547
  15   2.0000      -0.415836       -11.3155
  16   2.0000      -0.400312       -10.8930
  17   2.0000      -0.383276       -10.4295
  18   2.0000      -0.369243       -10.0476
  19   2.0000      -0.351412        -9.5624
  20   2.0000      -0.338217        -9.2033
  21   2.0000      -0.335201        -9.1213
  22   2.0000      -0.314516        -8.5584
  23   2.0000      -0.310962        -8.4617
  24   2.0000      -0.296265        -8.0618
  25   2.0000      -0.286187        -7.7875
  26   2.0000      -0.284978        -7.7546
  27   2.0000      -0.262459        -7.1419
  28   2.0000      -0.207315        -5.6413
  29   0.0000       0.019417         0.5284
  30   0.0000       0.056621         1.5407
  31   0.0000       0.065632         1.7859
  32   0.0000       0.074530         2.0281
  33   0.0000       0.083546         2.2734

MULLIKEN ATOMIC CHARGES
-----------------------
   0 C :   -0.294781
   1 C :   -0.162665
   2 C :   -0.119593
   3 C :   -0.060949
   4 C :   -0.221056
   5 C :   -0.219850
   6 O :   -0.415325
   7 H :    0.126231
   8 H :    0.083739
   9 H :    0.094815
  10 H :    0.081182
  11 H :    0.085123
  12 H :    0.059302
  13 H :    0.075713
  14 H :    0.115925
  15 H :    0.096579
  16 H :    0.100062
  17 H :    0.103931
  18 H :    0.094259
  19 H :    0.085155
  20 H :    0.292202
Sum of atomic charges:   -0.0000000

LOEWDIN ATOMIC CHARGES
----------------------
   0 C :   -0.352191
   1 C :   -0.233297
   2 C :   -0.226954
   3 C :   -0.015563
   4 C :   -0.326233
   5 C :   -0.339058
   6 O :   -0.313675
   7 H :    0.121632
   8 H :    0.111399
   9 H :    0.114797
  10 H :    0.114864
  11 H :    0.114591
  12 H :    0.108353
  13 H :    0.118283
  14 H :    0.125354
  15 H :    0.121679
  16 H :    0.123022
  17 H :    0.120128
  18 H :    0.121561
  19 H :    0.111991
  20 H :    0.279318

  Mayer bond orders larger than 0.100000
B(  0-C ,  1-C ) :   1.1569 B(  0-C ,  7-H ) :   0.9372 B(  0-C ,  8-H ) :   0.9543
B(  0-C ,  9-H ) :   0.9495 B(  1-C ,  2-C ) :   1.1352 B(  1-C , 10-H ) :   0.9256
B(  1-C , 11-H ) :   0.9167 B(  2-C ,  3-C ) :   1.0305 B(  2-C , 12-H ) :   0.9076
B(  2-C , 13-H ) :   0.9071 B(  3-C ,  4-C ) :   1.0852 B(  3-C ,  5-C ) :   1.0865
B(  3-C ,  6-O ) :   1.0102 B(  4-C , 14-H ) :   0.9335 B(  4-C , 15-H ) :   0.9454
B(  4-C , 16-H ) :   0.9413 B(  5-C , 17-H ) :   0.9411 B(  5-C , 18-H ) :   0.9389
B(  5-C , 19-H ) :   0.9410 B(  6-O , 20-H ) :   0.8502

Dispersion correction           -0.017206551
FINAL SINGLE POINT ENERGY      -311.520086531829

DIPOLE MOMENT
-------------

Method             : SCF
Type of density    : Electron Density
Multiplicity       :   1
Irrep              :   0
Energy             :  -311.5996499566974762 Eh
Relativity type    :
Basis              : AO
                                X                 Y                 Z
Electronic contribution:      1.465163531      -0.925199528       2.161950415
Nuclear contribution   :     -1.443709719       0.518322766      -2.500336163
                        -----------------------------------------
Total Dipole Moment    :      0.021453812      -0.406876761      -0.338385749
                        -----------------------------------------
Magnitude (a.u.)       :      0.529635611
Magnitude (Debye)      :      1.346226736

Rotational constants in cm-1:             0.129675             0.057576             0.055567
Rotational constants in MHz :          3887.571178          1726.096632          1665.845014

                             ****ORCA TERMINATED NORMALLY****
TOTAL RUN TIME: 0 days 0 hours 0 minutes 9 seconds 543 msec
