                         Program Version 6.0.0  -   RELEASE  -
|  1> ! pbe def2-sv(p) def2/J RI DEFGRID1 loosescf d4 GCP(DFT/SV(P)) printgap
|  2> %output
|  3>     printlevel normal
|  4> end
|  5> * xyz 0 1
|  6> C 2.2447865149 -0.9575379775 -0.7239791357
|  7> C 1.5896801922 0.3552265464 -0.3174724167
|  8> C 0.3493584761 0.1823564645 0.5665783543
|  9> H 0.6483666586 -0.3942731474 1.4596458358
| 10> C -0.8085984455 -0.578200429 -0.1155043444
| 11> C -1.9622724388 -0.7960315691 0.8665250523
| 12> C -1.3100605817 0.1506373652 -1.3605946754
| 13> O -0.0306705571 1.4892261405 0.967848205
| 14> H 1.6084379211 -1.5228101377 -1.3993321083
| 15> H 2.4502867266 -1.5684659026 0.1521285132
| 16> H 3.1843883807 -0.7571365834 -1.231844938
| 17> H 2.2992085044 0.9568746851 0.2548838524
| 18> H 1.3153115735 0.9349461876 -1.1986181068
| 19> H -0.420894859 -1.5599739096 -0.4014186557
| 20> H -2.6943100061 -1.4732138696 0.4335164196
| 21> H -1.6023996152 -1.2329145461 1.7960415215
| 22> H -2.4667696687 0.14228768 1.086561513
| 23> H -2.2316755737 -0.304054566 -1.7151789741
| 24> H -0.5782128056 0.106740093 -2.1622141832
| 25> H -1.5029352379 1.1953946349 -1.1259990604
| 26> H -0.7481074121 1.4225756958 1.611411996
| 27> *
| 28>
| 29>                          ****END OF INPUT****

CARTESIAN COORDINATES (ANGSTROEM)
---------------------------------
  C      2.244787   -0.957538   -0.723979
  C      1.589680    0.355227   -0.317472
  C      0.349358    0.182356    0.566578
  H      0.648367   -0.394273    1.459646
  C     -0.808598   -0.578200   -0.115504
  C     -1.962272   -0.796032    0.866525
  C     -1.310061    0.150637   -1.360595
  O     -0.030671    1.489226    0.967848
  H      1.608438   -1.522810   -1.399332
  H      2.450287   -1.568466    0.152129
  H      3.184388   -0.757137   -1.231845
  H      2.299209    0.956875    0.254884
  H      1.315312    0.934946   -1.198618
  H     -0.420895   -1.559974   -0.401419
  H     -2.694310   -1.473214    0.433516
  H     -1.602400   -1.232915    1.796042
  H     -2.466770    0.142288    1.086562
  H     -2.231676   -0.304055   -1.715179
  H     -0.578213    0.106740   -2.162214
  H     -1.502935    1.195395   -1.125999
  H     -0.748107    1.422576    1.611412

 Total Charge           Charge          ....    0
 Multiplicity           Mult            ....    1
 Number of Electrons    NEL             ....   58
 Basis Dimension        Dim             ....  126

ORBITAL ENERGIES
----------------

  NO   OCC          E(Eh)            E(eV)
   0   2.0000     -18.739147      -509.9181
   1   2.0000      -9.931501      -270.2499
   2   2.0000      -9.892655      -269.1928
   3   2.0000      -9.879053      -268.8227
   4   2.0000      -9.877100      -268.7696
   5   2.0000      -9.874475      -268.6981
   6   2.0000      -9.868556      -268.5370
   7   2.0000      -0.916501       -24.9393
   8   2.0000      -0.724920       -19.7261
   9   2.0000      -0.685914       -18.6647
  10   2.0000      -0.612108       -16.6563
  11   2.0000      -0.599828       -16.3222
  12   2.0000      -0.538093       -14.6422
  13   2.0000      -0.488190       -13.2843
  14   2.0000      -0.449403       -12.2289
  15   2.0000      -0.427538       -11.6339
  16   2.0000      -0.409781       -11.1507
  17   2.0000      -0.387134       -10.5344
  18   2.0000      -0.368144       -10.0177
  19   2.0000      -0.349563        -9.5121
  20   2.0000      -0.339741        -9.2448
  21   2.0000      -0.323840        -8.8121
  22   2.0000      -0.317588        -8.6420
  23   2.0000      -0.312113        -8.4930
  24   2.0000      -0.299276        -8.1437
  25   2.0000      -0.289819        -7.8864
  26   2.0000      -0.281063        -7.6481
  27   2.0000      -0.258381        -7.0309
  28   2.0000      -0.211803        -5.7635
  29   0.0000       0.022457         0.6111
  30   0.0000       0.041052         1.1171
  31   0.0000       0.065740         1.7889
  32   0.0000       0.075324         2.0497
  33   0.0000       0.090874         2.4728

MULLIKEN ATOMIC CHARGES
-----------------------
   0 C :   -0.292328
   1 C :   -0.144807
   2 C :    0.043429
   3 H :    0.048728
   4 C :   -0.180072
   5 C :   -0.265965
   6 C :   -0.248037
   7 O :   -0.420512
   8 H :    0.110890
   9 H :    0.098395
  10 H :    0.105951
  11 H :    0.089578
  12 H :    0.091629
  13 H :    0.073830
  14 H :    0.107074
  15 H :    0.097558
  16 H :    0.088839
  17 H :    0.094584
  18 H :    0.104597
  19 H :    0.100878
  20 H :    0.295760
Sum of atomic charges:    0.0000000

LOEWDIN ATOMIC CHARGES
----------------------
   0 C :   -0.341257
   1 C :   -0.236145
   2 C :   -0.043642
   3 H :    0.091706
   4 C :   -0.173434
   5 C :   -0.337233
   6 C :   -0.333489
   7 O :   -0.326496
   8 H :    0.116697
   9 H :    0.117216
  10 H :    0.122938
  11 H :    0.121670
  12 H :    0.119504
  13 H :    0.117620
  14 H :    0.123009
  15 H :    0.115725
  16 H :    0.110887
  17 H :    0.116891
  18 H :    0.117678
  19 H :    0.119633
  20 H :    0.280522

  Mayer bond orders larger than 0.100000
B(  0-C ,  1-C ) :   1.1427 B(  0-C ,  8-H ) :   0.9453 B(  0-C ,  9-H ) :   0.9525
B(  0-C , 10-H ) :   0.9496 B(  1-C ,  2-C ) :   1.0934 B(  1-C , 11-H ) :   0.9161
B(  1-C , 12-H ) :   0.9106 B(  2-C ,  3-H ) :   0.9018 B(  2-C ,  4-C ) :   1.0070
B(  2-C ,  7-O ) :   1.0564 B(  4-C ,  5-C ) :   1.1110 B(  4-C ,  6-C ) :   1.0989
B(  4-C , 13-H ) :   0.8857 B(  5-C , 14-H ) :   0.9483 B(  5-C , 15-H ) :   0.9484
B(  5-C , 16-H ) :   0.9406 B(  6-C , 17-H ) :   0.9510 B(  6-C , 18-H ) :   0.9447
B(  6-C , 19-H ) :   0.9386 B(  7-O , 20-H ) :   0.8450

Dispersion correction           -0.016894818
FINAL SINGLE POINT ENERGY      -311.518553086444

DIPOLE MOMENT
-------------

Method             : SCF
Type of density    : Electron Density
Multiplicity       :   1
Irrep              :   0
Energy             :  -311.5983262452486429 Eh
Relativity type    :
Basis              : AO
                                X                 Y                 Z
Electronic contribution:      0.444932513       3.333854348       2.467576074
Nuclear contribution   :     -0.694044564      -3.781235973      -2.275146066
                        -----------------------------------------
Total Dipole Moment    :     -0.249112050      -0.447381625       0.192430008
                        -----------------------------------------
Magnitude (a.u.)       :      0.547025082
Magnitude (Debye)      :      1.390427258

Rotational constants in cm-1:             0.110175             0.060557             0.052374
Rotational constants in MHz :          3302.954876          1815.456590          1570.129272

                             ****ORCA TERMINATED NORMALLY****
TOTAL RUN TIME: 0 days 0 hours 0 minutes 8 seconds 680 msec
