                         Program Version 6.0.0  -   RELEASE  -
|  1> ! r2scan-3c def2/J RI DEFGRID2 scfconv6 printgap
|  2> %output
|  3>     printlevel normal
|  4> end
|  5> * xyz 0 1
|  6> C -1.7379261243 -0.6209960535 1.0089892011
|  7> C -1.2598174155 -0.3380005314 -0.4129803303
|  8> C -2.3551653654 0.3901240538 -1.1917456652
|  9> C 0.0308256027 0.4901421572 -0.4376217316
| 10> C 1.2589089134 -0.2204295151 0.1623198567
| 11> C 2.4780400607 -0.0515879442 -0.7448785552
| 12> C 1.5872240317 0.3067995533 1.5586893756
| 13> H -2.6748052652 -1.1736575359 0.9874606573
| 14> H -1.0095928693 -1.2131773591 1.556106624
| 15> H -1.9034025496 0.3116009659 1.5445153587
| 16> H -1.06258335 -1.2954670539 -0.909776145
| 17> H -3.2695115639 -0.1984751035 -1.2062175969
| 18> H -2.5726633314 1.3501628887 -0.7284237653
| 19> H -2.0454252173 0.5671832083 -2.2191690136
| 20> H -0.1419629459 1.4300134499 0.0907191987
| 21> H 0.2419218985 0.7406863012 -1.4795045951
| 22> H 1.0427037609 -1.2919555311 0.2372000107
| 23> H 2.2885772881 -0.4777164318 -1.7274590252
| 24> H 2.716458845 1.0032021125 -0.865141736
| 25> H 3.344146221 -0.5516391063 -0.3167587
| 26> H 0.7328157153 0.2162181755 2.2232700588
| 27> H 2.4172605656 -0.2492468588 1.9897511079
| 28> H 1.8711601029 1.3559932384 1.5054036434
| 29> *
| 30>
| 31>                          ****END OF INPUT****

CARTESIAN COORDINATES (ANGSTROEM)
---------------------------------
  C     -1.737926   -0.620996    1.008989
  C     -1.259817   -0.338001   -0.412980
  C     -2.355165    0.390124   -1.191746
  C      0.030826    0.490142   -0.437622
  C      1.258909   -0.220430    0.162320
  C      2.478040   -0.051588   -0.744879
  C      1.587224    0.306800    1.558689
  H     -2.674805   -1.173658    0.987461
  H     -1.009593   -1.213177    1.556107
  H     -1.903403    0.311601    1.544515
  H     -1.062583   -1.295467   -0.909776
  H     -3.269512   -0.198475   -1.206218
  H     -2.572663    1.350163   -0.728424
  H     -2.045425    0.567183   -2.219169
  H     -0.141963    1.430013    0.090719
  H      0.241922    0.740686   -1.479505
  H      1.042704   -1.291956    0.237200
  H      2.288577   -0.477716   -1.727459
  H      2.716459    1.003202   -0.865142
  H      3.344146   -0.551639   -0.316759
  H      0.732816    0.216218    2.223270
  H      2.417261   -0.249247    1.989751
  H      1.871160    1.355993    1.505404

 Total Charge           Charge          ....    0
 Multiplicity           Mult            ....    1
 Number of Electrons    NEL             ....   58
 Basis Dimension        Dim             ....  213

ORBITAL ENERGIES
----------------

  NO   OCC          E(Eh)            E(eV)
   0   2.0000     -10.030496      -272.9437
   1   2.0000     -10.029560      -272.9182
   2   2.0000     -10.016416      -272.5605
   3   2.0000     -10.012815      -272.4625
   4   2.0000     -10.012292      -272.4483
   5   2.0000     -10.012094      -272.4429
   6   2.0000     -10.011668      -272.4313
   7   2.0000      -0.785539       -21.3756
   8   2.0000      -0.743264       -20.2252
   9   2.0000      -0.650811       -17.7095
  10   2.0000      -0.643623       -17.5139
  11   2.0000      -0.639924       -17.4132
  12   2.0000      -0.534794       -14.5525
  13   2.0000      -0.521230       -14.1834
  14   2.0000      -0.432957       -11.7814
  15   2.0000      -0.426289       -11.5999
  16   2.0000      -0.407566       -11.0904
  17   2.0000      -0.393079       -10.6962
  18   2.0000      -0.375665       -10.2224
  19   2.0000      -0.362208        -9.8562
  20   2.0000      -0.352018        -9.5789
  21   2.0000      -0.348353        -9.4792
  22   2.0000      -0.333526        -9.0757
  23   2.0000      -0.323573        -8.8049
  24   2.0000      -0.302754        -8.2383
  25   2.0000      -0.297079        -8.0839
  26   2.0000      -0.284444        -7.7401
  27   2.0000      -0.280247        -7.6259
  28   2.0000      -0.269807        -7.3418
  29   0.0000       0.082493         2.2448
  30   0.0000       0.098502         2.6804
  31   0.0000       0.112455         3.0601
  32   0.0000       0.119152         3.2423
  33   0.0000       0.132846         3.6149

MULLIKEN ATOMIC CHARGES
-----------------------
   0 C :   -0.517714
   1 C :   -0.037369
   2 C :   -0.484787
   3 C :   -0.324403
   4 C :    0.000135
   5 C :   -0.500917
   6 C :   -0.514408
   7 H :    0.143728
   8 H :    0.153616
   9 H :    0.156777
  10 H :    0.149442
  11 H :    0.146077
  12 H :    0.145834
  13 H :    0.143694
  14 H :    0.153715
  15 H :    0.148924
  16 H :    0.149935
  17 H :    0.146367
  18 H :    0.150025
  19 H :    0.143453
  20 H :    0.151562
  21 H :    0.144874
  22 H :    0.151438
Sum of atomic charges:    0.0000000

LOEWDIN ATOMIC CHARGES
----------------------
   0 C :   -0.419152
   1 C :   -0.243750
   2 C :   -0.419009
   3 C :   -0.296174
   4 C :   -0.247548
   5 C :   -0.418203
   6 C :   -0.418785
   7 H :    0.152699
   8 H :    0.153436
   9 H :    0.153392
  10 H :    0.153675
  11 H :    0.151861
  12 H :    0.153566
  13 H :    0.152278
  14 H :    0.161416
  15 H :    0.160771
  16 H :    0.155303
  17 H :    0.151590
  18 H :    0.153657
  19 H :    0.151442
  20 H :    0.153617
  21 H :    0.151516
  22 H :    0.152401

  Mayer bond orders larger than 0.100000
B(  0-C ,  1-C ) :   0.8800 B(  0-C ,  7-H ) :   0.9706 B(  0-C ,  8-H ) :   0.9702
B(  0-C ,  9-H ) :   0.9887 B(  1-C ,  2-C ) :   0.9125 B(  1-C ,  3-C ) :   0.8906
B(  1-C , 10-H ) :   0.9706 B(  2-C , 11-H ) :   0.9773 B(  2-C , 12-H ) :   0.9853
B(  2-C , 13-H ) :   0.9766 B(  3-C ,  4-C ) :   0.8164 B(  3-C , 14-H ) :   0.9817
B(  3-C , 15-H ) :   0.9863 B(  4-C ,  5-C ) :   0.9005 B(  4-C ,  6-C ) :   0.9106
B(  4-C , 16-H ) :   0.9654 B(  5-C , 17-H ) :   0.9777 B(  5-C , 18-H ) :   0.9851
B(  5-C , 19-H ) :   0.9778 B(  6-C , 20-H ) :   0.9665 B(  6-C , 21-H ) :   0.9778
B(  6-C , 22-H ) :   0.9898

Dispersion correction           -0.006316428
FINAL SINGLE POINT ENERGY      -276.286095553230

DIPOLE MOMENT
-------------

Method             : SCF
Type of density    : Electron Density
Multiplicity       :   1
Irrep              :   0
Energy             :  -276.2907710370273549 Eh
Relativity type    :
Basis              : AO
                                X                 Y                 Z
Electronic contribution:      0.012655047      -0.545646014      -0.663686031
Nuclear contribution   :     -0.023362748       0.491338936       0.639803661
                        -----------------------------------------
Total Dipole Moment    :     -0.010707701      -0.054307078      -0.023882370
                        -----------------------------------------
Magnitude (a.u.)       :      0.060285000
Magnitude (Debye)      :      0.153232292

Rotational constants in cm-1:             0.137907             0.048809             0.040331
Rotational constants in MHz :          4134.335903          1463.268970          1209.084791

                             ****ORCA TERMINATED NORMALLY****
TOTAL RUN TIME: 0 days 0 hours 0 minutes 23 seconds 566 msec
