                         Program Version 6.0.0  -   RELEASE  -
|  1> ! r2scan-3c def2/J RI DEFGRID2 scfconv6 printgap
|  2> %output
|  3>     printlevel normal
|  4> end
|  5> %cpcm
|  6>     smd true
|  7>     smdsolvent "water"
|  8> end
|  9> * xyz 0 1
| 10> C -1.7379261243 -0.6209960535 1.0089892011
| 11> C -1.2598174155 -0.3380005314 -0.4129803303
| 12> C -2.3551653654 0.3901240538 -1.1917456652
| 13> C 0.0308256027 0.4901421572 -0.4376217316
| 14> C 1.2589089134 -0.2204295151 0.1623198567
| 15> C 2.4780400607 -0.0515879442 -0.7448785552
| 16> C 1.5872240317 0.3067995533 1.5586893756
| 17> H -2.6748052652 -1.1736575359 0.9874606573
| 18> H -1.0095928693 -1.2131773591 1.556106624
| 19> H -1.9034025496 0.3116009659 1.5445153587
| 20> H -1.06258335 -1.2954670539 -0.909776145
| 21> H -3.2695115639 -0.1984751035 -1.2062175969
| 22> H -2.5726633314 1.3501628887 -0.7284237653
| 23> H -2.0454252173 0.5671832083 -2.2191690136
| 24> H -0.1419629459 1.4300134499 0.0907191987
| 25> H 0.2419218985 0.7406863012 -1.4795045951
| 26> H 1.0427037609 -1.2919555311 0.2372000107
| 27> H 2.2885772881 -0.4777164318 -1.7274590252
| 28> H 2.716458845 1.0032021125 -0.865141736
| 29> H 3.344146221 -0.5516391063 -0.3167587
| 30> H 0.7328157153 0.2162181755 2.2232700588
| 31> H 2.4172605656 -0.2492468588 1.9897511079
| 32> H 1.8711601029 1.3559932384 1.5054036434
| 33> *
| 34>
| 35>                          ****END OF INPUT****

CARTESIAN COORDINATES (ANGSTROEM)
---------------------------------
  C     -1.737926   -0.620996    1.008989
  C     -1.259817   -0.338001   -0.412980
  C     -2.355165    0.390124   -1.191746
  C      0.030826    0.490142   -0.437622
  C      1.258909   -0.220430    0.162320
  C      2.478040   -0.051588   -0.744879
  C      1.587224    0.306800    1.558689
  H     -2.674805   -1.173658    0.987461
  H     -1.009593   -1.213177    1.556107
  H     -1.903403    0.311601    1.544515
  H     -1.062583   -1.295467   -0.909776
  H     -3.269512   -0.198475   -1.206218
  H     -2.572663    1.350163   -0.728424
  H     -2.045425    0.567183   -2.219169
  H     -0.141963    1.430013    0.090719
  H      0.241922    0.740686   -1.479505
  H      1.042704   -1.291956    0.237200
  H      2.288577   -0.477716   -1.727459
  H      2.716459    1.003202   -0.865142
  H      3.344146   -0.551639   -0.316759
  H      0.732816    0.216218    2.223270
  H      2.417261   -0.249247    1.989751
  H      1.871160    1.355993    1.505404

 Total Charge           Charge          ....    0
 Multiplicity           Mult            ....    1
 Number of Electrons    NEL             ....   58
 Basis Dimension        Dim             ....  213

ORBITAL ENERGIES
----------------

  NO   OCC          E(Eh)            E(eV)
   0   2.0000     -10.022713      -272.7319
   1   2.0000     -10.021938      -272.7108
   2   2.0000     -10.008301      -272.3397
   3   2.0000     -10.004899      -272.2471
   4   2.0000     -10.004619      -272.2395
   5   2.0000     -10.004485      -272.2359
   6   2.0000     -10.004233      -272.2290
   7   2.0000      -0.777801       -21.1650
   8   2.0000      -0.735820       -20.0227
   9   2.0000      -0.643629       -17.5140
  10   2.0000      -0.636668       -17.3246
  11   2.0000      -0.632679       -17.2161
  12   2.0000      -0.527620       -14.3573
  13   2.0000      -0.513497       -13.9730
  14   2.0000      -0.425157       -11.5691
  15   2.0000      -0.418754       -11.3949
  16   2.0000      -0.400157       -10.8888
  17   2.0000      -0.385692       -10.4952
  18   2.0000      -0.368153       -10.0179
  19   2.0000      -0.354918        -9.6578
  20   2.0000      -0.344892        -9.3850
  21   2.0000      -0.340851        -9.2750
  22   2.0000      -0.326059        -8.8725
  23   2.0000      -0.315987        -8.5984
  24   2.0000      -0.295308        -8.0357
  25   2.0000      -0.289395        -7.8748
  26   2.0000      -0.276300        -7.5185
  27   2.0000      -0.272585        -7.4174
  28   2.0000      -0.262316        -7.1380
  29   0.0000       0.090778         2.4702
  30   0.0000       0.106342         2.8937
  31   0.0000       0.120964         3.2916
  32   0.0000       0.125714         3.4209
  33   0.0000       0.137770         3.7489

MULLIKEN ATOMIC CHARGES
-----------------------
   0 C :   -0.556842
   1 C :   -0.016497
   2 C :   -0.532101
   3 C :   -0.345630
   4 C :    0.017661
   5 C :   -0.541425
   6 C :   -0.555689
   7 H :    0.154307
   8 H :    0.163356
   9 H :    0.166444
  10 H :    0.155752
  11 H :    0.157315
  12 H :    0.156933
  13 H :    0.154846
  14 H :    0.161667
  15 H :    0.155907
  16 H :    0.157719
  17 H :    0.156787
  18 H :    0.159344
  19 H :    0.153820
  20 H :    0.159549
  21 H :    0.155163
  22 H :    0.161614
Sum of atomic charges:    0.0000000

LOEWDIN ATOMIC CHARGES
----------------------
   0 C :   -0.426937
   1 C :   -0.241675
   2 C :   -0.428387
   3 C :   -0.298972
   4 C :   -0.245630
   5 C :   -0.426867
   6 C :   -0.427006
   7 H :    0.154492
   8 H :    0.156046
   9 H :    0.155699
  10 H :    0.155661
  11 H :    0.154262
  12 H :    0.155633
  13 H :    0.154464
  14 H :    0.163033
  15 H :    0.162151
  16 H :    0.157803
  17 H :    0.154015
  18 H :    0.155526
  19 H :    0.153360
  20 H :    0.155322
  21 H :    0.153455
  22 H :    0.154551

  Mayer bond orders larger than 0.100000
B(  0-C ,  1-C ) :   0.8744 B(  0-C ,  7-H ) :   0.9695 B(  0-C ,  8-H ) :   0.9678
B(  0-C ,  9-H ) :   0.9861 B(  1-C ,  2-C ) :   0.8993 B(  1-C ,  3-C ) :   0.8878
B(  1-C , 10-H ) :   0.9709 B(  2-C , 11-H ) :   0.9749 B(  2-C , 12-H ) :   0.9843
B(  2-C , 13-H ) :   0.9746 B(  3-C ,  4-C ) :   0.8154 B(  3-C , 14-H ) :   0.9812
B(  3-C , 15-H ) :   0.9855 B(  4-C ,  5-C ) :   0.8920 B(  4-C ,  6-C ) :   0.9009
B(  4-C , 16-H ) :   0.9664 B(  5-C , 17-H ) :   0.9746 B(  5-C , 18-H ) :   0.9830
B(  5-C , 19-H ) :   0.9766 B(  6-C , 20-H ) :   0.9656 B(  6-C , 21-H ) :   0.9764
B(  6-C , 22-H ) :   0.9873

Dispersion correction           -0.006316428
FINAL SINGLE POINT ENERGY      -276.282186738763

DIPOLE MOMENT
-------------

Method             : SCF
Type of density    : Electron Density
Multiplicity       :   1
Irrep              :   0
Energy             :  -276.2868622225602735 Eh
Relativity type    :
Basis              : AO
                                X                 Y                 Z
Electronic contribution:      0.010229059      -0.567464220      -0.667423979
Nuclear contribution   :     -0.023362748       0.491338936       0.639803661
                        -----------------------------------------
Total Dipole Moment    :     -0.013133689      -0.076125284      -0.027620319
                        -----------------------------------------
Magnitude (a.u.)       :      0.082039226
Magnitude (Debye)      :      0.208527141

Rotational constants in cm-1:             0.137907             0.048809             0.040331
Rotational constants in MHz :          4134.335903          1463.268970          1209.084791

                             ****ORCA TERMINATED NORMALLY****
TOTAL RUN TIME: 0 days 0 hours 0 minutes 27 seconds 720 msec
