                         Program Version 6.0.0  -   RELEASE  -
|  1> ! pbe def2-sv(p) def2/J RI DEFGRID1 loosescf d4 GCP(DFT/SV(P)) printgap
|  2> %output
|  3>     printlevel normal
|  4> end
|  5> * xyz 0 1
|  6> C 2.5511284574 -0.3819049844 -0.5681365801
|  7> C 1.2826103525 -0.0845187813 0.2340398712
|  8> H 1.2407835103 -0.7643535577 1.1024472748
|  9> C 0.0334890618 -0.3045446038 -0.627635808
| 10> C -1.2687095696 -0.4698642838 0.1654593327
| 11> C -1.7496094906 0.8581044508 0.7441334812
| 12> C -2.3510914618 -1.0714441135 -0.7304419505
| 13> O 1.2838865613 1.2561538171 0.6994059604
| 14> H 2.5516549261 -1.4165647288 -0.8975520893
| 15> H 2.5966588017 0.2678653436 -1.4388544517
| 16> H 3.4369085143 -0.2137587125 0.0408723499
| 17> H -0.0611473373 0.5432461681 -1.3083392291
| 18> H 0.1951615855 -1.2052225703 -1.2217536309
| 19> H -1.0800155601 -1.1639305867 0.9931479538
| 20> H -2.0206557981 1.5399541303 -0.0591267437
| 21> H -0.964787788 1.3238311276 1.3324104806
| 22> H -2.6210434831 0.7051771195 1.3768285545
| 23> H -2.5344632264 -0.4244370406 -1.5853729212
| 24> H -2.0509814076 -2.0504534488 -1.0967430752
| 25> H -3.2809761162 -1.1814724915 -0.1777982656
| 26> H 2.1137895417 1.4291025845 1.1633802936
| 27> *
| 28>
| 29>                          ****END OF INPUT****

CARTESIAN COORDINATES (ANGSTROEM)
---------------------------------
  C      2.551128   -0.381905   -0.568137
  C      1.282610   -0.084519    0.234040
  H      1.240784   -0.764354    1.102447
  C      0.033489   -0.304545   -0.627636
  C     -1.268710   -0.469864    0.165459
  C     -1.749609    0.858104    0.744133
  C     -2.351091   -1.071444   -0.730442
  O      1.283887    1.256154    0.699406
  H      2.551655   -1.416565   -0.897552
  H      2.596659    0.267865   -1.438854
  H      3.436909   -0.213759    0.040872
  H     -0.061147    0.543246   -1.308339
  H      0.195162   -1.205223   -1.221754
  H     -1.080016   -1.163931    0.993148
  H     -2.020656    1.539954   -0.059127
  H     -0.964788    1.323831    1.332410
  H     -2.621043    0.705177    1.376829
  H     -2.534463   -0.424437   -1.585373
  H     -2.050981   -2.050453   -1.096743
  H     -3.280976   -1.181472   -0.177798
  H      2.113790    1.429103    1.163380

 Total Charge           Charge          ....    0
 Multiplicity           Mult            ....    1
 Number of Electrons    NEL             ....   58
 Basis Dimension        Dim             ....  126

ORBITAL ENERGIES
----------------

  NO   OCC          E(Eh)            E(eV)
   0   2.0000     -18.740687      -509.9600
   1   2.0000      -9.936722      -270.3919
   2   2.0000      -9.886737      -269.0318
   3   2.0000      -9.876735      -268.7596
   4   2.0000      -9.876575      -268.7553
   5   2.0000      -9.865852      -268.4635
   6   2.0000      -9.855344      -268.1775
   7   2.0000      -0.918534       -24.9946
   8   2.0000      -0.725520       -19.7424
   9   2.0000      -0.677150       -18.4262
  10   2.0000      -0.608405       -16.5555
  11   2.0000      -0.598472       -16.2853
  12   2.0000      -0.530584       -14.4379
  13   2.0000      -0.493431       -13.4269
  14   2.0000      -0.457880       -12.4596
  15   2.0000      -0.411315       -11.1925
  16   2.0000      -0.398454       -10.8425
  17   2.0000      -0.380731       -10.3602
  18   2.0000      -0.363611        -9.8944
  19   2.0000      -0.356559        -9.7025
  20   2.0000      -0.337718        -9.1898
  21   2.0000      -0.329825        -8.9750
  22   2.0000      -0.318846        -8.6762
  23   2.0000      -0.309926        -8.4335
  24   2.0000      -0.293785        -7.9943
  25   2.0000      -0.276570        -7.5258
  26   2.0000      -0.274040        -7.4570
  27   2.0000      -0.255896        -6.9633
  28   2.0000      -0.212623        -5.7858
  29   0.0000       0.023048         0.6272
  30   0.0000       0.051125         1.3912
  31   0.0000       0.064335         1.7506
  32   0.0000       0.072688         1.9780
  33   0.0000       0.085689         2.3317

MULLIKEN ATOMIC CHARGES
-----------------------
   0 C :   -0.257686
   1 C :    0.027002
   2 H :    0.053875
   3 C :   -0.121599
   4 C :   -0.183414
   5 C :   -0.245302
   6 C :   -0.230064
   7 O :   -0.419286
   8 H :    0.098411
   9 H :    0.104851
  10 H :    0.089641
  11 H :    0.080411
  12 H :    0.074826
  13 H :    0.064332
  14 H :    0.085543
  15 H :    0.117600
  16 H :    0.087754
  17 H :    0.090702
  18 H :    0.092684
  19 H :    0.095795
  20 H :    0.293924
Sum of atomic charges:    0.0000000

LOEWDIN ATOMIC CHARGES
----------------------
   0 C :   -0.352468
   1 C :   -0.054710
   2 H :    0.093455
   3 C :   -0.219207
   4 C :   -0.155521
   5 C :   -0.337116
   6 C :   -0.329596
   7 O :   -0.326422
   8 H :    0.122589
   9 H :    0.122856
  10 H :    0.112031
  11 H :    0.122297
  12 H :    0.117184
  13 H :    0.110328
  14 H :    0.114471
  15 H :    0.121841
  16 H :    0.111773
  17 H :    0.115854
  18 H :    0.113118
  19 H :    0.116250
  20 H :    0.280993

  Mayer bond orders larger than 0.100000
B(  0-C ,  1-C ) :   1.1124 B(  0-C ,  8-H ) :   0.9367 B(  0-C ,  9-H ) :   0.9430
B(  0-C , 10-H ) :   0.9453 B(  1-C ,  2-H ) :   0.9044 B(  1-C ,  3-C ) :   1.0734
B(  1-C ,  7-O ) :   1.0463 B(  3-C ,  4-C ) :   1.0871 B(  3-C , 11-H ) :   0.8968
B(  3-C , 12-H ) :   0.9203 B(  4-C ,  5-C ) :   1.1158 B(  4-C ,  6-C ) :   1.1117
B(  4-C , 13-H ) :   0.9035 B(  5-C , 14-H ) :   0.9488 B(  5-C , 15-H ) :   0.9332
B(  5-C , 16-H ) :   0.9486 B(  6-C , 17-H ) :   0.9494 B(  6-C , 18-H ) :   0.9486
B(  6-C , 19-H ) :   0.9518 B(  7-O , 20-H ) :   0.8502

Dispersion correction           -0.016136999
FINAL SINGLE POINT ENERGY      -311.517697187494

DIPOLE MOMENT
-------------

Method             : SCF
Type of density    : Electron Density
Multiplicity       :   1
Irrep              :   0
Energy             :  -311.5979026298184635 Eh
Relativity type    :
Basis              : AO
                                X                 Y                 Z
Electronic contribution:      2.880202581       2.131955490       1.782753098
Nuclear contribution   :     -2.306760361      -2.430918359      -1.656224191
                        -----------------------------------------
Total Dipole Moment    :      0.573442220      -0.298962870       0.126528907
                        -----------------------------------------
Magnitude (a.u.)       :      0.658957010
Magnitude (Debye)      :      1.674935611

Rotational constants in cm-1:             0.147180             0.050672             0.040360
Rotational constants in MHz :          4412.349370          1519.094767          1209.963630

                             ****ORCA TERMINATED NORMALLY****
TOTAL RUN TIME: 0 days 0 hours 0 minutes 10 seconds 196 msec
