                         Program Version 6.0.0  -   RELEASE  -
|  1> ! r2scan-3c def2/J RI DEFGRID2 scfconv6 printgap
|  2> %output
|  3>     printlevel normal
|  4> end
|  5> * xyz 0 1
|  6> C -2.3610502746 -0.1292411399 -1.2425477864
|  7> C -1.9485309845 0.1387218601 0.2028898827
|  8> C -1.9256301054 -1.1546284254 1.0141643223
|  9> C -0.5847685242 0.8289641238 0.2515009595
| 10> O 0.4078290355 -0.0308325732 -0.3226499438
| 11> C 1.675124867 0.1648826599 0.0129453351
| 12> O 2.0368627982 1.0346346333 0.7803037319
| 13> C 2.5854611153 -0.8093663245 -0.673452529
| 14> H -1.6320636463 -0.7761992113 -1.7228932134
| 15> H -2.4215281043 0.8009842304 -1.8016647134
| 16> H -3.3324395297 -0.6147007852 -1.2716364376
| 17> H -2.6635055935 0.8316991208 0.6574750063
| 18> H -1.6347026173 -0.9568911789 2.0432720542
| 19> H -1.2154351576 -1.8543454984 0.5810155514
| 20> H -2.9095542171 -1.6149720921 1.0149425063
| 21> H -0.5990355495 1.7621593185 -0.321378145
| 22> H -0.2900270896 1.0616679879 1.2804735996
| 23> H 2.5944245359 -0.5905003948 -1.738309937
| 24> H 2.2084967231 -1.8186428141 -0.5379340804
| 25> H 3.5882739926 -0.7164739706 -0.2702842393
| 26> *
| 27>
| 28>                          ****END OF INPUT****

CARTESIAN COORDINATES (ANGSTROEM)
---------------------------------
  C     -2.361050   -0.129241   -1.242548
  C     -1.948531    0.138722    0.202890
  C     -1.925630   -1.154628    1.014164
  C     -0.584769    0.828964    0.251501
  O      0.407829   -0.030833   -0.322650
  C      1.675125    0.164883    0.012945
  O      2.036863    1.034635    0.780304
  C      2.585461   -0.809366   -0.673453
  H     -1.632064   -0.776199   -1.722893
  H     -2.421528    0.800984   -1.801665
  H     -3.332440   -0.614701   -1.271636
  H     -2.663506    0.831699    0.657475
  H     -1.634703   -0.956891    2.043272
  H     -1.215435   -1.854345    0.581016
  H     -2.909554   -1.614972    1.014943
  H     -0.599036    1.762159   -0.321378
  H     -0.290027    1.061668    1.280474
  H      2.594425   -0.590500   -1.738310
  H      2.208497   -1.818643   -0.537934
  H      3.588274   -0.716474   -0.270284

 Total Charge           Charge          ....    0
 Multiplicity           Mult            ....    1
 Number of Electrons    NEL             ....   64
 Basis Dimension        Dim             ....  222

ORBITAL ENERGIES
----------------

  NO   OCC          E(Eh)            E(eV)
   0   2.0000     -18.997639      -516.9520
   1   2.0000     -18.927946      -515.0556
   2   2.0000     -10.155863      -276.3551
   3   2.0000     -10.086425      -274.4656
   4   2.0000     -10.046217      -273.3715
   5   2.0000     -10.039620      -273.1919
   6   2.0000     -10.020860      -272.6815
   7   2.0000     -10.020353      -272.6677
   8   2.0000      -1.073637       -29.2151
   9   2.0000      -0.975347       -26.5405
  10   2.0000      -0.785055       -21.3624
  11   2.0000      -0.727170       -19.7873
  12   2.0000      -0.661890       -18.0110
  13   2.0000      -0.656757       -17.8713
  14   2.0000      -0.566773       -15.4227
  15   2.0000      -0.515592       -14.0300
  16   2.0000      -0.464481       -12.6392
  17   2.0000      -0.461861       -12.5679
  18   2.0000      -0.440250       -11.9798
  19   2.0000      -0.419614       -11.4183
  20   2.0000      -0.411277       -11.1914
  21   2.0000      -0.402064       -10.9407
  22   2.0000      -0.377441       -10.2707
  23   2.0000      -0.369582       -10.0568
  24   2.0000      -0.354547        -9.6477
  25   2.0000      -0.342835        -9.3290
  26   2.0000      -0.332674        -9.0525
  27   2.0000      -0.310890        -8.4598
  28   2.0000      -0.308469        -8.3939
  29   2.0000      -0.298211        -8.1147
  30   2.0000      -0.270734        -7.3670
  31   2.0000      -0.235631        -6.4119
  32   0.0000      -0.013826        -0.3762
  33   0.0000       0.063189         1.7195
  34   0.0000       0.089497         2.4353
  35   0.0000       0.104810         2.8520
  36   0.0000       0.127815         3.4780

MULLIKEN ATOMIC CHARGES
-----------------------
   0 C :   -0.505225
   1 C :    0.018402
   2 C :   -0.500869
   3 C :   -0.200527
   4 O :   -0.174583
   5 C :    0.421655
   6 O :   -0.429795
   7 C :   -0.527727
   8 H :    0.164523
   9 H :    0.144063
  10 H :    0.145637
  11 H :    0.144965
  12 H :    0.147582
  13 H :    0.159654
  14 H :    0.148405
  15 H :    0.151097
  16 H :    0.179838
  17 H :    0.169035
  18 H :    0.165649
  19 H :    0.178221
Sum of atomic charges:   -0.0000000

LOEWDIN ATOMIC CHARGES
----------------------
   0 C :   -0.408259
   1 C :   -0.220468
   2 C :   -0.407577
   3 C :    0.044011
   4 O :   -0.607074
   5 C :    0.353838
   6 O :   -0.431529
   7 C :   -0.336460
   8 H :    0.163303
   9 H :    0.155051
  10 H :    0.153495
  11 H :    0.163198
  12 H :    0.156688
  13 H :    0.161851
  14 H :    0.154081
  15 H :    0.181306
  16 H :    0.194182
  17 H :    0.179148
  18 H :    0.176223
  19 H :    0.174991

  Mayer bond orders larger than 0.100000
B(  0-C ,  1-C ) :   0.9099 B(  0-C ,  8-H ) :   0.9837 B(  0-C ,  9-H ) :   0.9706
B(  0-C , 10-H ) :   0.9724 B(  1-C ,  2-C ) :   0.9167 B(  1-C ,  3-C ) :   0.9567
B(  1-C , 11-H ) :   0.9383 B(  2-C , 12-H ) :   0.9710 B(  2-C , 13-H ) :   0.9815
B(  2-C , 14-H ) :   0.9741 B(  3-C ,  4-O ) :   0.7954 B(  3-C , 15-H ) :   0.9466
B(  3-C , 16-H ) :   0.9615 B(  4-O ,  5-C ) :   1.0619 B(  5-C ,  6-O ) :   1.8300
B(  5-C ,  7-C ) :   0.9481 B(  7-C , 17-H ) :   0.9466 B(  7-C , 18-H ) :   0.9598
B(  7-C , 19-H ) :   0.9889

Dispersion correction           -0.005233717
FINAL SINGLE POINT ENERGY      -386.237702766337

DIPOLE MOMENT
-------------

Method             : SCF
Type of density    : Electron Density
Multiplicity       :   1
Irrep              :   0
Energy             :  -386.2444013298647292 Eh
Relativity type    :
Basis              : AO
                                X                 Y                 Z
Electronic contribution:      7.173205131       3.688009604       1.495467247
Nuclear contribution   :     -7.757190770      -4.193933242      -1.951094602
                        -----------------------------------------
Total Dipole Moment    :     -0.583985640      -0.505923639      -0.455627354
                        -----------------------------------------
Magnitude (a.u.)       :      0.896991774
Magnitude (Debye)      :      2.279971896

Rotational constants in cm-1:             0.126693             0.035959             0.034540
Rotational constants in MHz :          3798.156378          1078.028134          1035.468344

                             ****ORCA TERMINATED NORMALLY****
TOTAL RUN TIME: 0 days 0 hours 0 minutes 32 seconds 131 msec
