                         Program Version 6.0.0  -   RELEASE  -
|  1> ! r2scan-3c def2/J RI DEFGRID2 scfconv6 printgap
|  2> %output
|  3>     printlevel normal
|  4> end
|  5> %cpcm
|  6>     smd true
|  7>     smdsolvent "water"
|  8> end
|  9> * xyz 0 1
| 10> C -2.3610502746 -0.1292411399 -1.2425477864
| 11> C -1.9485309845 0.1387218601 0.2028898827
| 12> C -1.9256301054 -1.1546284254 1.0141643223
| 13> C -0.5847685242 0.8289641238 0.2515009595
| 14> O 0.4078290355 -0.0308325732 -0.3226499438
| 15> C 1.675124867 0.1648826599 0.0129453351
| 16> O 2.0368627982 1.0346346333 0.7803037319
| 17> C 2.5854611153 -0.8093663245 -0.673452529
| 18> H -1.6320636463 -0.7761992113 -1.7228932134
| 19> H -2.4215281043 0.8009842304 -1.8016647134
| 20> H -3.3324395297 -0.6147007852 -1.2716364376
| 21> H -2.6635055935 0.8316991208 0.6574750063
| 22> H -1.6347026173 -0.9568911789 2.0432720542
| 23> H -1.2154351576 -1.8543454984 0.5810155514
| 24> H -2.9095542171 -1.6149720921 1.0149425063
| 25> H -0.5990355495 1.7621593185 -0.321378145
| 26> H -0.2900270896 1.0616679879 1.2804735996
| 27> H 2.5944245359 -0.5905003948 -1.738309937
| 28> H 2.2084967231 -1.8186428141 -0.5379340804
| 29> H 3.5882739926 -0.7164739706 -0.2702842393
| 30> *
| 31>
| 32>                          ****END OF INPUT****

CARTESIAN COORDINATES (ANGSTROEM)
---------------------------------
  C     -2.361050   -0.129241   -1.242548
  C     -1.948531    0.138722    0.202890
  C     -1.925630   -1.154628    1.014164
  C     -0.584769    0.828964    0.251501
  O      0.407829   -0.030833   -0.322650
  C      1.675125    0.164883    0.012945
  O      2.036863    1.034635    0.780304
  C      2.585461   -0.809366   -0.673453
  H     -1.632064   -0.776199   -1.722893
  H     -2.421528    0.800984   -1.801665
  H     -3.332440   -0.614701   -1.271636
  H     -2.663506    0.831699    0.657475
  H     -1.634703   -0.956891    2.043272
  H     -1.215435   -1.854345    0.581016
  H     -2.909554   -1.614972    1.014943
  H     -0.599036    1.762159   -0.321378
  H     -0.290027    1.061668    1.280474
  H      2.594425   -0.590500   -1.738310
  H      2.208497   -1.818643   -0.537934
  H      3.588274   -0.716474   -0.270284

 Total Charge           Charge          ....    0
 Multiplicity           Mult            ....    1
 Number of Electrons    NEL             ....   64
 Basis Dimension        Dim             ....  222

ORBITAL ENERGIES
----------------

  NO   OCC          E(Eh)            E(eV)
   0   2.0000     -19.002116      -517.0739
   1   2.0000     -18.943260      -515.4723
   2   2.0000     -10.165429      -276.6154
   3   2.0000     -10.078829      -274.2589
   4   2.0000     -10.034726      -273.0588
   5   2.0000     -10.030295      -272.9382
   6   2.0000     -10.009473      -272.3716
   7   2.0000     -10.009151      -272.3628
   8   2.0000      -1.079833       -29.3838
   9   2.0000      -0.988618       -26.9017
  10   2.0000      -0.776306       -21.1244
  11   2.0000      -0.721403       -19.6304
  12   2.0000      -0.654722       -17.8159
  13   2.0000      -0.645956       -17.5773
  14   2.0000      -0.560896       -15.2628
  15   2.0000      -0.510998       -13.9050
  16   2.0000      -0.466191       -12.6857
  17   2.0000      -0.461139       -12.5482
  18   2.0000      -0.446673       -12.1546
  19   2.0000      -0.412858       -11.2344
  20   2.0000      -0.403720       -10.9858
  21   2.0000      -0.395760       -10.7692
  22   2.0000      -0.370811       -10.0903
  23   2.0000      -0.360420        -9.8075
  24   2.0000      -0.346159        -9.4195
  25   2.0000      -0.341863        -9.3026
  26   2.0000      -0.330480        -8.9928
  27   2.0000      -0.303270        -8.2524
  28   2.0000      -0.297971        -8.1082
  29   2.0000      -0.291713        -7.9379
  30   2.0000      -0.274402        -7.4669
  31   2.0000      -0.252147        -6.8613
  32   0.0000      -0.020901        -0.5687
  33   0.0000       0.069678         1.8960
  34   0.0000       0.100741         2.7413
  35   0.0000       0.112265         3.0549
  36   0.0000       0.135764         3.6943

MULLIKEN ATOMIC CHARGES
-----------------------
   0 C :   -0.548778
   1 C :    0.032806
   2 C :   -0.544489
   3 C :   -0.208532
   4 O :   -0.186763
   5 C :    0.468837
   6 O :   -0.520407
   7 C :   -0.563694
   8 H :    0.164854
   9 H :    0.160029
  10 H :    0.160581
  11 H :    0.163100
  12 H :    0.160337
  13 H :    0.163363
  14 H :    0.163272
  15 H :    0.175765
  16 H :    0.179694
  17 H :    0.200259
  18 H :    0.193597
  19 H :    0.186166
Sum of atomic charges:   -0.0000000

LOEWDIN ATOMIC CHARGES
----------------------
   0 C :   -0.415531
   1 C :   -0.214618
   2 C :   -0.415165
   3 C :    0.045466
   4 O :   -0.606078
   5 C :    0.365144
   6 O :   -0.496530
   7 C :   -0.334978
   8 H :    0.161597
   9 H :    0.159327
  10 H :    0.157819
  11 H :    0.170734
  12 H :    0.159750
  13 H :    0.161368
  14 H :    0.158295
  15 H :    0.189800
  16 H :    0.195155
  17 H :    0.191795
  18 H :    0.188067
  19 H :    0.178583

  Mayer bond orders larger than 0.100000
B(  0-C ,  1-C ) :   0.9013 B(  0-C ,  8-H ) :   0.9828 B(  0-C ,  9-H ) :   0.9683
B(  0-C , 10-H ) :   0.9700 B(  1-C ,  2-C ) :   0.9097 B(  1-C ,  3-C ) :   0.9638
B(  1-C , 11-H ) :   0.9348 B(  2-C , 12-H ) :   0.9695 B(  2-C , 13-H ) :   0.9791
B(  2-C , 14-H ) :   0.9717 B(  3-C ,  4-O ) :   0.7819 B(  3-C , 15-H ) :   0.9372
B(  3-C , 16-H ) :   0.9569 B(  4-O ,  5-C ) :   1.0928 B(  5-C ,  6-O ) :   1.7563
B(  5-C ,  7-C ) :   0.9473 B(  7-C , 17-H ) :   0.9337 B(  7-C , 18-H ) :   0.9476
B(  7-C , 19-H ) :   0.9822

Dispersion correction           -0.005233717
FINAL SINGLE POINT ENERGY      -386.242661929169

DIPOLE MOMENT
-------------

Method             : SCF
Type of density    : Electron Density
Multiplicity       :   1
Irrep              :   0
Energy             :  -386.2493604926968942 Eh
Relativity type    :
Basis              : AO
                                X                 Y                 Z
Electronic contribution:      6.943131159       3.515245348       1.309666569
Nuclear contribution   :     -7.757190770      -4.193933242      -1.951094602
                        -----------------------------------------
Total Dipole Moment    :     -0.814059611      -0.678687895      -0.641428033
                        -----------------------------------------
Magnitude (a.u.)       :      1.238846331
Magnitude (Debye)      :      3.148897126

Rotational constants in cm-1:             0.126693             0.035959             0.034540
Rotational constants in MHz :          3798.156378          1078.028134          1035.468344

                             ****ORCA TERMINATED NORMALLY****
TOTAL RUN TIME: 0 days 0 hours 0 minutes 38 seconds 30 msec
