                         Program Version 6.0.0  -   RELEASE  -
|  1> ! pbe def2-sv(p) def2/J RI DEFGRID1 loosescf d4 GCP(DFT/SV(P)) printgap
|  2> %output
|  3>     printlevel normal
|  4> end
|  5> * xyz 0 1
|  6> C 2.1316423396 -1.0142464809 -0.3711460613
|  7> C 1.746700144 0.3918112845 0.0746831062
|  8> C 0.3588939407 0.4742474878 0.7091744864
|  9> C -0.8003929388 0.1858597782 -0.25815462
| 10> H -0.4437871346 0.3118040133 -1.2938374976
| 11> C -1.3685435684 -1.2220752478 -0.0856283223
| 12> O -1.799915973 1.167046134 -0.0054761454
| 13> H 2.0544621416 -1.7109003051 0.4604485133
| 14> H 3.1573205381 -1.024339937 -0.732303177
| 15> H 1.4863318703 -1.3577871712 -1.1752810608
| 16> H 2.475040219 0.7406691583 0.8097189973
| 17> H 1.791579058 1.0693985325 -0.7807593997
| 18> H 0.301539656 -0.2073384266 1.5591549229
| 19> H 0.2048681029 1.4873248585 1.0870279718
| 20> H -2.141591127 -1.4186665632 -0.8259332432
| 21> H -0.583033594 -1.9615480332 -0.2001061225
| 22> H -1.8022634468 -1.3188969589 0.9073231451
| 23> H -2.5762423372 0.9789589331 -0.5499368694
| 24> *
| 25>
| 26>                          ****END OF INPUT****

CARTESIAN COORDINATES (ANGSTROEM)
---------------------------------
  C      2.131642   -1.014246   -0.371146
  C      1.746700    0.391811    0.074683
  C      0.358894    0.474247    0.709174
  C     -0.800393    0.185860   -0.258155
  H     -0.443787    0.311804   -1.293837
  C     -1.368544   -1.222075   -0.085628
  O     -1.799916    1.167046   -0.005476
  H      2.054462   -1.710900    0.460449
  H      3.157321   -1.024340   -0.732303
  H      1.486332   -1.357787   -1.175281
  H      2.475040    0.740669    0.809719
  H      1.791579    1.069399   -0.780759
  H      0.301540   -0.207338    1.559155
  H      0.204868    1.487325    1.087028
  H     -2.141591   -1.418667   -0.825933
  H     -0.583034   -1.961548   -0.200106
  H     -1.802263   -1.318897    0.907323
  H     -2.576242    0.978959   -0.549937

 Total Charge           Charge          ....    0
 Multiplicity           Mult            ....    1
 Number of Electrons    NEL             ....   50
 Basis Dimension        Dim             ....  108

ORBITAL ENERGIES
----------------

  NO   OCC          E(Eh)            E(eV)
   0   2.0000     -18.734826      -509.8005
   1   2.0000      -9.934223      -270.3240
   2   2.0000      -9.882734      -268.9229
   3   2.0000      -9.875234      -268.7188
   4   2.0000      -9.875001      -268.7124
   5   2.0000      -9.873525      -268.6723
   6   2.0000      -0.911881       -24.8135
   7   2.0000      -0.717027       -19.5113
   8   2.0000      -0.663886       -18.0652
   9   2.0000      -0.612500       -16.6670
  10   2.0000      -0.545308       -14.8386
  11   2.0000      -0.501964       -13.6591
  12   2.0000      -0.454762       -12.3747
  13   2.0000      -0.409518       -11.1435
  14   2.0000      -0.398165       -10.8346
  15   2.0000      -0.380164       -10.3448
  16   2.0000      -0.368152       -10.0179
  17   2.0000      -0.342374        -9.3165
  18   2.0000      -0.335087        -9.1182
  19   2.0000      -0.321862        -8.7583
  20   2.0000      -0.292229        -7.9520
  21   2.0000      -0.288754        -7.8574
  22   2.0000      -0.284196        -7.7334
  23   2.0000      -0.261954        -7.1281
  24   2.0000      -0.208339        -5.6692
  25   0.0000       0.028783         0.7832
  26   0.0000       0.048320         1.3149
  27   0.0000       0.066190         1.8011
  28   0.0000       0.075422         2.0523
  29   0.0000       0.089131         2.4254

MULLIKEN ATOMIC CHARGES
-----------------------
   0 C :   -0.291330
   1 C :   -0.198177
   2 C :   -0.133041
   3 C :    0.019323
   4 H :    0.061095
   5 C :   -0.283193
   6 O :   -0.430923
   7 H :    0.099453
   8 H :    0.103272
   9 H :    0.110337
  10 H :    0.086246
  11 H :    0.091833
  12 H :    0.077967
  13 H :    0.096664
  14 H :    0.090615
  15 H :    0.103809
  16 H :    0.106731
  17 H :    0.289319
Sum of atomic charges:    0.0000000

LOEWDIN ATOMIC CHARGES
----------------------
   0 C :   -0.345707
   1 C :   -0.232096
   2 C :   -0.229748
   3 C :   -0.052539
   4 H :    0.091908
   5 C :   -0.355846
   6 O :   -0.337016
   7 H :    0.116627
   8 H :    0.119889
   9 H :    0.114606
  10 H :    0.116646
  11 H :    0.115563
  12 H :    0.114823
  13 H :    0.127110
  14 H :    0.112210
  15 H :    0.123325
  16 H :    0.122165
  17 H :    0.278081

  Mayer bond orders larger than 0.100000
B(  0-C ,  1-C ) :   1.1512 B(  0-C ,  7-H ) :   0.9520 B(  0-C ,  8-H ) :   0.9495
B(  0-C ,  9-H ) :   0.9457 B(  1-C ,  2-C ) :   1.1256 B(  1-C , 10-H ) :   0.9256
B(  1-C , 11-H ) :   0.9263 B(  2-C ,  3-C ) :   1.0459 B(  2-C , 12-H ) :   0.9213
B(  2-C , 13-H ) :   0.9110 B(  3-C ,  4-H ) :   0.9186 B(  3-C ,  5-C ) :   1.1150
B(  3-C ,  6-O ) :   1.0587 B(  5-C , 14-H ) :   0.9454 B(  5-C , 15-H ) :   0.9306
B(  5-C , 16-H ) :   0.9386 B(  6-O , 17-H ) :   0.8542

Dispersion correction           -0.012804305
FINAL SINGLE POINT ENERGY      -272.301526505934

DIPOLE MOMENT
-------------

Method             : SCF
Type of density    : Electron Density
Multiplicity       :   1
Irrep              :   0
Energy             :  -272.3711359438984800 Eh
Relativity type    :
Basis              : AO
                                X                 Y                 Z
Electronic contribution:     -3.737871923       3.730401424       0.324484462
Nuclear contribution   :      3.654852609      -4.121222266      -0.689147274
                        -----------------------------------------
Total Dipole Moment    :     -0.083019314      -0.390820842      -0.364662812
                        -----------------------------------------
Magnitude (a.u.)       :      0.540936321
Magnitude (Debye)      :      1.374950859

Rotational constants in cm-1:             0.191710             0.070314             0.057326
Rotational constants in MHz :          5747.322085          2107.966036          1718.596028

                             ****ORCA TERMINATED NORMALLY****
TOTAL RUN TIME: 0 days 0 hours 0 minutes 7 seconds 471 msec
