                         Program Version 6.0.0  -   RELEASE  -
|  1> ! pbe def2-sv(p) def2/J RI DEFGRID1 loosescf d4 GCP(DFT/SV(P)) printgap
|  2> %output
|  3>     printlevel normal
|  4> end
|  5> * xyz 0 1
|  6> C 0.7232084137 -2.8318646855 -0.1468839015
|  7> O 1.4498714294 -1.6237024697 -0.0167063291
|  8> C 0.8457086385 -0.4225936214 -0.0140871171
|  9> C 1.7224024513 0.6799203254 0.0079750087
| 10> C 1.269140595 1.9809368896 0.0292970161
| 11> C -0.0934722862 2.2380956992 0.0244064027
| 12> C -0.9670344536 1.1711172275 0.0132972176
| 13> C -0.5279558106 -0.1565994444 0.0074917653
| 14> C -1.6160238922 -1.1975213978 -0.0294256728
| 15> O -1.981771858 -1.7287786561 -1.0499330637
| 16> O -2.1989824907 -1.4717203806 1.1291899808
| 17> Cl -2.6843381186 1.4562324647 -0.0305690327
| 18> Cl 3.41941042 0.3503603702 -0.0015790653
| 19> H 1.4797372704 -3.6133460241 -0.1251197024
| 20> H 0.1780376505 -2.8708940889 -1.091765961
| 21> H 0.0282702879 -2.976484286 0.682738905
| 22> H 1.9786895255 2.7908446792 0.0415279545
| 23> H -0.4664523117 3.2472437814 0.0269002302
| 24> H -1.8634572456 -0.9615038615 1.889781709
| 25> *
| 26>
| 27>                          ****END OF INPUT****

CARTESIAN COORDINATES (ANGSTROEM)
---------------------------------
  C      0.723208   -2.831865   -0.146884
  O      1.449871   -1.623702   -0.016706
  C      0.845709   -0.422594   -0.014087
  C      1.722402    0.679920    0.007975
  C      1.269141    1.980937    0.029297
  C     -0.093472    2.238096    0.024406
  C     -0.967034    1.171117    0.013297
  C     -0.527956   -0.156599    0.007492
  C     -1.616024   -1.197521   -0.029426
  O     -1.981772   -1.728779   -1.049933
  O     -2.198982   -1.471720    1.129190
  Cl    -2.684338    1.456232   -0.030569
  Cl     3.419410    0.350360   -0.001579
  H      1.479737   -3.613346   -0.125120
  H      0.178038   -2.870894   -1.091766
  H      0.028270   -2.976484    0.682739
  H      1.978690    2.790845    0.041528
  H     -0.466452    3.247244    0.026900
  H     -1.863457   -0.961504    1.889782

 Total Charge           Charge          ....    0
 Multiplicity           Mult            ....    1
 Number of Electrons    NEL             ....  112
 Basis Dimension        Dim             ....  202

ORBITAL ENERGIES
----------------

  NO   OCC          E(Eh)            E(eV)
   0   2.0000    -100.655771     -2738.9828
   1   2.0000    -100.645512     -2738.7036
   2   2.0000     -18.815628      -511.9993
   3   2.0000     -18.814830      -511.9776
   4   2.0000     -18.749964      -510.2125
   5   2.0000     -10.034764      -273.0598
   6   2.0000      -9.989949      -271.8403
   7   2.0000      -9.972291      -271.3598
   8   2.0000      -9.961645      -271.0701
   9   2.0000      -9.950304      -270.7615
  10   2.0000      -9.935864      -270.3686
  11   2.0000      -9.922220      -269.9973
  12   2.0000      -9.917104      -269.8581
  13   2.0000      -9.191312      -250.1083
  14   2.0000      -9.181294      -249.8357
  15   2.0000      -7.022682      -191.0969
  16   2.0000      -7.012811      -190.8283
  17   2.0000      -7.011236      -190.7854
  18   2.0000      -7.010767      -190.7727
  19   2.0000      -7.001323      -190.5157
  20   2.0000      -7.000443      -190.4918
  21   2.0000      -1.021491       -27.7962
  22   2.0000      -0.998462       -27.1695
  23   2.0000      -0.932186       -25.3661
  24   2.0000      -0.837459       -22.7884
  25   2.0000      -0.810290       -22.0491
  26   2.0000      -0.758950       -20.6521
  27   2.0000      -0.715585       -19.4721
  28   2.0000      -0.684084       -18.6149
  29   2.0000      -0.640981       -17.4420
  30   2.0000      -0.600544       -16.3416
  31   2.0000      -0.578125       -15.7316
  32   2.0000      -0.556915       -15.1544
  33   2.0000      -0.515624       -14.0308
  34   2.0000      -0.482795       -13.1375
  35   2.0000      -0.478270       -13.0144
  36   2.0000      -0.446867       -12.1599
  37   2.0000      -0.440836       -11.9957
  38   2.0000      -0.411603       -11.2003
  39   2.0000      -0.406114       -11.0509
  40   2.0000      -0.404865       -11.0169
  41   2.0000      -0.403995       -10.9933
  42   2.0000      -0.380747       -10.3607
  43   2.0000      -0.367245        -9.9933
  44   2.0000      -0.363559        -9.8929
  45   2.0000      -0.345803        -9.4098
  46   2.0000      -0.335814        -9.1380
  47   2.0000      -0.311781        -8.4840
  48   2.0000      -0.305402        -8.3104
  49   2.0000      -0.287748        -7.8300
  50   2.0000      -0.282990        -7.7005
  51   2.0000      -0.277700        -7.5566
  52   2.0000      -0.270350        -7.3566
  53   2.0000      -0.251224        -6.8362
  54   2.0000      -0.224427        -6.1070
  55   2.0000      -0.209609        -5.7037
  56   0.0000      -0.065298        -1.7769
  57   0.0000      -0.051798        -1.4095
  58   0.0000      -0.044028        -1.1981
  59   0.0000      -0.012687        -0.3452
  60   0.0000       0.007584         0.2064

MULLIKEN ATOMIC CHARGES
-----------------------
   0 C :   -0.118286
   1 O :   -0.236567
   2 C :    0.177182
   3 C :    0.046228
   4 C :   -0.095784
   5 C :   -0.119262
   6 C :    0.107347
   7 C :   -0.200481
   8 C :    0.143853
   9 O :   -0.153779
  10 O :   -0.277721
  11 Cl:   -0.057567
  12 Cl:   -0.051135
  13 H :    0.131412
  14 H :    0.143559
  15 H :    0.119338
  16 H :    0.058048
  17 H :    0.053438
  18 H :    0.330177
Sum of atomic charges:    0.0000000

LOEWDIN ATOMIC CHARGES
----------------------
   0 C :   -0.206916
   1 O :   -0.067774
   2 C :    0.023735
   3 C :   -0.155073
   4 C :   -0.126598
   5 C :   -0.153805
   6 C :   -0.123014
   7 C :   -0.144337
   8 C :    0.018598
   9 O :   -0.124776
  10 O :   -0.187112
  11 Cl:    0.150385
  12 Cl:    0.148282
  13 H :    0.127397
  14 H :    0.127154
  15 H :    0.113556
  16 H :    0.138195
  17 H :    0.136366
  18 H :    0.305738

  Mayer bond orders larger than 0.100000
B(  0-C ,  1-O ) :   0.9499 B(  0-C , 13-H ) :   0.9503 B(  0-C , 14-H ) :   0.9318
B(  0-C , 15-H ) :   0.9243 B(  1-O ,  2-C ) :   1.2690 B(  2-C ,  3-C ) :   1.3159
B(  2-C ,  7-C ) :   1.3501 B(  3-C ,  4-C ) :   1.4477 B(  3-C , 12-Cl) :   1.0129
B(  4-C ,  5-C ) :   1.2865 B(  4-C , 16-H ) :   0.9690 B(  5-C ,  6-C ) :   1.3980
B(  5-C , 17-H ) :   0.9726 B(  6-C ,  7-C ) :   1.3904 B(  6-C , 11-Cl) :   1.0276
B(  7-C ,  8-C ) :   0.8716 B(  8-C ,  9-O ) :   2.1270 B(  8-C , 10-O ) :   1.2005
B( 10-O , 18-H ) :   0.8197

Dispersion correction           -0.027490221
FINAL SINGLE POINT ENERGY     -1452.780039391846

DIPOLE MOMENT
-------------

Method             : SCF
Type of density    : Electron Density
Multiplicity       :   1
Irrep              :   0
Energy             : -1452.8346695421951154 Eh
Relativity type    :
Basis              : AO
                                X                 Y                 Z
Electronic contribution:      0.225492450       6.902496507      -0.409987215
Nuclear contribution   :      0.225277566      -6.609285642       1.380095357
                        -----------------------------------------
Total Dipole Moment    :      0.450770017       0.293210865       0.970108142
                        -----------------------------------------
Magnitude (a.u.)       :      1.109178086
Magnitude (Debye)      :      2.819306642

Rotational constants in cm-1:             0.031054             0.016638             0.011474
Rotational constants in MHz :           930.975230           498.809584           343.991917

                             ****ORCA TERMINATED NORMALLY****
TOTAL RUN TIME: 0 days 0 hours 0 minutes 15 seconds 749 msec
