                         Program Version 6.0.0  -   RELEASE  -
|  1> ! pbe def2-sv(p) def2/J RI DEFGRID1 loosescf d4 GCP(DFT/SV(P)) printgap
|  2> %output
|  3>     printlevel normal
|  4> end
|  5> * xyz 0 1
|  6> C -3.8279252756 0.1738039446 -0.1505529277
|  7> C -2.365417212 0.5829836887 -0.2875138521
|  8> C -1.4365588689 -0.5804746495 0.0505774761
|  9> C 0.0366904752 -0.265353589 0.0532386989
| 10> C 0.9143904992 -1.2052977013 0.5882343803
| 11> C 2.2779108251 -0.9819168214 0.6069656549
| 12> C 2.7947290733 0.1947836461 0.0897425698
| 13> C 1.9343932833 1.1367858056 -0.4439505324
| 14> C 0.567744705 0.9085832913 -0.4634771777
| 15> H -4.0550044629 -0.6576414548 -0.8143147421
| 16> H -4.045216697 -0.1334462724 0.8700973746
| 17> H -4.4815764728 1.0045091484 -0.4050084339
| 18> H -2.1599061245 1.4197367063 0.3836314382
| 19> H -2.1847469154 0.9145863894 -1.3117992463
| 20> H -1.6102779507 -1.3905826011 -0.6652567024
| 21> H -1.7036502479 -0.9687019037 1.037721655
| 22> H 0.5176968262 -2.1249607981 0.9951497399
| 23> H 2.9395260753 -1.7250111607 1.0275209334
| 24> H 3.8593241258 0.3745505657 0.1039292227
| 25> H 2.3269191296 2.0576708754 -0.8500514357
| 26> H -0.0800845946 1.659517457 -0.8871941523
| 27> *
| 28>
| 29>                          ****END OF INPUT****

CARTESIAN COORDINATES (ANGSTROEM)
---------------------------------
  C     -3.827925    0.173804   -0.150553
  C     -2.365417    0.582984   -0.287514
  C     -1.436559   -0.580475    0.050577
  C      0.036690   -0.265354    0.053239
  C      0.914390   -1.205298    0.588234
  C      2.277911   -0.981917    0.606966
  C      2.794729    0.194784    0.089743
  C      1.934393    1.136786   -0.443951
  C      0.567745    0.908583   -0.463477
  H     -4.055004   -0.657641   -0.814315
  H     -4.045217   -0.133446    0.870097
  H     -4.481576    1.004509   -0.405008
  H     -2.159906    1.419737    0.383631
  H     -2.184747    0.914586   -1.311799
  H     -1.610278   -1.390583   -0.665257
  H     -1.703650   -0.968702    1.037722
  H      0.517697   -2.124961    0.995150
  H      2.939526   -1.725011    1.027521
  H      3.859324    0.374551    0.103929
  H      2.326919    2.057671   -0.850051
  H     -0.080085    1.659517   -0.887194

 Total Charge           Charge          ....    0
 Multiplicity           Mult            ....    1
 Number of Electrons    NEL             ....   66
 Basis Dimension        Dim             ....  150

ORBITAL ENERGIES
----------------

  NO   OCC          E(Eh)            E(eV)
   0   2.0000      -9.898902      -269.3628
   1   2.0000      -9.889712      -269.1127
   2   2.0000      -9.887214      -269.0448
   3   2.0000      -9.886148      -269.0158
   4   2.0000      -9.886117      -269.0149
   5   2.0000      -9.885152      -268.9887
   6   2.0000      -9.884735      -268.9773
   7   2.0000      -9.884041      -268.9584
   8   2.0000      -9.875939      -268.7380
   9   2.0000      -0.774505       -21.0754
  10   2.0000      -0.719417       -19.5763
  11   2.0000      -0.670372       -18.2417
  12   2.0000      -0.664035       -18.0693
  13   2.0000      -0.604779       -16.4569
  14   2.0000      -0.548725       -14.9316
  15   2.0000      -0.528259       -14.3747
  16   2.0000      -0.506516       -13.7830
  17   2.0000      -0.460797       -12.5389
  18   2.0000      -0.423130       -11.5140
  19   2.0000      -0.404239       -10.9999
  20   2.0000      -0.399328       -10.8663
  21   2.0000      -0.381534       -10.3821
  22   2.0000      -0.368999       -10.0410
  23   2.0000      -0.357935        -9.7399
  24   2.0000      -0.350132        -9.5276
  25   2.0000      -0.321191        -8.7401
  26   2.0000      -0.317054        -8.6275
  27   2.0000      -0.306939        -8.3522
  28   2.0000      -0.294315        -8.0087
  29   2.0000      -0.288290        -7.8448
  30   2.0000      -0.281316        -7.6550
  31   2.0000      -0.224437        -6.1073
  32   2.0000      -0.215356        -5.8601
  33   0.0000      -0.031233        -0.8499
  34   0.0000      -0.026684        -0.7261
  35   0.0000       0.040557         1.1036
  36   0.0000       0.048939         1.3317
  37   0.0000       0.065039         1.7698

MULLIKEN ATOMIC CHARGES
-----------------------
   0 C :   -0.247489
   1 C :   -0.208298
   2 C :   -0.142842
   3 C :    0.081257
   4 C :   -0.114502
   5 C :   -0.045037
   6 C :   -0.050407
   7 C :   -0.041504
   8 C :   -0.133515
   9 H :    0.096699
  10 H :    0.097662
  11 H :    0.102744
  12 H :    0.094879
  13 H :    0.097890
  14 H :    0.097868
  15 H :    0.089656
  16 H :    0.034739
  17 H :    0.049256
  18 H :    0.049801
  19 H :    0.047788
  20 H :    0.043356
Sum of atomic charges:    0.0000000

LOEWDIN ATOMIC CHARGES
----------------------
   0 C :   -0.337574
   1 C :   -0.235753
   2 C :   -0.214522
   3 C :   -0.039393
   4 C :   -0.122671
   5 C :   -0.122109
   6 C :   -0.130428
   7 C :   -0.121407
   8 C :   -0.130013
   9 H :    0.117274
  10 H :    0.117260
  11 H :    0.119596
  12 H :    0.118341
  13 H :    0.117633
  14 H :    0.130031
  15 H :    0.125598
  16 H :    0.119703
  17 H :    0.122092
  18 H :    0.121824
  19 H :    0.121916
  20 H :    0.122604

  Mayer bond orders larger than 0.100000
B(  0-C ,  1-C ) :   1.1524 B(  0-C ,  9-H ) :   0.9533 B(  0-C , 10-H ) :   0.9532
B(  0-C , 11-H ) :   0.9526 B(  1-C ,  2-C ) :   1.1684 B(  1-C , 12-H ) :   0.9234
B(  1-C , 13-H ) :   0.9097 B(  2-C ,  3-C ) :   1.0420 B(  2-C , 14-H ) :   0.8935
B(  2-C , 15-H ) :   0.9068 B(  3-C ,  4-C ) :   1.3826 B(  3-C ,  8-C ) :   1.4175
B(  4-C ,  5-C ) :   1.3851 B(  4-C , 16-H ) :   0.9653 B(  5-C ,  6-C ) :   1.3686
B(  5-C , 17-H ) :   0.9628 B(  6-C ,  7-C ) :   1.3926 B(  6-C , 18-H ) :   0.9654
B(  7-C ,  8-C ) :   1.3502 B(  7-C , 19-H ) :   0.9610 B(  8-C , 20-H ) :   0.9525

Dispersion correction           -0.020115868
FINAL SINGLE POINT ENERGY      -349.366890784246

DIPOLE MOMENT
-------------

Method             : SCF
Type of density    : Electron Density
Multiplicity       :   1
Irrep              :   0
Energy             :  -349.4279296711040956 Eh
Relativity type    :
Basis              : AO
                                X                 Y                 Z
Electronic contribution:      9.830191034      -0.430046952       0.468063370
Nuclear contribution   :    -10.016807066       0.403624750      -0.483694866
                        -----------------------------------------
Total Dipole Moment    :     -0.186616031      -0.026422202      -0.015631496
                        -----------------------------------------
Magnitude (a.u.)       :      0.189124350
Magnitude (Debye)      :      0.480715894

Rotational constants in cm-1:             0.157321             0.028627             0.024602
Rotational constants in MHz :          4716.369859           858.225196           737.538157

                             ****ORCA TERMINATED NORMALLY****
TOTAL RUN TIME: 0 days 0 hours 0 minutes 10 seconds 230 msec
