                         Program Version 6.0.0  -   RELEASE  -
|  1> ! pbe def2-sv(p) def2/J RI DEFGRID1 loosescf d4 GCP(DFT/SV(P)) printgap
|  2> %output
|  3>     printlevel normal
|  4> end
|  5> * xyz 0 1
|  6> C -2.7590257159 0.5651905132 1.070669607
|  7> O -1.3592533782 0.8312380104 0.8066916615
|  8> C -0.7598382866 0.0593200128 -0.082984503
|  9> C 0.7071518978 0.4760113992 -0.2447009753
| 10> Cl 1.4997972307 0.3440131095 1.3281611582
| 11> Cl 1.5022521161 -0.560464501 -1.4411482697
| 12> F -0.8530015986 -1.2750091217 0.2280517199
| 13> F -1.376110674 0.1204058399 -1.3175954389
| 14> H -3.3389080055 0.6935477004 0.1572189882
| 15> H -3.0342696386 1.3048579614 1.8144236948
| 16> H -2.8794697429 -0.4446365774 1.4615956565
| 17> H 0.7561978104 1.5139356425 -0.5809445323
| 18> *
| 19>
| 20>                          ****END OF INPUT****

CARTESIAN COORDINATES (ANGSTROEM)
---------------------------------
  C     -2.759026    0.565191    1.070670
  O     -1.359253    0.831238    0.806692
  C     -0.759838    0.059320   -0.082985
  C      0.707152    0.476011   -0.244701
  Cl     1.499797    0.344013    1.328161
  Cl     1.502252   -0.560465   -1.441148
  F     -0.853002   -1.275009    0.228052
  F     -1.376111    0.120406   -1.317595
  H     -3.338908    0.693548    0.157219
  H     -3.034270    1.304858    1.814424
  H     -2.879470   -0.444637    1.461596
  H      0.756198    1.513936   -0.580945

 Total Charge           Charge          ....    0
 Multiplicity           Mult            ....    1
 Number of Electrons    NEL             ....   82
 Basis Dimension        Dim             ....  128

ORBITAL ENERGIES
----------------

  NO   OCC          E(Eh)            E(eV)
   0   2.0000    -100.646487     -2738.7301
   1   2.0000    -100.646092     -2738.7194
   2   2.0000     -24.276912      -660.6084
   3   2.0000     -24.276187      -660.5886
   4   2.0000     -18.810535      -511.8607
   5   2.0000     -10.105381      -274.9814
   6   2.0000     -10.012561      -272.4556
   7   2.0000      -9.954655      -270.8799
   8   2.0000      -9.182556      -249.8700
   9   2.0000      -9.182396      -249.8657
  10   2.0000      -7.014687      -190.8793
  11   2.0000      -7.014431      -190.8724
  12   2.0000      -7.002043      -190.5353
  13   2.0000      -7.001855      -190.5302
  14   2.0000      -7.001651      -190.5246
  15   2.0000      -7.001550      -190.5219
  16   2.0000      -1.150917       -31.3180
  17   2.0000      -1.074821       -29.2474
  18   2.0000      -0.993019       -27.0214
  19   2.0000      -0.837970       -22.8023
  20   2.0000      -0.754344       -20.5267
  21   2.0000      -0.700607       -19.0645
  22   2.0000      -0.621734       -16.9182
  23   2.0000      -0.563284       -15.3277
  24   2.0000      -0.514103       -13.9894
  25   2.0000      -0.512012       -13.9325
  26   2.0000      -0.492677       -13.4064
  27   2.0000      -0.435679       -11.8554
  28   2.0000      -0.423364       -11.5203
  29   2.0000      -0.414490       -11.2789
  30   2.0000      -0.398895       -10.8545
  31   2.0000      -0.388672       -10.5763
  32   2.0000      -0.353358        -9.6154
  33   2.0000      -0.346058        -9.4167
  34   2.0000      -0.335404        -9.1268
  35   2.0000      -0.321467        -8.7476
  36   2.0000      -0.292165        -7.9502
  37   2.0000      -0.281262        -7.6535
  38   2.0000      -0.274788        -7.4774
  39   2.0000      -0.264671        -7.2021
  40   2.0000      -0.260052        -7.0764
  41   0.0000      -0.023026        -0.6266
  42   0.0000      -0.007959        -0.2166
  43   0.0000       0.043061         1.1717
  44   0.0000       0.054081         1.4716
  45   0.0000       0.071052         1.9334

MULLIKEN ATOMIC CHARGES
-----------------------
   0 C :   -0.108990
   1 O :   -0.258208
   2 C :    0.392624
   3 C :   -0.137302
   4 Cl:   -0.055226
   5 Cl:   -0.050029
   6 F :   -0.170644
   7 F :   -0.179478
   8 H :    0.125479
   9 H :    0.134985
  10 H :    0.128430
  11 H :    0.178358
Sum of atomic charges:    0.0000000

LOEWDIN ATOMIC CHARGES
----------------------
   0 C :   -0.196103
   1 O :   -0.095949
   2 C :    0.056247
   3 C :   -0.306836
   4 Cl:    0.100622
   5 Cl:    0.100159
   6 F :   -0.081239
   7 F :   -0.090930
   8 H :    0.120401
   9 H :    0.128887
  10 H :    0.122342
  11 H :    0.142397

  Mayer bond orders larger than 0.100000
B(  0-C ,  1-O ) :   0.9198 B(  0-C ,  8-H ) :   0.9492 B(  0-C ,  9-H ) :   0.9625
B(  0-C , 10-H ) :   0.9486 B(  1-O ,  2-C ) :   1.2641 B(  2-C ,  3-C ) :   0.8698
B(  2-C ,  6-F ) :   1.1170 B(  2-C ,  7-F ) :   1.1006 B(  3-C ,  4-Cl) :   1.0743
B(  3-C ,  5-Cl) :   1.0829 B(  3-C , 11-H ) :   0.8895

Dispersion correction           -0.012000462
FINAL SINGLE POINT ENERGY     -1310.585780424405

DIPOLE MOMENT
-------------

Method             : SCF
Type of density    : Electron Density
Multiplicity       :   1
Irrep              :   0
Energy             : -1310.6417322222105213 Eh
Relativity type    :
Basis              : AO
                                X                 Y                 Z
Electronic contribution:      9.205760764      -3.667479185      -3.552880107
Nuclear contribution   :     -9.955294371       4.250646007       3.849038583
                        -----------------------------------------
Total Dipole Moment    :     -0.749533608       0.583166822       0.296158477
                        -----------------------------------------
Magnitude (a.u.)       :      0.994783401
Magnitude (Debye)      :      2.528538459

Rotational constants in cm-1:             0.066113             0.038603             0.028387
Rotational constants in MHz :          1982.032202          1157.289479           851.035234

                             ****ORCA TERMINATED NORMALLY****
TOTAL RUN TIME: 0 days 0 hours 0 minutes 6 seconds 163 msec
