                         Program Version 6.0.0  -   RELEASE  -
|  1> ! pbe def2-sv(p) def2/J RI DEFGRID1 loosescf d4 GCP(DFT/SV(P)) printgap
|  2> %output
|  3>     printlevel normal
|  4> end
|  5> * xyz 0 1
|  6> C -2.2922089601 0.113651383 -1.2467679606
|  7> C -1.9580425037 0.0855719759 0.2427471833
|  8> C -2.0450936856 -1.3346653943 0.7966737011
|  9> C -0.56987485 0.6743780636 0.4925898385
| 10> O 0.4132128798 -0.1251436476 -0.1774971721
| 11> C 1.6859215111 0.2047049962 -0.0108506102
| 12> O 2.0428033719 1.1510955482 0.6628028614
| 13> C 2.6065695055 -0.7337296652 -0.7314639027
| 14> H -1.5763850718 -0.4883456376 -1.8001439969
| 15> H -2.2580961666 1.1315392817 -1.6275049948
| 16> H -3.2882361875 -0.2860555271 -1.4154072849
| 17> H -2.667303236 0.7230139285 0.7801077575
| 18> H -1.3260622454 -1.9752345325 0.2929895858
| 19> H -3.0414771441 -1.7380688681 0.639831911
| 20> H -1.8315273669 -1.343438323 1.8627553132
| 21> H -0.4989466315 1.6996344362 0.1134085927
| 22> H -0.3315075836 0.6929906549 1.5616670281
| 23> H 3.5138055623 -0.2091234268 -1.0135607068
| 24> H 2.1072138178 -1.1522059491 -1.5986098607
| 25> H 2.8705744373 -1.5419172428 -0.0524150273
| 26> *
| 27>
| 28>                          ****END OF INPUT****

CARTESIAN COORDINATES (ANGSTROEM)
---------------------------------
  C     -2.292209    0.113651   -1.246768
  C     -1.958043    0.085572    0.242747
  C     -2.045094   -1.334665    0.796674
  C     -0.569875    0.674378    0.492590
  O      0.413213   -0.125144   -0.177497
  C      1.685922    0.204705   -0.010851
  O      2.042803    1.151096    0.662803
  C      2.606570   -0.733730   -0.731464
  H     -1.576385   -0.488346   -1.800144
  H     -2.258096    1.131539   -1.627505
  H     -3.288236   -0.286056   -1.415407
  H     -2.667303    0.723014    0.780108
  H     -1.326062   -1.975235    0.292990
  H     -3.041477   -1.738069    0.639832
  H     -1.831527   -1.343438    1.862755
  H     -0.498947    1.699634    0.113409
  H     -0.331508    0.692991    1.561667
  H      3.513806   -0.209123   -1.013561
  H      2.107214   -1.152206   -1.598610
  H      2.870574   -1.541917   -0.052415

 Total Charge           Charge          ....    0
 Multiplicity           Mult            ....    1
 Number of Electrons    NEL             ....   64
 Basis Dimension        Dim             ....  136

ORBITAL ENERGIES
----------------

  NO   OCC          E(Eh)            E(eV)
   0   2.0000     -18.798997      -511.5467
   1   2.0000     -18.731402      -509.7073
   2   2.0000     -10.005301      -272.2581
   3   2.0000      -9.940818      -270.5034
   4   2.0000      -9.905330      -269.5377
   5   2.0000      -9.891844      -269.1708
   6   2.0000      -9.877931      -268.7922
   7   2.0000      -9.877810      -268.7889
   8   2.0000      -1.006126       -27.3781
   9   2.0000      -0.907121       -24.6840
  10   2.0000      -0.739240       -20.1157
  11   2.0000      -0.682881       -18.5821
  12   2.0000      -0.622374       -16.9357
  13   2.0000      -0.616603       -16.7786
  14   2.0000      -0.537295       -14.6205
  15   2.0000      -0.487184       -13.2570
  16   2.0000      -0.442917       -12.0524
  17   2.0000      -0.439942       -11.9714
  18   2.0000      -0.414818       -11.2878
  19   2.0000      -0.398680       -10.8486
  20   2.0000      -0.396477       -10.7887
  21   2.0000      -0.383820       -10.4443
  22   2.0000      -0.359545        -9.7837
  23   2.0000      -0.355308        -9.6684
  24   2.0000      -0.339998        -9.2518
  25   2.0000      -0.324032        -8.8173
  26   2.0000      -0.319046        -8.6817
  27   2.0000      -0.298263        -8.1161
  28   2.0000      -0.296134        -8.0582
  29   2.0000      -0.285439        -7.7672
  30   2.0000      -0.255818        -6.9612
  31   2.0000      -0.216212        -5.8834
  32   0.0000      -0.018547        -0.5047
  33   0.0000       0.028600         0.7783
  34   0.0000       0.051192         1.3930
  35   0.0000       0.075685         2.0595
  36   0.0000       0.079449         2.1619

MULLIKEN ATOMIC CHARGES
-----------------------
   0 C :   -0.254048
   1 C :   -0.167205
   2 C :   -0.254051
   3 C :    0.020339
   4 O :   -0.242184
   5 C :    0.082102
   6 O :   -0.218517
   7 C :   -0.244375
   8 H :    0.107638
   9 H :    0.098368
  10 H :    0.102377
  11 H :    0.080676
  12 H :    0.106702
  13 H :    0.102512
  14 H :    0.098199
  15 H :    0.099461
  16 H :    0.099695
  17 H :    0.127597
  18 H :    0.119373
  19 H :    0.135343
Sum of atomic charges:    0.0000000

LOEWDIN ATOMIC CHARGES
----------------------
   0 C :   -0.331659
   1 C :   -0.168630
   2 C :   -0.331847
   3 C :   -0.094027
   4 O :   -0.065683
   5 C :    0.028016
   6 O :   -0.173248
   7 C :   -0.359483
   8 H :    0.120623
   9 H :    0.118166
  10 H :    0.119174
  11 H :    0.123340
  12 H :    0.120451
  13 H :    0.119307
  14 H :    0.118129
  15 H :    0.114553
  16 H :    0.114359
  17 H :    0.142505
  18 H :    0.136189
  19 H :    0.149763

  Mayer bond orders larger than 0.100000
B(  0-C ,  1-C ) :   1.1039 B(  0-C ,  8-H ) :   0.9491 B(  0-C ,  9-H ) :   0.9510
B(  0-C , 10-H ) :   0.9527 B(  1-C ,  2-C ) :   1.1034 B(  1-C ,  3-C ) :   1.0589
B(  1-C , 11-H ) :   0.8957 B(  2-C , 12-H ) :   0.9491 B(  2-C , 13-H ) :   0.9526
B(  2-C , 14-H ) :   0.9513 B(  3-C ,  4-O ) :   0.9146 B(  3-C , 15-H ) :   0.9283
B(  3-C , 16-H ) :   0.9255 B(  4-O ,  5-C ) :   1.1942 B(  5-C ,  6-O ) :   2.0469
B(  5-C ,  7-C ) :   1.0908 B(  7-C , 17-H ) :   0.9382 B(  7-C , 18-H ) :   0.9359
B(  7-C , 19-H ) :   0.9246

Dispersion correction           -0.015362191
FINAL SINGLE POINT ENERGY      -385.458092181981

DIPOLE MOMENT
-------------

Method             : SCF
Type of density    : Electron Density
Multiplicity       :   1
Irrep              :   0
Energy             :  -385.5330216501477025 Eh
Relativity type    :
Basis              : AO
                                X                 Y                 Z
Electronic contribution:      7.262857310       3.670920219       1.821440241
Nuclear contribution   :     -7.776585092      -4.194539138      -2.110135045
                        -----------------------------------------
Total Dipole Moment    :     -0.513727782      -0.523618919      -0.288694804
                        -----------------------------------------
Magnitude (a.u.)       :      0.788313197
Magnitude (Debye)      :      2.003732907

Rotational constants in cm-1:             0.128150             0.035414             0.034167
Rotational constants in MHz :          3841.835849          1061.691649          1024.291423

                             ****ORCA TERMINATED NORMALLY****
TOTAL RUN TIME: 0 days 0 hours 0 minutes 11 seconds 150 msec
