                         Program Version 6.0.0  -   RELEASE  -
|  1> ! r2scan-3c def2/J RI DEFGRID2 scfconv6 printgap
|  2> %output
|  3>     printlevel normal
|  4> end
|  5> * xyz 0 1
|  6> C -2.2922089601 0.113651383 -1.2467679606
|  7> C -1.9580425037 0.0855719759 0.2427471833
|  8> C -2.0450936856 -1.3346653943 0.7966737011
|  9> C -0.56987485 0.6743780636 0.4925898385
| 10> O 0.4132128798 -0.1251436476 -0.1774971721
| 11> C 1.6859215111 0.2047049962 -0.0108506102
| 12> O 2.0428033719 1.1510955482 0.6628028614
| 13> C 2.6065695055 -0.7337296652 -0.7314639027
| 14> H -1.5763850718 -0.4883456376 -1.8001439969
| 15> H -2.2580961666 1.1315392817 -1.6275049948
| 16> H -3.2882361875 -0.2860555271 -1.4154072849
| 17> H -2.667303236 0.7230139285 0.7801077575
| 18> H -1.3260622454 -1.9752345325 0.2929895858
| 19> H -3.0414771441 -1.7380688681 0.639831911
| 20> H -1.8315273669 -1.343438323 1.8627553132
| 21> H -0.4989466315 1.6996344362 0.1134085927
| 22> H -0.3315075836 0.6929906549 1.5616670281
| 23> H 3.5138055623 -0.2091234268 -1.0135607068
| 24> H 2.1072138178 -1.1522059491 -1.5986098607
| 25> H 2.8705744373 -1.5419172428 -0.0524150273
| 26> *
| 27>
| 28>                          ****END OF INPUT****

CARTESIAN COORDINATES (ANGSTROEM)
---------------------------------
  C     -2.292209    0.113651   -1.246768
  C     -1.958043    0.085572    0.242747
  C     -2.045094   -1.334665    0.796674
  C     -0.569875    0.674378    0.492590
  O      0.413213   -0.125144   -0.177497
  C      1.685922    0.204705   -0.010851
  O      2.042803    1.151096    0.662803
  C      2.606570   -0.733730   -0.731464
  H     -1.576385   -0.488346   -1.800144
  H     -2.258096    1.131539   -1.627505
  H     -3.288236   -0.286056   -1.415407
  H     -2.667303    0.723014    0.780108
  H     -1.326062   -1.975235    0.292990
  H     -3.041477   -1.738069    0.639832
  H     -1.831527   -1.343438    1.862755
  H     -0.498947    1.699634    0.113409
  H     -0.331508    0.692991    1.561667
  H      3.513806   -0.209123   -1.013561
  H      2.107214   -1.152206   -1.598610
  H      2.870574   -1.541917   -0.052415

 Total Charge           Charge          ....    0
 Multiplicity           Mult            ....    1
 Number of Electrons    NEL             ....   64
 Basis Dimension        Dim             ....  222

ORBITAL ENERGIES
----------------

  NO   OCC          E(Eh)            E(eV)
   0   2.0000     -18.998454      -516.9742
   1   2.0000     -18.927472      -515.0427
   2   2.0000     -10.155458      -276.3441
   3   2.0000     -10.087081      -274.4834
   4   2.0000     -10.046513      -273.3795
   5   2.0000     -10.039669      -273.1933
   6   2.0000     -10.020758      -272.6787
   7   2.0000     -10.020730      -272.6779
   8   2.0000      -1.074385       -29.2355
   9   2.0000      -0.974792       -26.5254
  10   2.0000      -0.785387       -21.3715
  11   2.0000      -0.727044       -19.7839
  12   2.0000      -0.661705       -18.0059
  13   2.0000      -0.657010       -17.8781
  14   2.0000      -0.566698       -15.4206
  15   2.0000      -0.516838       -14.0639
  16   2.0000      -0.463139       -12.6026
  17   2.0000      -0.462322       -12.5804
  18   2.0000      -0.440767       -11.9939
  19   2.0000      -0.417543       -11.3619
  20   2.0000      -0.413189       -11.2434
  21   2.0000      -0.402500       -10.9526
  22   2.0000      -0.377505       -10.2724
  23   2.0000      -0.370606       -10.0847
  24   2.0000      -0.354528        -9.6472
  25   2.0000      -0.341899        -9.3035
  26   2.0000      -0.332979        -9.0608
  27   2.0000      -0.309989        -8.4352
  28   2.0000      -0.307887        -8.3780
  29   2.0000      -0.299496        -8.1497
  30   2.0000      -0.271680        -7.3928
  31   2.0000      -0.235537        -6.4093
  32   0.0000      -0.014237        -0.3874
  33   0.0000       0.061667         1.6781
  34   0.0000       0.089366         2.4318
  35   0.0000       0.108142         2.9427
  36   0.0000       0.128519         3.4972

MULLIKEN ATOMIC CHARGES
-----------------------
   0 C :   -0.505512
   1 C :    0.027555
   2 C :   -0.504980
   3 C :   -0.203706
   4 O :   -0.169954
   5 C :    0.406775
   6 O :   -0.421942
   7 C :   -0.525626
   8 H :    0.163203
   9 H :    0.144851
  10 H :    0.146998
  11 H :    0.144722
  12 H :    0.163292
  13 H :    0.147116
  14 H :    0.145190
  15 H :    0.161155
  16 H :    0.164455
  17 H :    0.175527
  18 H :    0.167054
  19 H :    0.173827
Sum of atomic charges:   -0.0000000

LOEWDIN ATOMIC CHARGES
----------------------
   0 C :   -0.407686
   1 C :   -0.220549
   2 C :   -0.407490
   3 C :    0.044730
   4 O :   -0.608560
   5 C :    0.352301
   6 O :   -0.428048
   7 C :   -0.336704
   8 H :    0.162808
   9 H :    0.155633
  10 H :    0.153758
  11 H :    0.163398
  12 H :    0.163125
  13 H :    0.153770
  14 H :    0.155797
  15 H :    0.185335
  16 H :    0.186721
  17 H :    0.176601
  18 H :    0.173879
  19 H :    0.181181

  Mayer bond orders larger than 0.100000
B(  0-C ,  1-C ) :   0.9117 B(  0-C ,  8-H ) :   0.9830 B(  0-C ,  9-H ) :   0.9706
B(  0-C , 10-H ) :   0.9732 B(  1-C ,  2-C ) :   0.9138 B(  1-C ,  3-C ) :   0.9493
B(  1-C , 11-H ) :   0.9364 B(  2-C , 12-H ) :   0.9823 B(  2-C , 13-H ) :   0.9734
B(  2-C , 14-H ) :   0.9708 B(  3-C ,  4-O ) :   0.8084 B(  3-C , 15-H ) :   0.9537
B(  3-C , 16-H ) :   0.9538 B(  4-O ,  5-C ) :   1.0685 B(  5-C ,  6-O ) :   1.8144
B(  5-C ,  7-C ) :   0.9403 B(  7-C , 17-H ) :   0.9774 B(  7-C , 18-H ) :   0.9793
B(  7-C , 19-H ) :   0.9377

Dispersion correction           -0.005210211
FINAL SINGLE POINT ENERGY      -386.238126698200

DIPOLE MOMENT
-------------

Method             : SCF
Type of density    : Electron Density
Multiplicity       :   1
Irrep              :   0
Energy             :  -386.2448121898731870 Eh
Relativity type    :
Basis              : AO
                                X                 Y                 Z
Electronic contribution:      7.204518631       3.606242037       1.758505963
Nuclear contribution   :     -7.776585092      -4.194539138      -2.110135045
                        -----------------------------------------
Total Dipole Moment    :     -0.572066460      -0.588297100      -0.351629081
                        -----------------------------------------
Magnitude (a.u.)       :      0.892746618
Magnitude (Debye)      :      2.269181569

Rotational constants in cm-1:             0.128150             0.035414             0.034167
Rotational constants in MHz :          3841.835849          1061.691649          1024.291423

                             ****ORCA TERMINATED NORMALLY****
TOTAL RUN TIME: 0 days 0 hours 0 minutes 30 seconds 697 msec
