                         Program Version 6.0.0  -   RELEASE  -
|  1> ! r2scan-3c def2/J RI DEFGRID2 scfconv6 printgap
|  2> %output
|  3>     printlevel normal
|  4> end
|  5> %cpcm
|  6>     smd true
|  7>     smdsolvent "water"
|  8> end
|  9> * xyz 0 1
| 10> C -2.2922089601 0.113651383 -1.2467679606
| 11> C -1.9580425037 0.0855719759 0.2427471833
| 12> C -2.0450936856 -1.3346653943 0.7966737011
| 13> C -0.56987485 0.6743780636 0.4925898385
| 14> O 0.4132128798 -0.1251436476 -0.1774971721
| 15> C 1.6859215111 0.2047049962 -0.0108506102
| 16> O 2.0428033719 1.1510955482 0.6628028614
| 17> C 2.6065695055 -0.7337296652 -0.7314639027
| 18> H -1.5763850718 -0.4883456376 -1.8001439969
| 19> H -2.2580961666 1.1315392817 -1.6275049948
| 20> H -3.2882361875 -0.2860555271 -1.4154072849
| 21> H -2.667303236 0.7230139285 0.7801077575
| 22> H -1.3260622454 -1.9752345325 0.2929895858
| 23> H -3.0414771441 -1.7380688681 0.639831911
| 24> H -1.8315273669 -1.343438323 1.8627553132
| 25> H -0.4989466315 1.6996344362 0.1134085927
| 26> H -0.3315075836 0.6929906549 1.5616670281
| 27> H 3.5138055623 -0.2091234268 -1.0135607068
| 28> H 2.1072138178 -1.1522059491 -1.5986098607
| 29> H 2.8705744373 -1.5419172428 -0.0524150273
| 30> *
| 31>
| 32>                          ****END OF INPUT****

CARTESIAN COORDINATES (ANGSTROEM)
---------------------------------
  C     -2.292209    0.113651   -1.246768
  C     -1.958043    0.085572    0.242747
  C     -2.045094   -1.334665    0.796674
  C     -0.569875    0.674378    0.492590
  O      0.413213   -0.125144   -0.177497
  C      1.685922    0.204705   -0.010851
  O      2.042803    1.151096    0.662803
  C      2.606570   -0.733730   -0.731464
  H     -1.576385   -0.488346   -1.800144
  H     -2.258096    1.131539   -1.627505
  H     -3.288236   -0.286056   -1.415407
  H     -2.667303    0.723014    0.780108
  H     -1.326062   -1.975235    0.292990
  H     -3.041477   -1.738069    0.639832
  H     -1.831527   -1.343438    1.862755
  H     -0.498947    1.699634    0.113409
  H     -0.331508    0.692991    1.561667
  H      3.513806   -0.209123   -1.013561
  H      2.107214   -1.152206   -1.598610
  H      2.870574   -1.541917   -0.052415

 Total Charge           Charge          ....    0
 Multiplicity           Mult            ....    1
 Number of Electrons    NEL             ....   64
 Basis Dimension        Dim             ....  222

ORBITAL ENERGIES
----------------

  NO   OCC          E(Eh)            E(eV)
   0   2.0000     -19.003124      -517.1013
   1   2.0000     -18.943162      -515.4697
   2   2.0000     -10.165299      -276.6118
   3   2.0000     -10.079552      -274.2785
   4   2.0000     -10.035040      -273.0673
   5   2.0000     -10.030424      -272.9417
   6   2.0000     -10.009427      -272.3704
   7   2.0000     -10.009407      -272.3698
   8   2.0000      -1.080783       -29.4096
   9   2.0000      -0.988434       -26.8967
  10   2.0000      -0.776675       -21.1344
  11   2.0000      -0.721395       -19.6302
  12   2.0000      -0.654679       -17.8147
  13   2.0000      -0.646118       -17.5818
  14   2.0000      -0.560957       -15.2644
  15   2.0000      -0.512330       -13.9412
  16   2.0000      -0.465505       -12.6670
  17   2.0000      -0.461503       -12.5581
  18   2.0000      -0.447079       -12.1656
  19   2.0000      -0.410939       -11.1822
  20   2.0000      -0.406015       -11.0482
  21   2.0000      -0.395799       -10.7702
  22   2.0000      -0.371195       -10.1007
  23   2.0000      -0.361239        -9.8298
  24   2.0000      -0.345522        -9.4021
  25   2.0000      -0.342460        -9.3188
  26   2.0000      -0.330269        -8.9871
  27   2.0000      -0.300615        -8.1802
  28   2.0000      -0.298876        -8.1328
  29   2.0000      -0.292635        -7.9630
  30   2.0000      -0.276069        -7.5122
  31   2.0000      -0.252803        -6.8791
  32   0.0000      -0.021411        -0.5826
  33   0.0000       0.068302         1.8586
  34   0.0000       0.101202         2.7538
  35   0.0000       0.114360         3.1119
  36   0.0000       0.136428         3.7124

MULLIKEN ATOMIC CHARGES
-----------------------
   0 C :   -0.549670
   1 C :    0.037619
   2 C :   -0.548348
   3 C :   -0.214624
   4 O :   -0.183197
   5 C :    0.459732
   6 O :   -0.513330
   7 C :   -0.561380
   8 H :    0.164907
   9 H :    0.159912
  10 H :    0.162024
  11 H :    0.163082
  12 H :    0.164449
  13 H :    0.162261
  14 H :    0.159996
  15 H :    0.177062
  16 H :    0.176285
  17 H :    0.188531
  18 H :    0.188850
  19 H :    0.205839
Sum of atomic charges:   -0.0000000

LOEWDIN ATOMIC CHARGES
----------------------
   0 C :   -0.415120
   1 C :   -0.214565
   2 C :   -0.414841
   3 C :    0.045283
   4 O :   -0.607255
   5 C :    0.364037
   6 O :   -0.493813
   7 C :   -0.334811
   8 H :    0.161570
   9 H :    0.159536
  10 H :    0.158092
  11 H :    0.170996
  12 H :    0.161760
  13 H :    0.158129
  14 H :    0.159621
  15 H :    0.190664
  16 H :    0.191045
  17 H :    0.181941
  18 H :    0.183923
  19 H :    0.193808

  Mayer bond orders larger than 0.100000
B(  0-C ,  1-C ) :   0.9041 B(  0-C ,  8-H ) :   0.9816 B(  0-C ,  9-H ) :   0.9686
B(  0-C , 10-H ) :   0.9708 B(  1-C ,  2-C ) :   0.9072 B(  1-C ,  3-C ) :   0.9637
B(  1-C , 11-H ) :   0.9328 B(  2-C , 12-H ) :   0.9809 B(  2-C , 13-H ) :   0.9710
B(  2-C , 14-H ) :   0.9687 B(  3-C ,  4-O ) :   0.7932 B(  3-C , 15-H ) :   0.9449
B(  3-C , 16-H ) :   0.9464 B(  4-O ,  5-C ) :   1.0994 B(  5-C ,  6-O ) :   1.7395
B(  5-C ,  7-C ) :   0.9406 B(  7-C , 17-H ) :   0.9700 B(  7-C , 18-H ) :   0.9677
B(  7-C , 19-H ) :   0.9247

Dispersion correction           -0.005210211
FINAL SINGLE POINT ENERGY      -386.243345401977

DIPOLE MOMENT
-------------

Method             : SCF
Type of density    : Electron Density
Multiplicity       :   1
Irrep              :   0
Energy             :  -386.2500308936498072 Eh
Relativity type    :
Basis              : AO
                                X                 Y                 Z
Electronic contribution:      6.986851068       3.391048211       1.638110494
Nuclear contribution   :     -7.776585092      -4.194539138      -2.110135045
                        -----------------------------------------
Total Dipole Moment    :     -0.789734024      -0.803490927      -0.472024550
                        -----------------------------------------
Magnitude (a.u.)       :      1.221509179
Magnitude (Debye)      :      3.104829589

Rotational constants in cm-1:             0.128150             0.035414             0.034167
Rotational constants in MHz :          3841.835849          1061.691649          1024.291423

                             ****ORCA TERMINATED NORMALLY****
TOTAL RUN TIME: 0 days 0 hours 0 minutes 38 seconds 292 msec
