                         Program Version 6.0.0  -   RELEASE  -
|  1> ! pbe def2-sv(p) def2/J RI DEFGRID1 loosescf d4 GCP(DFT/SV(P)) printgap
|  2> %output
|  3>     printlevel normal
|  4> end
|  5> * xyz 0 1
|  6> C -0.2460135251 -2.8231778325 -0.1705118342
|  7> C 0.5232711565 -1.5477163557 -0.0457383611
|  8> C 1.8915530922 -1.4536564198 -0.3477750152
|  9> N 2.561826244 -0.3226006593 -0.2298240539
| 10> C 1.9059322658 0.7711834631 0.1903267408
| 11> N 0.5906339568 0.7886314145 0.4823190891
| 12> C -0.0550079463 -0.3508741001 0.3537444405
| 13> O -1.4053134723 -0.2977070851 0.6954140204
| 14> C -2.265045333 -0.0238834342 -0.3281105565
| 15> O -1.8917385979 0.0498057656 -1.4900457664
| 16> N -3.524617113 0.1286885086 0.0822072967
| 17> C -4.5747719152 0.3723684847 -0.8840409893
| 18> C -3.9453275181 0.039792448 1.4638339455
| 19> N 2.5962409606 1.9072251074 0.3270805101
| 20> C 1.9762613694 3.1355689849 0.7587542639
| 21> C 4.0060280615 1.9817688155 0.028254061
| 22> C 2.6586110702 -2.642884693 -0.8226712737
| 23> H -1.2334998533 -2.7117178471 0.2711088624
| 24> H -0.3656083851 -3.0880682753 -1.2211375685
| 25> H 0.2767347447 -3.6344802017 0.3316500703
| 26> H -5.3169098297 -0.4242924414 -0.8292579931
| 27> H -4.1332960787 0.3947249483 -1.8773747011
| 28> H -5.0533556841 1.3291268105 -0.675146891
| 29> H -4.5600107217 -0.8502865902 1.6070005045
| 30> H -4.5327318146 0.9231484672 1.7132242417
| 31> H -3.0757639261 -0.0122257472 2.11116632
| 32> H 2.4550937124 3.4886092209 1.6736492853
| 33> H 0.9227382084 2.9524483769 0.9436589103
| 34> H 2.0848079218 3.8971398162 -0.0155419834
| 35> H 4.5525067025 2.305200178 0.9154608543
| 36> H 4.1762468592 2.7006336703 -0.7749756101
| 37> H 4.3514683492 1.0002708296 -0.2795226847
| 38> H 2.6655402303 -3.4116527513 -0.0528343994
| 39> H 2.1878859892 -3.0575506222 -1.7109618131
| 40> H 3.6776824151 -2.3483317066 -1.0494077478
| 41> *
| 42>
| 43>                          ****END OF INPUT****

CARTESIAN COORDINATES (ANGSTROEM)
---------------------------------
  C     -0.246014   -2.823178   -0.170512
  C      0.523271   -1.547716   -0.045738
  C      1.891553   -1.453656   -0.347775
  N      2.561826   -0.322601   -0.229824
  C      1.905932    0.771183    0.190327
  N      0.590634    0.788631    0.482319
  C     -0.055008   -0.350874    0.353744
  O     -1.405313   -0.297707    0.695414
  C     -2.265045   -0.023883   -0.328111
  O     -1.891739    0.049806   -1.490046
  N     -3.524617    0.128689    0.082207
  C     -4.574772    0.372368   -0.884041
  C     -3.945328    0.039792    1.463834
  N      2.596241    1.907225    0.327081
  C      1.976261    3.135569    0.758754
  C      4.006028    1.981769    0.028254
  C      2.658611   -2.642885   -0.822671
  H     -1.233500   -2.711718    0.271109
  H     -0.365608   -3.088068   -1.221138
  H      0.276735   -3.634480    0.331650
  H     -5.316910   -0.424292   -0.829258
  H     -4.133296    0.394725   -1.877375
  H     -5.053356    1.329127   -0.675147
  H     -4.560011   -0.850287    1.607001
  H     -4.532732    0.923148    1.713224
  H     -3.075764   -0.012226    2.111166
  H      2.455094    3.488609    1.673649
  H      0.922738    2.952448    0.943659
  H      2.084808    3.897140   -0.015542
  H      4.552507    2.305200    0.915461
  H      4.176247    2.700634   -0.774976
  H      4.351468    1.000271   -0.279523
  H      2.665540   -3.411653   -0.052834
  H      2.187886   -3.057551   -1.710962
  H      3.677682   -2.348332   -1.049408

 Total Charge           Charge          ....    0
 Multiplicity           Mult            ....    1
 Number of Electrons    NEL             ....  128
 Basis Dimension        Dim             ....  274

ORBITAL ENERGIES
----------------

  NO   OCC          E(Eh)            E(eV)
   0   2.0000     -18.792564      -511.3717
   1   2.0000     -18.709464      -509.1104
   2   2.0000     -14.027524      -381.7083
   3   2.0000     -14.018423      -381.4607
   4   2.0000     -13.970059      -380.1446
   5   2.0000     -13.965979      -380.0336
   6   2.0000     -10.016419      -272.5606
   7   2.0000      -9.975489      -271.4469
   8   2.0000      -9.973313      -271.3876
   9   2.0000      -9.931393      -270.2470
  10   2.0000      -9.920115      -269.9401
  11   2.0000      -9.916412      -269.8393
  12   2.0000      -9.906965      -269.5822
  13   2.0000      -9.906369      -269.5660
  14   2.0000      -9.889605      -269.1098
  15   2.0000      -9.881323      -268.8845
  16   2.0000      -9.878506      -268.8078
  17   2.0000      -1.005956       -27.3734
  18   2.0000      -0.914455       -24.8836
  19   2.0000      -0.900232       -24.4966
  20   2.0000      -0.855976       -23.2923
  21   2.0000      -0.840455       -22.8699
  22   2.0000      -0.790104       -21.4998
  23   2.0000      -0.722243       -19.6532
  24   2.0000      -0.666638       -18.1402
  25   2.0000      -0.658233       -17.9114
  26   2.0000      -0.651701       -17.7337
  27   2.0000      -0.643071       -17.4989
  28   2.0000      -0.635157       -17.2835
  29   2.0000      -0.587319       -15.9818
  30   2.0000      -0.567794       -15.4505
  31   2.0000      -0.522546       -14.2192
  32   2.0000      -0.503519       -13.7015
  33   2.0000      -0.482969       -13.1423
  34   2.0000      -0.478963       -13.0332
  35   2.0000      -0.453669       -12.3450
  36   2.0000      -0.436465       -11.8768
  37   2.0000      -0.430818       -11.7232
  38   2.0000      -0.425622       -11.5818
  39   2.0000      -0.404729       -11.0132
  40   2.0000      -0.399266       -10.8646
  41   2.0000      -0.391101       -10.6424
  42   2.0000      -0.375245       -10.2109
  43   2.0000      -0.369422       -10.0525
  44   2.0000      -0.366380        -9.9697
  45   2.0000      -0.363455        -9.8901
  46   2.0000      -0.358082        -9.7439
  47   2.0000      -0.357632        -9.7317
  48   2.0000      -0.353091        -9.6081
  49   2.0000      -0.352829        -9.6010
  50   2.0000      -0.347268        -9.4496
  51   2.0000      -0.343763        -9.3543
  52   2.0000      -0.337575        -9.1859
  53   2.0000      -0.337022        -9.1708
  54   2.0000      -0.330207        -8.9854
  55   2.0000      -0.322250        -8.7689
  56   2.0000      -0.257567        -7.0087
  57   2.0000      -0.253975        -6.9110
  58   2.0000      -0.251576        -6.8457
  59   2.0000      -0.248490        -6.7618
  60   2.0000      -0.212194        -5.7741
  61   2.0000      -0.204007        -5.5513
  62   2.0000      -0.190250        -5.1770
  63   2.0000      -0.170897        -4.6503
  64   0.0000      -0.042528        -1.1573
  65   0.0000      -0.013956        -0.3798
  66   0.0000       0.026472         0.7204
  67   0.0000       0.033393         0.9087
  68   0.0000       0.045096         1.2271

MULLIKEN ATOMIC CHARGES
-----------------------
   0 C :   -0.189109
   1 C :   -0.104283
   2 C :   -0.126240
   3 N :   -0.102716
   4 C :    0.054638
   5 N :   -0.085961
   6 C :    0.084915
   7 O :   -0.258574
   8 C :    0.228050
   9 O :   -0.251673
  10 N :   -0.245057
  11 C :   -0.169511
  12 C :   -0.172826
  13 N :   -0.206493
  14 C :   -0.167046
  15 C :   -0.167585
  16 C :   -0.188396
  17 H :    0.106734
  18 H :    0.115027
  19 H :    0.100769
  20 H :    0.106109
  21 H :    0.145244
  22 H :    0.109336
  23 H :    0.107344
  24 H :    0.107055
  25 H :    0.147207
  26 H :    0.100970
  27 H :    0.142404
  28 H :    0.103364
  29 H :    0.100527
  30 H :    0.102442
  31 H :    0.140149
  32 H :    0.113669
  33 H :    0.113333
  34 H :    0.106184
Sum of atomic charges:    0.0000000

LOEWDIN ATOMIC CHARGES
----------------------
   0 C :   -0.322396
   1 C :   -0.124200
   2 C :    0.009591
   3 N :   -0.119248
   4 C :    0.031908
   5 N :   -0.118105
   6 C :    0.068586
   7 O :   -0.061635
   8 C :    0.042384
   9 O :   -0.217761
  10 N :   -0.060151
  11 C :   -0.246545
  12 C :   -0.250953
  13 N :   -0.037417
  14 C :   -0.253072
  15 C :   -0.254276
  16 C :   -0.330732
  17 H :    0.127122
  18 H :    0.133659
  19 H :    0.125296
  20 H :    0.114801
  21 H :    0.138762
  22 H :    0.116105
  23 H :    0.114156
  24 H :    0.116340
  25 H :    0.134711
  26 H :    0.112708
  27 H :    0.135145
  28 H :    0.114060
  29 H :    0.112559
  30 H :    0.113420
  31 H :    0.133628
  32 H :    0.134991
  33 H :    0.135406
  34 H :    0.131153

  Mayer bond orders larger than 0.100000
B(  0-C ,  1-C ) :   1.1674 B(  0-C , 17-H ) :   0.9251 B(  0-C , 18-H ) :   0.9199
B(  0-C , 19-H ) :   0.9231 B(  1-C ,  2-C ) :   1.2990 B(  1-C ,  6-C ) :   1.3750
B(  2-C ,  3-N ) :   1.6109 B(  2-C , 16-C ) :   1.1595 B(  3-N ,  4-C ) :   1.4162
B(  4-C ,  5-N ) :   1.3996 B(  4-C , 13-N ) :   1.2118 B(  5-N ,  6-C ) :   1.5832
B(  6-C ,  7-O ) :   1.0102 B(  7-O ,  8-C ) :   1.0470 B(  8-C ,  9-O ) :   1.9841
B(  8-C , 10-N ) :   1.2007 B( 10-N , 11-C ) :   1.0124 B( 10-N , 12-C ) :   1.0072
B( 11-C , 20-H ) :   0.9522 B( 11-C , 21-H ) :   0.9327 B( 11-C , 22-H ) :   0.9527
B( 12-C , 23-H ) :   0.9504 B( 12-C , 24-H ) :   0.9492 B( 12-C , 25-H ) :   0.9396
B( 13-N , 14-C ) :   1.0182 B( 13-N , 15-C ) :   1.0178 B( 14-C , 26-H ) :   0.9499
B( 14-C , 27-H ) :   0.9247 B( 14-C , 28-H ) :   0.9494 B( 15-C , 29-H ) :   0.9498
B( 15-C , 30-H ) :   0.9495 B( 15-C , 31-H ) :   0.9228 B( 16-C , 32-H ) :   0.9230
B( 16-C , 33-H ) :   0.9219 B( 16-C , 34-H ) :   0.9274

Dispersion correction           -0.039528880
FINAL SINGLE POINT ENERGY      -797.788880216342

DIPOLE MOMENT
-------------

Method             : SCF
Type of density    : Electron Density
Multiplicity       :   1
Irrep              :   0
Energy             :  -797.9081782963150999 Eh
Relativity type    :
Basis              : AO
                                X                 Y                 Z
Electronic contribution:      0.452971562       0.524468538      -0.309423182
Nuclear contribution   :     -0.900212794      -0.503413038       1.005789119
                        -----------------------------------------
Total Dipole Moment    :     -0.447241232       0.021055500       0.696365937
                        -----------------------------------------
Magnitude (a.u.)       :      0.827884999
Magnitude (Debye)      :      2.104316435

Rotational constants in cm-1:             0.024203             0.009826             0.007698
Rotational constants in MHz :           725.578472           294.572436           230.780023

                             ****ORCA TERMINATED NORMALLY****
TOTAL RUN TIME: 0 days 0 hours 0 minutes 24 seconds 498 msec
