                         Program Version 6.0.0  -   RELEASE  -
|  1> ! r2scan-3c def2/J RI DEFGRID2 scfconv6 printgap
|  2> %output
|  3>     printlevel normal
|  4> end
|  5> * xyz 0 1
|  6> C 1.9001473382 -0.3462372904 0.8621202859
|  7> C 1.5092567595 0.2816367122 -0.4702300196
|  8> C 0.2406297754 -0.2946376841 -1.1046724416
|  9> C -1.0746818059 0.0024391352 -0.3569593122
| 10> H -1.8846863764 0.0023789 -1.108507141
| 11> C -1.422446408 -1.0593153068 0.6890240578
| 12> O -0.9898288137 1.2977206242 0.2129466479
| 13> H 1.2172796347 -0.0363037465 1.647815013
| 14> H 2.9002080191 -0.0236985599 1.1434185357
| 15> H 1.8956684714 -1.4318048805 0.793313693
| 16> H 1.3736027008 1.355580585 -0.3358000757
| 17> H 2.3240721869 0.1326439573 -1.1828570577
| 18> H 0.1593150267 0.1342121854 -2.1055885581
| 19> H 0.3392854919 -1.3756879717 -1.2107115781
| 20> H -2.3891340365 -0.8403434746 1.1388080979
| 21> H -1.4794167694 -2.0344474006 0.2142276087
| 22> H -0.6737425568 -1.0923705602 1.4732849043
| 23> H -1.8089254026 1.4854626658 0.6892375454
| 24> *
| 25>
| 26>                          ****END OF INPUT****

CARTESIAN COORDINATES (ANGSTROEM)
---------------------------------
  C      1.900147   -0.346237    0.862120
  C      1.509257    0.281637   -0.470230
  C      0.240630   -0.294638   -1.104672
  C     -1.074682    0.002439   -0.356959
  H     -1.884686    0.002379   -1.108507
  C     -1.422446   -1.059315    0.689024
  O     -0.989829    1.297721    0.212947
  H      1.217280   -0.036304    1.647815
  H      2.900208   -0.023699    1.143419
  H      1.895668   -1.431805    0.793314
  H      1.373603    1.355581   -0.335800
  H      2.324072    0.132644   -1.182857
  H      0.159315    0.134212   -2.105589
  H      0.339285   -1.375688   -1.210712
  H     -2.389134   -0.840343    1.138808
  H     -1.479417   -2.034447    0.214228
  H     -0.673743   -1.092371    1.473285
  H     -1.808925    1.485463    0.689238

 Total Charge           Charge          ....    0
 Multiplicity           Mult            ....    1
 Number of Electrons    NEL             ....   50
 Basis Dimension        Dim             ....  179

ORBITAL ENERGIES
----------------

  NO   OCC          E(Eh)            E(eV)
   0   2.0000     -18.946265      -515.5541
   1   2.0000     -10.080684      -274.3093
   2   2.0000     -10.021010      -272.6856
   3   2.0000     -10.018286      -272.6114
   4   2.0000     -10.016235      -272.5556
   5   2.0000     -10.008145      -272.3355
   6   2.0000      -0.984335       -26.7851
   7   2.0000      -0.757374       -20.6092
   8   2.0000      -0.707237       -19.2449
   9   2.0000      -0.651056       -17.7161
  10   2.0000      -0.575795       -15.6682
  11   2.0000      -0.528091       -14.3701
  12   2.0000      -0.475837       -12.9482
  13   2.0000      -0.425821       -11.5872
  14   2.0000      -0.415958       -11.3188
  15   2.0000      -0.394569       -10.7368
  16   2.0000      -0.377188       -10.2638
  17   2.0000      -0.358152        -9.7458
  18   2.0000      -0.343179        -9.3384
  19   2.0000      -0.338356        -9.2071
  20   2.0000      -0.313602        -8.5335
  21   2.0000      -0.293872        -7.9967
  22   2.0000      -0.291159        -7.9228
  23   2.0000      -0.272834        -7.4242
  24   2.0000      -0.232382        -6.3234
  25   0.0000       0.055521         1.5108
  26   0.0000       0.109113         2.9691
  27   0.0000       0.115821         3.1517
  28   0.0000       0.121484         3.3057
  29   0.0000       0.136184         3.7058

MULLIKEN ATOMIC CHARGES
-----------------------
   0 C :   -0.531471
   1 C :   -0.205228
   2 C :   -0.287626
   3 C :    0.055313
   4 H :    0.124144
   5 C :   -0.501740
   6 O :   -0.421608
   7 H :    0.161189
   8 H :    0.143113
   9 H :    0.144502
  10 H :    0.163220
  11 H :    0.136837
  12 H :    0.149086
  13 H :    0.136266
  14 H :    0.133704
  15 H :    0.151136
  16 H :    0.162573
  17 H :    0.286590
Sum of atomic charges:    0.0000000

LOEWDIN ATOMIC CHARGES
----------------------
   0 C :   -0.427986
   1 C :   -0.304806
   2 C :   -0.276360
   3 C :    0.048649
   4 H :    0.160707
   5 C :   -0.404727
   6 O :   -0.623547
   7 H :    0.151509
   8 H :    0.149920
   9 H :    0.147450
  10 H :    0.169300
  11 H :    0.149791
  12 H :    0.161692
  13 H :    0.159911
  14 H :    0.149497
  15 H :    0.158402
  16 H :    0.161646
  17 H :    0.268951

  Mayer bond orders larger than 0.100000
B(  0-C ,  1-C ) :   0.8574 B(  0-C ,  7-H ) :   0.9878 B(  0-C ,  8-H ) :   0.9677
B(  0-C ,  9-H ) :   0.9816 B(  1-C ,  2-C ) :   0.9056 B(  1-C , 10-H ) :   0.9862
B(  1-C , 11-H ) :   0.9641 B(  2-C ,  3-C ) :   0.9401 B(  2-C , 12-H ) :   0.9618
B(  2-C , 13-H ) :   0.9841 B(  3-C ,  4-H ) :   0.9510 B(  3-C ,  5-C ) :   0.9321
B(  3-C ,  6-O ) :   0.8777 B(  5-C , 14-H ) :   0.9709 B(  5-C , 15-H ) :   0.9739
B(  5-C , 16-H ) :   0.9720 B(  6-O , 17-H ) :   0.9011

Dispersion correction           -0.004446918
FINAL SINGLE POINT ENERGY      -272.897805739837

DIPOLE MOMENT
-------------

Method             : SCF
Type of density    : Electron Density
Multiplicity       :   1
Irrep              :   0
Energy             :  -272.9030523491305189 Eh
Relativity type    :
Basis              : AO
                                X                 Y                 Z
Electronic contribution:     -2.281144688       3.172488017      -1.041544339
Nuclear contribution   :      1.836801172      -3.474817499       1.088278729
                        -----------------------------------------
Total Dipole Moment    :     -0.444343516      -0.302329482       0.046734390
                        -----------------------------------------
Magnitude (a.u.)       :      0.539470462
Magnitude (Debye)      :      1.371224941

Rotational constants in cm-1:             0.154060             0.081117             0.074804
Rotational constants in MHz :          4618.614151          2431.831311          2242.574231

                             ****ORCA TERMINATED NORMALLY****
TOTAL RUN TIME: 0 days 0 hours 0 minutes 22 seconds 877 msec
