                         Program Version 6.0.0  -   RELEASE  -
|  1> ! r2scan-3c def2/J RI DEFGRID2 scfconv6 printgap
|  2> %output
|  3>     printlevel normal
|  4> end
|  5> %cpcm
|  6>     smd true
|  7>     smdsolvent "water"
|  8> end
|  9> * xyz 0 1
| 10> C 1.9001473382 -0.3462372904 0.8621202859
| 11> C 1.5092567595 0.2816367122 -0.4702300196
| 12> C 0.2406297754 -0.2946376841 -1.1046724416
| 13> C -1.0746818059 0.0024391352 -0.3569593122
| 14> H -1.8846863764 0.0023789 -1.108507141
| 15> C -1.422446408 -1.0593153068 0.6890240578
| 16> O -0.9898288137 1.2977206242 0.2129466479
| 17> H 1.2172796347 -0.0363037465 1.647815013
| 18> H 2.9002080191 -0.0236985599 1.1434185357
| 19> H 1.8956684714 -1.4318048805 0.793313693
| 20> H 1.3736027008 1.355580585 -0.3358000757
| 21> H 2.3240721869 0.1326439573 -1.1828570577
| 22> H 0.1593150267 0.1342121854 -2.1055885581
| 23> H 0.3392854919 -1.3756879717 -1.2107115781
| 24> H -2.3891340365 -0.8403434746 1.1388080979
| 25> H -1.4794167694 -2.0344474006 0.2142276087
| 26> H -0.6737425568 -1.0923705602 1.4732849043
| 27> H -1.8089254026 1.4854626658 0.6892375454
| 28> *
| 29>
| 30>                          ****END OF INPUT****

CARTESIAN COORDINATES (ANGSTROEM)
---------------------------------
  C      1.900147   -0.346237    0.862120
  C      1.509257    0.281637   -0.470230
  C      0.240630   -0.294638   -1.104672
  C     -1.074682    0.002439   -0.356959
  H     -1.884686    0.002379   -1.108507
  C     -1.422446   -1.059315    0.689024
  O     -0.989829    1.297721    0.212947
  H      1.217280   -0.036304    1.647815
  H      2.900208   -0.023699    1.143419
  H      1.895668   -1.431805    0.793314
  H      1.373603    1.355581   -0.335800
  H      2.324072    0.132644   -1.182857
  H      0.159315    0.134212   -2.105589
  H      0.339285   -1.375688   -1.210712
  H     -2.389134   -0.840343    1.138808
  H     -1.479417   -2.034447    0.214228
  H     -0.673743   -1.092371    1.473285
  H     -1.808925    1.485463    0.689238

 Total Charge           Charge          ....    0
 Multiplicity           Mult            ....    1
 Number of Electrons    NEL             ....   50
 Basis Dimension        Dim             ....  179

ORBITAL ENERGIES
----------------

  NO   OCC          E(Eh)            E(eV)
   0   2.0000     -18.947892      -515.5984
   1   2.0000     -10.075029      -274.1555
   2   2.0000     -10.015693      -272.5409
   3   2.0000     -10.015458      -272.5345
   4   2.0000     -10.007498      -272.3179
   5   2.0000     -10.005967      -272.2762
   6   2.0000      -0.984974       -26.8025
   7   2.0000      -0.753943       -20.5158
   8   2.0000      -0.701886       -19.0993
   9   2.0000      -0.645792       -17.5729
  10   2.0000      -0.572018       -15.5654
  11   2.0000      -0.525299       -14.2941
  12   2.0000      -0.471234       -12.8229
  13   2.0000      -0.420944       -11.4545
  14   2.0000      -0.414481       -11.2786
  15   2.0000      -0.389608       -10.6018
  16   2.0000      -0.373619       -10.1667
  17   2.0000      -0.351192        -9.5564
  18   2.0000      -0.339350        -9.2342
  19   2.0000      -0.332636        -9.0515
  20   2.0000      -0.313695        -8.5361
  21   2.0000      -0.291534        -7.9330
  22   2.0000      -0.290291        -7.8992
  23   2.0000      -0.269405        -7.3309
  24   2.0000      -0.234078        -6.3696
  25   0.0000       0.069127         1.8810
  26   0.0000       0.118567         3.2264
  27   0.0000       0.123923         3.3721
  28   0.0000       0.126647         3.4462
  29   0.0000       0.142263         3.8712

MULLIKEN ATOMIC CHARGES
-----------------------
   0 C :   -0.550969
   1 C :   -0.229257
   2 C :   -0.305824
   3 C :    0.072375
   4 H :    0.136530
   5 C :   -0.543741
   6 O :   -0.505827
   7 H :    0.163499
   8 H :    0.153700
   9 H :    0.158881
  10 H :    0.151914
  11 H :    0.149669
  12 H :    0.161147
  13 H :    0.155748
  14 H :    0.158164
  15 H :    0.167558
  16 H :    0.165415
  17 H :    0.341017
Sum of atomic charges:   -0.0000000

LOEWDIN ATOMIC CHARGES
----------------------
   0 C :   -0.434971
   1 C :   -0.309896
   2 C :   -0.280652
   3 C :    0.051137
   4 H :    0.167397
   5 C :   -0.408740
   6 O :   -0.657058
   7 H :    0.151618
   8 H :    0.151897
   9 H :    0.152993
  10 H :    0.162161
  11 H :    0.153867
  12 H :    0.163240
  13 H :    0.167007
  14 H :    0.157649
  15 H :    0.163937
  16 H :    0.161544
  17 H :    0.286870

  Mayer bond orders larger than 0.100000
B(  0-C ,  1-C ) :   0.8670 B(  0-C ,  7-H ) :   0.9820 B(  0-C ,  8-H ) :   0.9664
B(  0-C ,  9-H ) :   0.9774 B(  1-C ,  2-C ) :   0.8885 B(  1-C , 10-H ) :   0.9918
B(  1-C , 11-H ) :   0.9614 B(  2-C ,  3-C ) :   0.9298 B(  2-C , 12-H ) :   0.9645
B(  2-C , 13-H ) :   0.9790 B(  3-C ,  4-H ) :   0.9491 B(  3-C ,  5-C ) :   0.9343
B(  3-C ,  6-O ) :   0.8677 B(  5-C , 14-H ) :   0.9674 B(  5-C , 15-H ) :   0.9695
B(  5-C , 16-H ) :   0.9690 B(  6-O , 17-H ) :   0.8759

Dispersion correction           -0.004446918
FINAL SINGLE POINT ENERGY      -272.903201142466

DIPOLE MOMENT
-------------

Method             : SCF
Type of density    : Electron Density
Multiplicity       :   1
Irrep              :   0
Energy             :  -272.9084477517591267 Eh
Relativity type    :
Basis              : AO
                                X                 Y                 Z
Electronic contribution:     -2.475954024       2.958111471      -1.043355140
Nuclear contribution   :      1.836801172      -3.474817499       1.088278729
                        -----------------------------------------
Total Dipole Moment    :     -0.639152852      -0.516706028       0.044923589
                        -----------------------------------------
Magnitude (a.u.)       :      0.823115797
Magnitude (Debye)      :      2.092194087

Rotational constants in cm-1:             0.154060             0.081117             0.074804
Rotational constants in MHz :          4618.614151          2431.831311          2242.574231

                             ****ORCA TERMINATED NORMALLY****
TOTAL RUN TIME: 0 days 0 hours 0 minutes 27 seconds 406 msec
