                         Program Version 6.0.0  -   RELEASE  -
|  1> ! pbe def2-sv(p) def2/J RI DEFGRID1 loosescf d4 GCP(DFT/SV(P)) printgap
|  2> %output
|  3>     printlevel normal
|  4> end
|  5> * xyz 0 1
|  6> C -0.4001128126 -2.3920670866 0.7580559298
|  7> C 0.0789819003 -1.3261486929 -0.2122698613
|  8> O 1.0755701239 -0.5681621669 0.4480917599
|  9> C 1.6335894692 0.4794674485 -0.1774803626
| 10> O 1.3535753528 0.793651659 -1.312044207
| 11> C 2.604584929 1.1790592032 0.7147779278
| 12> O -1.0011672213 -0.5323371407 -0.695055198
| 13> C -1.5298161021 0.4630143454 0.0285098957
| 14> O -1.1326050072 0.79021314 1.1238869611
| 15> C -2.6642290524 1.1063463969 -0.705005991
| 16> H 0.439559514 -3.018004178 1.0393191752
| 17> H -1.169129998 -2.9907199608 0.2812029873
| 18> H -0.8016663559 -1.9102311437 1.6458600865
| 19> H 0.4985232893 -1.7556625575 -1.1331231726
| 20> H 3.1950653538 1.8812531493 0.1361705072
| 21> H 2.036922254 1.7119340714 1.4754924359
| 22> H 3.2338329457 0.4487871386 1.2139266448
| 23> H -2.7478523539 0.6865007078 -1.7009451358
| 24> H -3.5801942736 0.9379683148 -0.143529396
| 25> H -2.4928247412 2.1784060236 -0.7525158642
| 26> *
| 27>
| 28>                          ****END OF INPUT****

CARTESIAN COORDINATES (ANGSTROEM)
---------------------------------
  C     -0.400113   -2.392067    0.758056
  C      0.078982   -1.326149   -0.212270
  O      1.075570   -0.568162    0.448092
  C      1.633589    0.479467   -0.177480
  O      1.353575    0.793652   -1.312044
  C      2.604585    1.179059    0.714778
  O     -1.001167   -0.532337   -0.695055
  C     -1.529816    0.463014    0.028510
  O     -1.132605    0.790213    1.123887
  C     -2.664229    1.106346   -0.705006
  H      0.439560   -3.018004    1.039319
  H     -1.169130   -2.990720    0.281203
  H     -0.801666   -1.910231    1.645860
  H      0.498523   -1.755663   -1.133123
  H      3.195065    1.881253    0.136171
  H      2.036922    1.711934    1.475492
  H      3.233833    0.448787    1.213927
  H     -2.747852    0.686501   -1.700945
  H     -3.580194    0.937968   -0.143529
  H     -2.492825    2.178406   -0.752516

 Total Charge           Charge          ....    0
 Multiplicity           Mult            ....    1
 Number of Electrons    NEL             ....   78
 Basis Dimension        Dim             ....  160

ORBITAL ENERGIES
----------------

  NO   OCC          E(Eh)            E(eV)
   0   2.0000     -18.804958      -511.7089
   1   2.0000     -18.802506      -511.6422
   2   2.0000     -18.738412      -509.8981
   3   2.0000     -18.734484      -509.7912
   4   2.0000     -10.017251      -272.5833
   5   2.0000     -10.015015      -272.5224
   6   2.0000     -10.013410      -272.4787
   7   2.0000      -9.896229      -269.2901
   8   2.0000      -9.893750      -269.2226
   9   2.0000      -9.893313      -269.2107
  10   2.0000      -1.033415       -28.1206
  11   2.0000      -0.990880       -26.9632
  12   2.0000      -0.921999       -25.0889
  13   2.0000      -0.911250       -24.7964
  14   2.0000      -0.730525       -19.8786
  15   2.0000      -0.680914       -18.5286
  16   2.0000      -0.667086       -18.1523
  17   2.0000      -0.603561       -16.4237
  18   2.0000      -0.573780       -15.6133
  19   2.0000      -0.486970       -13.2511
  20   2.0000      -0.447901       -12.1880
  21   2.0000      -0.432609       -11.7719
  22   2.0000      -0.428066       -11.6483
  23   2.0000      -0.417817       -11.3694
  24   2.0000      -0.412751       -11.2315
  25   2.0000      -0.405753       -11.0411
  26   2.0000      -0.386110       -10.5066
  27   2.0000      -0.374032       -10.1779
  28   2.0000      -0.366025        -9.9600
  29   2.0000      -0.358178        -9.7465
  30   2.0000      -0.354543        -9.6476
  31   2.0000      -0.350300        -9.5321
  32   2.0000      -0.330595        -8.9960
  33   2.0000      -0.324720        -8.8361
  34   2.0000      -0.297084        -8.0841
  35   2.0000      -0.273870        -7.4524
  36   2.0000      -0.267084        -7.2677
  37   2.0000      -0.220437        -5.9984
  38   2.0000      -0.214690        -5.8420
  39   0.0000      -0.028907        -0.7866
  40   0.0000      -0.025105        -0.6831
  41   0.0000       0.042914         1.1677
  42   0.0000       0.060443         1.6447
  43   0.0000       0.064675         1.7599

MULLIKEN ATOMIC CHARGES
-----------------------
   0 C :   -0.244357
   1 C :    0.180600
   2 O :   -0.232433
   3 C :    0.086444
   4 O :   -0.202259
   5 C :   -0.236245
   6 O :   -0.236113
   7 C :    0.098850
   8 O :   -0.211635
   9 C :   -0.244511
  10 H :    0.118948
  11 H :    0.116945
  12 H :    0.131602
  13 H :    0.091387
  14 H :    0.123486
  15 H :    0.144490
  16 H :    0.122826
  17 H :    0.122551
  18 H :    0.132749
  19 H :    0.136675
Sum of atomic charges:    0.0000000

LOEWDIN ATOMIC CHARGES
----------------------
   0 C :   -0.349793
   1 C :    0.047237
   2 O :   -0.062031
   3 C :    0.037653
   4 O :   -0.160426
   5 C :   -0.356551
   6 O :   -0.059925
   7 C :    0.037581
   8 O :   -0.171443
   9 C :   -0.357243
  10 H :    0.135260
  11 H :    0.132649
  12 H :    0.138775
  13 H :    0.116007
  14 H :    0.139778
  15 H :    0.155721
  16 H :    0.141959
  17 H :    0.137010
  18 H :    0.148153
  19 H :    0.149628

  Mayer bond orders larger than 0.100000
B(  0-C ,  1-C ) :   1.1302 B(  0-C , 10-H ) :   0.9383 B(  0-C , 11-H ) :   0.9378
B(  0-C , 12-H ) :   0.9321 B(  1-C ,  2-O ) :   0.9596 B(  1-C ,  6-O ) :   0.9494
B(  1-C , 13-H ) :   0.9192 B(  2-O ,  3-C ) :   1.1245 B(  3-C ,  4-O ) :   2.0808
B(  3-C ,  5-C ) :   1.1028 B(  5-C , 14-H ) :   0.9397 B(  5-C , 15-H ) :   0.9187
B(  5-C , 16-H ) :   0.9280 B(  6-O ,  7-C ) :   1.1637 B(  7-C ,  8-O ) :   2.0445
B(  7-C ,  9-C ) :   1.0894 B(  9-C , 17-H ) :   0.9378 B(  9-C , 18-H ) :   0.9259
B(  9-C , 19-H ) :   0.9298

Dispersion correction           -0.017682953
FINAL SINGLE POINT ENERGY      -534.465719172805

DIPOLE MOMENT
-------------

Method             : SCF
Type of density    : Electron Density
Multiplicity       :   1
Irrep              :   0
Energy             :  -534.5448350974767209 Eh
Relativity type    :
Basis              : AO
                                X                 Y                 Z
Electronic contribution:      1.181971535       1.067507967      -1.786284155
Nuclear contribution   :     -1.297582839      -1.709472646       1.927927108
                        -----------------------------------------
Total Dipole Moment    :     -0.115611304      -0.641964678       0.141642953
                        -----------------------------------------
Magnitude (a.u.)       :      0.667493332
Magnitude (Debye)      :      1.696633215

Rotational constants in cm-1:             0.059693             0.037111             0.029630
Rotational constants in MHz :          1789.549455          1112.570991           888.296121

                             ****ORCA TERMINATED NORMALLY****
TOTAL RUN TIME: 0 days 0 hours 0 minutes 13 seconds 460 msec
