                         Program Version 6.0.0  -   RELEASE  -
|  1> ! pbe def2-sv(p) def2/J RI DEFGRID1 loosescf d4 GCP(DFT/SV(P)) printgap
|  2> %output
|  3>     printlevel normal
|  4> end
|  5> * xyz 0 1
|  6> C 2.3144856918 0.5402688185 -0.8346174034
|  7> C 1.0619318612 -0.1388522267 -0.2767031721
|  8> H 0.633926771 -0.7843103009 -1.0591881467
|  9> C 0.0288121508 0.9078163296 0.1594978353
| 10> C -1.434396031 0.441742321 0.1874796653
| 11> C -1.9753814821 0.1763888168 -1.2170000871
| 12> C -1.6326724041 -0.7795087984 1.0807511695
| 13> O 1.3801095268 -0.9331399866 0.8566282858
| 14> H 2.7426021617 1.1990229882 -0.0826581961
| 15> H 3.0596138283 -0.2017104807 -1.1144033181
| 16> H 2.0620767162 1.1232838802 -1.715298425
| 17> H 0.3147116476 1.2331325631 1.1620666186
| 18> H 0.1012504122 1.7668679619 -0.5090734596
| 19> H -2.0125410247 1.2703708434 0.6145704716
| 20> H -1.4761615816 -0.673885869 -1.6747727764
| 21> H -1.8312353703 1.0458913948 -1.8540384853
| 22> H -3.0392417271 -0.0436981757 -1.1706657007
| 23> H -1.1175931625 -1.6437013486 0.6706222219
| 24> H -1.2321739122 -0.5925696576 2.0738181364
| 25> H -2.6906888128 -1.0164570876 1.1683120644
| 26> H 2.0881206074 -1.5484036295 0.6248213341
| 27> *
| 28>
| 29>                          ****END OF INPUT****

CARTESIAN COORDINATES (ANGSTROEM)
---------------------------------
  C      2.314486    0.540269   -0.834617
  C      1.061932   -0.138852   -0.276703
  H      0.633927   -0.784310   -1.059188
  C      0.028812    0.907816    0.159498
  C     -1.434396    0.441742    0.187480
  C     -1.975381    0.176389   -1.217000
  C     -1.632672   -0.779509    1.080751
  O      1.380110   -0.933140    0.856628
  H      2.742602    1.199023   -0.082658
  H      3.059614   -0.201710   -1.114403
  H      2.062077    1.123284   -1.715298
  H      0.314712    1.233133    1.162067
  H      0.101250    1.766868   -0.509073
  H     -2.012541    1.270371    0.614570
  H     -1.476162   -0.673886   -1.674773
  H     -1.831235    1.045891   -1.854038
  H     -3.039242   -0.043698   -1.170666
  H     -1.117593   -1.643701    0.670622
  H     -1.232174   -0.592570    2.073818
  H     -2.690689   -1.016457    1.168312
  H      2.088121   -1.548404    0.624821

 Total Charge           Charge          ....    0
 Multiplicity           Mult            ....    1
 Number of Electrons    NEL             ....   58
 Basis Dimension        Dim             ....  126

ORBITAL ENERGIES
----------------

  NO   OCC          E(Eh)            E(eV)
   0   2.0000     -18.738363      -509.8968
   1   2.0000      -9.935726      -270.3649
   2   2.0000      -9.888017      -269.0666
   3   2.0000      -9.876110      -268.7426
   4   2.0000      -9.875545      -268.7272
   5   2.0000      -9.867897      -268.5191
   6   2.0000      -9.858656      -268.2677
   7   2.0000      -0.916124       -24.9290
   8   2.0000      -0.725737       -19.7483
   9   2.0000      -0.675048       -18.3690
  10   2.0000      -0.608406       -16.5556
  11   2.0000      -0.600531       -16.3413
  12   2.0000      -0.539407       -14.6780
  13   2.0000      -0.479999       -13.0614
  14   2.0000      -0.460013       -12.5176
  15   2.0000      -0.413917       -11.2633
  16   2.0000      -0.393185       -10.6991
  17   2.0000      -0.377874       -10.2825
  18   2.0000      -0.372404       -10.1336
  19   2.0000      -0.359429        -9.7806
  20   2.0000      -0.332647        -9.0518
  21   2.0000      -0.329949        -8.9784
  22   2.0000      -0.322108        -8.7650
  23   2.0000      -0.310841        -8.4584
  24   2.0000      -0.291103        -7.9213
  25   2.0000      -0.277735        -7.5576
  26   2.0000      -0.274881        -7.4799
  27   2.0000      -0.254245        -6.9184
  28   2.0000      -0.211082        -5.7438
  29   0.0000       0.023067         0.6277
  30   0.0000       0.047097         1.2816
  31   0.0000       0.064281         1.7492
  32   0.0000       0.075770         2.0618
  33   0.0000       0.084790         2.3073

MULLIKEN ATOMIC CHARGES
-----------------------
   0 C :   -0.260070
   1 C :   -0.005271
   2 H :    0.065158
   3 C :   -0.103672
   4 C :   -0.178438
   5 C :   -0.253434
   6 C :   -0.226868
   7 O :   -0.424274
   8 H :    0.104467
   9 H :    0.088445
  10 H :    0.097830
  11 H :    0.086362
  12 H :    0.077356
  13 H :    0.067242
  14 H :    0.097733
  15 H :    0.092379
  16 H :    0.097375
  17 H :    0.098069
  18 H :    0.099211
  19 H :    0.088498
  20 H :    0.291903
Sum of atomic charges:    0.0000000

LOEWDIN ATOMIC CHARGES
----------------------
   0 C :   -0.350971
   1 C :   -0.057990
   2 H :    0.094308
   3 C :   -0.219662
   4 C :   -0.155810
   5 C :   -0.333090
   6 C :   -0.330102
   7 O :   -0.329286
   8 H :    0.122305
   9 H :    0.111489
  10 H :    0.122093
  11 H :    0.123375
  12 H :    0.116274
  13 H :    0.114125
  14 H :    0.112963
  15 H :    0.114071
  16 H :    0.118229
  17 H :    0.116106
  18 H :    0.119436
  19 H :    0.111806
  20 H :    0.280332

  Mayer bond orders larger than 0.100000
B(  0-C ,  1-C ) :   1.1130 B(  0-C ,  8-H ) :   0.9433 B(  0-C ,  9-H ) :   0.9457
B(  0-C , 10-H ) :   0.9370 B(  1-C ,  2-H ) :   0.9070 B(  1-C ,  3-C ) :   1.0547
B(  1-C ,  7-O ) :   1.0372 B(  3-C ,  4-C ) :   1.0995 B(  3-C , 11-H ) :   0.8970
B(  3-C , 12-H ) :   0.9224 B(  4-C ,  5-C ) :   1.1135 B(  4-C ,  6-C ) :   1.1172
B(  4-C , 13-H ) :   0.9010 B(  5-C , 14-H ) :   0.9419 B(  5-C , 15-H ) :   0.9511
B(  5-C , 16-H ) :   0.9496 B(  6-C , 17-H ) :   0.9402 B(  6-C , 18-H ) :   0.9499
B(  6-C , 19-H ) :   0.9485 B(  7-O , 20-H ) :   0.8522

Dispersion correction           -0.016610875
FINAL SINGLE POINT ENERGY      -311.516421940419

DIPOLE MOMENT
-------------

Method             : SCF
Type of density    : Electron Density
Multiplicity       :   1
Irrep              :   0
Energy             :  -311.5962575293124814 Eh
Relativity type    :
Basis              : AO
                                X                 Y                 Z
Electronic contribution:      2.565506993      -1.125275320       2.239290173
Nuclear contribution   :     -2.228608956       1.049872346      -2.675958307
                        -----------------------------------------
Total Dipole Moment    :      0.336898037      -0.075402973      -0.436668134
                        -----------------------------------------
Magnitude (a.u.)       :      0.556655149
Magnitude (Debye)      :      1.414904944

Rotational constants in cm-1:             0.129474             0.056449             0.045971
Rotational constants in MHz :          3881.530479          1692.285109          1378.167123

                             ****ORCA TERMINATED NORMALLY****
TOTAL RUN TIME: 0 days 0 hours 0 minutes 9 seconds 434 msec
