                         Program Version 6.0.0  -   RELEASE  -
|  1> ! pbe def2-sv(p) def2/J RI DEFGRID1 loosescf d4 GCP(DFT/SV(P)) printgap
|  2> %output
|  3>     printlevel normal
|  4> end
|  5> * xyz 0 1
|  6> C -2.0840284102 0.6222931176 -0.6679220418
|  7> C -1.3936925886 0.3202119829 0.6589191469
|  8> C 0.0366048559 -0.2315643559 0.5249193829
|  9> C 0.9630445543 0.7081566345 -0.2577654417
| 10> C 2.4240507842 0.2945379134 -0.1205410864
| 11> O 0.0470970304 -1.5401925587 -0.0179220568
| 12> H -3.0975954698 0.9672639287 -0.4796226652
| 13> H -1.5577898247 1.3995536497 -1.2152140533
| 14> H -2.1454322912 -0.2678401269 -1.2895136396
| 15> H -1.3499525635 1.2287062291 1.2612955475
| 16> H -1.9810356879 -0.418847013 1.2084926743
| 17> H 0.4424279031 -0.3639086125 1.5357373045
| 18> H 0.6829107152 0.6905438345 -1.3127716425
| 19> H 0.8287801469 1.7240959205 0.1156201135
| 20> H 2.5453377039 -0.747245425 -0.4086219071
| 21> H 3.0571482404 0.9096767912 -0.7547047054
| 22> H 2.7546088796 0.4024809402 0.9099597457
| 23> H -0.2832676063 -1.4966169118 -0.9260403155
| 24> *
| 25>
| 26>                          ****END OF INPUT****

CARTESIAN COORDINATES (ANGSTROEM)
---------------------------------
  C     -2.084028    0.622293   -0.667922
  C     -1.393693    0.320212    0.658919
  C      0.036605   -0.231564    0.524919
  C      0.963045    0.708157   -0.257765
  C      2.424051    0.294538   -0.120541
  O      0.047097   -1.540193   -0.017922
  H     -3.097595    0.967264   -0.479623
  H     -1.557790    1.399554   -1.215214
  H     -2.145432   -0.267840   -1.289514
  H     -1.349953    1.228706    1.261296
  H     -1.981036   -0.418847    1.208493
  H      0.442428   -0.363909    1.535737
  H      0.682911    0.690544   -1.312772
  H      0.828780    1.724096    0.115620
  H      2.545338   -0.747245   -0.408622
  H      3.057148    0.909677   -0.754705
  H      2.754609    0.402481    0.909960
  H     -0.283268   -1.496617   -0.926040

 Total Charge           Charge          ....    0
 Multiplicity           Mult            ....    1
 Number of Electrons    NEL             ....   50
 Basis Dimension        Dim             ....  108

ORBITAL ENERGIES
----------------

  NO   OCC          E(Eh)            E(eV)
   0   2.0000     -18.739070      -509.9160
   1   2.0000      -9.931726      -270.2560
   2   2.0000      -9.883704      -268.9493
   3   2.0000      -9.882184      -268.9079
   4   2.0000      -9.880385      -268.8590
   5   2.0000      -9.869702      -268.5682
   6   2.0000      -0.917132       -24.9564
   7   2.0000      -0.712027       -19.3752
   8   2.0000      -0.676729       -18.4147
   9   2.0000      -0.604516       -16.4497
  10   2.0000      -0.547822       -14.9070
  11   2.0000      -0.518202       -14.1010
  12   2.0000      -0.428708       -11.6657
  13   2.0000      -0.421183       -11.4610
  14   2.0000      -0.403215       -10.9720
  15   2.0000      -0.392569       -10.6823
  16   2.0000      -0.367856       -10.0099
  17   2.0000      -0.340778        -9.2730
  18   2.0000      -0.321856        -8.7581
  19   2.0000      -0.318538        -8.6679
  20   2.0000      -0.309927        -8.4335
  21   2.0000      -0.297648        -8.0994
  22   2.0000      -0.286902        -7.8070
  23   2.0000      -0.261206        -7.1078
  24   2.0000      -0.211365        -5.7515
  25   0.0000       0.021881         0.5954
  26   0.0000       0.049976         1.3599
  27   0.0000       0.065410         1.7799
  28   0.0000       0.071445         1.9441
  29   0.0000       0.092354         2.5131

MULLIKEN ATOMIC CHARGES
-----------------------
   0 C :   -0.312942
   1 C :   -0.133222
   2 C :    0.025633
   3 C :   -0.195491
   4 C :   -0.252187
   5 O :   -0.430027
   6 H :    0.110345
   7 H :    0.112834
   8 H :    0.087023
   9 H :    0.080176
  10 H :    0.089978
  11 H :    0.065833
  12 H :    0.078030
  13 H :    0.082923
  14 H :    0.103034
  15 H :    0.099678
  16 H :    0.095637
  17 H :    0.292743
Sum of atomic charges:   -0.0000000

LOEWDIN ATOMIC CHARGES
----------------------
   0 C :   -0.347752
   1 C :   -0.246612
   2 C :   -0.054097
   3 C :   -0.247947
   4 C :   -0.341602
   5 O :   -0.325681
   6 H :    0.124853
   7 H :    0.118718
   8 H :    0.109495
   9 H :    0.118058
  10 H :    0.119435
  11 H :    0.111328
  12 H :    0.111846
  13 H :    0.118266
  14 H :    0.119926
  15 H :    0.117106
  16 H :    0.117200
  17 H :    0.277462

  Mayer bond orders larger than 0.100000
B(  0-C ,  1-C ) :   1.1378 B(  0-C ,  6-H ) :   0.9509 B(  0-C ,  7-H ) :   0.9493
B(  0-C ,  8-H ) :   0.9475 B(  1-C ,  2-C ) :   1.0686 B(  1-C ,  9-H ) :   0.9118
B(  1-C , 10-H ) :   0.9207 B(  2-C ,  3-C ) :   1.0629 B(  2-C ,  5-O ) :   1.0297
B(  2-C , 11-H ) :   0.9049 B(  3-C ,  4-C ) :   1.1542 B(  3-C , 12-H ) :   0.9080
B(  3-C , 13-H ) :   0.9174 B(  4-C , 14-H ) :   0.9453 B(  4-C , 15-H ) :   0.9536
B(  4-C , 16-H ) :   0.9549 B(  5-O , 17-H ) :   0.8483

Dispersion correction           -0.012852980
FINAL SINGLE POINT ENERGY      -272.305318513287

DIPOLE MOMENT
-------------

Method             : SCF
Type of density    : Electron Density
Multiplicity       :   1
Irrep              :   0
Energy             :  -272.3753753354906166 Eh
Relativity type    :
Basis              : AO
                                X                 Y                 Z
Electronic contribution:     -0.122989914      -3.282447031       0.962093796
Nuclear contribution   :     -0.096738596       3.755937605      -1.271837514
                        -----------------------------------------
Total Dipole Moment    :     -0.219728511       0.473490574      -0.309743717
                        -----------------------------------------
Magnitude (a.u.)       :      0.606972085
Magnitude (Debye)      :      1.542800433

Rotational constants in cm-1:             0.184766             0.072711             0.062492
Rotational constants in MHz :          5539.134972          2179.833849          1873.458777

                             ****ORCA TERMINATED NORMALLY****
TOTAL RUN TIME: 0 days 0 hours 0 minutes 8 seconds 243 msec
