                         Program Version 6.0.0  -   RELEASE  -
|  1> ! r2scan-3c def2/J RI DEFGRID2 scfconv6 printgap
|  2> %output
|  3>     printlevel normal
|  4> end
|  5> * xyz 0 1
|  6> C -3.0705913693 0.7913406199 0.0575684093
|  7> C -1.5837204318 0.6848101617 0.3732026216
|  8> C -0.9247642339 -0.419591621 -0.4556582581
|  9> C 0.5454632693 -0.5868549524 -0.1743550977
| 10> O 1.1144105968 -1.6602332765 -0.1445523177
| 11> O 1.1564885988 0.5725799376 0.024791657
| 12> C 2.5619058311 0.5797265522 0.2913720393
| 13> H -3.2221367742 1.0298489174 -0.9920877645
| 14> H -3.5746633709 -0.1476035075 0.2730270173
| 15> H -3.5277969271 1.5727761273 0.6581396366
| 16> H -1.4496490995 0.4656850112 1.4340691006
| 17> H -1.0910791785 1.6342107403 0.162406645
| 18> H -1.0217759038 -0.1833696277 -1.5184258918
| 19> H -1.4068794349 -1.382393763 -0.2808748706
| 20> H 2.7220773764 1.2598807421 1.1244256099
| 21> H 3.0804053682 0.9379992426 -0.5971036193
| 22> H 2.8982321447 -0.4275458721 0.5396076996
| 23> *
| 24>
| 25>                          ****END OF INPUT****

CARTESIAN COORDINATES (ANGSTROEM)
---------------------------------
  C     -3.070591    0.791341    0.057568
  C     -1.583720    0.684810    0.373203
  C     -0.924764   -0.419592   -0.455658
  C      0.545463   -0.586855   -0.174355
  O      1.114411   -1.660233   -0.144552
  O      1.156489    0.572580    0.024792
  C      2.561906    0.579727    0.291372
  H     -3.222137    1.029849   -0.992088
  H     -3.574663   -0.147604    0.273027
  H     -3.527797    1.572776    0.658140
  H     -1.449649    0.465685    1.434069
  H     -1.091079    1.634211    0.162407
  H     -1.021776   -0.183370   -1.518426
  H     -1.406879   -1.382394   -0.280875
  H      2.722077    1.259881    1.124426
  H      3.080405    0.937999   -0.597104
  H      2.898232   -0.427546    0.539608

 Total Charge           Charge          ....    0
 Multiplicity           Mult            ....    1
 Number of Electrons    NEL             ....   56
 Basis Dimension        Dim             ....  193

ORBITAL ENERGIES
----------------

  NO   OCC          E(Eh)            E(eV)
   0   2.0000     -19.000145      -517.0202
   1   2.0000     -18.926932      -515.0280
   2   2.0000     -10.153272      -276.2846
   3   2.0000     -10.086002      -274.4541
   4   2.0000     -10.043029      -273.2847
   5   2.0000     -10.035158      -273.0705
   6   2.0000     -10.022704      -272.7316
   7   2.0000      -1.073601       -29.2142
   8   2.0000      -0.974911       -26.5287
   9   2.0000      -0.774013       -21.0620
  10   2.0000      -0.711598       -19.3636
  11   2.0000      -0.662545       -18.0288
  12   2.0000      -0.572345       -15.5743
  13   2.0000      -0.535868       -14.5817
  14   2.0000      -0.470575       -12.8050
  15   2.0000      -0.461373       -12.5546
  16   2.0000      -0.443411       -12.0658
  17   2.0000      -0.427852       -11.6424
  18   2.0000      -0.397040       -10.8040
  19   2.0000      -0.388379       -10.5683
  20   2.0000      -0.369134       -10.0446
  21   2.0000      -0.349305        -9.5051
  22   2.0000      -0.335736        -9.1359
  23   2.0000      -0.322929        -8.7873
  24   2.0000      -0.313309        -8.5256
  25   2.0000      -0.304171        -8.2769
  26   2.0000      -0.272435        -7.4133
  27   2.0000      -0.233663        -6.3583
  28   0.0000      -0.013573        -0.3693
  29   0.0000       0.065162         1.7732
  30   0.0000       0.097259         2.6466
  31   0.0000       0.103681         2.8213
  32   0.0000       0.124724         3.3939

MULLIKEN ATOMIC CHARGES
-----------------------
   0 C :   -0.466879
   1 C :   -0.233425
   2 C :   -0.337114
   3 C :    0.391376
   4 O :   -0.431198
   5 O :   -0.179631
   6 C :   -0.298920
   7 H :    0.142120
   8 H :    0.143764
   9 H :    0.149134
  10 H :    0.141933
  11 H :    0.156828
  12 H :    0.168009
  13 H :    0.168826
  14 H :    0.147874
  15 H :    0.149065
  16 H :    0.188239
Sum of atomic charges:    0.0000000

LOEWDIN ATOMIC CHARGES
----------------------
   0 C :   -0.421218
   1 C :   -0.294737
   2 C :   -0.227758
   3 C :    0.359411
   4 O :   -0.438618
   5 O :   -0.609274
   6 C :   -0.044234
   7 H :    0.150447
   8 H :    0.150933
   9 H :    0.152451
  10 H :    0.156484
  11 H :    0.165479
  12 H :    0.181446
  13 H :    0.179628
  14 H :    0.174116
  15 H :    0.172639
  16 H :    0.192803

  Mayer bond orders larger than 0.100000
B(  0-C ,  1-C ) :   0.8873 B(  0-C ,  7-H ) :   0.9854 B(  0-C ,  8-H ) :   0.9797
B(  0-C ,  9-H ) :   0.9732 B(  1-C ,  2-C ) :   0.9119 B(  1-C , 10-H ) :   0.9637
B(  1-C , 11-H ) :   0.9651 B(  2-C ,  3-C ) :   1.0218 B(  2-C , 12-H ) :   0.9387
B(  2-C , 13-H ) :   0.9841 B(  3-C ,  4-O ) :   1.8591 B(  3-C ,  5-O ) :   1.0499
B(  5-O ,  6-C ) :   0.8389 B(  6-C , 14-H ) :   0.9680 B(  6-C , 15-H ) :   0.9618
B(  6-C , 16-H ) :   0.9684

Dispersion correction           -0.003958635
FINAL SINGLE POINT ENERGY      -346.929214221332

DIPOLE MOMENT
-------------

Method             : SCF
Type of density    : Electron Density
Multiplicity       :   1
Irrep              :   0
Energy             :  -346.9360573348471917 Eh
Relativity type    :
Basis              : AO
                                X                 Y                 Z
Electronic contribution:      6.025273502      -3.575419876      -0.686888284
Nuclear contribution   :     -6.151917016       4.449069829       0.751744885
                        -----------------------------------------
Total Dipole Moment    :     -0.126643514       0.873649953       0.064856601
                        -----------------------------------------
Magnitude (a.u.)       :      0.885160550
Magnitude (Debye)      :      2.249899315

Rotational constants in cm-1:             0.187613             0.046435             0.038948
Rotational constants in MHz :          5624.486144          1392.088992          1167.633438

                             ****ORCA TERMINATED NORMALLY****
TOTAL RUN TIME: 0 days 0 hours 0 minutes 22 seconds 707 msec
