                         Program Version 6.0.0  -   RELEASE  -
|  1> ! r2scan-3c def2/J RI DEFGRID2 scfconv6 printgap
|  2> %output
|  3>     printlevel normal
|  4> end
|  5> %cpcm
|  6>     smd true
|  7>     smdsolvent "water"
|  8> end
|  9> * xyz 0 1
| 10> C -3.0705913693 0.7913406199 0.0575684093
| 11> C -1.5837204318 0.6848101617 0.3732026216
| 12> C -0.9247642339 -0.419591621 -0.4556582581
| 13> C 0.5454632693 -0.5868549524 -0.1743550977
| 14> O 1.1144105968 -1.6602332765 -0.1445523177
| 15> O 1.1564885988 0.5725799376 0.024791657
| 16> C 2.5619058311 0.5797265522 0.2913720393
| 17> H -3.2221367742 1.0298489174 -0.9920877645
| 18> H -3.5746633709 -0.1476035075 0.2730270173
| 19> H -3.5277969271 1.5727761273 0.6581396366
| 20> H -1.4496490995 0.4656850112 1.4340691006
| 21> H -1.0910791785 1.6342107403 0.162406645
| 22> H -1.0217759038 -0.1833696277 -1.5184258918
| 23> H -1.4068794349 -1.382393763 -0.2808748706
| 24> H 2.7220773764 1.2598807421 1.1244256099
| 25> H 3.0804053682 0.9379992426 -0.5971036193
| 26> H 2.8982321447 -0.4275458721 0.5396076996
| 27> *
| 28>
| 29>                          ****END OF INPUT****

CARTESIAN COORDINATES (ANGSTROEM)
---------------------------------
  C     -3.070591    0.791341    0.057568
  C     -1.583720    0.684810    0.373203
  C     -0.924764   -0.419592   -0.455658
  C      0.545463   -0.586855   -0.174355
  O      1.114411   -1.660233   -0.144552
  O      1.156489    0.572580    0.024792
  C      2.561906    0.579727    0.291372
  H     -3.222137    1.029849   -0.992088
  H     -3.574663   -0.147604    0.273027
  H     -3.527797    1.572776    0.658140
  H     -1.449649    0.465685    1.434069
  H     -1.091079    1.634211    0.162407
  H     -1.021776   -0.183370   -1.518426
  H     -1.406879   -1.382394   -0.280875
  H      2.722077    1.259881    1.124426
  H      3.080405    0.937999   -0.597104
  H      2.898232   -0.427546    0.539608

 Total Charge           Charge          ....    0
 Multiplicity           Mult            ....    1
 Number of Electrons    NEL             ....   56
 Basis Dimension        Dim             ....  193

ORBITAL ENERGIES
----------------

  NO   OCC          E(Eh)            E(eV)
   0   2.0000     -19.004534      -517.1397
   1   2.0000     -18.942018      -515.4385
   2   2.0000     -10.162888      -276.5462
   3   2.0000     -10.075422      -274.1662
   4   2.0000     -10.035931      -273.0916
   5   2.0000     -10.025723      -272.8138
   6   2.0000     -10.010754      -272.4065
   7   2.0000      -1.079497       -29.3746
   8   2.0000      -0.988053       -26.8863
   9   2.0000      -0.766861       -20.8673
  10   2.0000      -0.705226       -19.1902
  11   2.0000      -0.654570       -17.8117
  12   2.0000      -0.564139       -15.3510
  13   2.0000      -0.532687       -14.4952
  14   2.0000      -0.469051       -12.7635
  15   2.0000      -0.460251       -12.5241
  16   2.0000      -0.450350       -12.2547
  17   2.0000      -0.424864       -11.5611
  18   2.0000      -0.392833       -10.6895
  19   2.0000      -0.382222       -10.4008
  20   2.0000      -0.361456        -9.8357
  21   2.0000      -0.344960        -9.3868
  22   2.0000      -0.330292        -8.9877
  23   2.0000      -0.321030        -8.7357
  24   2.0000      -0.306280        -8.3343
  25   2.0000      -0.295457        -8.0398
  26   2.0000      -0.279238        -7.5985
  27   2.0000      -0.248503        -6.7621
  28   0.0000      -0.020709        -0.5635
  29   0.0000       0.071450         1.9442
  30   0.0000       0.104295         2.8380
  31   0.0000       0.115467         3.1420
  32   0.0000       0.134971         3.6728

MULLIKEN ATOMIC CHARGES
-----------------------
   0 C :   -0.514862
   1 C :   -0.232916
   2 C :   -0.355126
   3 C :    0.432958
   4 O :   -0.519745
   5 O :   -0.195364
   6 C :   -0.315422
   7 H :    0.156790
   8 H :    0.156691
   9 H :    0.159925
  10 H :    0.156720
  11 H :    0.157972
  12 H :    0.199555
  13 H :    0.177351
  14 H :    0.174928
  15 H :    0.177055
  16 H :    0.183491
Sum of atomic charges:    0.0000000

LOEWDIN ATOMIC CHARGES
----------------------
   0 C :   -0.427197
   1 C :   -0.292920
   2 C :   -0.226406
   3 C :    0.369632
   4 O :   -0.502287
   5 O :   -0.609666
   6 C :   -0.039164
   7 H :    0.154417
   8 H :    0.154386
   9 H :    0.155273
  10 H :    0.160324
  11 H :    0.165422
  12 H :    0.193995
  13 H :    0.183427
  14 H :    0.185861
  15 H :    0.183564
  16 H :    0.191339

  Mayer bond orders larger than 0.100000
B(  0-C ,  1-C ) :   0.8810 B(  0-C ,  7-H ) :   0.9830 B(  0-C ,  8-H ) :   0.9777
B(  0-C ,  9-H ) :   0.9700 B(  1-C ,  2-C ) :   0.9020 B(  1-C , 10-H ) :   0.9642
B(  1-C , 11-H ) :   0.9634 B(  2-C ,  3-C ) :   1.0205 B(  2-C , 12-H ) :   0.9225
B(  2-C , 13-H ) :   0.9831 B(  3-C ,  4-O ) :   1.7911 B(  3-C ,  5-O ) :   1.0802
B(  5-O ,  6-C ) :   0.8253 B(  6-C , 14-H ) :   0.9583 B(  6-C , 15-H ) :   0.9531
B(  6-C , 16-H ) :   0.9649

Dispersion correction           -0.003958635
FINAL SINGLE POINT ENERGY      -346.933806281980

DIPOLE MOMENT
-------------

Method             : SCF
Type of density    : Electron Density
Multiplicity       :   1
Irrep              :   0
Energy             :  -346.9406493954953135 Eh
Relativity type    :
Basis              : AO
                                X                 Y                 Z
Electronic contribution:      5.950242240      -3.246223889      -0.693234284
Nuclear contribution   :     -6.151917016       4.449069829       0.751744885
                        -----------------------------------------
Total Dipole Moment    :     -0.201674776       1.202845940       0.058510601
                        -----------------------------------------
Magnitude (a.u.)       :      1.221038313
Magnitude (Debye)      :      3.103632741

Rotational constants in cm-1:             0.187613             0.046435             0.038948
Rotational constants in MHz :          5624.486144          1392.088992          1167.633438

                             ****ORCA TERMINATED NORMALLY****
TOTAL RUN TIME: 0 days 0 hours 0 minutes 32 seconds 465 msec
