                         Program Version 6.0.0  -   RELEASE  -
|  1> ! wb97x-v def2-tzvp def2/J RIJCOSX DEFGRID2 scfconv7 GCP(DFT/TZ) printgap
|  2> %output
|  3>     printlevel normal
|  4> end
|  5> * xyz 0 1
|  6> C 2.841263588182964 -0.42769890406453337 0.14039512899639525
|  7> C 1.4244430636319376 -0.29571269505973746 -0.41117697092319216
|  8> C 0.623622384468706 0.781481391450841 0.3156824022576931
|  9> C -0.7868860694065027 0.9881332032425995 -0.21931011100189646
| 10> S -1.9243191434698679 -0.452641455731596 0.03633847643022516
| 11> H 3.4084920138576624 -1.196558188069661 -0.3937109341461891
| 12> H 2.823718983114864 -0.7008588108847503 1.2015824868577194
| 13> H 3.3885838995433217 0.5172099782036916 0.04888943108895583
| 14> H 0.90326931932928 -1.2563883220617431 -0.32683257123503906
| 15> H 1.462411507864388 -0.05112871091978042 -1.4809381790431748
| 16> H 1.1491502346289446 1.742568184997513 0.22196914711402757
| 17> H 0.5792607988837843 0.5547903102383058 1.389179845983859
| 18> H -1.2537983397010273 1.8675556366960586 0.23170605527310917
| 19> H -0.7718987615870648 1.1408757682521034 -1.303984230812483
| 20> H -1.914328623321846 -0.4071116083077821 1.382625453920242
| 21> *
| 22>
| 23>                          ****END OF INPUT****

CARTESIAN COORDINATES (ANGSTROEM)
---------------------------------
  C      2.841264   -0.427699    0.140395
  C      1.424443   -0.295713   -0.411177
  C      0.623622    0.781481    0.315682
  C     -0.786886    0.988133   -0.219310
  S     -1.924319   -0.452641    0.036338
  H      3.408492   -1.196558   -0.393711
  H      2.823719   -0.700859    1.201582
  H      3.388584    0.517210    0.048889
  H      0.903269   -1.256388   -0.326833
  H      1.462412   -0.051129   -1.480938
  H      1.149150    1.742568    0.221969
  H      0.579261    0.554790    1.389180
  H     -1.253798    1.867556    0.231706
  H     -0.771899    1.140876   -1.303984
  H     -1.914329   -0.407112    1.382625

 Total Charge           Charge          ....    0
 Multiplicity           Mult            ....    1
 Number of Electrons    NEL             ....   50
 Basis Dimension        Dim             ....  221

ORBITAL ENERGIES
----------------

  NO   OCC          E(Eh)            E(eV)
   0   2.0000     -94.118481     -2561.0941
   1   2.0000     -12.081318      -328.7494
   2   2.0000     -12.050201      -327.9026
   3   2.0000     -12.041230      -327.6585
   4   2.0000     -12.035123      -327.4923
   5   2.0000      -9.629751      -262.0388
   6   2.0000      -7.607437      -207.0089
   7   2.0000      -7.606242      -206.9764
   8   2.0000      -7.605712      -206.9620
   9   2.0000      -1.318309       -35.8730
  10   2.0000      -1.259926       -34.2843
  11   2.0000      -1.190709       -32.4008
  12   2.0000      -1.108565       -30.1656
  13   2.0000      -1.046444       -28.4752
  14   2.0000      -0.896203       -24.3869
  15   2.0000      -0.884951       -24.0807
  16   2.0000      -0.877256       -23.8714
  17   2.0000      -0.836661       -22.7667
  18   2.0000      -0.830220       -22.5914
  19   2.0000      -0.802342       -21.8328
  20   2.0000      -0.789493       -21.4832
  21   2.0000      -0.773315       -21.0430
  22   2.0000      -0.753654       -20.5080
  23   2.0000      -0.738435       -20.0938
  24   2.0000      -0.644449       -17.5363
  25   0.0000      -0.197940        -5.3862
  26   0.0000      -0.105415        -2.8685
  27   0.0000      -0.036432        -0.9914
  28   0.0000      -0.025833        -0.7029
  29   0.0000      -0.008141        -0.2215

MULLIKEN ATOMIC CHARGES
-----------------------
   0 C :   -0.330185
   1 C :   -0.164018
   2 C :   -0.185052
   3 C :   -0.173871
   4 S :   -0.224809
   5 H :    0.115826
   6 H :    0.104780
   7 H :    0.101781
   8 H :    0.108027
   9 H :    0.083081
  10 H :    0.092797
  11 H :    0.091672
  12 H :    0.133574
  13 H :    0.116879
  14 H :    0.129517
Sum of atomic charges:   -0.0000000

LOEWDIN ATOMIC CHARGES
----------------------
   0 C :   -0.308265
   1 C :   -0.296259
   2 C :   -0.301036
   3 C :   -0.466121
   4 S :    0.216121
   5 H :    0.116441
   6 H :    0.116183
   7 H :    0.114864
   8 H :    0.131525
   9 H :    0.130141
  10 H :    0.136615
  11 H :    0.131794
  12 H :    0.120666
  13 H :    0.126716
  14 H :    0.030616

  Mayer bond orders larger than 0.100000
B(  0-C ,  1-C ) :   0.9835 B(  0-C ,  5-H ) :   0.9846 B(  0-C ,  6-H ) :   0.9811
B(  0-C ,  7-H ) :   0.9802 B(  1-C ,  2-C ) :   0.9814 B(  1-C ,  8-H ) :   0.9698
B(  1-C ,  9-H ) :   0.9706 B(  2-C ,  3-C ) :   0.9692 B(  2-C , 10-H ) :   0.9605
B(  2-C , 11-H ) :   0.9736 B(  3-C ,  4-S ) :   1.0215 B(  3-C , 12-H ) :   0.9749
B(  3-C , 13-H ) :   0.9636 B(  4-S , 14-H ) :   0.9721

FINAL SINGLE POINT ENERGY      -556.595726419273

DIPOLE MOMENT
-------------

Method             : SCF
Type of density    : Electron Density
Multiplicity       :   1
Irrep              :   0
Energy             :  -556.6061645766734500 Eh
Relativity type    :
Basis              : AO
                                X                 Y                 Z
Electronic contribution:     -9.061989013      -1.617897440      -0.698734011
Nuclear contribution   :      9.492384366       2.058029626       0.904413114
                        -----------------------------------------
Total Dipole Moment    :      0.430395354       0.440132186       0.205679104
                        -----------------------------------------
Magnitude (a.u.)       :      0.649045758
Magnitude (Debye)      :      1.649743209

Rotational constants in cm-1:             0.307934             0.054796             0.050323
Rotational constants in MHz :          9231.624485          1642.746330          1508.648820

                             ****ORCA TERMINATED NORMALLY****
TOTAL RUN TIME: 0 days 0 hours 1 minutes 9 seconds 106 msec
