                         Program Version 6.0.0  -   RELEASE  -
|  1> ! wb97x-v def2-tzvp def2/J RIJCOSX DEFGRID2 scfconv7 GCP(DFT/TZ) printgap
|  2> %output
|  3>     printlevel normal
|  4> end
|  5> %cpcm
|  6>     smd true
|  7>     smdsolvent "water"
|  8> end
|  9> * xyz 0 1
| 10> C 2.841263588182964 -0.42769890406453337 0.14039512899639525
| 11> C 1.4244430636319376 -0.29571269505973746 -0.41117697092319216
| 12> C 0.623622384468706 0.781481391450841 0.3156824022576931
| 13> C -0.7868860694065027 0.9881332032425995 -0.21931011100189646
| 14> S -1.9243191434698679 -0.452641455731596 0.03633847643022516
| 15> H 3.4084920138576624 -1.196558188069661 -0.3937109341461891
| 16> H 2.823718983114864 -0.7008588108847503 1.2015824868577194
| 17> H 3.3885838995433217 0.5172099782036916 0.04888943108895583
| 18> H 0.90326931932928 -1.2563883220617431 -0.32683257123503906
| 19> H 1.462411507864388 -0.05112871091978042 -1.4809381790431748
| 20> H 1.1491502346289446 1.742568184997513 0.22196914711402757
| 21> H 0.5792607988837843 0.5547903102383058 1.389179845983859
| 22> H -1.2537983397010273 1.8675556366960586 0.23170605527310917
| 23> H -0.7718987615870648 1.1408757682521034 -1.303984230812483
| 24> H -1.914328623321846 -0.4071116083077821 1.382625453920242
| 25> *
| 26>
| 27>                          ****END OF INPUT****

CARTESIAN COORDINATES (ANGSTROEM)
---------------------------------
  C      2.841264   -0.427699    0.140395
  C      1.424443   -0.295713   -0.411177
  C      0.623622    0.781481    0.315682
  C     -0.786886    0.988133   -0.219310
  S     -1.924319   -0.452641    0.036338
  H      3.408492   -1.196558   -0.393711
  H      2.823719   -0.700859    1.201582
  H      3.388584    0.517210    0.048889
  H      0.903269   -1.256388   -0.326833
  H      1.462412   -0.051129   -1.480938
  H      1.149150    1.742568    0.221969
  H      0.579261    0.554790    1.389180
  H     -1.253798    1.867556    0.231706
  H     -0.771899    1.140876   -1.303984
  H     -1.914329   -0.407112    1.382625

 Total Charge           Charge          ....    0
 Multiplicity           Mult            ....    1
 Number of Electrons    NEL             ....   50
 Basis Dimension        Dim             ....  221

ORBITAL ENERGIES
----------------

  NO   OCC          E(Eh)            E(eV)
   0   2.0000     -94.115235     -2561.0057
   1   2.0000     -12.069722      -328.4338
   2   2.0000     -12.036579      -327.5320
   3   2.0000     -12.031035      -327.3811
   4   2.0000     -12.024680      -327.2082
   5   2.0000      -9.626657      -261.9547
   6   2.0000      -7.604369      -206.9254
   7   2.0000      -7.603178      -206.8930
   8   2.0000      -7.602869      -206.8846
   9   2.0000      -1.307313       -35.5738
  10   2.0000      -1.251603       -34.0578
  11   2.0000      -1.182361       -32.1737
  12   2.0000      -1.098710       -29.8974
  13   2.0000      -1.035175       -28.1685
  14   2.0000      -0.884465       -24.0675
  15   2.0000      -0.873846       -23.7786
  16   2.0000      -0.866270       -23.5724
  17   2.0000      -0.826563       -22.4919
  18   2.0000      -0.820438       -22.3253
  19   2.0000      -0.791864       -21.5477
  20   2.0000      -0.778993       -21.1975
  21   2.0000      -0.764062       -20.7912
  22   2.0000      -0.743540       -20.2328
  23   2.0000      -0.730521       -19.8785
  24   2.0000      -0.642261       -17.4768
  25   0.0000      -0.192050        -5.2260
  26   0.0000      -0.096387        -2.6228
  27   0.0000      -0.025674        -0.6986
  28   0.0000      -0.012886        -0.3506
  29   0.0000       0.004693         0.1277

MULLIKEN ATOMIC CHARGES
-----------------------
   0 C :   -0.381100
   1 C :   -0.176786
   2 C :   -0.200292
   3 C :   -0.183200
   4 S :   -0.303523
   5 H :    0.128463
   6 H :    0.119410
   7 H :    0.119002
   8 H :    0.095891
   9 H :    0.100177
  10 H :    0.111195
  11 H :    0.110230
  12 H :    0.153952
  13 H :    0.142453
  14 H :    0.164128
Sum of atomic charges:   -0.0000000

LOEWDIN ATOMIC CHARGES
----------------------
   0 C :   -0.315284
   1 C :   -0.299317
   2 C :   -0.299001
   3 C :   -0.460395
   4 S :    0.179772
   5 H :    0.117527
   6 H :    0.118292
   7 H :    0.117874
   8 H :    0.126781
   9 H :    0.133288
  10 H :    0.142113
  11 H :    0.135865
  12 H :    0.126659
  13 H :    0.132813
  14 H :    0.043013

  Mayer bond orders larger than 0.100000
B(  0-C ,  1-C ) :   0.9810 B(  0-C ,  5-H ) :   0.9816 B(  0-C ,  6-H ) :   0.9786
B(  0-C ,  7-H ) :   0.9790 B(  1-C ,  2-C ) :   0.9804 B(  1-C ,  8-H ) :   0.9696
B(  1-C ,  9-H ) :   0.9704 B(  2-C ,  3-C ) :   0.9723 B(  2-C , 10-H ) :   0.9578
B(  2-C , 11-H ) :   0.9723 B(  3-C ,  4-S ) :   0.9996 B(  3-C , 12-H ) :   0.9704
B(  3-C , 13-H ) :   0.9585 B(  4-S , 14-H ) :   0.9670

FINAL SINGLE POINT ENERGY      -556.597093473876

DIPOLE MOMENT
-------------

Method             : SCF
Type of density    : Electron Density
Multiplicity       :   1
Irrep              :   0
Energy             :  -556.6075316312760606 Eh
Relativity type    :
Basis              : AO
                                X                 Y                 Z
Electronic contribution:     -8.931004507      -1.397990689      -0.625386687
Nuclear contribution   :      9.492384366       2.058029626       0.904413114
                        -----------------------------------------
Total Dipole Moment    :      0.561379859       0.660038937       0.279026427
                        -----------------------------------------
Magnitude (a.u.)       :      0.910304614
Magnitude (Debye)      :      2.313810448

Rotational constants in cm-1:             0.307934             0.054796             0.050323
Rotational constants in MHz :          9231.624485          1642.746330          1508.648820

                             ****ORCA TERMINATED NORMALLY****
TOTAL RUN TIME: 0 days 0 hours 1 minutes 12 seconds 109 msec
