                         Program Version 6.0.0  -   RELEASE  -
|  1> ! pbe def2-sv(p) def2/J RI DEFGRID1 loosescf d4 GCP(DFT/SV(P)) printgap
|  2> %output
|  3>     printlevel normal
|  4> end
|  5> * xyz 0 1
|  6> C -1.820535055 1.1666733701 0.6586411276
|  7> C -1.443091702 0.0339435687 -0.2878583298
|  8> C -0.0410711711 -0.5224999727 -0.0034904009
|  9> C 1.0765780966 0.4617240077 -0.38915224
| 10> C 2.0348755385 0.7536410771 0.7587580475
| 11> O 0.1930116588 -1.7179429472 -0.7367945456
| 12> H -1.1311284759 2.0012950472 0.5641453208
| 13> H -2.8226728776 1.5227294697 0.435055733
| 14> H -1.7988409476 0.8204494404 1.6895658942
| 15> H -2.1696286389 -0.77545692 -0.1781251768
| 16> H -1.4816287206 0.3752523803 -1.3243404356
| 17> H 0.0304534309 -0.7485649994 1.0727298325
| 18> H 1.6244415019 0.0101410966 -1.2182983138
| 19> H 0.6423845951 1.3948652373 -0.7483383743
| 20> H 2.8177253015 1.4327497872 0.4305803416
| 21> H 1.5052596377 1.2128629826 1.5904358415
| 22> H 2.5001896702 -0.1649814597 1.1081986013
| 23> H -0.4775560941 -2.3750780722 -0.5072464114
| 24> *
| 25>
| 26>                          ****END OF INPUT****

CARTESIAN COORDINATES (ANGSTROEM)
---------------------------------
  C     -1.820535    1.166673    0.658641
  C     -1.443092    0.033944   -0.287858
  C     -0.041071   -0.522500   -0.003490
  C      1.076578    0.461724   -0.389152
  C      2.034876    0.753641    0.758758
  O      0.193012   -1.717943   -0.736795
  H     -1.131128    2.001295    0.564145
  H     -2.822673    1.522729    0.435056
  H     -1.798841    0.820449    1.689566
  H     -2.169629   -0.775457   -0.178125
  H     -1.481629    0.375252   -1.324340
  H      0.030453   -0.748565    1.072730
  H      1.624442    0.010141   -1.218298
  H      0.642385    1.394865   -0.748338
  H      2.817725    1.432750    0.430580
  H      1.505260    1.212863    1.590436
  H      2.500190   -0.164981    1.108199
  H     -0.477556   -2.375078   -0.507246

 Total Charge           Charge          ....    0
 Multiplicity           Mult            ....    1
 Number of Electrons    NEL             ....   50
 Basis Dimension        Dim             ....  108

ORBITAL ENERGIES
----------------

  NO   OCC          E(Eh)            E(eV)
   0   2.0000     -18.734529      -509.7925
   1   2.0000      -9.931345      -270.2456
   2   2.0000      -9.883022      -268.9307
   3   2.0000      -9.877816      -268.7890
   4   2.0000      -9.877288      -268.7747
   5   2.0000      -9.871371      -268.6137
   6   2.0000      -0.911622       -24.8065
   7   2.0000      -0.714453       -19.4413
   8   2.0000      -0.674503       -18.3542
   9   2.0000      -0.597907       -16.2699
  10   2.0000      -0.546013       -14.8578
  11   2.0000      -0.508246       -13.8301
  12   2.0000      -0.459745       -12.5103
  13   2.0000      -0.415470       -11.3055
  14   2.0000      -0.393251       -10.7009
  15   2.0000      -0.372587       -10.1386
  16   2.0000      -0.362128        -9.8540
  17   2.0000      -0.347240        -9.4489
  18   2.0000      -0.330821        -9.0021
  19   2.0000      -0.308913        -8.4060
  20   2.0000      -0.301005        -8.1908
  21   2.0000      -0.296063        -8.0563
  22   2.0000      -0.287642        -7.8271
  23   2.0000      -0.261308        -7.1105
  24   2.0000      -0.206533        -5.6201
  25   0.0000       0.029482         0.8022
  26   0.0000       0.044684         1.2159
  27   0.0000       0.066742         1.8161
  28   0.0000       0.069577         1.8933
  29   0.0000       0.085244         2.3196

MULLIKEN ATOMIC CHARGES
-----------------------
   0 C :   -0.289917
   1 C :   -0.184644
   2 C :    0.039403
   3 C :   -0.159457
   4 C :   -0.299439
   5 O :   -0.427189
   6 H :    0.108742
   7 H :    0.106894
   8 H :    0.098730
   9 H :    0.066903
  10 H :    0.091054
  11 H :    0.055543
  12 H :    0.099961
  13 H :    0.089866
  14 H :    0.101240
  15 H :    0.101006
  16 H :    0.111019
  17 H :    0.290285
Sum of atomic charges:   -0.0000000

LOEWDIN ATOMIC CHARGES
----------------------
   0 C :   -0.342347
   1 C :   -0.247229
   2 C :   -0.047803
   3 C :   -0.237008
   4 C :   -0.340092
   5 O :   -0.334514
   6 H :    0.118454
   7 H :    0.122288
   8 H :    0.117224
   9 H :    0.107467
  10 H :    0.118116
  11 H :    0.091377
  12 H :    0.128541
  13 H :    0.114700
  14 H :    0.118422
  15 H :    0.114121
  16 H :    0.120566
  17 H :    0.277719

  Mayer bond orders larger than 0.100000
B(  0-C ,  1-C ) :   1.1309 B(  0-C ,  6-H ) :   0.9502 B(  0-C ,  7-H ) :   0.9487
B(  0-C ,  8-H ) :   0.9515 B(  1-C ,  2-C ) :   1.0749 B(  1-C ,  9-H ) :   0.9197
B(  1-C , 10-H ) :   0.9141 B(  2-C ,  3-C ) :   1.0316 B(  2-C ,  5-O ) :   1.0648
B(  2-C , 11-H ) :   0.9262 B(  3-C ,  4-C ) :   1.1533 B(  3-C , 12-H ) :   0.9114
B(  3-C , 13-H ) :   0.9268 B(  4-C , 14-H ) :   0.9516 B(  4-C , 15-H ) :   0.9548
B(  4-C , 16-H ) :   0.9538 B(  5-O , 17-H ) :   0.8523

Dispersion correction           -0.012657918
FINAL SINGLE POINT ENERGY      -272.300879573683

DIPOLE MOMENT
-------------

Method             : SCF
Type of density    : Electron Density
Multiplicity       :   1
Irrep              :   0
Energy             :  -272.3704618216914355 Eh
Relativity type    :
Basis              : AO
                                X                 Y                 Z
Electronic contribution:      0.259755864      -4.367690818      -2.398865612
Nuclear contribution   :     -0.711079658       4.389750651       2.723214864
                        -----------------------------------------
Total Dipole Moment    :     -0.451323794       0.022059833       0.324349253
                        -----------------------------------------
Magnitude (a.u.)       :      0.556221395
Magnitude (Debye)      :      1.413802430

Rotational constants in cm-1:             0.128117             0.090595             0.059440
Rotational constants in MHz :          3840.854392          2715.983065          1781.968964

                             ****ORCA TERMINATED NORMALLY****
TOTAL RUN TIME: 0 days 0 hours 0 minutes 8 seconds 171 msec
