                         Program Version 6.0.0  -   RELEASE  -
|  1> ! pbe def2-sv(p) def2/J RI DEFGRID1 loosescf d4 GCP(DFT/SV(P)) printgap
|  2> %output
|  3>     printlevel normal
|  4> end
|  5> * xyz 0 1
|  6> C -1.4135064918 0.3777405732 1.7149968421
|  7> O -1.5111197089 -0.4651189917 0.5471387185
|  8> C -0.816266135 -0.126596316 -0.5342269657
|  9> C 0.7240956502 -0.028609285 -0.4507638213
| 10> Cl 1.2392871406 1.5026106908 0.2687872971
| 11> Cl 1.3159338099 -1.4109449716 0.4861243642
| 12> F -1.1029011677 -1.0589433192 -1.4837066534
| 13> F -1.2766433666 1.0537116342 -1.0883638715
| 14> H -1.5865946536 1.4195275103 1.4465052057
| 15> H -0.4423624351 0.2572321509 2.1937259421
| 16> H -2.2041592193 0.0153992428 2.3646258985
| 17> H 1.1364681794 -0.0865159672 -1.4613430126
| 18> *
| 19>
| 20>                          ****END OF INPUT****

CARTESIAN COORDINATES (ANGSTROEM)
---------------------------------
  C     -1.413506    0.377741    1.714997
  O     -1.511120   -0.465119    0.547139
  C     -0.816266   -0.126596   -0.534227
  C      0.724096   -0.028609   -0.450764
  Cl     1.239287    1.502611    0.268787
  Cl     1.315934   -1.410945    0.486124
  F     -1.102901   -1.058943   -1.483707
  F     -1.276643    1.053712   -1.088364
  H     -1.586595    1.419528    1.446505
  H     -0.442362    0.257232    2.193726
  H     -2.204159    0.015399    2.364626
  H      1.136468   -0.086516   -1.461343

 Total Charge           Charge          ....    0
 Multiplicity           Mult            ....    1
 Number of Electrons    NEL             ....   82
 Basis Dimension        Dim             ....  128

ORBITAL ENERGIES
----------------

  NO   OCC          E(Eh)            E(eV)
   0   2.0000    -100.658473     -2739.0563
   1   2.0000    -100.656467     -2739.0017
   2   2.0000     -24.277386      -660.6212
   3   2.0000     -24.272132      -660.4783
   4   2.0000     -18.805990      -511.7370
   5   2.0000     -10.110479      -275.1201
   6   2.0000     -10.021153      -272.6894
   7   2.0000      -9.953703      -270.8540
   8   2.0000      -9.194656      -250.1993
   9   2.0000      -9.192484      -250.1402
  10   2.0000      -7.026547      -191.2021
  11   2.0000      -7.024414      -191.1440
  12   2.0000      -7.014155      -190.8649
  13   2.0000      -7.013916      -190.8583
  14   2.0000      -7.012068      -190.8081
  15   2.0000      -7.011672      -190.7973
  16   2.0000      -1.152735       -31.3675
  17   2.0000      -1.077232       -29.3130
  18   2.0000      -0.988449       -26.8971
  19   2.0000      -0.845642       -23.0111
  20   2.0000      -0.765156       -20.8209
  21   2.0000      -0.689054       -18.7501
  22   2.0000      -0.643651       -17.5146
  23   2.0000      -0.558034       -15.1849
  24   2.0000      -0.514991       -14.0136
  25   2.0000      -0.511604       -13.9215
  26   2.0000      -0.496234       -13.5032
  27   2.0000      -0.442076       -12.0295
  28   2.0000      -0.424113       -11.5407
  29   2.0000      -0.415080       -11.2949
  30   2.0000      -0.410176       -11.1615
  31   2.0000      -0.375328       -10.2132
  32   2.0000      -0.358449        -9.7539
  33   2.0000      -0.348862        -9.4930
  34   2.0000      -0.335749        -9.1362
  35   2.0000      -0.324078        -8.8186
  36   2.0000      -0.298148        -8.1130
  37   2.0000      -0.294577        -8.0159
  38   2.0000      -0.277365        -7.5475
  39   2.0000      -0.271857        -7.3976
  40   2.0000      -0.261186        -7.1072
  41   0.0000      -0.031676        -0.8620
  42   0.0000      -0.016152        -0.4395
  43   0.0000       0.038157         1.0383
  44   0.0000       0.058039         1.5793
  45   0.0000       0.069765         1.8984

MULLIKEN ATOMIC CHARGES
-----------------------
   0 C :   -0.124676
   1 O :   -0.237935
   2 C :    0.400868
   3 C :   -0.188830
   4 Cl:   -0.050907
   5 Cl:   -0.043618
   6 F :   -0.148837
   7 F :   -0.173572
   8 H :    0.125901
   9 H :    0.121541
  10 H :    0.133677
  11 H :    0.186389
Sum of atomic charges:    0.0000000

LOEWDIN ATOMIC CHARGES
----------------------
   0 C :   -0.204054
   1 O :   -0.096426
   2 C :    0.064351
   3 C :   -0.322446
   4 Cl:    0.106968
   5 Cl:    0.104265
   6 F :   -0.058330
   7 F :   -0.091516
   8 H :    0.116272
   9 H :    0.106755
  10 H :    0.127845
  11 H :    0.146315

  Mayer bond orders larger than 0.100000
B(  0-C ,  1-O ) :   0.9327 B(  0-C ,  8-H ) :   0.9404 B(  0-C ,  9-H ) :   0.9407
B(  0-C , 10-H ) :   0.9595 B(  1-O ,  2-C ) :   1.2415 B(  2-C ,  3-C ) :   0.8709
B(  2-C ,  6-F ) :   1.1372 B(  2-C ,  7-F ) :   1.1167 B(  3-C ,  4-Cl) :   1.0577
B(  3-C ,  5-Cl) :   1.0733 B(  3-C , 11-H ) :   0.8873

Dispersion correction           -0.013007626
FINAL SINGLE POINT ENERGY     -1310.583811960216

DIPOLE MOMENT
-------------

Method             : SCF
Type of density    : Electron Density
Multiplicity       :   1
Irrep              :   0
Energy             : -1310.6386320885699206 Eh
Relativity type    :
Basis              : AO
                                X                 Y                 Z
Electronic contribution:      4.367819930      -1.094252265      -5.129831143
Nuclear contribution   :     -4.152453480       1.381312109       5.640577859
                        -----------------------------------------
Total Dipole Moment    :      0.215366449       0.287059844       0.510746716
                        -----------------------------------------
Magnitude (a.u.)       :      0.624218127
Magnitude (Debye)      :      1.586636386

Rotational constants in cm-1:             0.052072             0.043294             0.036077
Rotational constants in MHz :          1561.081557          1297.933757          1081.574637

                             ****ORCA TERMINATED NORMALLY****
TOTAL RUN TIME: 0 days 0 hours 0 minutes 7 seconds 220 msec
