                         Program Version 6.0.0  -   RELEASE  -
|  1> ! pbe def2-sv(p) def2/J RI DEFGRID1 loosescf d4 GCP(DFT/SV(P)) printgap
|  2> %output
|  3>     printlevel normal
|  4> end
|  5> * xyz 0 1
|  6> C -3.0138481571 0.2724557241 -0.2057313396
|  7> C -1.5657683928 0.1982466187 -0.6787959731
|  8> C -0.6149670615 0.0171406488 0.5019576042
|  9> C 0.8808592284 -0.0912570674 0.146446913
| 10> C 1.38316387 1.1584328964 -0.57830332
| 11> C 1.1690911867 -1.3417584231 -0.6916349627
| 12> O 1.6297883686 -0.1489787873 1.3630697825
| 13> H -3.1496693345 1.1088307911 0.4762092678
| 14> H -3.2942922982 -0.6411133646 0.3138166607
| 15> H -3.6840540207 0.4060956607 -1.0512102882
| 16> H -1.4598365609 -0.6381290085 -1.3708932854
| 17> H -1.319534089 1.1153145751 -1.214720385
| 18> H -0.7296953737 0.8617663642 1.1865594898
| 19> H -0.9032392045 -0.8871123736 1.0464326409
| 20> H 1.1293832088 2.0458775046 -0.0048889433
| 21> H 0.9502381982 1.2299997229 -1.5700451997
| 22> H 2.4653177343 1.106185615 -0.6651225233
| 23> H 0.7429857092 -1.243141735 -1.6847292785
| 24> H 0.7513476268 -2.2270683183 -0.2166655032
| 25> H 2.244718299 -1.4711868563 -0.7871039578
| 26> H 1.3762547529 -0.9428236107 1.8525120473
| 27> *
| 28>
| 29>                          ****END OF INPUT****

CARTESIAN COORDINATES (ANGSTROEM)
---------------------------------
  C     -3.013848    0.272456   -0.205731
  C     -1.565768    0.198247   -0.678796
  C     -0.614967    0.017141    0.501958
  C      0.880859   -0.091257    0.146447
  C      1.383164    1.158433   -0.578303
  C      1.169091   -1.341758   -0.691635
  O      1.629788   -0.148979    1.363070
  H     -3.149669    1.108831    0.476209
  H     -3.294292   -0.641113    0.313817
  H     -3.684054    0.406096   -1.051210
  H     -1.459837   -0.638129   -1.370893
  H     -1.319534    1.115315   -1.214720
  H     -0.729695    0.861766    1.186559
  H     -0.903239   -0.887112    1.046433
  H      1.129383    2.045878   -0.004889
  H      0.950238    1.230000   -1.570045
  H      2.465318    1.106186   -0.665123
  H      0.742986   -1.243142   -1.684729
  H      0.751348   -2.227068   -0.216666
  H      2.244718   -1.471187   -0.787104
  H      1.376255   -0.942824    1.852512

 Total Charge           Charge          ....    0
 Multiplicity           Mult            ....    1
 Number of Electrons    NEL             ....   58
 Basis Dimension        Dim             ....  126

ORBITAL ENERGIES
----------------

  NO   OCC          E(Eh)            E(eV)
   0   2.0000     -18.732392      -509.7343
   1   2.0000      -9.943424      -270.5743
   2   2.0000      -9.885770      -269.0055
   3   2.0000      -9.880185      -268.8535
   4   2.0000      -9.874161      -268.6896
   5   2.0000      -9.872290      -268.6387
   6   2.0000      -9.868262      -268.5291
   7   2.0000      -0.911541       -24.8043
   8   2.0000      -0.724086       -19.7034
   9   2.0000      -0.680013       -18.5041
  10   2.0000      -0.616018       -16.7627
  11   2.0000      -0.607247       -16.5240
  12   2.0000      -0.535331       -14.5671
  13   2.0000      -0.498124       -13.5547
  14   2.0000      -0.440351       -11.9826
  15   2.0000      -0.421789       -11.4775
  16   2.0000      -0.401795       -10.9334
  17   2.0000      -0.387412       -10.5420
  18   2.0000      -0.364119        -9.9082
  19   2.0000      -0.351192        -9.5564
  20   2.0000      -0.337792        -9.1918
  21   2.0000      -0.328206        -8.9309
  22   2.0000      -0.321690        -8.7536
  23   2.0000      -0.315685        -8.5902
  24   2.0000      -0.300912        -8.1882
  25   2.0000      -0.288490        -7.8502
  26   2.0000      -0.286169        -7.7871
  27   2.0000      -0.260895        -7.0993
  28   2.0000      -0.206947        -5.6313
  29   0.0000       0.025467         0.6930
  30   0.0000       0.046733         1.2717
  31   0.0000       0.063348         1.7238
  32   0.0000       0.070654         1.9226
  33   0.0000       0.077572         2.1108

MULLIKEN ATOMIC CHARGES
-----------------------
   0 C :   -0.259607
   1 C :   -0.208440
   2 C :   -0.131440
   3 C :   -0.026612
   4 C :   -0.221647
   5 C :   -0.233759
   6 O :   -0.423440
   7 H :    0.098570
   8 H :    0.096477
   9 H :    0.101440
  10 H :    0.089347
  11 H :    0.093369
  12 H :    0.083064
  13 H :    0.058288
  14 H :    0.099328
  15 H :    0.103632
  16 H :    0.102873
  17 H :    0.102424
  18 H :    0.082950
  19 H :    0.104213
  20 H :    0.288970
Sum of atomic charges:    0.0000000

LOEWDIN ATOMIC CHARGES
----------------------
   0 C :   -0.337700
   1 C :   -0.237662
   2 C :   -0.227340
   3 C :   -0.014276
   4 C :   -0.326792
   5 C :   -0.340133
   6 O :   -0.323902
   7 H :    0.117462
   8 H :    0.116089
   9 H :    0.118439
  10 H :    0.114897
  11 H :    0.117271
  12 H :    0.117213
  13 H :    0.106271
  14 H :    0.122057
  15 H :    0.120030
  16 H :    0.124649
  17 H :    0.120935
  18 H :    0.112163
  19 H :    0.122730
  20 H :    0.277601

  Mayer bond orders larger than 0.100000
B(  0-C ,  1-C ) :   1.1517 B(  0-C ,  7-H ) :   0.9547 B(  0-C ,  8-H ) :   0.9548
B(  0-C ,  9-H ) :   0.9524 B(  1-C ,  2-C ) :   1.1155 B(  1-C , 10-H ) :   0.9192
B(  1-C , 11-H ) :   0.9186 B(  2-C ,  3-C ) :   1.0464 B(  2-C , 12-H ) :   0.9098
B(  2-C , 13-H ) :   0.9083 B(  3-C ,  4-C ) :   1.0782 B(  3-C ,  5-C ) :   1.0830
B(  3-C ,  6-O ) :   1.0180 B(  4-C , 14-H ) :   0.9435 B(  4-C , 15-H ) :   0.9399
B(  4-C , 16-H ) :   0.9410 B(  5-C , 17-H ) :   0.9325 B(  5-C , 18-H ) :   0.9416
B(  5-C , 19-H ) :   0.9426 B(  6-O , 20-H ) :   0.8550

Dispersion correction           -0.016540082
FINAL SINGLE POINT ENERGY      -311.521461421703

DIPOLE MOMENT
-------------

Method             : SCF
Type of density    : Electron Density
Multiplicity       :   1
Irrep              :   0
Energy             :  -311.6006526032829811 Eh
Relativity type    :
Basis              : AO
                                X                 Y                 Z
Electronic contribution:      4.169828631      -0.213695286       3.280139335
Nuclear contribution   :     -4.554121482      -0.167801549      -3.441453058
                        -----------------------------------------
Total Dipole Moment    :     -0.384292851      -0.381496835      -0.161313723
                        -----------------------------------------
Magnitude (a.u.)       :      0.565015883
Magnitude (Debye)      :      1.436156241

Rotational constants in cm-1:             0.140279             0.047262             0.046963
Rotational constants in MHz :          4205.461416          1416.885083          1407.926877

                             ****ORCA TERMINATED NORMALLY****
TOTAL RUN TIME: 0 days 0 hours 0 minutes 9 seconds 385 msec
