                         Program Version 6.0.0  -   RELEASE  -
|  1> ! r2scan-3c def2/J RI DEFGRID2 scfconv6 printgap
|  2> %output
|  3>     printlevel normal
|  4> end
|  5> * xyz 0 1
|  6> C 1.8628433569 -1.2431470366 -0.0111267262
|  7> O 0.9422133486 -0.482699983 -0.8059976427
|  8> S 0.0003404655 0.4796159608 -2.41438e-05
|  9> O -0.7425885698 1.2093766286 -0.9790785978
| 10> O 0.7449187747 1.209098578 0.9783061918
| 11> O -0.9351230799 -0.4903095285 0.8016786685
| 12> C -1.872807042 -1.2461754239 0.0166702446
| 13> H 1.3332698788 -2.0649702729 0.4692868562
| 14> H 2.2960518974 -0.5863482414 0.7419676717
| 15> H 2.6196826315 -1.6110871985 -0.6991166342
| 16> H -2.8702523891 -0.8483137201 0.1956287651
| 17> H -1.8050781561 -2.2820855388 0.3434533919
| 18> H -1.6153109691 -1.1461693004 -1.0356918739
| 19> *
| 20>
| 21>                          ****END OF INPUT****

CARTESIAN COORDINATES (ANGSTROEM)
---------------------------------
  C      1.862843   -1.243147   -0.011127
  O      0.942213   -0.482700   -0.805998
  S      0.000340    0.479616   -0.000024
  O     -0.742589    1.209377   -0.979079
  O      0.744919    1.209099    0.978306
  O     -0.935123   -0.490310    0.801679
  C     -1.872807   -1.246175    0.016670
  H      1.333270   -2.064970    0.469287
  H      2.296052   -0.586348    0.741968
  H      2.619683   -1.611087   -0.699117
  H     -2.870252   -0.848314    0.195629
  H     -1.805078   -2.282086    0.343453
  H     -1.615311   -1.146169   -1.035692

 Total Charge           Charge          ....    0
 Multiplicity           Mult            ....    1
 Number of Electrons    NEL             ....   66
 Basis Dimension        Dim             ....  191

ORBITAL ENERGIES
----------------

  NO   OCC          E(Eh)            E(eV)
   0   2.0000     -88.821505     -2416.9560
   1   2.0000     -19.027089      -517.7534
   2   2.0000     -19.026591      -517.7399
   3   2.0000     -18.957344      -515.8556
   4   2.0000     -18.956973      -515.8454
   5   2.0000     -10.111992      -275.1613
   6   2.0000     -10.109779      -275.1011
   7   2.0000      -8.085650      -220.0217
   8   2.0000      -6.032842      -164.1620
   9   2.0000      -6.031050      -164.1132
  10   2.0000      -6.028672      -164.0485
  11   2.0000      -1.165205       -31.7068
  12   2.0000      -1.053313       -28.6621
  13   2.0000      -1.026110       -27.9219
  14   2.0000      -0.995549       -27.0903
  15   2.0000      -0.733480       -19.9590
  16   2.0000      -0.710317       -19.3287
  17   2.0000      -0.593872       -16.1601
  18   2.0000      -0.548795       -14.9335
  19   2.0000      -0.497058       -13.5256
  20   2.0000      -0.490060       -13.3352
  21   2.0000      -0.462716       -12.5911
  22   2.0000      -0.452529       -12.3139
  23   2.0000      -0.444741       -12.1020
  24   2.0000      -0.415959       -11.3188
  25   2.0000      -0.381159       -10.3719
  26   2.0000      -0.367579       -10.0023
  27   2.0000      -0.341144        -9.2830
  28   2.0000      -0.329105        -8.9554
  29   2.0000      -0.327825        -8.9206
  30   2.0000      -0.295594        -8.0435
  31   2.0000      -0.293782        -7.9942
  32   2.0000      -0.277928        -7.5628
  33   0.0000       0.012145         0.3305
  34   0.0000       0.044795         1.2189
  35   0.0000       0.075147         2.0449
  36   0.0000       0.081190         2.2093
  37   0.0000       0.089306         2.4301

MULLIKEN ATOMIC CHARGES
-----------------------
   0 C :   -0.268371
   1 O :   -0.239703
   2 S :    1.079334
   3 O :   -0.528518
   4 O :   -0.553629
   5 O :   -0.246918
   6 C :   -0.246466
   7 H :    0.153594
   8 H :    0.187756
   9 H :    0.162411
  10 H :    0.165270
  11 H :    0.155746
  12 H :    0.179495
Sum of atomic charges:   -0.0000000

LOEWDIN ATOMIC CHARGES
----------------------
   0 C :   -0.040528
   1 O :   -0.564499
   2 S :    0.886377
   3 O :   -0.379727
   4 O :   -0.386074
   5 O :   -0.560899
   6 C :   -0.039159
   7 H :    0.169749
   8 H :    0.190256
   9 H :    0.183231
  10 H :    0.179490
  11 H :    0.175148
  12 H :    0.186634

  Mayer bond orders larger than 0.100000
B(  0-C ,  1-O ) :   0.8054 B(  0-C ,  7-H ) :   0.9587 B(  0-C ,  8-H ) :   0.9601
B(  0-C ,  9-H ) :   0.9627 B(  1-O ,  2-S ) :   0.9454 B(  2-S ,  3-O ) :   1.7629
B(  2-S ,  4-O ) :   1.7544 B(  2-S ,  5-O ) :   0.9369 B(  5-O ,  6-C ) :   0.7885
B(  6-C , 10-H ) :   0.9636 B(  6-C , 11-H ) :   0.9651 B(  6-C , 12-H ) :   0.9643

Dispersion correction           -0.003617586
FINAL SINGLE POINT ENERGY      -778.751505722745

DIPOLE MOMENT
-------------

Method             : SCF
Type of density    : Electron Density
Multiplicity       :   1
Irrep              :   0
Energy             :  -778.7719703773118454 Eh
Relativity type    :
Basis              : AO
                                X                 Y                 Z
Electronic contribution:      0.031420208       6.124425361      -0.023704379
Nuclear contribution   :     -0.038933012      -8.003389899       0.014493366
                        -----------------------------------------
Total Dipole Moment    :     -0.007512805      -1.878964538      -0.009211013
                        -----------------------------------------
Magnitude (a.u.)       :      1.879002134
Magnitude (Debye)      :      4.776043867

Rotational constants in cm-1:             0.100736             0.079598             0.062100
Rotational constants in MHz :          3019.989868          2386.283225          1861.708890

                             ****ORCA TERMINATED NORMALLY****
TOTAL RUN TIME: 0 days 0 hours 0 minutes 22 seconds 208 msec
