                         Program Version 6.0.0  -   RELEASE  -
|  1> ! r2scan-3c def2/J RI DEFGRID2 scfconv6 printgap
|  2> %output
|  3>     printlevel normal
|  4> end
|  5> %cpcm
|  6>     smd true
|  7>     smdsolvent "water"
|  8> end
|  9> * xyz 0 1
| 10> C 1.8628433569 -1.2431470366 -0.0111267262
| 11> O 0.9422133486 -0.482699983 -0.8059976427
| 12> S 0.0003404655 0.4796159608 -2.41438e-05
| 13> O -0.7425885698 1.2093766286 -0.9790785978
| 14> O 0.7449187747 1.209098578 0.9783061918
| 15> O -0.9351230799 -0.4903095285 0.8016786685
| 16> C -1.872807042 -1.2461754239 0.0166702446
| 17> H 1.3332698788 -2.0649702729 0.4692868562
| 18> H 2.2960518974 -0.5863482414 0.7419676717
| 19> H 2.6196826315 -1.6110871985 -0.6991166342
| 20> H -2.8702523891 -0.8483137201 0.1956287651
| 21> H -1.8050781561 -2.2820855388 0.3434533919
| 22> H -1.6153109691 -1.1461693004 -1.0356918739
| 23> *
| 24>
| 25>                          ****END OF INPUT****

CARTESIAN COORDINATES (ANGSTROEM)
---------------------------------
  C      1.862843   -1.243147   -0.011127
  O      0.942213   -0.482700   -0.805998
  S      0.000340    0.479616   -0.000024
  O     -0.742589    1.209377   -0.979079
  O      0.744919    1.209099    0.978306
  O     -0.935123   -0.490310    0.801679
  C     -1.872807   -1.246175    0.016670
  H      1.333270   -2.064970    0.469287
  H      2.296052   -0.586348    0.741968
  H      2.619683   -1.611087   -0.699117
  H     -2.870252   -0.848314    0.195629
  H     -1.805078   -2.282086    0.343453
  H     -1.615311   -1.146169   -1.035692

 Total Charge           Charge          ....    0
 Multiplicity           Mult            ....    1
 Number of Electrons    NEL             ....   66
 Basis Dimension        Dim             ....  191

ORBITAL ENERGIES
----------------

  NO   OCC          E(Eh)            E(eV)
   0   2.0000     -88.834482     -2417.3092
   1   2.0000     -19.026837      -517.7465
   2   2.0000     -19.026202      -517.7293
   3   2.0000     -18.974126      -516.3122
   4   2.0000     -18.973951      -516.3074
   5   2.0000     -10.090828      -274.5854
   6   2.0000     -10.089153      -274.5398
   7   2.0000      -8.098303      -220.3660
   8   2.0000      -6.045195      -164.4981
   9   2.0000      -6.043609      -164.4550
  10   2.0000      -6.041869      -164.4076
  11   2.0000      -1.173161       -31.9233
  12   2.0000      -1.051389       -28.6098
  13   2.0000      -1.034103       -28.1394
  14   2.0000      -1.013450       -27.5774
  15   2.0000      -0.724861       -19.7245
  16   2.0000      -0.697540       -18.9810
  17   2.0000      -0.586161       -15.9502
  18   2.0000      -0.542715       -14.7680
  19   2.0000      -0.508577       -13.8391
  20   2.0000      -0.491963       -13.3870
  21   2.0000      -0.452651       -12.3173
  22   2.0000      -0.446008       -12.1365
  23   2.0000      -0.429253       -11.6806
  24   2.0000      -0.420584       -11.4447
  25   2.0000      -0.371625       -10.1124
  26   2.0000      -0.368955       -10.0398
  27   2.0000      -0.355214        -9.6659
  28   2.0000      -0.327755        -8.9187
  29   2.0000      -0.323618        -8.8061
  30   2.0000      -0.308056        -8.3826
  31   2.0000      -0.302292        -8.2258
  32   2.0000      -0.286285        -7.7902
  33   0.0000       0.014517         0.3950
  34   0.0000       0.049539         1.3480
  35   0.0000       0.074455         2.0260
  36   0.0000       0.080979         2.2036
  37   0.0000       0.098750         2.6871

MULLIKEN ATOMIC CHARGES
-----------------------
   0 C :   -0.285709
   1 O :   -0.249276
   2 S :    1.088733
   3 O :   -0.573212
   4 O :   -0.597009
   5 O :   -0.254780
   6 C :   -0.261929
   7 H :    0.187330
   8 H :    0.189364
   9 H :    0.192218
  10 H :    0.188655
  11 H :    0.190249
  12 H :    0.185366
Sum of atomic charges:   -0.0000000

LOEWDIN ATOMIC CHARGES
----------------------
   0 C :   -0.030296
   1 O :   -0.565411
   2 S :    0.887342
   3 O :   -0.419042
   4 O :   -0.424190
   5 O :   -0.562188
   6 C :   -0.028003
   7 H :    0.183890
   8 H :    0.191499
   9 H :    0.196829
  10 H :    0.188097
  11 H :    0.191472
  12 H :    0.190001

  Mayer bond orders larger than 0.100000
B(  0-C ,  1-O ) :   0.7895 B(  0-C ,  7-H ) :   0.9489 B(  0-C ,  8-H ) :   0.9520
B(  0-C ,  9-H ) :   0.9503 B(  1-O ,  2-S ) :   0.9824 B(  2-S ,  3-O ) :   1.7173
B(  2-S ,  4-O ) :   1.7116 B(  2-S ,  5-O ) :   0.9735 B(  5-O ,  6-C ) :   0.7701
B(  6-C , 10-H ) :   0.9541 B(  6-C , 11-H ) :   0.9534 B(  6-C , 12-H ) :   0.9545

Dispersion correction           -0.003617586
FINAL SINGLE POINT ENERGY      -778.764291593028

DIPOLE MOMENT
-------------

Method             : SCF
Type of density    : Electron Density
Multiplicity       :   1
Irrep              :   0
Energy             :  -778.7847562475951690 Eh
Relativity type    :
Basis              : AO
                                X                 Y                 Z
Electronic contribution:      0.030184010       5.477717832      -0.022463412
Nuclear contribution   :     -0.038933012      -8.003389899       0.014493366
                        -----------------------------------------
Total Dipole Moment    :     -0.008749002      -2.525672067      -0.007970046
                        -----------------------------------------
Magnitude (a.u.)       :      2.525699795
Magnitude (Debye)      :      6.419818688

Rotational constants in cm-1:             0.100736             0.079598             0.062100
Rotational constants in MHz :          3019.989868          2386.283225          1861.708890

                             ****ORCA TERMINATED NORMALLY****
TOTAL RUN TIME: 0 days 0 hours 0 minutes 25 seconds 162 msec
