                         Program Version 6.0.0  -   RELEASE  -
|  1> ! r2scan-3c def2/J RI DEFGRID2 scfconv6 printgap
|  2> %output
|  3>     printlevel normal
|  4> end
|  5> * xyz 0 1
|  6> C 1.8538022156 -1.0501620677 0.390973961
|  7> C 1.2820439639 0.2914746874 0.8333780819
|  8> C 0.1716548163 0.8681031922 -0.0574715828
|  9> H -0.0424248049 1.8751034174 0.3470116721
| 10> C -1.1844849653 0.1224219431 -0.0892360707
| 11> C -1.1430661608 -1.2074948825 -0.8418908137
| 12> C -1.7591291768 -0.0608543589 1.3125390921
| 13> O 0.7081378633 1.0104963645 -1.3631660006
| 14> H 1.1722817909 -1.8665083065 0.6057942287
| 15> H 2.7859810246 -1.2398013717 0.9180164338
| 16> H 2.0571911671 -1.0303328857 -0.6759284233
| 17> H 0.9132566517 0.2292972383 1.8567499605
| 18> H 2.0898813994 1.0271055249 0.8147808179
| 19> H -1.8619373588 0.7879542407 -0.6420880619
| 20> H -0.4934612888 -1.1315555959 -1.7100484509
| 21> H -0.778207023 -2.0078276355 -0.2060219754
| 22> H -2.1427317641 -1.474191228 -1.1773255259
| 23> H -1.7750838256 0.8850284233 1.8495821305
| 24> H -1.1694969047 -0.7744745976 1.8816938952
| 25> H -2.7768460392 -0.4376309961 1.2462654365
| 26> H 0.0659880143 1.4691780823 -1.92037332
| 27> *
| 28>
| 29>                          ****END OF INPUT****

CARTESIAN COORDINATES (ANGSTROEM)
---------------------------------
  C      1.853802   -1.050162    0.390974
  C      1.282044    0.291475    0.833378
  C      0.171655    0.868103   -0.057472
  H     -0.042425    1.875103    0.347012
  C     -1.184485    0.122422   -0.089236
  C     -1.143066   -1.207495   -0.841891
  C     -1.759129   -0.060854    1.312539
  O      0.708138    1.010496   -1.363166
  H      1.172282   -1.866508    0.605794
  H      2.785981   -1.239801    0.918016
  H      2.057191   -1.030333   -0.675928
  H      0.913257    0.229297    1.856750
  H      2.089881    1.027106    0.814781
  H     -1.861937    0.787954   -0.642088
  H     -0.493461   -1.131556   -1.710048
  H     -0.778207   -2.007828   -0.206022
  H     -2.142732   -1.474191   -1.177326
  H     -1.775084    0.885028    1.849582
  H     -1.169497   -0.774475    1.881694
  H     -2.776846   -0.437631    1.246265
  H      0.065988    1.469178   -1.920373

 Total Charge           Charge          ....    0
 Multiplicity           Mult            ....    1
 Number of Electrons    NEL             ....   58
 Basis Dimension        Dim             ....  208

ORBITAL ENERGIES
----------------

  NO   OCC          E(Eh)            E(eV)
   0   2.0000     -18.945396      -515.5304
   1   2.0000     -10.077098      -274.2118
   2   2.0000     -10.035010      -273.0665
   3   2.0000     -10.022490      -272.7258
   4   2.0000     -10.019727      -272.6506
   5   2.0000     -10.010607      -272.4025
   6   2.0000     -10.008714      -272.3510
   7   2.0000      -0.983781       -26.7700
   8   2.0000      -0.771284       -20.9877
   9   2.0000      -0.725394       -19.7390
  10   2.0000      -0.652218       -17.7478
  11   2.0000      -0.638417       -17.3722
  12   2.0000      -0.568127       -15.4595
  13   2.0000      -0.521082       -14.1794
  14   2.0000      -0.468841       -12.7578
  15   2.0000      -0.448707       -12.2099
  16   2.0000      -0.409965       -11.1557
  17   2.0000      -0.393685       -10.7127
  18   2.0000      -0.385519       -10.4905
  19   2.0000      -0.371785       -10.1168
  20   2.0000      -0.355456        -9.6724
  21   2.0000      -0.346050        -9.4165
  22   2.0000      -0.333417        -9.0727
  23   2.0000      -0.313331        -8.5262
  24   2.0000      -0.312038        -8.4910
  25   2.0000      -0.298848        -8.1321
  26   2.0000      -0.294872        -8.0239
  27   2.0000      -0.269005        -7.3200
  28   2.0000      -0.230839        -6.2815
  29   0.0000       0.058498         1.5918
  30   0.0000       0.091529         2.4906
  31   0.0000       0.110570         3.0088
  32   0.0000       0.119932         3.2635
  33   0.0000       0.129626         3.5273

MULLIKEN ATOMIC CHARGES
-----------------------
   0 C :   -0.499418
   1 C :   -0.275577
   2 C :    0.035474
   3 H :    0.131895
   4 C :   -0.015744
   5 C :   -0.520169
   6 C :   -0.525983
   7 O :   -0.436344
   8 H :    0.135272
   9 H :    0.144157
  10 H :    0.178819
  11 H :    0.146692
  12 H :    0.146060
  13 H :    0.138931
  14 H :    0.176597
  15 H :    0.143369
  16 H :    0.148190
  17 H :    0.149709
  18 H :    0.160602
  19 H :    0.148887
  20 H :    0.288580
Sum of atomic charges:   -0.0000000

LOEWDIN ATOMIC CHARGES
----------------------
   0 C :   -0.416311
   1 C :   -0.277064
   2 C :    0.056479
   3 H :    0.166595
   4 C :   -0.225866
   5 C :   -0.411705
   6 C :   -0.412053
   7 O :   -0.626636
   8 H :    0.146799
   9 H :    0.149562
  10 H :    0.165899
  11 H :    0.159032
  12 H :    0.164591
  13 H :    0.155783
  14 H :    0.168109
  15 H :    0.151914
  16 H :    0.151746
  17 H :    0.154807
  18 H :    0.153961
  19 H :    0.155700
  20 H :    0.268661

  Mayer bond orders larger than 0.100000
B(  0-C ,  1-C ) :   0.8791 B(  0-C ,  8-H ) :   0.9755 B(  0-C ,  9-H ) :   0.9682
B(  0-C , 10-H ) :   0.9842 B(  1-C ,  2-C ) :   0.9475 B(  1-C , 11-H ) :   0.9760
B(  1-C , 12-H ) :   0.9562 B(  2-C ,  3-H ) :   0.9654 B(  2-C ,  4-C ) :   0.9075
B(  2-C ,  7-O ) :   0.9034 B(  4-C ,  5-C ) :   0.8769 B(  4-C ,  6-C ) :   0.8971
B(  4-C , 13-H ) :   0.9613 B(  5-C , 14-H ) :   0.9757 B(  5-C , 15-H ) :   0.9772
B(  5-C , 16-H ) :   0.9677 B(  6-C , 17-H ) :   0.9737 B(  6-C , 18-H ) :   0.9850
B(  6-C , 19-H ) :   0.9653 B(  7-O , 20-H ) :   0.8990

Dispersion correction           -0.005911624
FINAL SINGLE POINT ENERGY      -312.198603079787

DIPOLE MOMENT
-------------

Method             : SCF
Type of density    : Electron Density
Multiplicity       :   1
Irrep              :   0
Energy             :  -312.2040764749491473 Eh
Relativity type    :
Basis              : AO
                                X                 Y                 Z
Electronic contribution:      1.308312589       3.654662513      -2.844366758
Nuclear contribution   :     -1.824171726      -3.445565758       2.970737039
                        -----------------------------------------
Total Dipole Moment    :     -0.515859136       0.209096755       0.126370280
                        -----------------------------------------
Magnitude (a.u.)       :      0.570790285
Magnitude (Debye)      :      1.450833605

Rotational constants in cm-1:             0.098837             0.066658             0.060281
Rotational constants in MHz :          2963.067694          1998.351801          1807.189418

                             ****ORCA TERMINATED NORMALLY****
TOTAL RUN TIME: 0 days 0 hours 0 minutes 25 seconds 21 msec
