                         Program Version 6.0.0  -   RELEASE  -
|  1> ! r2scan-3c def2/J RI DEFGRID2 scfconv6 printgap
|  2> %output
|  3>     printlevel normal
|  4> end
|  5> %cpcm
|  6>     smd true
|  7>     smdsolvent "water"
|  8> end
|  9> * xyz 0 1
| 10> C 1.8538022156 -1.0501620677 0.390973961
| 11> C 1.2820439639 0.2914746874 0.8333780819
| 12> C 0.1716548163 0.8681031922 -0.0574715828
| 13> H -0.0424248049 1.8751034174 0.3470116721
| 14> C -1.1844849653 0.1224219431 -0.0892360707
| 15> C -1.1430661608 -1.2074948825 -0.8418908137
| 16> C -1.7591291768 -0.0608543589 1.3125390921
| 17> O 0.7081378633 1.0104963645 -1.3631660006
| 18> H 1.1722817909 -1.8665083065 0.6057942287
| 19> H 2.7859810246 -1.2398013717 0.9180164338
| 20> H 2.0571911671 -1.0303328857 -0.6759284233
| 21> H 0.9132566517 0.2292972383 1.8567499605
| 22> H 2.0898813994 1.0271055249 0.8147808179
| 23> H -1.8619373588 0.7879542407 -0.6420880619
| 24> H -0.4934612888 -1.1315555959 -1.7100484509
| 25> H -0.778207023 -2.0078276355 -0.2060219754
| 26> H -2.1427317641 -1.474191228 -1.1773255259
| 27> H -1.7750838256 0.8850284233 1.8495821305
| 28> H -1.1694969047 -0.7744745976 1.8816938952
| 29> H -2.7768460392 -0.4376309961 1.2462654365
| 30> H 0.0659880143 1.4691780823 -1.92037332
| 31> *
| 32>
| 33>                          ****END OF INPUT****

CARTESIAN COORDINATES (ANGSTROEM)
---------------------------------
  C      1.853802   -1.050162    0.390974
  C      1.282044    0.291475    0.833378
  C      0.171655    0.868103   -0.057472
  H     -0.042425    1.875103    0.347012
  C     -1.184485    0.122422   -0.089236
  C     -1.143066   -1.207495   -0.841891
  C     -1.759129   -0.060854    1.312539
  O      0.708138    1.010496   -1.363166
  H      1.172282   -1.866508    0.605794
  H      2.785981   -1.239801    0.918016
  H      2.057191   -1.030333   -0.675928
  H      0.913257    0.229297    1.856750
  H      2.089881    1.027106    0.814781
  H     -1.861937    0.787954   -0.642088
  H     -0.493461   -1.131556   -1.710048
  H     -0.778207   -2.007828   -0.206022
  H     -2.142732   -1.474191   -1.177326
  H     -1.775084    0.885028    1.849582
  H     -1.169497   -0.774475    1.881694
  H     -2.776846   -0.437631    1.246265
  H      0.065988    1.469178   -1.920373

 Total Charge           Charge          ....    0
 Multiplicity           Mult            ....    1
 Number of Electrons    NEL             ....   58
 Basis Dimension        Dim             ....  208

ORBITAL ENERGIES
----------------

  NO   OCC          E(Eh)            E(eV)
   0   2.0000     -18.946719      -515.5664
   1   2.0000     -10.071318      -274.0545
   2   2.0000     -10.025275      -272.8016
   3   2.0000     -10.017565      -272.5918
   4   2.0000     -10.008559      -272.3467
   5   2.0000     -10.006575      -272.2927
   6   2.0000     -10.004183      -272.2277
   7   2.0000      -0.984025       -26.7767
   8   2.0000      -0.763718       -20.7818
   9   2.0000      -0.720621       -19.6091
  10   2.0000      -0.645434       -17.5632
  11   2.0000      -0.632827       -17.2201
  12   2.0000      -0.562185       -15.2978
  13   2.0000      -0.516171       -14.0457
  14   2.0000      -0.463129       -12.6024
  15   2.0000      -0.441989       -12.0271
  16   2.0000      -0.403813       -10.9883
  17   2.0000      -0.391555       -10.6547
  18   2.0000      -0.380187       -10.3454
  19   2.0000      -0.365139        -9.9359
  20   2.0000      -0.348686        -9.4882
  21   2.0000      -0.342297        -9.3144
  22   2.0000      -0.327254        -8.9050
  23   2.0000      -0.310834        -8.4582
  24   2.0000      -0.305995        -8.3265
  25   2.0000      -0.294325        -8.0090
  26   2.0000      -0.290254        -7.8982
  27   2.0000      -0.263153        -7.1608
  28   2.0000      -0.231577        -6.3015
  29   0.0000       0.074135         2.0173
  30   0.0000       0.103183         2.8077
  31   0.0000       0.118629         3.2280
  32   0.0000       0.128267         3.4903
  33   0.0000       0.134754         3.6668

MULLIKEN ATOMIC CHARGES
-----------------------
   0 C :   -0.535041
   1 C :   -0.288734
   2 C :    0.040876
   3 H :    0.143819
   4 C :    0.010270
   5 C :   -0.574356
   6 C :   -0.562319
   7 O :   -0.518874
   8 H :    0.157616
   9 H :    0.157267
  10 H :    0.168037
  11 H :    0.162946
  12 H :    0.154191
  13 H :    0.158954
  14 H :    0.168190
  15 H :    0.160681
  16 H :    0.161569
  17 H :    0.161211
  18 H :    0.171848
  19 H :    0.159469
  20 H :    0.342380
Sum of atomic charges:   -0.0000000

LOEWDIN ATOMIC CHARGES
----------------------
   0 C :   -0.425214
   1 C :   -0.280930
   2 C :    0.058127
   3 H :    0.173681
   4 C :   -0.220353
   5 C :   -0.419729
   6 C :   -0.418224
   7 O :   -0.660014
   8 H :    0.153316
   9 H :    0.152947
  10 H :    0.159502
  11 H :    0.165642
  12 H :    0.163761
  13 H :    0.163895
  14 H :    0.162987
  15 H :    0.155328
  16 H :    0.155527
  17 H :    0.158256
  18 H :    0.156910
  19 H :    0.158056
  20 H :    0.286529

  Mayer bond orders larger than 0.100000
B(  0-C ,  1-C ) :   0.8580 B(  0-C ,  8-H ) :   0.9735 B(  0-C ,  9-H ) :   0.9651
B(  0-C , 10-H ) :   0.9866 B(  1-C ,  2-C ) :   0.9392 B(  1-C , 11-H ) :   0.9707
B(  1-C , 12-H ) :   0.9637 B(  2-C ,  3-H ) :   0.9607 B(  2-C ,  4-C ) :   0.9177
B(  2-C ,  7-O ) :   0.8916 B(  4-C ,  5-C ) :   0.8592 B(  4-C ,  6-C ) :   0.8888
B(  4-C , 13-H ) :   0.9596 B(  5-C , 14-H ) :   0.9782 B(  5-C , 15-H ) :   0.9771
B(  5-C , 16-H ) :   0.9651 B(  6-C , 17-H ) :   0.9709 B(  6-C , 18-H ) :   0.9803
B(  6-C , 19-H ) :   0.9641 B(  7-O , 20-H ) :   0.8735

Dispersion correction           -0.005911624
FINAL SINGLE POINT ENERGY      -312.203431793312

DIPOLE MOMENT
-------------

Method             : SCF
Type of density    : Electron Density
Multiplicity       :   1
Irrep              :   0
Energy             :  -312.2089051884750575 Eh
Relativity type    :
Basis              : AO
                                X                 Y                 Z
Electronic contribution:      1.029946679       3.751739695      -2.717290364
Nuclear contribution   :     -1.824171726      -3.445565758       2.970737039
                        -----------------------------------------
Total Dipole Moment    :     -0.794225047       0.306173936       0.253446674
                        -----------------------------------------
Magnitude (a.u.)       :      0.888127875
Magnitude (Debye)      :      2.257441656

Rotational constants in cm-1:             0.098837             0.066658             0.060281
Rotational constants in MHz :          2963.067694          1998.351801          1807.189418

                             ****ORCA TERMINATED NORMALLY****
TOTAL RUN TIME: 0 days 0 hours 0 minutes 33 seconds 453 msec
