                         Program Version 6.0.0  -   RELEASE  -
|  1> ! r2scan-3c def2/J RI DEFGRID2 scfconv6 printgap
|  2> %output
|  3>     printlevel normal
|  4> end
|  5> * xyz 0 1
|  6> C -1.2417806163 0.2596567427 -0.215704865
|  7> C 0.1574054858 0.6611767437 0.2817517836
|  8> C 1.2398869249 -0.2335290625 -0.3491964961
|  9> O 1.1680690161 -1.5623538644 0.1056668855
| 10> O 0.3273076049 2.0164767826 -0.0662273075
| 11> O -1.6117688614 -1.0422021156 0.1740297653
| 12> H -1.2434419333 0.269966288 -1.308588924
| 13> H -1.9620015131 1.0072935334 0.1325461236
| 14> H 0.1998190273 0.5352105243 1.3760912124
| 15> H 2.2340744616 0.1253432268 -0.0672466598
| 16> H 1.1491237081 -0.1871535262 -1.4435971754
| 17> H 0.2626424811 -1.8841599712 -0.0471638193
| 18> H 1.1954774805 2.3244437853 0.2296265989
| 19> H -1.8412540669 -1.0461491036 1.1138995862
| 20> *
| 21>
| 22>                          ****END OF INPUT****

CARTESIAN COORDINATES (ANGSTROEM)
---------------------------------
  C     -1.241781    0.259657   -0.215705
  C      0.157405    0.661177    0.281752
  C      1.239887   -0.233529   -0.349196
  O      1.168069   -1.562354    0.105667
  O      0.327308    2.016477   -0.066227
  O     -1.611769   -1.042202    0.174030
  H     -1.243442    0.269966   -1.308589
  H     -1.962002    1.007294    0.132546
  H      0.199819    0.535211    1.376091
  H      2.234074    0.125343   -0.067247
  H      1.149124   -0.187154   -1.443597
  H      0.262642   -1.884160   -0.047164
  H      1.195477    2.324444    0.229627
  H     -1.841254   -1.046149    1.113900

 Total Charge           Charge          ....    0
 Multiplicity           Mult            ....    1
 Number of Electrons    NEL             ....   50
 Basis Dimension        Dim             ....  169

ORBITAL ENERGIES
----------------

  NO   OCC          E(Eh)            E(eV)
   0   2.0000     -18.974625      -516.3258
   1   2.0000     -18.963426      -516.0211
   2   2.0000     -18.939763      -515.3771
   3   2.0000     -10.088843      -274.5314
   4   2.0000     -10.087796      -274.5029
   5   2.0000     -10.075684      -274.1733
   6   2.0000      -1.015031       -27.6204
   7   2.0000      -0.999357       -27.1939
   8   2.0000      -0.977289       -26.5934
   9   2.0000      -0.726236       -19.7619
  10   2.0000      -0.648347       -17.6424
  11   2.0000      -0.580178       -15.7875
  12   2.0000      -0.508185       -13.8284
  13   2.0000      -0.493782       -13.4365
  14   2.0000      -0.465284       -12.6610
  15   2.0000      -0.431267       -11.7354
  16   2.0000      -0.412405       -11.2221
  17   2.0000      -0.380232       -10.3466
  18   2.0000      -0.372807       -10.1446
  19   2.0000      -0.347781        -9.4636
  20   2.0000      -0.312545        -8.5048
  21   2.0000      -0.308155        -8.3853
  22   2.0000      -0.259896        -7.0721
  23   2.0000      -0.253065        -6.8863
  24   2.0000      -0.223872        -6.0919
  25   0.0000       0.026884         0.7315
  26   0.0000       0.059550         1.6204
  27   0.0000       0.091848         2.4993
  28   0.0000       0.120662         3.2834
  29   0.0000       0.126799         3.4504

MULLIKEN ATOMIC CHARGES
-----------------------
   0 C :   -0.207750
   1 C :    0.035514
   2 C :   -0.177025
   3 O :   -0.420631
   4 O :   -0.423694
   5 O :   -0.435402
   6 H :    0.150929
   7 H :    0.147178
   8 H :    0.135688
   9 H :    0.127020
  10 H :    0.140138
  11 H :    0.320788
  12 H :    0.296132
  13 H :    0.311113
Sum of atomic charges:    0.0000000

LOEWDIN ATOMIC CHARGES
----------------------
   0 C :    0.039778
   1 C :    0.075537
   2 C :    0.019627
   3 O :   -0.609160
   4 O :   -0.599632
   5 O :   -0.610858
   6 H :    0.185129
   7 H :    0.172369
   8 H :    0.166315
   9 H :    0.174661
  10 H :    0.163496
  11 H :    0.278324
  12 H :    0.273162
  13 H :    0.271251

  Mayer bond orders larger than 0.100000
B(  0-C ,  1-C ) :   0.9235 B(  0-C ,  5-O ) :   0.9579 B(  0-C ,  6-H ) :   0.9718
B(  0-C ,  7-H ) :   0.9684 B(  1-C ,  2-C ) :   0.9018 B(  1-C ,  4-O ) :   0.8887
B(  1-C ,  8-H ) :   0.9526 B(  2-C ,  3-O ) :   0.9747 B(  2-C ,  9-H ) :   0.9699
B(  2-C , 10-H ) :   0.9777 B(  3-O , 11-H ) :   0.8471 B(  4-O , 12-H ) :   0.8953
B(  5-O , 13-H ) :   0.8903

Dispersion correction           -0.003074397
FINAL SINGLE POINT ENERGY      -344.723032281691

DIPOLE MOMENT
-------------

Method             : SCF
Type of density    : Electron Density
Multiplicity       :   1
Irrep              :   0
Energy             :  -344.7308376323022685 Eh
Relativity type    :
Basis              : AO
                                X                 Y                 Z
Electronic contribution:     -0.194186318      -0.579982809       0.477304459
Nuclear contribution   :     -0.006945157       1.065282202      -0.010370406
                        -----------------------------------------
Total Dipole Moment    :     -0.201131475       0.485299392       0.466934053
                        -----------------------------------------
Magnitude (a.u.)       :      0.702849045
Magnitude (Debye)      :      1.786500297

Rotational constants in cm-1:             0.130864             0.111550             0.064974
Rotational constants in MHz :          3923.200433          3344.173146          1947.874806

                             ****ORCA TERMINATED NORMALLY****
TOTAL RUN TIME: 0 days 0 hours 0 minutes 21 seconds 131 msec
