                         Program Version 6.0.0  -   RELEASE  -
|  1> ! r2scan-3c def2/J RI DEFGRID2 scfconv6 printgap
|  2> %output
|  3>     printlevel normal
|  4> end
|  5> %cpcm
|  6>     smd true
|  7>     smdsolvent "water"
|  8> end
|  9> * xyz 0 1
| 10> C -1.2417806163 0.2596567427 -0.215704865
| 11> C 0.1574054858 0.6611767437 0.2817517836
| 12> C 1.2398869249 -0.2335290625 -0.3491964961
| 13> O 1.1680690161 -1.5623538644 0.1056668855
| 14> O 0.3273076049 2.0164767826 -0.0662273075
| 15> O -1.6117688614 -1.0422021156 0.1740297653
| 16> H -1.2434419333 0.269966288 -1.308588924
| 17> H -1.9620015131 1.0072935334 0.1325461236
| 18> H 0.1998190273 0.5352105243 1.3760912124
| 19> H 2.2340744616 0.1253432268 -0.0672466598
| 20> H 1.1491237081 -0.1871535262 -1.4435971754
| 21> H 0.2626424811 -1.8841599712 -0.0471638193
| 22> H 1.1954774805 2.3244437853 0.2296265989
| 23> H -1.8412540669 -1.0461491036 1.1138995862
| 24> *
| 25>
| 26>                          ****END OF INPUT****

CARTESIAN COORDINATES (ANGSTROEM)
---------------------------------
  C     -1.241781    0.259657   -0.215705
  C      0.157405    0.661177    0.281752
  C      1.239887   -0.233529   -0.349196
  O      1.168069   -1.562354    0.105667
  O      0.327308    2.016477   -0.066227
  O     -1.611769   -1.042202    0.174030
  H     -1.243442    0.269966   -1.308589
  H     -1.962002    1.007294    0.132546
  H      0.199819    0.535211    1.376091
  H      2.234074    0.125343   -0.067247
  H      1.149124   -0.187154   -1.443597
  H      0.262642   -1.884160   -0.047164
  H      1.195477    2.324444    0.229627
  H     -1.841254   -1.046149    1.113900

 Total Charge           Charge          ....    0
 Multiplicity           Mult            ....    1
 Number of Electrons    NEL             ....   50
 Basis Dimension        Dim             ....  169

ORBITAL ENERGIES
----------------

  NO   OCC          E(Eh)            E(eV)
   0   2.0000     -18.962340      -515.9915
   1   2.0000     -18.958662      -515.8914
   2   2.0000     -18.949716      -515.6480
   3   2.0000     -10.079249      -274.2703
   4   2.0000     -10.074510      -274.1414
   5   2.0000     -10.069752      -274.0119
   6   2.0000      -1.005839       -27.3703
   7   2.0000      -0.991234       -26.9728
   8   2.0000      -0.983561       -26.7641
   9   2.0000      -0.717152       -19.5147
  10   2.0000      -0.640923       -17.4404
  11   2.0000      -0.570827       -15.5330
  12   2.0000      -0.500202       -13.6112
  13   2.0000      -0.486623       -13.2417
  14   2.0000      -0.456499       -12.4220
  15   2.0000      -0.426419       -11.6035
  16   2.0000      -0.404459       -11.0059
  17   2.0000      -0.376159       -10.2358
  18   2.0000      -0.368068       -10.0156
  19   2.0000      -0.349537        -9.5114
  20   2.0000      -0.310691        -8.4543
  21   2.0000      -0.300671        -8.1817
  22   2.0000      -0.263289        -7.1645
  23   2.0000      -0.245991        -6.6938
  24   2.0000      -0.226951        -6.1756
  25   0.0000       0.043358         1.1798
  26   0.0000       0.087688         2.3861
  27   0.0000       0.102886         2.7997
  28   0.0000       0.133595         3.6353
  29   0.0000       0.139905         3.8070

MULLIKEN ATOMIC CHARGES
-----------------------
   0 C :   -0.195170
   1 C :    0.038276
   2 C :   -0.191473
   3 O :   -0.502063
   4 O :   -0.500713
   5 O :   -0.492622
   6 H :    0.163727
   7 H :    0.155425
   8 H :    0.155750
   9 H :    0.155942
  10 H :    0.149357
  11 H :    0.354174
  12 H :    0.350100
  13 H :    0.359289
Sum of atomic charges:    0.0000000

LOEWDIN ATOMIC CHARGES
----------------------
   0 C :    0.036775
   1 C :    0.080955
   2 C :    0.019077
   3 O :   -0.648478
   4 O :   -0.624718
   5 O :   -0.625198
   6 H :    0.187433
   7 H :    0.176964
   8 H :    0.175751
   9 H :    0.184716
  10 H :    0.169111
  11 H :    0.286300
  12 H :    0.292227
  13 H :    0.289086

  Mayer bond orders larger than 0.100000
B(  0-C ,  1-C ) :   0.9249 B(  0-C ,  5-O ) :   0.9578 B(  0-C ,  6-H ) :   0.9685
B(  0-C ,  7-H ) :   0.9589 B(  1-C ,  2-C ) :   0.9150 B(  1-C ,  4-O ) :   0.8849
B(  1-C ,  8-H ) :   0.9537 B(  2-C ,  3-O ) :   0.9553 B(  2-C ,  9-H ) :   0.9627
B(  2-C , 10-H ) :   0.9678 B(  3-O , 11-H ) :   0.8312 B(  4-O , 12-H ) :   0.8688
B(  5-O , 13-H ) :   0.8637

Dispersion correction           -0.003074397
FINAL SINGLE POINT ENERGY      -344.743199741167

DIPOLE MOMENT
-------------

Method             : SCF
Type of density    : Electron Density
Multiplicity       :   1
Irrep              :   0
Energy             :  -344.7510050917787225 Eh
Relativity type    :
Basis              : AO
                                X                 Y                 Z
Electronic contribution:     -0.178224226      -0.423793457       0.658923706
Nuclear contribution   :     -0.006945157       1.065282202      -0.010370406
                        -----------------------------------------
Total Dipole Moment    :     -0.185169383       0.641488745       0.648553300
                        -----------------------------------------
Magnitude (a.u.)       :      0.930815177
Magnitude (Debye)      :      2.365944154

Rotational constants in cm-1:             0.130864             0.111550             0.064974
Rotational constants in MHz :          3923.200433          3344.173146          1947.874806

                             ****ORCA TERMINATED NORMALLY****
TOTAL RUN TIME: 0 days 0 hours 0 minutes 23 seconds 553 msec
