                         Program Version 6.0.0  -   RELEASE  -
|  1> ! pbe def2-sv(p) def2/J RI DEFGRID1 loosescf d4 GCP(DFT/SV(P)) printgap
|  2> %output
|  3>     printlevel normal
|  4> end
|  5> * xyz 0 1
|  6> C -1.4584741481 0.3600916382 -0.2077995689
|  7> C -0.0006370886 0.3835411616 0.2849895485
|  8> C 0.8229589802 -0.6966436683 -0.4257281818
|  9> O 2.0856574407 -0.8834500346 0.1644118287
| 10> O 0.6141721046 1.6258872994 0.0095044073
| 11> O -2.1146063695 -0.848799182 0.0811273577
| 12> H -1.4684443068 0.4580348707 -1.2960582219
| 13> H -2.0034565319 1.2111228837 0.2224100181
| 14> H 0.0287582193 0.1795203893 1.3671152928
| 15> H 0.9249109744 -0.4171113441 -1.4819137651
| 16> H 0.3017508485 -1.6528534324 -0.3570550886
| 17> H 2.5622242687 -0.0410072508 0.1304858055
| 18> H 0.1566369369 2.3356609586 0.4804633121
| 19> H -2.2113755185 -0.9449740293 1.0393748498
| 20> *
| 21>
| 22>                          ****END OF INPUT****

CARTESIAN COORDINATES (ANGSTROEM)
---------------------------------
  C     -1.458474    0.360092   -0.207800
  C     -0.000637    0.383541    0.284990
  C      0.822959   -0.696644   -0.425728
  O      2.085657   -0.883450    0.164412
  O      0.614172    1.625887    0.009504
  O     -2.114606   -0.848799    0.081127
  H     -1.468444    0.458035   -1.296058
  H     -2.003457    1.211123    0.222410
  H      0.028758    0.179520    1.367115
  H      0.924911   -0.417111   -1.481914
  H      0.301751   -1.652853   -0.357055
  H      2.562224   -0.041007    0.130486
  H      0.156637    2.335661    0.480463
  H     -2.211376   -0.944974    1.039375

 Total Charge           Charge          ....    0
 Multiplicity           Mult            ....    1
 Number of Electrons    NEL             ....   50
 Basis Dimension        Dim             ....  100

ORBITAL ENERGIES
----------------

  NO   OCC          E(Eh)            E(eV)
   0   2.0000     -18.760610      -510.5022
   1   2.0000     -18.756373      -510.3869
   2   2.0000     -18.735656      -509.8231
   3   2.0000      -9.939273      -270.4614
   4   2.0000      -9.936327      -270.3812
   5   2.0000      -9.923125      -270.0220
   6   2.0000      -0.941946       -25.6317
   7   2.0000      -0.928560       -25.2674
   8   2.0000      -0.908684       -24.7266
   9   2.0000      -0.680551       -18.5187
  10   2.0000      -0.604305       -16.4440
  11   2.0000      -0.546841       -14.8803
  12   2.0000      -0.490494       -13.3470
  13   2.0000      -0.462129       -12.5752
  14   2.0000      -0.448805       -12.2126
  15   2.0000      -0.400276       -10.8921
  16   2.0000      -0.380587       -10.3563
  17   2.0000      -0.362329        -9.8595
  18   2.0000      -0.358971        -9.7681
  19   2.0000      -0.308162        -8.3855
  20   2.0000      -0.286567        -7.7979
  21   2.0000      -0.276093        -7.5129
  22   2.0000      -0.243056        -6.6139
  23   2.0000      -0.219147        -5.9633
  24   2.0000      -0.205065        -5.5801
  25   0.0000       0.014150         0.3850
  26   0.0000       0.018684         0.5084
  27   0.0000       0.058276         1.5858
  28   0.0000       0.067831         1.8458
  29   0.0000       0.095496         2.5986

MULLIKEN ATOMIC CHARGES
-----------------------
   0 C :    0.023757
   1 C :   -0.048054
   2 C :    0.053036
   3 O :   -0.437565
   4 O :   -0.432743
   5 O :   -0.426258
   6 H :    0.090125
   7 H :    0.064224
   8 H :    0.051908
   9 H :    0.071545
  10 H :    0.091965
  11 H :    0.298094
  12 H :    0.301323
  13 H :    0.298644
Sum of atomic charges:   -0.0000000

LOEWDIN ATOMIC CHARGES
----------------------
   0 C :   -0.138979
   1 C :   -0.106337
   2 C :   -0.128090
   3 O :   -0.339449
   4 O :   -0.329446
   5 O :   -0.328979
   6 H :    0.117300
   7 H :    0.089891
   8 H :    0.092246
   9 H :    0.101253
  10 H :    0.117193
  11 H :    0.282421
  12 H :    0.285858
  13 H :    0.285117

  Mayer bond orders larger than 0.100000
B(  0-C ,  1-C ) :   1.0106 B(  0-C ,  5-O ) :   1.0627 B(  0-C ,  6-H ) :   0.9146
B(  0-C ,  7-H ) :   0.9229 B(  1-C ,  2-C ) :   1.0453 B(  1-C ,  4-O ) :   1.0363
B(  1-C ,  8-H ) :   0.8964 B(  2-C ,  3-O ) :   1.0745 B(  2-C ,  9-H ) :   0.9110
B(  2-C , 10-H ) :   0.9170 B(  3-O , 11-H ) :   0.8491 B(  4-O , 12-H ) :   0.8475
B(  5-O , 13-H ) :   0.8503

Dispersion correction           -0.009017909
FINAL SINGLE POINT ENERGY      -344.008426089359

DIPOLE MOMENT
-------------

Method             : SCF
Type of density    : Electron Density
Multiplicity       :   1
Irrep              :   0
Energy             :  -344.0815610948338872 Eh
Relativity type    :
Basis              : AO
                                X                 Y                 Z
Electronic contribution:      1.117899545      -0.140616667       0.529348340
Nuclear contribution   :     -1.594642367       1.057048697       0.102129137
                        -----------------------------------------
Total Dipole Moment    :     -0.476742822       0.916432030       0.631477477
                        -----------------------------------------
Magnitude (a.u.)       :      1.210741585
Magnitude (Debye)      :      3.077460541

Rotational constants in cm-1:             0.171966             0.079870             0.058908
Rotational constants in MHz :          5155.399754          2394.452168          1766.004243

                             ****ORCA TERMINATED NORMALLY****
TOTAL RUN TIME: 0 days 0 hours 0 minutes 8 seconds 111 msec
