                         Program Version 6.0.0  -   RELEASE  -
|  1> ! r2scan-3c def2/J RI DEFGRID2 scfconv6 printgap
|  2> %output
|  3>     printlevel normal
|  4> end
|  5> * xyz 0 1
|  6> C 1.9520608942 -0.75727952 -0.7971138011
|  7> C 1.19782867 -0.1147651486 0.3631550321
|  8> H 0.9008312782 -0.8998191152 1.076938555
|  9> C -0.059055165 0.6447389009 -0.1072546065
| 10> C -1.3818156268 -0.0724235983 0.1870522694
| 11> C -2.5522314841 0.8540780888 -0.140972012
| 12> C -1.5122016809 -1.3735280185 -0.6009122184
| 13> O 2.1219375333 0.7533854648 1.0080527933
| 14> H 2.8080514925 -1.3094812653 -0.4177834492
| 15> H 1.3041622625 -1.430339637 -1.3478522815
| 16> H 2.3153233482 0.0217399923 -1.4625428149
| 17> H -0.0747728183 1.6163166829 0.3926007875
| 18> H 0.0147856641 0.8388231106 -1.1785442436
| 19> H -1.4188540285 -0.3102051244 1.2567650018
| 20> H -2.5418838116 1.1145303095 -1.1969285044
| 21> H -2.4940384959 1.7717415977 0.4396192221
| 22> H -3.497823966 0.3663818726 0.0828978935
| 23> H -0.734591221 -2.079154807 -0.3214437339
| 24> H -2.4766015372 -1.8360865378 -0.403703302
| 25> H -1.4382909171 -1.1774818764 -1.6682614626
| 26> H 1.7192121238 1.1158397558 1.8078282465
| 27> *
| 28>
| 29>                          ****END OF INPUT****

CARTESIAN COORDINATES (ANGSTROEM)
---------------------------------
  C      1.952061   -0.757280   -0.797114
  C      1.197829   -0.114765    0.363155
  H      0.900831   -0.899819    1.076939
  C     -0.059055    0.644739   -0.107255
  C     -1.381816   -0.072424    0.187052
  C     -2.552231    0.854078   -0.140972
  C     -1.512202   -1.373528   -0.600912
  O      2.121938    0.753385    1.008053
  H      2.808051   -1.309481   -0.417783
  H      1.304162   -1.430340   -1.347852
  H      2.315323    0.021740   -1.462543
  H     -0.074773    1.616317    0.392601
  H      0.014786    0.838823   -1.178544
  H     -1.418854   -0.310205    1.256765
  H     -2.541884    1.114530   -1.196929
  H     -2.494038    1.771742    0.439619
  H     -3.497824    0.366382    0.082898
  H     -0.734591   -2.079155   -0.321444
  H     -2.476602   -1.836087   -0.403703
  H     -1.438291   -1.177482   -1.668261
  H      1.719212    1.115840    1.807828

 Total Charge           Charge          ....    0
 Multiplicity           Mult            ....    1
 Number of Electrons    NEL             ....   58
 Basis Dimension        Dim             ....  208

ORBITAL ENERGIES
----------------

  NO   OCC          E(Eh)            E(eV)
   0   2.0000     -18.942075      -515.4401
   1   2.0000     -10.079796      -274.2852
   2   2.0000     -10.037441      -273.1326
   3   2.0000     -10.021714      -272.7047
   4   2.0000     -10.018373      -272.6138
   5   2.0000     -10.017347      -272.5859
   6   2.0000     -10.014330      -272.5038
   7   2.0000      -0.979702       -26.6590
   8   2.0000      -0.781101       -21.2548
   9   2.0000      -0.719607       -19.5815
  10   2.0000      -0.654733       -17.8162
  11   2.0000      -0.647956       -17.6318
  12   2.0000      -0.557981       -15.1834
  13   2.0000      -0.531073       -14.4512
  14   2.0000      -0.480712       -13.0808
  15   2.0000      -0.438104       -11.9214
  16   2.0000      -0.422569       -11.4987
  17   2.0000      -0.401550       -10.9267
  18   2.0000      -0.377343       -10.2680
  19   2.0000      -0.368150       -10.0179
  20   2.0000      -0.355490        -9.6734
  21   2.0000      -0.352014        -9.5788
  22   2.0000      -0.337837        -9.1930
  23   2.0000      -0.322957        -8.7881
  24   2.0000      -0.319223        -8.6865
  25   2.0000      -0.297751        -8.1022
  26   2.0000      -0.293187        -7.9780
  27   2.0000      -0.275581        -7.4989
  28   2.0000      -0.230341        -6.2679
  29   0.0000       0.062278         1.6947
  30   0.0000       0.085397         2.3238
  31   0.0000       0.104921         2.8550
  32   0.0000       0.112429         3.0594
  33   0.0000       0.125890         3.4256

MULLIKEN ATOMIC CHARGES
-----------------------
   0 C :   -0.507614
   1 C :    0.032428
   2 H :    0.132227
   3 C :   -0.280820
   4 C :   -0.046342
   5 C :   -0.477331
   6 C :   -0.518083
   7 O :   -0.425951
   8 H :    0.155258
   9 H :    0.148026
  10 H :    0.159803
  11 H :    0.154038
  12 H :    0.152696
  13 H :    0.143498
  14 H :    0.147357
  15 H :    0.143896
  16 H :    0.146900
  17 H :    0.153517
  18 H :    0.145358
  19 H :    0.157903
  20 H :    0.283237
Sum of atomic charges:   -0.0000000

LOEWDIN ATOMIC CHARGES
----------------------
   0 C :   -0.383869
   1 C :    0.051391
   2 H :    0.160153
   3 C :   -0.281522
   4 C :   -0.245853
   5 C :   -0.417193
   6 C :   -0.418534
   7 O :   -0.617486
   8 H :    0.160657
   9 H :    0.157200
  10 H :    0.162508
  11 H :    0.168445
  12 H :    0.164413
  13 H :    0.153174
  14 H :    0.154530
  15 H :    0.152526
  16 H :    0.152427
  17 H :    0.153301
  18 H :    0.153747
  19 H :    0.154248
  20 H :    0.265737

  Mayer bond orders larger than 0.100000
B(  0-C ,  1-C ) :   0.9339 B(  0-C ,  8-H ) :   0.9709 B(  0-C ,  9-H ) :   0.9645
B(  0-C , 10-H ) :   0.9864 B(  1-C ,  2-H ) :   0.9693 B(  1-C ,  3-C ) :   0.8313
B(  1-C ,  7-O ) :   0.9093 B(  3-C ,  4-C ) :   0.8835 B(  3-C , 11-H ) :   0.9803
B(  3-C , 12-H ) :   0.9730 B(  4-C ,  5-C ) :   0.9091 B(  4-C ,  6-C ) :   0.8853
B(  4-C , 13-H ) :   0.9643 B(  5-C , 14-H ) :   0.9839 B(  5-C , 15-H ) :   0.9767
B(  5-C , 16-H ) :   0.9757 B(  6-C , 17-H ) :   0.9697 B(  6-C , 18-H ) :   0.9696
B(  6-C , 19-H ) :   0.9875 B(  7-O , 20-H ) :   0.9007

Dispersion correction           -0.005569005
FINAL SINGLE POINT ENERGY      -312.199922385085

DIPOLE MOMENT
-------------

Method             : SCF
Type of density    : Electron Density
Multiplicity       :   1
Irrep              :   0
Energy             :  -312.2054633664941434 Eh
Relativity type    :
Basis              : AO
                                X                 Y                 Z
Electronic contribution:      4.641923987       1.939472324       2.933855935
Nuclear contribution   :     -5.235819246      -2.050147471      -2.743625272
                        -----------------------------------------
Total Dipole Moment    :     -0.593895259      -0.110675147       0.190230663
                        -----------------------------------------
Magnitude (a.u.)       :      0.633362670
Magnitude (Debye)      :      1.609879968

Rotational constants in cm-1:             0.142406             0.048659             0.040359
Rotational constants in MHz :          4269.220260          1458.773628          1209.918818

                             ****ORCA TERMINATED NORMALLY****
TOTAL RUN TIME: 0 days 0 hours 0 minutes 29 seconds 893 msec
