                         Program Version 6.0.0  -   RELEASE  -
|  1> ! r2scan-3c def2/J RI DEFGRID2 scfconv6 printgap
|  2> %output
|  3>     printlevel normal
|  4> end
|  5> %cpcm
|  6>     smd true
|  7>     smdsolvent "water"
|  8> end
|  9> * xyz 0 1
| 10> C 1.9520608942 -0.75727952 -0.7971138011
| 11> C 1.19782867 -0.1147651486 0.3631550321
| 12> H 0.9008312782 -0.8998191152 1.076938555
| 13> C -0.059055165 0.6447389009 -0.1072546065
| 14> C -1.3818156268 -0.0724235983 0.1870522694
| 15> C -2.5522314841 0.8540780888 -0.140972012
| 16> C -1.5122016809 -1.3735280185 -0.6009122184
| 17> O 2.1219375333 0.7533854648 1.0080527933
| 18> H 2.8080514925 -1.3094812653 -0.4177834492
| 19> H 1.3041622625 -1.430339637 -1.3478522815
| 20> H 2.3153233482 0.0217399923 -1.4625428149
| 21> H -0.0747728183 1.6163166829 0.3926007875
| 22> H 0.0147856641 0.8388231106 -1.1785442436
| 23> H -1.4188540285 -0.3102051244 1.2567650018
| 24> H -2.5418838116 1.1145303095 -1.1969285044
| 25> H -2.4940384959 1.7717415977 0.4396192221
| 26> H -3.497823966 0.3663818726 0.0828978935
| 27> H -0.734591221 -2.079154807 -0.3214437339
| 28> H -2.4766015372 -1.8360865378 -0.403703302
| 29> H -1.4382909171 -1.1774818764 -1.6682614626
| 30> H 1.7192121238 1.1158397558 1.8078282465
| 31> *
| 32>
| 33>                          ****END OF INPUT****

CARTESIAN COORDINATES (ANGSTROEM)
---------------------------------
  C      1.952061   -0.757280   -0.797114
  C      1.197829   -0.114765    0.363155
  H      0.900831   -0.899819    1.076939
  C     -0.059055    0.644739   -0.107255
  C     -1.381816   -0.072424    0.187052
  C     -2.552231    0.854078   -0.140972
  C     -1.512202   -1.373528   -0.600912
  O      2.121938    0.753385    1.008053
  H      2.808051   -1.309481   -0.417783
  H      1.304162   -1.430340   -1.347852
  H      2.315323    0.021740   -1.462543
  H     -0.074773    1.616317    0.392601
  H      0.014786    0.838823   -1.178544
  H     -1.418854   -0.310205    1.256765
  H     -2.541884    1.114530   -1.196929
  H     -2.494038    1.771742    0.439619
  H     -3.497824    0.366382    0.082898
  H     -0.734591   -2.079155   -0.321444
  H     -2.476602   -1.836087   -0.403703
  H     -1.438291   -1.177482   -1.668261
  H      1.719212    1.115840    1.807828

 Total Charge           Charge          ....    0
 Multiplicity           Mult            ....    1
 Number of Electrons    NEL             ....   58
 Basis Dimension        Dim             ....  208

ORBITAL ENERGIES
----------------

  NO   OCC          E(Eh)            E(eV)
   0   2.0000     -18.946405      -515.5579
   1   2.0000     -10.074643      -274.1450
   2   2.0000     -10.025922      -272.8192
   3   2.0000     -10.012020      -272.4409
   4   2.0000     -10.009618      -272.3756
   5   2.0000     -10.005965      -272.2761
   6   2.0000     -10.005928      -272.2751
   7   2.0000      -0.982712       -26.7410
   8   2.0000      -0.770598       -20.9690
   9   2.0000      -0.713943       -19.4274
  10   2.0000      -0.644374       -17.5343
  11   2.0000      -0.639216       -17.3939
  12   2.0000      -0.553323       -15.0567
  13   2.0000      -0.520649       -14.1676
  14   2.0000      -0.477455       -12.9922
  15   2.0000      -0.428252       -11.6533
  16   2.0000      -0.414948       -11.2913
  17   2.0000      -0.392789       -10.6883
  18   2.0000      -0.372470       -10.1354
  19   2.0000      -0.358801        -9.7635
  20   2.0000      -0.348860        -9.4930
  21   2.0000      -0.342546        -9.3211
  22   2.0000      -0.335302        -9.1240
  23   2.0000      -0.319359        -8.6902
  24   2.0000      -0.309587        -8.4243
  25   2.0000      -0.286767        -7.8033
  26   2.0000      -0.283449        -7.7130
  27   2.0000      -0.271544        -7.3891
  28   2.0000      -0.234171        -6.3721
  29   0.0000       0.078957         2.1485
  30   0.0000       0.096238         2.6188
  31   0.0000       0.115298         3.1374
  32   0.0000       0.123345         3.3564
  33   0.0000       0.134005         3.6465

MULLIKEN ATOMIC CHARGES
-----------------------
   0 C :   -0.546822
   1 C :    0.054830
   2 H :    0.145267
   3 C :   -0.297408
   4 C :   -0.029060
   5 C :   -0.528179
   6 C :   -0.557128
   7 O :   -0.517140
   8 H :    0.161412
   9 H :    0.167841
  10 H :    0.167045
  11 H :    0.162924
  12 H :    0.162105
  13 H :    0.154668
  14 H :    0.158084
  15 H :    0.156349
  16 H :    0.158117
  17 H :    0.164483
  18 H :    0.155766
  19 H :    0.167299
  20 H :    0.339545
Sum of atomic charges:   -0.0000000

LOEWDIN ATOMIC CHARGES
----------------------
   0 C :   -0.393340
   1 C :    0.052851
   2 H :    0.168573
   3 C :   -0.282534
   4 C :   -0.240846
   5 C :   -0.426200
   6 C :   -0.425990
   7 O :   -0.655519
   8 H :    0.159766
   9 H :    0.165238
  10 H :    0.162340
  11 H :    0.172600
  12 H :    0.166135
  13 H :    0.157251
  14 H :    0.156286
  15 H :    0.155194
  16 H :    0.154963
  17 H :    0.156501
  18 H :    0.155517
  19 H :    0.156536
  20 H :    0.284677

  Mayer bond orders larger than 0.100000
B(  0-C ,  1-C ) :   0.9281 B(  0-C ,  8-H ) :   0.9709 B(  0-C ,  9-H ) :   0.9597
B(  0-C , 10-H ) :   0.9813 B(  1-C ,  2-H ) :   0.9606 B(  1-C ,  3-C ) :   0.8450
B(  1-C ,  7-O ) :   0.8903 B(  3-C ,  4-C ) :   0.8898 B(  3-C , 11-H ) :   0.9729
B(  3-C , 12-H ) :   0.9729 B(  4-C ,  5-C ) :   0.8946 B(  4-C ,  6-C ) :   0.8799
B(  4-C , 13-H ) :   0.9648 B(  5-C , 14-H ) :   0.9835 B(  5-C , 15-H ) :   0.9747
B(  5-C , 16-H ) :   0.9734 B(  6-C , 17-H ) :   0.9672 B(  6-C , 18-H ) :   0.9689
B(  6-C , 19-H ) :   0.9844 B(  7-O , 20-H ) :   0.8740

Dispersion correction           -0.005569005
FINAL SINGLE POINT ENERGY      -312.206089006005

DIPOLE MOMENT
-------------

Method             : SCF
Type of density    : Electron Density
Multiplicity       :   1
Irrep              :   0
Energy             :  -312.2116299874134597 Eh
Relativity type    :
Basis              : AO
                                X                 Y                 Z
Electronic contribution:      4.386882156       1.871957655       3.044526755
Nuclear contribution   :     -5.235819246      -2.050147471      -2.743625272
                        -----------------------------------------
Total Dipole Moment    :     -0.848937090      -0.178189816       0.300901483
                        -----------------------------------------
Magnitude (a.u.)       :      0.918143505
Magnitude (Debye)      :      2.333735324

Rotational constants in cm-1:             0.142406             0.048659             0.040359
Rotational constants in MHz :          4269.220260          1458.773628          1209.918818

                             ****ORCA TERMINATED NORMALLY****
TOTAL RUN TIME: 0 days 0 hours 0 minutes 35 seconds 667 msec
