                         Program Version 6.0.0  -   RELEASE  -
|  1> ! pbe def2-sv(p) def2/J RI DEFGRID1 loosescf d4 GCP(DFT/SV(P)) printgap
|  2> %output
|  3>     printlevel normal
|  4> end
|  5> * xyz 0 1
|  6> C -2.6942880442 0.4571020209 0.921497655
|  7> C -2.1456254823 0.3799332313 -0.4983589995
|  8> C -0.873872316 -0.4533153825 -0.5691169631
|  9> O 0.1638606087 0.2323608999 0.1471407284
| 10> C 1.4143455745 -0.1718270117 -0.0313392999
| 11> O 1.7152472002 -1.1008439706 -0.7540046355
| 12> C 2.3846759712 0.6650932673 0.746479748
| 13> H -3.5865311278 1.076131037 0.9472369593
| 14> H -2.9496935071 -0.5352752241 1.285131152
| 15> H -1.9508788671 0.8887988726 1.5861663363
| 16> H -1.9242059025 1.3835512499 -0.8631252816
| 17> H -2.8822204355 -0.0739968192 -1.1612778648
| 18> H -1.0166147768 -1.4375136052 -0.1105758913
| 19> H -0.5426220121 -0.6014909523 -1.6024882838
| 20> H 3.3344071767 0.1464700533 0.8230339335
| 21> H 1.9774024633 0.8838030791 1.7283309681
| 22> H 2.5299801984 1.6049005109 0.2182991217
| 23> *
| 24>
| 25>                          ****END OF INPUT****

CARTESIAN COORDINATES (ANGSTROEM)
---------------------------------
  C     -2.694288    0.457102    0.921498
  C     -2.145625    0.379933   -0.498359
  C     -0.873872   -0.453315   -0.569117
  O      0.163861    0.232361    0.147141
  C      1.414346   -0.171827   -0.031339
  O      1.715247   -1.100844   -0.754005
  C      2.384676    0.665093    0.746480
  H     -3.586531    1.076131    0.947237
  H     -2.949694   -0.535275    1.285131
  H     -1.950879    0.888799    1.586166
  H     -1.924206    1.383551   -0.863125
  H     -2.882220   -0.073997   -1.161278
  H     -1.016615   -1.437514   -0.110576
  H     -0.542622   -0.601491   -1.602488
  H      3.334407    0.146470    0.823034
  H      1.977402    0.883803    1.728331
  H      2.529980    1.604901    0.218299

 Total Charge           Charge          ....    0
 Multiplicity           Mult            ....    1
 Number of Electrons    NEL             ....   56
 Basis Dimension        Dim             ....  118

ORBITAL ENERGIES
----------------

  NO   OCC          E(Eh)            E(eV)
   0   2.0000     -18.797173      -511.4971
   1   2.0000     -18.731386      -509.7069
   2   2.0000     -10.004705      -272.2419
   3   2.0000      -9.942297      -270.5437
   4   2.0000      -9.896215      -269.2897
   5   2.0000      -9.891466      -269.1605
   6   2.0000      -9.879980      -268.8479
   7   2.0000      -1.004178       -27.3251
   8   2.0000      -0.906606       -24.6700
   9   2.0000      -0.725594       -19.7444
  10   2.0000      -0.677072       -18.4241
  11   2.0000      -0.620421       -16.8825
  12   2.0000      -0.549517       -14.9531
  13   2.0000      -0.502843       -13.6830
  14   2.0000      -0.446210       -12.1420
  15   2.0000      -0.433514       -11.7965
  16   2.0000      -0.411531       -11.1983
  17   2.0000      -0.401130       -10.9153
  18   2.0000      -0.386556       -10.5187
  19   2.0000      -0.373640       -10.1673
  20   2.0000      -0.359079        -9.7710
  21   2.0000      -0.336927        -9.1682
  22   2.0000      -0.324517        -8.8306
  23   2.0000      -0.311638        -8.4801
  24   2.0000      -0.304848        -8.2953
  25   2.0000      -0.289971        -7.8905
  26   2.0000      -0.255147        -6.9429
  27   2.0000      -0.215735        -5.8705
  28   0.0000      -0.017627        -0.4796
  29   0.0000       0.037030         1.0076
  30   0.0000       0.056626         1.5409
  31   0.0000       0.076329         2.0770
  32   0.0000       0.078869         2.1461

MULLIKEN ATOMIC CHARGES
-----------------------
   0 C :   -0.290229
   1 C :   -0.176830
   2 C :   -0.005154
   3 O :   -0.245372
   4 C :    0.080500
   5 O :   -0.215541
   6 C :   -0.243953
   7 H :    0.107840
   8 H :    0.099069
   9 H :    0.112400
  10 H :    0.097061
  11 H :    0.095323
  12 H :    0.096334
  13 H :    0.107901
  14 H :    0.125171
  15 H :    0.122649
  16 H :    0.132830
Sum of atomic charges:    0.0000000

LOEWDIN ATOMIC CHARGES
----------------------
   0 C :   -0.343559
   1 C :   -0.244984
   2 C :   -0.102433
   3 O :   -0.073203
   4 C :    0.027747
   5 O :   -0.172070
   6 C :   -0.359071
   7 H :    0.120964
   8 H :    0.118022
   9 H :    0.121334
  10 H :    0.123033
  11 H :    0.125214
  12 H :    0.114164
  13 H :    0.116780
  14 H :    0.140490
  15 H :    0.139300
  16 H :    0.148272

  Mayer bond orders larger than 0.100000
B(  0-C ,  1-C ) :   1.1461 B(  0-C ,  7-H ) :   0.9539 B(  0-C ,  8-H ) :   0.9552
B(  0-C ,  9-H ) :   0.9541 B(  1-C ,  2-C ) :   1.1090 B(  1-C , 10-H ) :   0.9229
B(  1-C , 11-H ) :   0.9206 B(  2-C ,  3-O ) :   0.9143 B(  2-C , 12-H ) :   0.9308
B(  2-C , 13-H ) :   0.9231 B(  3-O ,  4-C ) :   1.1905 B(  4-C ,  5-O ) :   2.0568
B(  4-C ,  6-C ) :   1.0886 B(  6-C , 14-H ) :   0.9411 B(  6-C , 15-H ) :   0.9338
B(  6-C , 16-H ) :   0.9252

Dispersion correction           -0.011638662
FINAL SINGLE POINT ENERGY      -346.244245954750

DIPOLE MOMENT
-------------

Method             : SCF
Type of density    : Electron Density
Multiplicity       :   1
Irrep              :   0
Energy             :  -346.3091793947280621 Eh
Relativity type    :
Basis              : AO
                                X                 Y                 Z
Electronic contribution:      6.042605398      -2.560347606      -2.357574455
Nuclear contribution   :     -6.549608528       3.116266168       2.665465005
                        -----------------------------------------
Total Dipole Moment    :     -0.507003131       0.555918562       0.307890550
                        -----------------------------------------
Magnitude (a.u.)       :      0.812954004
Magnitude (Debye)      :      2.066364861

Rotational constants in cm-1:             0.196358             0.045577             0.039444
Rotational constants in MHz :          5886.661568          1366.361074          1182.495328

                             ****ORCA TERMINATED NORMALLY****
TOTAL RUN TIME: 0 days 0 hours 0 minutes 8 seconds 240 msec
