                         Program Version 6.0.0  -   RELEASE  -
|  1> ! pbe def2-sv(p) def2/J RI DEFGRID1 loosescf d4 GCP(DFT/SV(P)) printgap
|  2> %output
|  3>     printlevel normal
|  4> end
|  5> * xyz 0 1
|  6> C 2.8166239956 -0.1995794141 0.2078780144
|  7> C 1.4846191804 0.2945558178 -0.3419124464
|  8> C 0.3141738551 -0.536496289 0.1785087419
|  9> C -1.0328797955 -0.0246833951 -0.3377074378
| 10> H -0.9912475928 0.0324057858 -1.4388297605
| 11> C -2.1720154943 -0.9577241957 0.0736148959
| 12> O -1.2215995841 1.2814518117 0.1846512037
| 13> H 2.9866174354 -1.2346454054 -0.0801873789
| 14> H 2.8255990368 -0.1396519073 1.2936635206
| 15> H 3.6344902548 0.4043792552 -0.1768073226
| 16> H 1.3277305486 1.3356559556 -0.0543920668
| 17> H 1.500367466 0.2482769809 -1.4334605077
| 18> H 0.4361092001 -1.5766579166 -0.1267514983
| 19> H 0.298421022 -0.4943872234 1.2691392589
| 20> H -3.1227786437 -0.5956117029 -0.3112226922
| 21> H -1.9964141356 -1.9542468062 -0.320138304
| 22> H -2.230321737 -1.0107073887 1.1581486836
| 23> H -2.0858922795 1.6121700327 -0.0931552692
| 24> *
| 25>
| 26>                          ****END OF INPUT****

CARTESIAN COORDINATES (ANGSTROEM)
---------------------------------
  C      2.816624   -0.199579    0.207878
  C      1.484619    0.294556   -0.341912
  C      0.314174   -0.536496    0.178509
  C     -1.032880   -0.024683   -0.337707
  H     -0.991248    0.032406   -1.438830
  C     -2.172015   -0.957724    0.073615
  O     -1.221600    1.281452    0.184651
  H      2.986617   -1.234645   -0.080187
  H      2.825599   -0.139652    1.293664
  H      3.634490    0.404379   -0.176807
  H      1.327731    1.335656   -0.054392
  H      1.500367    0.248277   -1.433461
  H      0.436109   -1.576658   -0.126751
  H      0.298421   -0.494387    1.269139
  H     -3.122779   -0.595612   -0.311223
  H     -1.996414   -1.954247   -0.320138
  H     -2.230322   -1.010707    1.158149
  H     -2.085892    1.612170   -0.093155

 Total Charge           Charge          ....    0
 Multiplicity           Mult            ....    1
 Number of Electrons    NEL             ....   50
 Basis Dimension        Dim             ....  108

ORBITAL ENERGIES
----------------

  NO   OCC          E(Eh)            E(eV)
   0   2.0000     -18.737847      -509.8827
   1   2.0000      -9.934260      -270.3250
   2   2.0000      -9.876926      -268.7648
   3   2.0000      -9.874404      -268.6962
   4   2.0000      -9.873996      -268.6851
   5   2.0000      -9.866912      -268.4923
   6   2.0000      -0.915381       -24.9088
   7   2.0000      -0.712771       -19.3955
   8   2.0000      -0.667662       -18.1680
   9   2.0000      -0.606809       -16.5121
  10   2.0000      -0.532238       -14.4829
  11   2.0000      -0.509134       -13.8542
  12   2.0000      -0.461497       -12.5580
  13   2.0000      -0.398535       -10.8447
  14   2.0000      -0.396499       -10.7893
  15   2.0000      -0.386857       -10.5269
  16   2.0000      -0.350656        -9.5418
  17   2.0000      -0.346989        -9.4421
  18   2.0000      -0.331401        -9.0179
  19   2.0000      -0.320104        -8.7105
  20   2.0000      -0.296730        -8.0744
  21   2.0000      -0.286251        -7.7893
  22   2.0000      -0.280376        -7.6294
  23   2.0000      -0.260796        -7.0966
  24   2.0000      -0.210836        -5.7371
  25   0.0000       0.025107         0.6832
  26   0.0000       0.054040         1.4705
  27   0.0000       0.069249         1.8844
  28   0.0000       0.073690         2.0052
  29   0.0000       0.089895         2.4462

MULLIKEN ATOMIC CHARGES
-----------------------
   0 C :   -0.254356
   1 C :   -0.182526
   2 C :   -0.164487
   3 C :    0.022179
   4 H :    0.051671
   5 C :   -0.243403
   6 O :   -0.428434
   7 H :    0.091755
   8 H :    0.096749
   9 H :    0.100133
  10 H :    0.098987
  11 H :    0.075190
  12 H :    0.076588
  13 H :    0.079740
  14 H :    0.089521
  15 H :    0.094835
  16 H :    0.102099
  17 H :    0.293759
Sum of atomic charges:    0.0000000

LOEWDIN ATOMIC CHARGES
----------------------
   0 C :   -0.339925
   1 C :   -0.235387
   2 C :   -0.228756
   3 C :   -0.056516
   4 H :    0.092863
   5 C :   -0.352359
   6 O :   -0.333927
   7 H :    0.113826
   8 H :    0.116675
   9 H :    0.117838
  10 H :    0.120961
  11 H :    0.111286
  12 H :    0.115982
  13 H :    0.119208
  14 H :    0.112200
  15 H :    0.122402
  16 H :    0.122072
  17 H :    0.281558

  Mayer bond orders larger than 0.100000
B(  0-C ,  1-C ) :   1.1566 B(  0-C ,  7-H ) :   0.9538 B(  0-C ,  8-H ) :   0.9547
B(  0-C ,  9-H ) :   0.9537 B(  1-C ,  2-C ) :   1.1407 B(  1-C , 10-H ) :   0.9199
B(  1-C , 11-H ) :   0.9253 B(  2-C ,  3-C ) :   1.0816 B(  2-C , 12-H ) :   0.9206
B(  2-C , 13-H ) :   0.9077 B(  3-C ,  4-H ) :   0.9022 B(  3-C ,  5-C ) :   1.1152
B(  3-C ,  6-O ) :   1.0510 B(  5-C , 14-H ) :   0.9463 B(  5-C , 15-H ) :   0.9373
B(  5-C , 16-H ) :   0.9422 B(  6-O , 17-H ) :   0.8533

Dispersion correction           -0.012186524
FINAL SINGLE POINT ENERGY      -272.306260855653

DIPOLE MOMENT
-------------

Method             : SCF
Type of density    : Electron Density
Multiplicity       :   1
Irrep              :   0
Energy             :  -272.3762658073500234 Eh
Relativity type    :
Basis              : AO
                                X                 Y                 Z
Electronic contribution:     -2.863212372       2.960209477      -0.012653818
Nuclear contribution   :      2.404847889      -3.145427677      -0.291836821
                        -----------------------------------------
Total Dipole Moment    :     -0.458364483      -0.185218200      -0.304490639
                        -----------------------------------------
Magnitude (a.u.)       :      0.580618920
Magnitude (Debye)      :      1.475816009

Rotational constants in cm-1:             0.241421             0.058422             0.050815
Rotational constants in MHz :          7237.605949          1751.459570          1523.409710

                             ****ORCA TERMINATED NORMALLY****
TOTAL RUN TIME: 0 days 0 hours 0 minutes 7 seconds 786 msec
