                         Program Version 6.0.0  -   RELEASE  -
|  1> ! r2scan-3c def2/J RI DEFGRID2 scfconv6 printgap
|  2> %output
|  3>     printlevel normal
|  4> end
|  5> * xyz 0 1
|  6> C -0.993179897 -0.5789336198 -0.1972791945
|  7> C 0.0234508251 0.2771809113 0.561809566
|  8> C 1.393563163 -0.4048088886 0.6170493382
|  9> O 1.717634868 -0.9381429204 -0.6471684001
| 10> O 0.1744858636 1.5415058613 -0.0444361264
| 11> O -2.2406493934 0.0816889336 -0.1333293471
| 12> H -1.0448503915 -1.5686790016 0.2705392052
| 13> H -0.6541231485 -0.6850824064 -1.2335325425
| 14> H -0.3375962744 0.4136916142 1.5943906627
| 15> H 1.3594986805 -1.2035513143 1.3697310732
| 16> H 2.1224171015 0.3535270618 0.9228174559
| 17> H 2.6442605342 -1.2145068552 -0.6464579253
| 18> H -0.7111628646 1.8759831677 -0.2508261862
| 19> H -2.8965781572 -0.4259884457 -0.6288053528
| 20> *
| 21>
| 22>                          ****END OF INPUT****

CARTESIAN COORDINATES (ANGSTROEM)
---------------------------------
  C     -0.993180   -0.578934   -0.197279
  C      0.023451    0.277181    0.561810
  C      1.393563   -0.404809    0.617049
  O      1.717635   -0.938143   -0.647168
  O      0.174486    1.541506   -0.044436
  O     -2.240649    0.081689   -0.133329
  H     -1.044850   -1.568679    0.270539
  H     -0.654123   -0.685082   -1.233533
  H     -0.337596    0.413692    1.594391
  H      1.359499   -1.203551    1.369731
  H      2.122417    0.353527    0.922817
  H      2.644261   -1.214507   -0.646458
  H     -0.711163    1.875983   -0.250826
  H     -2.896578   -0.425988   -0.628805

 Total Charge           Charge          ....    0
 Multiplicity           Mult            ....    1
 Number of Electrons    NEL             ....   50
 Basis Dimension        Dim             ....  169

ORBITAL ENERGIES
----------------

  NO   OCC          E(Eh)            E(eV)
   0   2.0000     -18.958069      -515.8753
   1   2.0000     -18.952301      -515.7183
   2   2.0000     -18.939746      -515.3767
   3   2.0000     -10.081768      -274.3389
   4   2.0000     -10.079756      -274.2841
   5   2.0000     -10.074577      -274.1432
   6   2.0000      -1.002278       -27.2734
   7   2.0000      -0.989844       -26.9350
   8   2.0000      -0.971867       -26.4458
   9   2.0000      -0.726356       -19.7651
  10   2.0000      -0.644045       -17.5254
  11   2.0000      -0.552010       -15.0209
  12   2.0000      -0.504231       -13.7208
  13   2.0000      -0.481686       -13.1073
  14   2.0000      -0.474394       -12.9089
  15   2.0000      -0.422353       -11.4928
  16   2.0000      -0.394737       -10.7413
  17   2.0000      -0.383345       -10.4314
  18   2.0000      -0.378897       -10.3103
  19   2.0000      -0.326088        -8.8733
  20   2.0000      -0.317427        -8.6376
  21   2.0000      -0.282363        -7.6835
  22   2.0000      -0.245625        -6.6838
  23   2.0000      -0.242138        -6.5889
  24   2.0000      -0.230411        -6.2698
  25   0.0000       0.050098         1.3632
  26   0.0000       0.055685         1.5153
  27   0.0000       0.095557         2.6002
  28   0.0000       0.117465         3.1964
  29   0.0000       0.131772         3.5857

MULLIKEN ATOMIC CHARGES
-----------------------
   0 C :   -0.190296
   1 C :    0.074838
   2 C :   -0.161545
   3 O :   -0.421034
   4 O :   -0.426528
   5 O :   -0.445469
   6 H :    0.122839
   7 H :    0.159290
   8 H :    0.129524
   9 H :    0.121182
  10 H :    0.133961
  11 H :    0.295589
  12 H :    0.309503
  13 H :    0.298148
Sum of atomic charges:   -0.0000000

LOEWDIN ATOMIC CHARGES
----------------------
   0 C :    0.028214
   1 C :    0.088437
   2 C :    0.033390
   3 O :   -0.619454
   4 O :   -0.580467
   5 O :   -0.624169
   6 H :    0.164596
   7 H :    0.180506
   8 H :    0.173873
   9 H :    0.160659
  10 H :    0.174863
  11 H :    0.269503
  12 H :    0.279745
  13 H :    0.270305

  Mayer bond orders larger than 0.100000
B(  0-C ,  1-C ) :   0.9517 B(  0-C ,  5-O ) :   0.9405 B(  0-C ,  6-H ) :   0.9519
B(  0-C ,  7-H ) :   0.9697 B(  1-C ,  2-C ) :   0.9888 B(  1-C ,  4-O ) :   0.9094
B(  1-C ,  8-H ) :   0.9379 B(  2-C ,  3-O ) :   0.9500 B(  2-C ,  9-H ) :   0.9530
B(  2-C , 10-H ) :   0.9621 B(  3-O , 11-H ) :   0.8985 B(  4-O , 12-H ) :   0.8758
B(  5-O , 13-H ) :   0.8986

Dispersion correction           -0.002987631
FINAL SINGLE POINT ENERGY      -344.722163548241

DIPOLE MOMENT
-------------

Method             : SCF
Type of density    : Electron Density
Multiplicity       :   1
Irrep              :   0
Energy             :  -344.7296663479788776 Eh
Relativity type    :
Basis              : AO
                                X                 Y                 Z
Electronic contribution:     -0.494223166       1.514241355      -1.134003798
Nuclear contribution   :      0.446897249      -2.292672232       1.299180281
                        -----------------------------------------
Total Dipole Moment    :     -0.047325917      -0.778430877       0.165176483
                        -----------------------------------------
Magnitude (a.u.)       :      0.797168517
Magnitude (Debye)      :      2.026241341

Rotational constants in cm-1:             0.193706             0.078644             0.065204
Rotational constants in MHz :          5807.164432          2357.693714          1954.753787

                             ****ORCA TERMINATED NORMALLY****
TOTAL RUN TIME: 0 days 0 hours 0 minutes 20 seconds 372 msec
