                         Program Version 6.0.0  -   RELEASE  -
|  1> ! r2scan-3c def2/J RI DEFGRID2 scfconv6 printgap
|  2> %output
|  3>     printlevel normal
|  4> end
|  5> %cpcm
|  6>     smd true
|  7>     smdsolvent "water"
|  8> end
|  9> * xyz 0 1
| 10> C -0.993179897 -0.5789336198 -0.1972791945
| 11> C 0.0234508251 0.2771809113 0.561809566
| 12> C 1.393563163 -0.4048088886 0.6170493382
| 13> O 1.717634868 -0.9381429204 -0.6471684001
| 14> O 0.1744858636 1.5415058613 -0.0444361264
| 15> O -2.2406493934 0.0816889336 -0.1333293471
| 16> H -1.0448503915 -1.5686790016 0.2705392052
| 17> H -0.6541231485 -0.6850824064 -1.2335325425
| 18> H -0.3375962744 0.4136916142 1.5943906627
| 19> H 1.3594986805 -1.2035513143 1.3697310732
| 20> H 2.1224171015 0.3535270618 0.9228174559
| 21> H 2.6442605342 -1.2145068552 -0.6464579253
| 22> H -0.7111628646 1.8759831677 -0.2508261862
| 23> H -2.8965781572 -0.4259884457 -0.6288053528
| 24> *
| 25>
| 26>                          ****END OF INPUT****

CARTESIAN COORDINATES (ANGSTROEM)
---------------------------------
  C     -0.993180   -0.578934   -0.197279
  C      0.023451    0.277181    0.561810
  C      1.393563   -0.404809    0.617049
  O      1.717635   -0.938143   -0.647168
  O      0.174486    1.541506   -0.044436
  O     -2.240649    0.081689   -0.133329
  H     -1.044850   -1.568679    0.270539
  H     -0.654123   -0.685082   -1.233533
  H     -0.337596    0.413692    1.594391
  H      1.359499   -1.203551    1.369731
  H      2.122417    0.353527    0.922817
  H      2.644261   -1.214507   -0.646458
  H     -0.711163    1.875983   -0.250826
  H     -2.896578   -0.425988   -0.628805

 Total Charge           Charge          ....    0
 Multiplicity           Mult            ....    1
 Number of Electrons    NEL             ....   50
 Basis Dimension        Dim             ....  169

ORBITAL ENERGIES
----------------

  NO   OCC          E(Eh)            E(eV)
   0   2.0000     -18.956011      -515.8193
   1   2.0000     -18.953930      -515.7627
   2   2.0000     -18.953481      -515.7504
   3   2.0000     -10.081866      -274.3415
   4   2.0000     -10.074796      -274.1491
   5   2.0000     -10.071781      -274.0671
   6   2.0000      -1.006145       -27.3786
   7   2.0000      -0.989489       -26.9254
   8   2.0000      -0.978892       -26.6370
   9   2.0000      -0.725795       -19.7499
  10   2.0000      -0.640976       -17.4418
  11   2.0000      -0.553342       -15.0572
  12   2.0000      -0.503029       -13.6881
  13   2.0000      -0.477905       -13.0045
  14   2.0000      -0.475392       -12.9361
  15   2.0000      -0.422649       -11.5009
  16   2.0000      -0.393807       -10.7160
  17   2.0000      -0.388108       -10.5610
  18   2.0000      -0.380496       -10.3538
  19   2.0000      -0.330120        -8.9830
  20   2.0000      -0.326787        -8.8923
  21   2.0000      -0.286303        -7.7907
  22   2.0000      -0.247444        -6.7333
  23   2.0000      -0.246010        -6.6943
  24   2.0000      -0.241904        -6.5825
  25   0.0000       0.065097         1.7714
  26   0.0000       0.069246         1.8843
  27   0.0000       0.103102         2.8055
  28   0.0000       0.126494         3.4421
  29   0.0000       0.144612         3.9351

MULLIKEN ATOMIC CHARGES
-----------------------
   0 C :   -0.205477
   1 C :    0.080895
   2 C :   -0.168837
   3 O :   -0.500870
   4 O :   -0.502115
   5 O :   -0.507176
   6 H :    0.153546
   7 H :    0.157596
   8 H :    0.146583
   9 H :    0.148710
  10 H :    0.149073
  11 H :    0.350058
  12 H :    0.347843
  13 H :    0.350171
Sum of atomic charges:   -0.0000000

LOEWDIN ATOMIC CHARGES
----------------------
   0 C :    0.029966
   1 C :    0.083891
   2 C :    0.037741
   3 O :   -0.650286
   4 O :   -0.619532
   5 O :   -0.642593
   6 H :    0.176471
   7 H :    0.178955
   8 H :    0.182391
   9 H :    0.173887
  10 H :    0.180121
  11 H :    0.288871
  12 H :    0.291131
  13 H :    0.288986

  Mayer bond orders larger than 0.100000
B(  0-C ,  1-C ) :   0.9438 B(  0-C ,  5-O ) :   0.9322 B(  0-C ,  6-H ) :   0.9553
B(  0-C ,  7-H ) :   0.9663 B(  1-C ,  2-C ) :   0.9754 B(  1-C ,  4-O ) :   0.8915
B(  1-C ,  8-H ) :   0.9290 B(  2-C ,  3-O ) :   0.9359 B(  2-C ,  9-H ) :   0.9527
B(  2-C , 10-H ) :   0.9603 B(  3-O , 11-H ) :   0.8711 B(  4-O , 12-H ) :   0.8584
B(  5-O , 13-H ) :   0.8713

Dispersion correction           -0.002987631
FINAL SINGLE POINT ENERGY      -344.743233298320

DIPOLE MOMENT
-------------

Method             : SCF
Type of density    : Electron Density
Multiplicity       :   1
Irrep              :   0
Energy             :  -344.7507360980582121 Eh
Relativity type    :
Basis              : AO
                                X                 Y                 Z
Electronic contribution:     -0.527300183       1.196451653      -0.960415223
Nuclear contribution   :      0.446897249      -2.292672232       1.299180281
                        -----------------------------------------
Total Dipole Moment    :     -0.080402934      -1.096220579       0.338765058
                        -----------------------------------------
Magnitude (a.u.)       :      1.150185182
Magnitude (Debye)      :      2.923538396

Rotational constants in cm-1:             0.193706             0.078644             0.065204
Rotational constants in MHz :          5807.164432          2357.693714          1954.753787

                             ****ORCA TERMINATED NORMALLY****
TOTAL RUN TIME: 0 days 0 hours 0 minutes 23 seconds 815 msec
