                         Program Version 6.0.0  -   RELEASE  -
|  1> ! r2scan-3c def2/J RI DEFGRID2 scfconv6 printgap
|  2> %output
|  3>     printlevel normal
|  4> end
|  5> * xyz 0 1
|  6> C -2.8507225007 -0.1657252041 0.3864194335
|  7> C -1.6729803283 0.7462573117 0.0711788146
|  8> C -0.4059863593 -0.0285037909 -0.1864429413
|  9> O -0.3344325952 -1.2293473873 -0.3346069004
| 10> O 0.6447442782 0.7853182761 -0.2554561202
| 11> C 1.939490346 0.2102576123 -0.5001830278
| 12> C 2.5922755208 -0.2462413346 0.7956336127
| 13> H -2.9957590393 -0.8818554801 -0.4183805399
| 14> H -2.6644543769 -0.7232663165 1.3006768397
| 15> H -3.7562596286 0.4204475291 0.5082443776
| 16> H -1.4800394532 1.4453143876 0.8855730315
| 17> H -1.8742307982 1.3367948588 -0.8252220887
| 18> H 1.8229673878 -0.6314084777 -1.189716087
| 19> H 2.5097895259 1.0109841043 -0.9717869382
| 20> H 3.5929666198 -0.6095319526 0.5858312496
| 21> H 2.6499812927 0.5815756147 1.4972196195
| 22> H 2.0111474822 -1.0501677338 1.242056943
| 23> *
| 24>
| 25>                          ****END OF INPUT****

CARTESIAN COORDINATES (ANGSTROEM)
---------------------------------
  C     -2.850723   -0.165725    0.386419
  C     -1.672980    0.746257    0.071179
  C     -0.405986   -0.028504   -0.186443
  O     -0.334433   -1.229347   -0.334607
  O      0.644744    0.785318   -0.255456
  C      1.939490    0.210258   -0.500183
  C      2.592276   -0.246241    0.795634
  H     -2.995759   -0.881855   -0.418381
  H     -2.664454   -0.723266    1.300677
  H     -3.756260    0.420448    0.508244
  H     -1.480039    1.445314    0.885573
  H     -1.874231    1.336795   -0.825222
  H      1.822967   -0.631408   -1.189716
  H      2.509790    1.010984   -0.971787
  H      3.592967   -0.609532    0.585831
  H      2.649981    0.581576    1.497220
  H      2.011147   -1.050168    1.242057

 Total Charge           Charge          ....    0
 Multiplicity           Mult            ....    1
 Number of Electrons    NEL             ....   56
 Basis Dimension        Dim             ....  193

ORBITAL ENERGIES
----------------

  NO   OCC          E(Eh)            E(eV)
   0   2.0000     -18.994547      -516.8679
   1   2.0000     -18.929662      -515.1023
   2   2.0000     -10.152107      -276.2529
   3   2.0000     -10.090525      -274.5771
   4   2.0000     -10.044492      -273.3245
   5   2.0000     -10.028133      -272.8794
   6   2.0000     -10.021498      -272.6988
   7   2.0000      -1.069840       -29.1118
   8   2.0000      -0.976426       -26.5699
   9   2.0000      -0.762474       -20.7480
  10   2.0000      -0.729622       -19.8540
  11   2.0000      -0.644641       -17.5416
  12   2.0000      -0.591890       -16.1062
  13   2.0000      -0.518315       -14.1041
  14   2.0000      -0.473281       -12.8786
  15   2.0000      -0.454419       -12.3654
  16   2.0000      -0.444359       -12.0916
  17   2.0000      -0.412099       -11.2138
  18   2.0000      -0.407409       -11.0862
  19   2.0000      -0.373451       -10.1621
  20   2.0000      -0.362444        -9.8626
  21   2.0000      -0.351057        -9.5528
  22   2.0000      -0.339364        -9.2346
  23   2.0000      -0.330077        -8.9819
  24   2.0000      -0.318093        -8.6558
  25   2.0000      -0.305388        -8.3100
  26   2.0000      -0.270855        -7.3703
  27   2.0000      -0.237481        -6.4622
  28   0.0000      -0.012974        -0.3531
  29   0.0000       0.076732         2.0880
  30   0.0000       0.089236         2.4282
  31   0.0000       0.113159         3.0792
  32   0.0000       0.124448         3.3864

MULLIKEN ATOMIC CHARGES
-----------------------
   0 C :   -0.459931
   1 C :   -0.258536
   2 C :    0.371948
   3 O :   -0.432006
   4 O :   -0.175998
   5 C :   -0.135944
   6 C :   -0.469025
   7 H :    0.160443
   8 H :    0.149960
   9 H :    0.144836
  10 H :    0.159542
  11 H :    0.160504
  12 H :    0.166332
  13 H :    0.147774
  14 H :    0.146566
  15 H :    0.151316
  16 H :    0.172219
Sum of atomic charges:    0.0000000

LOEWDIN ATOMIC CHARGES
----------------------
   0 C :   -0.402566
   1 C :   -0.240086
   2 C :    0.362882
   3 O :   -0.435535
   4 O :   -0.598043
   5 C :    0.026491
   6 C :   -0.390974
   7 H :    0.164176
   8 H :    0.158701
   9 H :    0.150277
  10 H :    0.178366
  11 H :    0.180422
  12 H :    0.187412
  13 H :    0.177440
  14 H :    0.158980
  15 H :    0.156879
  16 H :    0.165178

  Mayer bond orders larger than 0.100000
B(  0-C ,  1-C ) :   0.9355 B(  0-C ,  7-H ) :   0.9709 B(  0-C ,  8-H ) :   0.9759
B(  0-C ,  9-H ) :   0.9722 B(  1-C ,  2-C ) :   0.9915 B(  1-C , 10-H ) :   0.9525
B(  1-C , 11-H ) :   0.9308 B(  2-C ,  3-O ) :   1.8410 B(  2-C ,  4-O ) :   1.0771
B(  4-O ,  5-C ) :   0.8186 B(  5-C ,  6-C ) :   0.9374 B(  5-C , 12-H ) :   0.9675
B(  5-C , 13-H ) :   0.9617 B(  6-C , 14-H ) :   0.9650 B(  6-C , 15-H ) :   0.9739
B(  6-C , 16-H ) :   0.9718

Dispersion correction           -0.003944085
FINAL SINGLE POINT ENERGY      -346.937850303655

DIPOLE MOMENT
-------------

Method             : SCF
Type of density    : Electron Density
Multiplicity       :   1
Irrep              :   0
Energy             :  -346.9443370452892736 Eh
Relativity type    :
Basis              : AO
                                X                 Y                 Z
Electronic contribution:      0.439947487      -0.164041279      -2.346827863
Nuclear contribution   :     -0.167919764       0.836722619       2.444086410
                        -----------------------------------------
Total Dipole Moment    :      0.272027723       0.672681340       0.097258547
                        -----------------------------------------
Magnitude (a.u.)       :      0.732091861
Magnitude (Debye)      :      1.860829627

Rotational constants in cm-1:             0.219338             0.046393             0.043373
Rotational constants in MHz :          6575.598279          1390.841700          1300.282900

                             ****ORCA TERMINATED NORMALLY****
TOTAL RUN TIME: 0 days 0 hours 0 minutes 23 seconds 216 msec
