                         Program Version 6.0.0  -   RELEASE  -
|  1> ! r2scan-3c def2/J RI DEFGRID2 scfconv6 printgap
|  2> %output
|  3>     printlevel normal
|  4> end
|  5> %cpcm
|  6>     smd true
|  7>     smdsolvent "water"
|  8> end
|  9> * xyz 0 1
| 10> C -2.8507225007 -0.1657252041 0.3864194335
| 11> C -1.6729803283 0.7462573117 0.0711788146
| 12> C -0.4059863593 -0.0285037909 -0.1864429413
| 13> O -0.3344325952 -1.2293473873 -0.3346069004
| 14> O 0.6447442782 0.7853182761 -0.2554561202
| 15> C 1.939490346 0.2102576123 -0.5001830278
| 16> C 2.5922755208 -0.2462413346 0.7956336127
| 17> H -2.9957590393 -0.8818554801 -0.4183805399
| 18> H -2.6644543769 -0.7232663165 1.3006768397
| 19> H -3.7562596286 0.4204475291 0.5082443776
| 20> H -1.4800394532 1.4453143876 0.8855730315
| 21> H -1.8742307982 1.3367948588 -0.8252220887
| 22> H 1.8229673878 -0.6314084777 -1.189716087
| 23> H 2.5097895259 1.0109841043 -0.9717869382
| 24> H 3.5929666198 -0.6095319526 0.5858312496
| 25> H 2.6499812927 0.5815756147 1.4972196195
| 26> H 2.0111474822 -1.0501677338 1.242056943
| 27> *
| 28>
| 29>                          ****END OF INPUT****

CARTESIAN COORDINATES (ANGSTROEM)
---------------------------------
  C     -2.850723   -0.165725    0.386419
  C     -1.672980    0.746257    0.071179
  C     -0.405986   -0.028504   -0.186443
  O     -0.334433   -1.229347   -0.334607
  O      0.644744    0.785318   -0.255456
  C      1.939490    0.210258   -0.500183
  C      2.592276   -0.246241    0.795634
  H     -2.995759   -0.881855   -0.418381
  H     -2.664454   -0.723266    1.300677
  H     -3.756260    0.420448    0.508244
  H     -1.480039    1.445314    0.885573
  H     -1.874231    1.336795   -0.825222
  H      1.822967   -0.631408   -1.189716
  H      2.509790    1.010984   -0.971787
  H      3.592967   -0.609532    0.585831
  H      2.649981    0.581576    1.497220
  H      2.011147   -1.050168    1.242057

 Total Charge           Charge          ....    0
 Multiplicity           Mult            ....    1
 Number of Electrons    NEL             ....   56
 Basis Dimension        Dim             ....  193

ORBITAL ENERGIES
----------------

  NO   OCC          E(Eh)            E(eV)
   0   2.0000     -19.000224      -517.0224
   1   2.0000     -18.944603      -515.5088
   2   2.0000     -10.162169      -276.5267
   3   2.0000     -10.082874      -274.3690
   4   2.0000     -10.038079      -273.1500
   5   2.0000     -10.017935      -272.6019
   6   2.0000     -10.016375      -272.5594
   7   2.0000      -1.077194       -29.3119
   8   2.0000      -0.989200       -26.9175
   9   2.0000      -0.758813       -20.6484
  10   2.0000      -0.723071       -19.6758
  11   2.0000      -0.640592       -17.4314
  12   2.0000      -0.586515       -15.9599
  13   2.0000      -0.517171       -14.0729
  14   2.0000      -0.473991       -12.8979
  15   2.0000      -0.457723       -12.4553
  16   2.0000      -0.448870       -12.2144
  17   2.0000      -0.413449       -11.2505
  18   2.0000      -0.402570       -10.9545
  19   2.0000      -0.369089       -10.0434
  20   2.0000      -0.358788        -9.7631
  21   2.0000      -0.348629        -9.4867
  22   2.0000      -0.334849        -9.1117
  23   2.0000      -0.326146        -8.8749
  24   2.0000      -0.315358        -8.5813
  25   2.0000      -0.303434        -8.2569
  26   2.0000      -0.276951        -7.5362
  27   2.0000      -0.252884        -6.8813
  28   0.0000      -0.020517        -0.5583
  29   0.0000       0.079571         2.1652
  30   0.0000       0.095361         2.5949
  31   0.0000       0.123871         3.3707
  32   0.0000       0.133376         3.6294

MULLIKEN ATOMIC CHARGES
-----------------------
   0 C :   -0.517156
   1 C :   -0.256625
   2 C :    0.409278
   3 O :   -0.513256
   4 O :   -0.197428
   5 C :   -0.142644
   6 C :   -0.493874
   7 H :    0.161730
   8 H :    0.164358
   9 H :    0.165695
  10 H :    0.182620
  11 H :    0.190027
  12 H :    0.170870
  13 H :    0.173319
  14 H :    0.169856
  15 H :    0.165253
  16 H :    0.167978
Sum of atomic charges:   -0.0000000

LOEWDIN ATOMIC CHARGES
----------------------
   0 C :   -0.409509
   1 C :   -0.235909
   2 C :    0.374363
   3 O :   -0.493705
   4 O :   -0.602121
   5 C :    0.030868
   6 C :   -0.393926
   7 H :    0.161298
   8 H :    0.159875
   9 H :    0.158877
  10 H :    0.188650
  11 H :    0.192203
  12 H :    0.188828
  13 H :    0.188580
  14 H :    0.167548
  15 H :    0.161794
  16 H :    0.162289

  Mayer bond orders larger than 0.100000
B(  0-C ,  1-C ) :   0.9009 B(  0-C ,  7-H ) :   0.9738 B(  0-C ,  8-H ) :   0.9786
B(  0-C ,  9-H ) :   0.9651 B(  1-C ,  2-C ) :   1.0007 B(  1-C , 10-H ) :   0.9408
B(  1-C , 11-H ) :   0.9194 B(  2-C ,  3-O ) :   1.7783 B(  2-C ,  4-O ) :   1.0993
B(  4-O ,  5-C ) :   0.8000 B(  5-C ,  6-C ) :   0.9366 B(  5-C , 12-H ) :   0.9637
B(  5-C , 13-H ) :   0.9523 B(  6-C , 14-H ) :   0.9601 B(  6-C , 15-H ) :   0.9698
B(  6-C , 16-H ) :   0.9697

Dispersion correction           -0.003944085
FINAL SINGLE POINT ENERGY      -346.942831862477

DIPOLE MOMENT
-------------

Method             : SCF
Type of density    : Electron Density
Multiplicity       :   1
Irrep              :   0
Energy             :  -346.9493186041117383 Eh
Relativity type    :
Basis              : AO
                                X                 Y                 Z
Electronic contribution:      0.526616507       0.199492028      -2.324297693
Nuclear contribution   :     -0.167919764       0.836722619       2.444086410
                        -----------------------------------------
Total Dipole Moment    :      0.358696744       1.036214646       0.119788717
                        -----------------------------------------
Magnitude (a.u.)       :      1.103065494
Magnitude (Debye)      :      2.803769666

Rotational constants in cm-1:             0.219338             0.046393             0.043373
Rotational constants in MHz :          6575.598279          1390.841700          1300.282900

                             ****ORCA TERMINATED NORMALLY****
TOTAL RUN TIME: 0 days 0 hours 0 minutes 26 seconds 925 msec
