                         Program Version 6.0.0  -   RELEASE  -
|  1> ! r2scan-3c def2/J RI DEFGRID2 scfconv6 printgap
|  2> %output
|  3>     printlevel normal
|  4> end
|  5> * xyz 0 1
|  6> C 4.1774859556 -0.2441232619 -0.0596172251
|  7> N 2.7460367204 -0.4203735555 0.0532175726
|  8> C 2.3206838748 -1.7570810887 0.3959721873
|  9> C 1.9166975129 0.6083056904 -0.1566034495
| 10> O 2.3175011482 1.7388286484 -0.4529118251
| 11> C 0.4491470083 0.3393674161 -0.017179362
| 12> C -0.1867234368 0.5282524095 1.2067516356
| 13> C -1.5486349413 0.3495582029 1.3179898375
| 14> C -2.3085316473 -0.0152331862 0.2043316648
| 15> C -1.6768481975 -0.1942148332 -1.0218013127
| 16> C -0.3078935783 -0.0120256313 -1.1249571425
| 17> O -3.6433867253 -0.1679234448 0.4235811372
| 18> C -4.4752157451 -0.5291517087 -0.6638879261
| 19> H 4.3756701808 0.794437287 -0.3166319494
| 20> H 4.5733127553 -0.8955046015 -0.8394249948
| 21> H 4.6584347794 -0.4841710799 0.8890619107
| 22> H 2.7539483373 -2.0439446547 1.3555042098
| 23> H 2.6650156925 -2.4571291704 -0.3671097581
| 24> H 1.2378993697 -1.803606483 0.4636037991
| 25> H 0.3917303973 0.8178775337 2.0707325273
| 26> H -2.0547942925 0.4904447383 2.2593797388
| 27> H -2.2351208361 -0.4694169717 -1.9013777394
| 28> H 0.1757746519 -0.1446266322 -2.0811017819
| 29> H -4.1915509169 -1.503003928 -1.0705599614
| 30> H -4.4441501028 0.2268855211 -1.4524207504
| 31> H -5.4788481844 -0.5837557297 -0.2488724741
| 32> *
| 33>
| 34>                          ****END OF INPUT****

CARTESIAN COORDINATES (ANGSTROEM)
---------------------------------
  C      4.177486   -0.244123   -0.059617
  N      2.746037   -0.420374    0.053218
  C      2.320684   -1.757081    0.395972
  C      1.916698    0.608306   -0.156603
  O      2.317501    1.738829   -0.452912
  C      0.449147    0.339367   -0.017179
  C     -0.186723    0.528252    1.206752
  C     -1.548635    0.349558    1.317990
  C     -2.308532   -0.015233    0.204332
  C     -1.676848   -0.194215   -1.021801
  C     -0.307894   -0.012026   -1.124957
  O     -3.643387   -0.167923    0.423581
  C     -4.475216   -0.529152   -0.663888
  H      4.375670    0.794437   -0.316632
  H      4.573313   -0.895505   -0.839425
  H      4.658435   -0.484171    0.889062
  H      2.753948   -2.043945    1.355504
  H      2.665016   -2.457129   -0.367110
  H      1.237899   -1.803606    0.463604
  H      0.391730    0.817878    2.070733
  H     -2.054794    0.490445    2.259380
  H     -2.235121   -0.469417   -1.901378
  H      0.175775   -0.144627   -2.081102
  H     -4.191551   -1.503004   -1.070560
  H     -4.444150    0.226886   -1.452421
  H     -5.478848   -0.583756   -0.248872

 Total Charge           Charge          ....    0
 Multiplicity           Mult            ....    1
 Number of Electrons    NEL             ....   96
 Basis Dimension        Dim             ....  327

ORBITAL ENERGIES
----------------

  NO   OCC          E(Eh)            E(eV)
   0   2.0000     -18.990221      -516.7502
   1   2.0000     -18.902126      -514.3530
   2   2.0000     -14.195471      -386.2784
   3   2.0000     -10.120019      -275.3797
   4   2.0000     -10.099521      -274.8219
   5   2.0000     -10.090558      -274.5780
   6   2.0000     -10.067081      -273.9392
   7   2.0000     -10.058679      -273.7106
   8   2.0000     -10.042213      -273.2625
   9   2.0000     -10.041326      -273.2384
  10   2.0000     -10.040179      -273.2072
  11   2.0000     -10.038781      -273.1691
  12   2.0000     -10.035227      -273.0724
  13   2.0000      -1.038055       -28.2469
  14   2.0000      -0.990964       -26.9655
  15   2.0000      -0.905094       -24.6289
  16   2.0000      -0.830208       -22.5911
  17   2.0000      -0.740631       -20.1536
  18   2.0000      -0.725265       -19.7355
  19   2.0000      -0.696480       -18.9522
  20   2.0000      -0.683349       -18.5949
  21   2.0000      -0.659072       -17.9343
  22   2.0000      -0.588967       -16.0266
  23   2.0000      -0.574985       -15.6461
  24   2.0000      -0.524386       -14.2693
  25   2.0000      -0.508239       -13.8299
  26   2.0000      -0.484883       -13.1943
  27   2.0000      -0.464571       -12.6416
  28   2.0000      -0.445404       -12.1201
  29   2.0000      -0.443075       -12.0567
  30   2.0000      -0.440828       -11.9955
  31   2.0000      -0.421836       -11.4787
  32   2.0000      -0.402478       -10.9520
  33   2.0000      -0.395715       -10.7680
  34   2.0000      -0.391569       -10.6551
  35   2.0000      -0.377207       -10.2643
  36   2.0000      -0.370131       -10.0718
  37   2.0000      -0.362361        -9.8604
  38   2.0000      -0.351355        -9.5609
  39   2.0000      -0.345072        -9.3899
  40   2.0000      -0.339789        -9.2461
  41   2.0000      -0.324087        -8.8189
  42   2.0000      -0.299778        -8.1574
  43   2.0000      -0.298890        -8.1332
  44   2.0000      -0.244082        -6.6418
  45   2.0000      -0.221095        -6.0163
  46   2.0000      -0.215389        -5.8610
  47   2.0000      -0.195793        -5.3278
  48   0.0000      -0.038219        -1.0400
  49   0.0000      -0.022943        -0.6243
  50   0.0000       0.002792         0.0760
  51   0.0000       0.056514         1.5378
  52   0.0000       0.068528         1.8647

MULLIKEN ATOMIC CHARGES
-----------------------
   0 C :   -0.410071
   1 N :    0.095167
   2 C :   -0.376375
   3 C :    0.187439
   4 O :   -0.448186
   5 C :    0.039170
   6 C :   -0.165286
   7 C :   -0.313973
   8 C :    0.371128
   9 C :   -0.285120
  10 C :   -0.196490
  11 O :   -0.188219
  12 C :   -0.333199
  13 H :    0.203479
  14 H :    0.142199
  15 H :    0.142232
  16 H :    0.147608
  17 H :    0.147086
  18 H :    0.175780
  19 H :    0.151114
  20 H :    0.156450
  21 H :    0.146581
  22 H :    0.148776
  23 H :    0.152021
  24 H :    0.154950
  25 H :    0.155738
Sum of atomic charges:   -0.0000000

LOEWDIN ATOMIC CHARGES
----------------------
   0 C :   -0.110471
   1 N :   -0.833379
   2 C :   -0.102677
   3 C :    0.345159
   4 O :   -0.472020
   5 C :   -0.053367
   6 C :   -0.128427
   7 C :   -0.125394
   8 C :    0.190410
   9 C :   -0.167582
  10 C :   -0.127342
  11 O :   -0.682410
  12 C :   -0.054718
  13 H :    0.210319
  14 H :    0.173168
  15 H :    0.173294
  16 H :    0.172596
  17 H :    0.172350
  18 H :    0.197833
  19 H :    0.177196
  20 H :    0.181944
  21 H :    0.175803
  22 H :    0.176573
  23 H :    0.164451
  24 H :    0.165813
  25 H :    0.180877

  Mayer bond orders larger than 0.100000
B(  0-C ,  1-N ) :   0.9276 B(  0-C , 13-H ) :   0.9547 B(  0-C , 14-H ) :   0.9545
B(  0-C , 15-H ) :   0.9546 B(  1-N ,  2-C ) :   0.9207 B(  1-N ,  3-C ) :   1.2299
B(  2-C , 16-H ) :   0.9564 B(  2-C , 17-H ) :   0.9563 B(  2-C , 18-H ) :   0.9528
B(  3-C ,  4-O ) :   1.8841 B(  3-C ,  5-C ) :   0.8798 B(  4-O ,  5-C ) :  -0.1040
B(  5-C ,  6-C ) :   1.4021 B(  5-C , 10-C ) :   1.4546 B(  6-C ,  7-C ) :   1.3717
B(  6-C , 19-H ) :   0.9466 B(  7-C ,  8-C ) :   1.3880 B(  7-C , 20-H ) :   0.9521
B(  8-C ,  9-C ) :   1.3590 B(  8-C , 11-O ) :   1.0496 B(  9-C , 10-C ) :   1.3790
B(  9-C , 21-H ) :   0.9240 B( 10-C , 22-H ) :   0.9509 B( 11-O , 12-C ) :   0.8548
B( 12-C , 23-H ) :   0.9633 B( 12-C , 24-H ) :   0.9628 B( 12-C , 25-H ) :   0.9679

Dispersion correction           -0.009587915
FINAL SINGLE POINT ENERGY      -593.939423661625

DIPOLE MOMENT
-------------

Method             : SCF
Type of density    : Electron Density
Multiplicity       :   1
Irrep              :   0
Energy             :  -593.9483339199304055 Eh
Relativity type    :
Basis              : AO
                                X                 Y                 Z
Electronic contribution:     -2.664335654       5.887313947       1.102263072
Nuclear contribution   :      2.272659668      -7.536469214      -1.162738537
                        -----------------------------------------
Total Dipole Moment    :     -0.391675987      -1.649155268      -0.060475465
                        -----------------------------------------
Magnitude (a.u.)       :      1.696107443
Magnitude (Debye)      :      4.311162506

Rotational constants in cm-1:             0.074332             0.012440             0.012285
Rotational constants in MHz :          2228.404248           372.951771           368.306201

                             ****ORCA TERMINATED NORMALLY****
TOTAL RUN TIME: 0 days 0 hours 0 minutes 56 seconds 328 msec
