                         Program Version 6.0.0  -   RELEASE  -
|  1> ! r2scan-3c def2/J RI DEFGRID2 scfconv6 printgap
|  2> %output
|  3>     printlevel normal
|  4> end
|  5> %cpcm
|  6>     smd true
|  7>     smdsolvent "water"
|  8> end
|  9> * xyz 0 1
| 10> C 4.1774859556 -0.2441232619 -0.0596172251
| 11> N 2.7460367204 -0.4203735555 0.0532175726
| 12> C 2.3206838748 -1.7570810887 0.3959721873
| 13> C 1.9166975129 0.6083056904 -0.1566034495
| 14> O 2.3175011482 1.7388286484 -0.4529118251
| 15> C 0.4491470083 0.3393674161 -0.017179362
| 16> C -0.1867234368 0.5282524095 1.2067516356
| 17> C -1.5486349413 0.3495582029 1.3179898375
| 18> C -2.3085316473 -0.0152331862 0.2043316648
| 19> C -1.6768481975 -0.1942148332 -1.0218013127
| 20> C -0.3078935783 -0.0120256313 -1.1249571425
| 21> O -3.6433867253 -0.1679234448 0.4235811372
| 22> C -4.4752157451 -0.5291517087 -0.6638879261
| 23> H 4.3756701808 0.794437287 -0.3166319494
| 24> H 4.5733127553 -0.8955046015 -0.8394249948
| 25> H 4.6584347794 -0.4841710799 0.8890619107
| 26> H 2.7539483373 -2.0439446547 1.3555042098
| 27> H 2.6650156925 -2.4571291704 -0.3671097581
| 28> H 1.2378993697 -1.803606483 0.4636037991
| 29> H 0.3917303973 0.8178775337 2.0707325273
| 30> H -2.0547942925 0.4904447383 2.2593797388
| 31> H -2.2351208361 -0.4694169717 -1.9013777394
| 32> H 0.1757746519 -0.1446266322 -2.0811017819
| 33> H -4.1915509169 -1.503003928 -1.0705599614
| 34> H -4.4441501028 0.2268855211 -1.4524207504
| 35> H -5.4788481844 -0.5837557297 -0.2488724741
| 36> *
| 37>
| 38>                          ****END OF INPUT****

CARTESIAN COORDINATES (ANGSTROEM)
---------------------------------
  C      4.177486   -0.244123   -0.059617
  N      2.746037   -0.420374    0.053218
  C      2.320684   -1.757081    0.395972
  C      1.916698    0.608306   -0.156603
  O      2.317501    1.738829   -0.452912
  C      0.449147    0.339367   -0.017179
  C     -0.186723    0.528252    1.206752
  C     -1.548635    0.349558    1.317990
  C     -2.308532   -0.015233    0.204332
  C     -1.676848   -0.194215   -1.021801
  C     -0.307894   -0.012026   -1.124957
  O     -3.643387   -0.167923    0.423581
  C     -4.475216   -0.529152   -0.663888
  H      4.375670    0.794437   -0.316632
  H      4.573313   -0.895505   -0.839425
  H      4.658435   -0.484171    0.889062
  H      2.753948   -2.043945    1.355504
  H      2.665016   -2.457129   -0.367110
  H      1.237899   -1.803606    0.463604
  H      0.391730    0.817878    2.070733
  H     -2.054794    0.490445    2.259380
  H     -2.235121   -0.469417   -1.901378
  H      0.175775   -0.144627   -2.081102
  H     -4.191551   -1.503004   -1.070560
  H     -4.444150    0.226886   -1.452421
  H     -5.478848   -0.583756   -0.248872

 Total Charge           Charge          ....    0
 Multiplicity           Mult            ....    1
 Number of Electrons    NEL             ....   96
 Basis Dimension        Dim             ....  327

ORBITAL ENERGIES
----------------

  NO   OCC          E(Eh)            E(eV)
   0   2.0000     -18.989815      -516.7391
   1   2.0000     -18.922721      -514.9134
   2   2.0000     -14.201109      -386.4318
   3   2.0000     -10.133946      -275.7587
   4   2.0000     -10.099856      -274.8311
   5   2.0000     -10.073533      -274.1148
   6   2.0000     -10.053596      -273.5723
   7   2.0000     -10.050671      -273.4926
   8   2.0000     -10.044249      -273.3179
   9   2.0000     -10.041970      -273.2559
  10   2.0000     -10.041878      -273.2534
  11   2.0000     -10.036126      -273.0969
  12   2.0000     -10.035213      -273.0720
  13   2.0000      -1.037018       -28.2187
  14   2.0000      -1.009411       -27.4675
  15   2.0000      -0.910652       -24.7801
  16   2.0000      -0.832022       -22.6405
  17   2.0000      -0.740792       -20.1580
  18   2.0000      -0.724928       -19.7263
  19   2.0000      -0.689367       -18.7586
  20   2.0000      -0.677803       -18.4440
  21   2.0000      -0.654069       -17.7981
  22   2.0000      -0.588353       -16.0099
  23   2.0000      -0.572238       -15.5714
  24   2.0000      -0.521949       -14.2029
  25   2.0000      -0.502960       -13.6862
  26   2.0000      -0.483892       -13.1674
  27   2.0000      -0.463474       -12.6118
  28   2.0000      -0.445415       -12.1204
  29   2.0000      -0.438521       -11.9328
  30   2.0000      -0.433710       -11.8018
  31   2.0000      -0.417170       -11.3518
  32   2.0000      -0.404972       -11.0198
  33   2.0000      -0.394434       -10.7331
  34   2.0000      -0.386086       -10.5059
  35   2.0000      -0.369211       -10.0467
  36   2.0000      -0.364089        -9.9074
  37   2.0000      -0.360005        -9.7962
  38   2.0000      -0.351641        -9.5686
  39   2.0000      -0.348406        -9.4806
  40   2.0000      -0.343931        -9.3588
  41   2.0000      -0.325966        -8.8700
  42   2.0000      -0.298216        -8.1149
  43   2.0000      -0.297566        -8.0972
  44   2.0000      -0.246446        -6.7061
  45   2.0000      -0.239182        -6.5085
  46   2.0000      -0.222946        -6.0667
  47   2.0000      -0.204425        -5.5627
  48   0.0000      -0.039863        -1.0847
  49   0.0000      -0.026271        -0.7149
  50   0.0000      -0.008767        -0.2386
  51   0.0000       0.064156         1.7458
  52   0.0000       0.074786         2.0350

MULLIKEN ATOMIC CHARGES
-----------------------
   0 C :   -0.431334
   1 N :    0.105438
   2 C :   -0.399061
   3 C :    0.245943
   4 O :   -0.571439
   5 C :   -0.002748
   6 C :   -0.194050
   7 C :   -0.356215
   8 C :    0.363162
   9 C :   -0.295745
  10 C :   -0.219510
  11 O :   -0.228033
  12 C :   -0.341237
  13 H :    0.187671
  14 H :    0.174417
  15 H :    0.174236
  16 H :    0.174546
  17 H :    0.174436
  18 H :    0.181559
  19 H :    0.185199
  20 H :    0.184659
  21 H :    0.185523
  22 H :    0.183216
  23 H :    0.172653
  24 H :    0.172723
  25 H :    0.173989
Sum of atomic charges:   -0.0000000

LOEWDIN ATOMIC CHARGES
----------------------
   0 C :   -0.106966
   1 N :   -0.813582
   2 C :   -0.094874
   3 C :    0.345642
   4 O :   -0.566679
   5 C :   -0.069290
   6 C :   -0.133522
   7 C :   -0.136246
   8 C :    0.182550
   9 C :   -0.163408
  10 C :   -0.130927
  11 O :   -0.705808
  12 C :   -0.050261
  13 H :    0.202976
  14 H :    0.186852
  15 H :    0.186885
  16 H :    0.185235
  17 H :    0.185208
  18 H :    0.199422
  19 H :    0.188444
  20 H :    0.190999
  21 H :    0.191368
  22 H :    0.188167
  23 H :    0.174952
  24 H :    0.175100
  25 H :    0.187765

  Mayer bond orders larger than 0.100000
B(  0-C ,  1-N ) :   0.9158 B(  0-C , 13-H ) :   0.9568 B(  0-C , 14-H ) :   0.9453
B(  0-C , 15-H ) :   0.9454 B(  1-N ,  2-C ) :   0.9152 B(  1-N ,  3-C ) :   1.3061
B(  2-C , 16-H ) :   0.9473 B(  2-C , 17-H ) :   0.9469 B(  2-C , 18-H ) :   0.9484
B(  3-C ,  4-O ) :   1.7939 B(  3-C ,  5-C ) :   0.8783 B(  4-O ,  5-C ) :  -0.1074
B(  5-C ,  6-C ) :   1.3718 B(  5-C , 10-C ) :   1.4139 B(  6-C ,  7-C ) :   1.3740
B(  6-C , 19-H ) :   0.9489 B(  7-C ,  8-C ) :   1.3345 B(  7-C , 20-H ) :   0.9603
B(  8-C ,  9-C ) :   1.3409 B(  8-C , 11-O ) :   1.0351 B(  9-C , 10-C ) :   1.3675
B(  9-C , 21-H ) :   0.9331 B( 10-C , 22-H ) :   0.9570 B( 11-O , 12-C ) :   0.8468
B( 12-C , 23-H ) :   0.9554 B( 12-C , 24-H ) :   0.9552 B( 12-C , 25-H ) :   0.9601

Dispersion correction           -0.009587915
FINAL SINGLE POINT ENERGY      -593.954265065026

DIPOLE MOMENT
-------------

Method             : SCF
Type of density    : Electron Density
Multiplicity       :   1
Irrep              :   0
Energy             :  -593.9631753233313702 Eh
Relativity type    :
Basis              : AO
                                X                 Y                 Z
Electronic contribution:     -2.698749891       4.977261262       1.065601065
Nuclear contribution   :      2.272659668      -7.536469214      -1.162738537
                        -----------------------------------------
Total Dipole Moment    :     -0.426090223      -2.559207952      -0.097137472
                        -----------------------------------------
Magnitude (a.u.)       :      2.596253822
Magnitude (Debye)      :      6.599152773

Rotational constants in cm-1:             0.074332             0.012440             0.012285
Rotational constants in MHz :          2228.404248           372.951771           368.306201

                             ****ORCA TERMINATED NORMALLY****
TOTAL RUN TIME: 0 days 0 hours 1 minutes 5 seconds 731 msec
