                         Program Version 6.0.0  -   RELEASE  -
|  1> ! pbe def2-sv(p) def2/J RI DEFGRID1 loosescf d4 GCP(DFT/SV(P)) printgap
|  2> %output
|  3>     printlevel normal
|  4> end
|  5> * xyz 0 1
|  6> C 1.8347528274 0.9020707876 -0.9747615152
|  7> C 1.4497448541 -0.232330882 -0.0253550142
|  8> H 2.191576573 -1.0333292727 -0.1433332216
|  9> C 0.0670949468 -0.8575267389 -0.3174828071
| 10> C -1.1718097289 -0.1329177038 0.2293971385
| 11> C -1.5434369695 1.1214360095 -0.5596773311
| 12> C -2.3562030663 -1.102039901 0.2088897654
| 13> O 1.5897594036 0.1592773155 1.3296856776
| 14> H 1.7630630893 0.5657456229 -2.00441601
| 15> H 1.1905476576 1.7659854427 -0.8424404571
| 16> H 2.8603065786 1.2057900437 -0.7766766995
| 17> H -0.028291027 -0.9807258217 -1.3972011152
| 18> H 0.0766708804 -1.8545078041 0.129295683
| 19> H -0.9832934759 0.1402206288 1.2734046393
| 20> H -1.6279513372 0.8898241282 -1.6190265628
| 21> H -0.8115236453 1.9134326652 -0.4373796285
| 22> H -2.5028715941 1.5026418371 -0.2160947744
| 23> H -3.2467598169 -0.6232609192 0.6092910232
| 24> H -2.5657546161 -1.4196861576 -0.8103070125
| 25> H -2.1452750303 -1.9848089149 0.8079813774
| 26> H 1.0890135102 0.9749605468 1.4677133755
| 27> *
| 28>
| 29>                          ****END OF INPUT****

CARTESIAN COORDINATES (ANGSTROEM)
---------------------------------
  C      1.834753    0.902071   -0.974762
  C      1.449745   -0.232331   -0.025355
  H      2.191577   -1.033329   -0.143333
  C      0.067095   -0.857527   -0.317483
  C     -1.171810   -0.132918    0.229397
  C     -1.543437    1.121436   -0.559677
  C     -2.356203   -1.102040    0.208890
  O      1.589759    0.159277    1.329686
  H      1.763063    0.565746   -2.004416
  H      1.190548    1.765985   -0.842440
  H      2.860307    1.205790   -0.776677
  H     -0.028291   -0.980726   -1.397201
  H      0.076671   -1.854508    0.129296
  H     -0.983293    0.140221    1.273405
  H     -1.627951    0.889824   -1.619027
  H     -0.811524    1.913433   -0.437380
  H     -2.502872    1.502642   -0.216095
  H     -3.246760   -0.623261    0.609291
  H     -2.565755   -1.419686   -0.810307
  H     -2.145275   -1.984809    0.807981
  H      1.089014    0.974961    1.467713

 Total Charge           Charge          ....    0
 Multiplicity           Mult            ....    1
 Number of Electrons    NEL             ....   58
 Basis Dimension        Dim             ....  126

ORBITAL ENERGIES
----------------

  NO   OCC          E(Eh)            E(eV)
   0   2.0000     -18.738341      -509.8962
   1   2.0000      -9.934688      -270.3366
   2   2.0000      -9.896764      -269.3046
   3   2.0000      -9.878514      -268.8080
   4   2.0000      -9.876275      -268.7471
   5   2.0000      -9.875086      -268.7147
   6   2.0000      -9.872542      -268.6455
   7   2.0000      -0.916098       -24.9283
   8   2.0000      -0.730741       -19.8845
   9   2.0000      -0.676096       -18.3975
  10   2.0000      -0.618018       -16.8171
  11   2.0000      -0.606682       -16.5087
  12   2.0000      -0.543649       -14.7934
  13   2.0000      -0.497411       -13.5352
  14   2.0000      -0.433683       -11.8011
  15   2.0000      -0.418982       -11.4011
  16   2.0000      -0.415216       -11.2986
  17   2.0000      -0.381844       -10.3905
  18   2.0000      -0.372808       -10.1446
  19   2.0000      -0.357198        -9.7199
  20   2.0000      -0.348123        -9.4729
  21   2.0000      -0.339882        -9.2487
  22   2.0000      -0.334288        -9.0964
  23   2.0000      -0.307840        -8.3768
  24   2.0000      -0.290800        -7.9131
  25   2.0000      -0.283698        -7.7198
  26   2.0000      -0.282392        -7.6843
  27   2.0000      -0.259152        -7.0519
  28   2.0000      -0.211898        -5.7660
  29   0.0000       0.019827         0.5395
  30   0.0000       0.048664         1.3242
  31   0.0000       0.058182         1.5832
  32   0.0000       0.068925         1.8755
  33   0.0000       0.078603         2.1389

MULLIKEN ATOMIC CHARGES
-----------------------
   0 C :   -0.271566
   1 C :    0.042609
   2 H :    0.068110
   3 C :   -0.106301
   4 C :   -0.206030
   5 C :   -0.243264
   6 C :   -0.243890
   7 O :   -0.429771
   8 H :    0.097230
   9 H :    0.094378
  10 H :    0.109554
  11 H :    0.069668
  12 H :    0.078888
  13 H :    0.060486
  14 H :    0.092991
  15 H :    0.100413
  16 H :    0.096948
  17 H :    0.097447
  18 H :    0.093312
  19 H :    0.102305
  20 H :    0.296483
Sum of atomic charges:   -0.0000000

LOEWDIN ATOMIC CHARGES
----------------------
   0 C :   -0.355219
   1 C :   -0.056481
   2 H :    0.113246
   3 C :   -0.230651
   4 C :   -0.162474
   5 C :   -0.332179
   6 C :   -0.326658
   7 O :   -0.326531
   8 H :    0.123185
   9 H :    0.113755
  10 H :    0.122883
  11 H :    0.115926
  12 H :    0.119143
  13 H :    0.108078
  14 H :    0.117982
  15 H :    0.110196
  16 H :    0.118149
  17 H :    0.115600
  18 H :    0.116201
  19 H :    0.117803
  20 H :    0.278045

  Mayer bond orders larger than 0.100000
B(  0-C ,  1-C ) :   1.1331 B(  0-C ,  8-H ) :   0.9383 B(  0-C ,  9-H ) :   0.9331
B(  0-C , 10-H ) :   0.9426 B(  1-C ,  2-H ) :   0.9035 B(  1-C ,  3-C ) :   1.0449
B(  1-C ,  7-O ) :   1.0497 B(  3-C ,  4-C ) :   1.0841 B(  3-C , 11-H ) :   0.9055
B(  3-C , 12-H ) :   0.9105 B(  4-C ,  5-C ) :   1.1096 B(  4-C ,  6-C ) :   1.1144
B(  4-C , 13-H ) :   0.8900 B(  5-C , 14-H ) :   0.9479 B(  5-C , 15-H ) :   0.9400
B(  5-C , 16-H ) :   0.9466 B(  6-C , 17-H ) :   0.9506 B(  6-C , 18-H ) :   0.9520
B(  6-C , 19-H ) :   0.9486 B(  7-O , 20-H ) :   0.8462

Dispersion correction           -0.016644568
FINAL SINGLE POINT ENERGY      -311.514754853373

DIPOLE MOMENT
-------------

Method             : SCF
Type of density    : Electron Density
Multiplicity       :   1
Irrep              :   0
Energy             :  -311.5943319670915912 Eh
Relativity type    :
Basis              : AO
                                X                 Y                 Z
Electronic contribution:      4.108084571      -0.695055993       3.342447570
Nuclear contribution   :     -4.423810676       0.998958072      -3.694633591
                        -----------------------------------------
Total Dipole Moment    :     -0.315726105       0.303902079      -0.352186021
                        -----------------------------------------
Magnitude (a.u.)       :      0.562204980
Magnitude (Debye)      :      1.429011495

Rotational constants in cm-1:             0.131847             0.052490             0.046680
Rotational constants in MHz :          3952.660223          1573.611695          1399.439820

                             ****ORCA TERMINATED NORMALLY****
TOTAL RUN TIME: 0 days 0 hours 0 minutes 9 seconds 534 msec
