                         Program Version 6.0.0  -   RELEASE  -
|  1> ! pbe def2-sv(p) def2/J RI DEFGRID1 loosescf d4 GCP(DFT/SV(P)) printgap
|  2> %output
|  3>     printlevel normal
|  4> end
|  5> * xyz 0 1
|  6> C -2.1669492235 0.0188230394 -1.2196288467
|  7> C -2.2266100698 0.2776187834 0.2808173535
|  8> C -1.2202140014 -0.5114441514 1.1249546972
|  9> C 0.2840000849 -0.3096266467 0.8743265308
| 10> C 0.863498554 -1.1759616205 -0.2542772324
| 11> C 2.1570327777 -0.4592119471 -0.6244200061
| 12> C 1.7462704156 1.0117936136 -0.6075020651
| 13> C 0.7466474447 1.1285323424 0.5540871591
| 14> H -1.2455347566 0.4030343294 -1.6472746763
| 15> H -2.2358107299 -1.0468842254 -1.426980816
| 16> H -2.9994915057 0.5159724897 -1.7137180971
| 17> H -2.1099236724 1.3468748339 0.4674231389
| 18> H -3.2224061417 0.0031500383 0.6396613533
| 19> H -1.4232840744 -0.2578571789 2.1690919953
| 20> H -1.4292667006 -1.5778810716 1.0069729927
| 21> H 0.7875574642 -0.6230982163 1.7962533334
| 22> H 1.0311122617 -2.2019848582 0.0728698812
| 23> H 0.1950153301 -1.1969802312 -1.1120681251
| 24> H 2.9164799345 -0.6448636242 0.1372017982
| 25> H 2.5527103484 -0.7715396666 -1.5899508423
| 26> H 2.598507147 1.6788642844 -0.4850727267
| 27> H 1.2577476019 1.2624268068 -1.5505505787
| 28> H 1.2228481338 1.5716847445 1.4288649141
| 29> H -0.0851010247 1.7711812426 0.2776574293
| 30> *
| 31>
| 32>                          ****END OF INPUT****

CARTESIAN COORDINATES (ANGSTROEM)
---------------------------------
  C     -2.166949    0.018823   -1.219629
  C     -2.226610    0.277619    0.280817
  C     -1.220214   -0.511444    1.124955
  C      0.284000   -0.309627    0.874327
  C      0.863499   -1.175962   -0.254277
  C      2.157033   -0.459212   -0.624420
  C      1.746270    1.011794   -0.607502
  C      0.746647    1.128532    0.554087
  H     -1.245535    0.403034   -1.647275
  H     -2.235811   -1.046884   -1.426981
  H     -2.999492    0.515972   -1.713718
  H     -2.109924    1.346875    0.467423
  H     -3.222406    0.003150    0.639661
  H     -1.423284   -0.257857    2.169092
  H     -1.429267   -1.577881    1.006973
  H      0.787557   -0.623098    1.796253
  H      1.031112   -2.201985    0.072870
  H      0.195015   -1.196980   -1.112068
  H      2.916480   -0.644864    0.137202
  H      2.552710   -0.771540   -1.589951
  H      2.598507    1.678864   -0.485073
  H      1.257748    1.262427   -1.550551
  H      1.222848    1.571685    1.428865
  H     -0.085101    1.771181    0.277657

 Total Charge           Charge          ....    0
 Multiplicity           Mult            ....    1
 Number of Electrons    NEL             ....   64
 Basis Dimension        Dim             ....  144

ORBITAL ENERGIES
----------------

  NO   OCC          E(Eh)            E(eV)
   0   2.0000      -9.883711      -268.9495
   1   2.0000      -9.880055      -268.8500
   2   2.0000      -9.877222      -268.7729
   3   2.0000      -9.875227      -268.7186
   4   2.0000      -9.874701      -268.7043
   5   2.0000      -9.872627      -268.6478
   6   2.0000      -9.871494      -268.6170
   7   2.0000      -9.870812      -268.5984
   8   2.0000      -0.756982       -20.5985
   9   2.0000      -0.702035       -19.1033
  10   2.0000      -0.644019       -17.5246
  11   2.0000      -0.629357       -17.1257
  12   2.0000      -0.587104       -15.9759
  13   2.0000      -0.522510       -14.2182
  14   2.0000      -0.502610       -13.6767
  15   2.0000      -0.470389       -12.7999
  16   2.0000      -0.435806       -11.8589
  17   2.0000      -0.421036       -11.4570
  18   2.0000      -0.393916       -10.7190
  19   2.0000      -0.387681       -10.5493
  20   2.0000      -0.368240       -10.0203
  21   2.0000      -0.355485        -9.6732
  22   2.0000      -0.346020        -9.4157
  23   2.0000      -0.316626        -8.6158
  24   2.0000      -0.306153        -8.3309
  25   2.0000      -0.297137        -8.0855
  26   2.0000      -0.289061        -7.8658
  27   2.0000      -0.288735        -7.8569
  28   2.0000      -0.275161        -7.4875
  29   2.0000      -0.266083        -7.2405
  30   2.0000      -0.262061        -7.1310
  31   2.0000      -0.254496        -6.9252
  32   0.0000       0.027343         0.7440
  33   0.0000       0.042515         1.1569
  34   0.0000       0.052869         1.4386
  35   0.0000       0.069485         1.8908
  36   0.0000       0.091382         2.4866

MULLIKEN ATOMIC CHARGES
-----------------------
   0 C :   -0.290059
   1 C :   -0.196974
   2 C :   -0.101094
   3 C :   -0.184350
   4 C :   -0.150650
   5 C :   -0.145980
   6 C :   -0.178704
   7 C :   -0.107878
   8 H :    0.115665
   9 H :    0.102456
  10 H :    0.099395
  11 H :    0.092947
  12 H :    0.083014
  13 H :    0.075851
  14 H :    0.074375
  15 H :    0.060368
  16 H :    0.081246
  17 H :    0.085195
  18 H :    0.076592
  19 H :    0.085513
  20 H :    0.082577
  21 H :    0.083851
  22 H :    0.075282
  23 H :    0.081361
Sum of atomic charges:    0.0000000

LOEWDIN ATOMIC CHARGES
----------------------
   0 C :   -0.345832
   1 C :   -0.235792
   2 C :   -0.218849
   3 C :   -0.145268
   4 C :   -0.225957
   5 C :   -0.227297
   6 C :   -0.228740
   7 C :   -0.226243
   8 H :    0.115312
   9 H :    0.117084
  10 H :    0.119037
  11 H :    0.113565
  12 H :    0.117227
  13 H :    0.115795
  14 H :    0.115070
  15 H :    0.117174
  16 H :    0.114389
  17 H :    0.116658
  18 H :    0.114032
  19 H :    0.114843
  20 H :    0.115590
  21 H :    0.114384
  22 H :    0.117691
  23 H :    0.116127

  Mayer bond orders larger than 0.100000
B(  0-C ,  1-C ) :   1.1628 B(  0-C ,  8-H ) :   0.9401 B(  0-C ,  9-H ) :   0.9479
B(  0-C , 10-H ) :   0.9462 B(  1-C ,  2-C ) :   1.1454 B(  1-C , 11-H ) :   0.9149
B(  1-C , 12-H ) :   0.9204 B(  2-C ,  3-C ) :   1.0778 B(  2-C , 13-H ) :   0.9161
B(  2-C , 14-H ) :   0.9164 B(  3-C ,  4-C ) :   1.1271 B(  3-C ,  7-C ) :   1.1234
B(  3-C , 15-H ) :   0.8899 B(  4-C ,  5-C ) :   1.1119 B(  4-C , 16-H ) :   0.9187
B(  4-C , 17-H ) :   0.9076 B(  5-C ,  6-C ) :   1.1478 B(  5-C , 18-H ) :   0.9201
B(  5-C , 19-H ) :   0.9282 B(  6-C ,  7-C ) :   1.1671 B(  6-C , 20-H ) :   0.9226
B(  6-C , 21-H ) :   0.9149 B(  7-C , 22-H ) :   0.9140 B(  7-C , 23-H ) :   0.9071

Dispersion correction           -0.021853833
FINAL SINGLE POINT ENERGY      -313.688532711043

DIPOLE MOMENT
-------------

Method             : SCF
Type of density    : Electron Density
Multiplicity       :   1
Irrep              :   0
Energy             :  -313.7691529212806358 Eh
Relativity type    :
Basis              : AO
                                X                 Y                 Z
Electronic contribution:      2.019525489      -0.211790426       1.466793749
Nuclear contribution   :     -2.053489148       0.217747357      -1.435032035
                        -----------------------------------------
Total Dipole Moment    :     -0.033963659       0.005956932       0.031761714
                        -----------------------------------------
Magnitude (a.u.)       :      0.046880930
Magnitude (Debye)      :      0.119161855

Rotational constants in cm-1:             0.107347             0.044273             0.043422
Rotational constants in MHz :          3218.185406          1327.272965          1301.765495

                             ****ORCA TERMINATED NORMALLY****
TOTAL RUN TIME: 0 days 0 hours 0 minutes 9 seconds 873 msec
