                         Program Version 6.0.0  -   RELEASE  -
|  1> ! pbe def2-sv(p) def2/J RI DEFGRID1 loosescf d4 GCP(DFT/SV(P)) printgap
|  2> %output
|  3>     printlevel normal
|  4> end
|  5> * xyz 0 1
|  6> C -1.8540006862 -1.123009369 -0.3355738854
|  7> C -1.4531908843 0.1166180784 0.441444437
|  8> S 0.011609719 0.9750437112 -0.2459077328
|  9> C 1.4070360718 0.1204413204 0.576847329
| 10> C 1.8751354131 -1.1247013781 -0.1521162896
| 11> H -2.7924667427 -1.5098105588 0.0555343798
| 12> H -1.9860687719 -0.879470657 -1.3869316557
| 13> H -1.0991656088 -1.9002573315 -0.2525354081
| 14> H -1.2326864296 -0.1090376125 1.4840888797
| 15> H -2.2428646459 0.8663945521 0.3986925634
| 16> H 2.1979390827 0.8697116296 0.6004691737
| 17> H 1.092899287 -0.0978151719 1.5968272097
| 18> H 2.1017181695 -0.8887768659 -1.1889246388
| 19> H 2.7741409343 -1.508773862 0.3248004104
| 20> H 1.1153664825 -1.9012764609 -0.1318696439
| 21> *
| 22>
| 23>                          ****END OF INPUT****

CARTESIAN COORDINATES (ANGSTROEM)
---------------------------------
  C     -1.854001   -1.123009   -0.335574
  C     -1.453191    0.116618    0.441444
  S      0.011610    0.975044   -0.245908
  C      1.407036    0.120441    0.576847
  C      1.875135   -1.124701   -0.152116
  H     -2.792467   -1.509811    0.055534
  H     -1.986069   -0.879471   -1.386932
  H     -1.099166   -1.900257   -0.252535
  H     -1.232686   -0.109038    1.484089
  H     -2.242865    0.866395    0.398693
  H      2.197939    0.869712    0.600469
  H      1.092899   -0.097815    1.596827
  H      2.101718   -0.888777   -1.188925
  H      2.774141   -1.508774    0.324800
  H      1.115366   -1.901276   -0.131870

 Total Charge           Charge          ....    0
 Multiplicity           Mult            ....    1
 Number of Electrons    NEL             ....   50
 Basis Dimension        Dim             ....   94

ORBITAL ENERGIES
----------------

  NO   OCC          E(Eh)            E(eV)
   0   2.0000     -88.006623     -2394.7820
   1   2.0000      -9.912673      -269.7376
   2   2.0000      -9.912564      -269.7346
   3   2.0000      -9.879183      -268.8262
   4   2.0000      -9.879140      -268.8251
   5   2.0000      -7.650727      -208.1869
   6   2.0000      -5.679458      -154.5459
   7   2.0000      -5.675389      -154.4352
   8   2.0000      -5.666922      -154.2048
   9   2.0000      -0.734079       -19.9753
  10   2.0000      -0.686850       -18.6901
  11   2.0000      -0.618847       -16.8397
  12   2.0000      -0.553988       -15.0748
  13   2.0000      -0.507812       -13.8183
  14   2.0000      -0.425878       -11.5887
  15   2.0000      -0.407657       -11.0929
  16   2.0000      -0.379745       -10.3334
  17   2.0000      -0.376002       -10.2315
  18   2.0000      -0.342617        -9.3231
  19   2.0000      -0.340050        -9.2532
  20   2.0000      -0.329850        -8.9757
  21   2.0000      -0.313812        -8.5393
  22   2.0000      -0.287639        -7.8271
  23   2.0000      -0.257064        -6.9951
  24   2.0000      -0.176972        -4.8157
  25   0.0000       0.025026         0.6810
  26   0.0000       0.033267         0.9052
  27   0.0000       0.047693         1.2978
  28   0.0000       0.072939         1.9848
  29   0.0000       0.074567         2.0291

MULLIKEN ATOMIC CHARGES
-----------------------
   0 C :   -0.242690
   1 C :   -0.301597
   2 S :   -0.072189
   3 C :   -0.301985
   4 C :   -0.243042
   5 H :    0.100612
   6 H :    0.110244
   7 H :    0.112586
   8 H :    0.123508
   9 H :    0.133462
  10 H :    0.133491
  11 H :    0.123828
  12 H :    0.110357
  13 H :    0.100607
  14 H :    0.112809
Sum of atomic charges:    0.0000000

LOEWDIN ATOMIC CHARGES
----------------------
   0 C :   -0.360306
   1 C :   -0.337616
   2 S :    0.185776
   3 C :   -0.337669
   4 C :   -0.360414
   5 H :    0.119961
   6 H :    0.122326
   7 H :    0.117309
   8 H :    0.119695
   9 H :    0.125771
  10 H :    0.125800
  11 H :    0.119686
  12 H :    0.122359
  13 H :    0.120016
  14 H :    0.117308

  Mayer bond orders larger than 0.100000
B(  0-C ,  1-C ) :   1.1154 B(  0-C ,  5-H ) :   0.9360 B(  0-C ,  6-H ) :   0.9525
B(  0-C ,  7-H ) :   0.9475 B(  1-C ,  2-S ) :   1.0516 B(  1-C ,  8-H ) :   0.9228
B(  1-C ,  9-H ) :   0.9307 B(  2-S ,  3-C ) :   1.0521 B(  3-C ,  4-C ) :   1.1154
B(  3-C , 10-H ) :   0.9307 B(  3-C , 11-H ) :   0.9228 B(  4-C , 12-H ) :   0.9526
B(  4-C , 13-H ) :   0.9358 B(  4-C , 14-H ) :   0.9475

Dispersion correction           -0.011351399
FINAL SINGLE POINT ENERGY      -555.916227489694

DIPOLE MOMENT
-------------

Method             : SCF
Type of density    : Electron Density
Multiplicity       :   1
Irrep              :   0
Energy             :  -555.9647463327878540 Eh
Relativity type    :
Basis              : AO
                                X                 Y                 Z
Electronic contribution:      0.049704382       6.194260735      -1.028129525
Nuclear contribution   :     -0.067116337      -6.650336965       1.414379548
                        -----------------------------------------
Total Dipole Moment    :     -0.017411955      -0.456076229       0.386250023
                        -----------------------------------------
Magnitude (a.u.)       :      0.597911183
Magnitude (Debye)      :      1.519769450

Rotational constants in cm-1:             0.178272             0.088519             0.067819
Rotational constants in MHz :          5344.448867          2653.733439          2033.150667

                             ****ORCA TERMINATED NORMALLY****
TOTAL RUN TIME: 0 days 0 hours 0 minutes 6 seconds 758 msec
