                         Program Version 6.0.0  -   RELEASE  -
|  1> ! pbe def2-sv(p) def2/J RI DEFGRID1 loosescf d4 GCP(DFT/SV(P)) printgap
|  2> %output
|  3>     printlevel normal
|  4> end
|  5> * xyz 0 1
|  6> C 1.5344887452 -0.3279308293 1.7753356503
|  7> C 2.0800809235 -0.234511727 0.382869066
|  8> C 3.1567074978 -0.9186756922 0.0233745576
|  9> C 1.3914098634 0.664877855 -0.6267452615
| 10> H 2.175134924 1.2281640746 -1.144346706
| 11> C 0.6501824307 -0.1775424319 -1.677626226
| 12> C -0.4687639696 -0.9903259468 -1.0339355537
| 13> C -1.3522270666 -0.1082331342 -0.1995673287
| 14> C -0.932240641 1.0849617335 0.2561459101
| 15> C 0.4042315319 1.6660449953 -0.0193643876
| 16> C -2.6856106753 -0.5777331411 0.126818402
| 17> O -3.5035765997 0.0101928295 0.8142031285
| 18> H 1.9803411594 -1.1699501908 2.2985221931
| 19> H 1.77212253 0.5771083883 2.3337776387
| 20> H 0.4533848702 -0.4432608694 1.7750285305
| 21> H 3.5779525442 -0.8433873086 -0.9651545389
| 22> H 3.6638895587 -1.5819999915 0.7029762878
| 23> H 0.2230647451 0.4912654226 -2.4270330101
| 24> H 1.3497391273 -0.8482464941 -2.1761351417
| 25> H -1.0651567642 -1.4853813197 -1.8029141415
| 26> H -0.0375333674 -1.7712721041 -0.4007844738
| 27> H -1.6192972575 1.6792329058 0.8451624892
| 28> H 0.2558589101 2.4930948721 -0.7219360996
| 29> H 0.8061157472 2.1119529297 0.8914973662
| 30> H -2.9448250566 -1.5635725026 -0.3035109022
| 31> *
| 32>
| 33>                          ****END OF INPUT****

CARTESIAN COORDINATES (ANGSTROEM)
---------------------------------
  C      1.534489   -0.327931    1.775336
  C      2.080081   -0.234512    0.382869
  C      3.156707   -0.918676    0.023375
  C      1.391410    0.664878   -0.626745
  H      2.175135    1.228164   -1.144347
  C      0.650182   -0.177542   -1.677626
  C     -0.468764   -0.990326   -1.033936
  C     -1.352227   -0.108233   -0.199567
  C     -0.932241    1.084962    0.256146
  C      0.404232    1.666045   -0.019364
  C     -2.685611   -0.577733    0.126818
  O     -3.503577    0.010193    0.814203
  H      1.980341   -1.169950    2.298522
  H      1.772123    0.577108    2.333778
  H      0.453385   -0.443261    1.775029
  H      3.577953   -0.843387   -0.965155
  H      3.663890   -1.582000    0.702976
  H      0.223065    0.491265   -2.427033
  H      1.349739   -0.848246   -2.176135
  H     -1.065157   -1.485381   -1.802914
  H     -0.037533   -1.771272   -0.400784
  H     -1.619297    1.679233    0.845162
  H      0.255859    2.493095   -0.721936
  H      0.806116    2.111953    0.891497
  H     -2.944825   -1.563573   -0.303511

 Total Charge           Charge          ....    0
 Multiplicity           Mult            ....    1
 Number of Electrons    NEL             ....   82
 Basis Dimension        Dim             ....  182

ORBITAL ENERGIES
----------------

  NO   OCC          E(Eh)            E(eV)
   0   2.0000     -18.740943      -509.9670
   1   2.0000      -9.961740      -271.0727
   2   2.0000      -9.912275      -269.7267
   3   2.0000      -9.907288      -269.5910
   4   2.0000      -9.905243      -269.5354
   5   2.0000      -9.904792      -269.5231
   6   2.0000      -9.901588      -269.4359
   7   2.0000      -9.898076      -269.3403
   8   2.0000      -9.895664      -269.2747
   9   2.0000      -9.884898      -268.9817
  10   2.0000      -9.876008      -268.7398
  11   2.0000      -0.930328       -25.3155
  12   2.0000      -0.784048       -21.3350
  13   2.0000      -0.728248       -19.8166
  14   2.0000      -0.687122       -18.6975
  15   2.0000      -0.678139       -18.4531
  16   2.0000      -0.619512       -16.8578
  17   2.0000      -0.583608       -15.8808
  18   2.0000      -0.569019       -15.4838
  19   2.0000      -0.528479       -14.3807
  20   2.0000      -0.482849       -13.1390
  21   2.0000      -0.456832       -12.4310
  22   2.0000      -0.445404       -12.1201
  23   2.0000      -0.425428       -11.5765
  24   2.0000      -0.413387       -11.2488
  25   2.0000      -0.400559       -10.8998
  26   2.0000      -0.384472       -10.4620
  27   2.0000      -0.380440       -10.3523
  28   2.0000      -0.368317       -10.0224
  29   2.0000      -0.361539        -9.8380
  30   2.0000      -0.357183        -9.7194
  31   2.0000      -0.353056        -9.6071
  32   2.0000      -0.343962        -9.3597
  33   2.0000      -0.331565        -9.0223
  34   2.0000      -0.323370        -8.7993
  35   2.0000      -0.301460        -8.2031
  36   2.0000      -0.287230        -7.8159
  37   2.0000      -0.280968        -7.6455
  38   2.0000      -0.231075        -6.2879
  39   2.0000      -0.218249        -5.9389
  40   2.0000      -0.199929        -5.4403
  41   0.0000      -0.092515        -2.5175
  42   0.0000      -0.023010        -0.6261
  43   0.0000       0.022448         0.6108
  44   0.0000       0.029384         0.7996
  45   0.0000       0.051978         1.4144

MULLIKEN ATOMIC CHARGES
-----------------------
   0 C :   -0.219898
   1 C :   -0.070067
   2 C :   -0.235751
   3 C :   -0.139838
   4 H :    0.076397
   5 C :   -0.116573
   6 C :   -0.096492
   7 C :   -0.051535
   8 C :   -0.196536
   9 C :   -0.034775
  10 C :    0.042780
  11 O :   -0.170944
  12 H :    0.101548
  13 H :    0.114021
  14 H :    0.126552
  15 H :    0.086787
  16 H :    0.085611
  17 H :    0.087988
  18 H :    0.087949
  19 H :    0.093633
  20 H :    0.110441
  21 H :    0.078191
  22 H :    0.109707
  23 H :    0.100987
  24 H :    0.029816
Sum of atomic charges:    0.0000000

LOEWDIN ATOMIC CHARGES
----------------------
   0 C :   -0.327950
   1 C :   -0.050305
   2 C :   -0.264147
   3 C :   -0.132579
   4 H :    0.128437
   5 C :   -0.201523
   6 C :   -0.215202
   7 C :   -0.122094
   8 C :   -0.070975
   9 C :   -0.214752
  10 C :   -0.000577
  11 O :   -0.135991
  12 H :    0.127419
  13 H :    0.131981
  14 H :    0.131443
  15 H :    0.116152
  16 H :    0.118379
  17 H :    0.118446
  18 H :    0.119899
  19 H :    0.127413
  20 H :    0.133322
  21 H :    0.131165
  22 H :    0.142699
  23 H :    0.132798
  24 H :    0.076541

  Mayer bond orders larger than 0.100000
B(  0-C ,  1-C ) :   1.1485 B(  0-C , 12-H ) :   0.9333 B(  0-C , 13-H ) :   0.9165
B(  0-C , 14-H ) :   0.9181 B(  1-C ,  2-C ) :   2.0281 B(  1-C ,  3-C ) :   1.0002
B(  2-C , 15-H ) :   0.9120 B(  2-C , 16-H ) :   0.9080 B(  3-C ,  4-H ) :   0.8789
B(  3-C ,  5-C ) :   1.0613 B(  3-C ,  9-C ) :   1.0961 B(  5-C ,  6-C ) :   1.1283
B(  5-C , 17-H ) :   0.9221 B(  5-C , 18-H ) :   0.9123 B(  6-C ,  7-C ) :   1.0561
B(  6-C , 19-H ) :   0.8967 B(  6-C , 20-H ) :   0.8774 B(  7-C ,  8-C ) :   1.7933
B(  7-C , 10-C ) :   1.0122 B(  8-C ,  9-C ) :   1.0545 B(  8-C , 11-O ) :   0.1092
B(  8-C , 21-H ) :   0.9198 B(  9-C , 22-H ) :   0.8726 B(  9-C , 23-H ) :   0.8911
B( 10-C , 11-O ) :   2.1377 B( 10-C , 24-H ) :   0.9171

Dispersion correction           -0.028022671
FINAL SINGLE POINT ENERGY      -463.621332200969

DIPOLE MOMENT
-------------

Method             : SCF
Type of density    : Electron Density
Multiplicity       :   1
Irrep              :   0
Energy             :  -463.6963947115076508 Eh
Relativity type    :
Basis              : AO
                                X                 Y                 Z
Electronic contribution:     -8.849897414       1.132004857       0.552371959
Nuclear contribution   :      9.884000162      -1.056462281      -1.015083343
                        -----------------------------------------
Total Dipole Moment    :      1.034102748       0.075542576      -0.462711384
                        -----------------------------------------
Magnitude (a.u.)       :      1.135419306
Magnitude (Debye)      :      2.886006520

Rotational constants in cm-1:             0.068846             0.023692             0.022772
Rotational constants in MHz :          2063.962357           710.277247           682.684176

                             ****ORCA TERMINATED NORMALLY****
TOTAL RUN TIME: 0 days 0 hours 0 minutes 20 seconds 287 msec
