                         Program Version 6.0.0  -   RELEASE  -
|  1> ! r2scan-3c def2/J RI DEFGRID2 scfconv6 printgap
|  2> %output
|  3>     printlevel normal
|  4> end
|  5> * xyz 0 1
|  6> C -2.8110120205 0.1920554049 9.42242e-05
|  7> C -1.4332574545 -0.4583012162 -0.0006160768
|  8> C -0.3212983135 0.588884257 0.0003426526
|  9> C 1.051029372 -0.0350308717 0.0001223846
| 10> O 1.2601676879 -1.2260480472 0.0001800715
| 11> O 2.0785711585 0.8170518157 -0.0001324006
| 12> H -2.9409175931 0.8122050832 0.8836597098
| 13> H -3.5859650026 -0.5692030402 -0.000707593
| 14> H -2.9409350128 0.8140882051 -0.8821444768
| 15> H -1.3202115651 -1.0981494921 0.8763836888
| 16> H -1.3203588149 -1.0965088021 -0.8788370424
| 17> H -0.4111085367 1.2244434436 -0.8841787436
| 18> H -0.4113027178 1.2230275838 0.8858757695
| 19> H 1.8134374394 1.7550764853 -0.0001309923
| 20> *
| 21>
| 22>                          ****END OF INPUT****

CARTESIAN COORDINATES (ANGSTROEM)
---------------------------------
  C     -2.811012    0.192055    0.000094
  C     -1.433257   -0.458301   -0.000616
  C     -0.321298    0.588884    0.000343
  C      1.051029   -0.035031    0.000122
  O      1.260168   -1.226048    0.000180
  O      2.078571    0.817052   -0.000132
  H     -2.940918    0.812205    0.883660
  H     -3.585965   -0.569203   -0.000708
  H     -2.940935    0.814088   -0.882144
  H     -1.320212   -1.098149    0.876384
  H     -1.320359   -1.096509   -0.878837
  H     -0.411109    1.224443   -0.884179
  H     -0.411303    1.223028    0.885876
  H      1.813437    1.755076   -0.000131

 Total Charge           Charge          ....    0
 Multiplicity           Mult            ....    1
 Number of Electrons    NEL             ....   48
 Basis Dimension        Dim             ....  164

ORBITAL ENERGIES
----------------

  NO   OCC          E(Eh)            E(eV)
   0   2.0000     -19.005907      -517.1770
   1   2.0000     -18.932665      -515.1840
   2   2.0000     -10.162687      -276.5408
   3   2.0000     -10.057191      -273.6701
   4   2.0000     -10.036936      -273.1189
   5   2.0000     -10.026629      -272.8385
   6   2.0000      -1.073983       -29.2246
   7   2.0000      -0.983184       -26.7538
   8   2.0000      -0.775526       -21.1031
   9   2.0000      -0.689494       -18.7621
  10   2.0000      -0.602516       -16.3953
  11   2.0000      -0.569560       -15.4985
  12   2.0000      -0.490048       -13.3349
  13   2.0000      -0.465456       -12.6657
  14   2.0000      -0.423233       -11.5168
  15   2.0000      -0.411135       -11.1876
  16   2.0000      -0.387261       -10.5379
  17   2.0000      -0.376528       -10.2459
  18   2.0000      -0.363440        -9.8897
  19   2.0000      -0.326015        -8.8713
  20   2.0000      -0.316124        -8.6022
  21   2.0000      -0.312566        -8.5054
  22   2.0000      -0.292015        -7.9461
  23   2.0000      -0.241039        -6.5590
  24   0.0000      -0.020181        -0.5491
  25   0.0000       0.038671         1.0523
  26   0.0000       0.081016         2.2046
  27   0.0000       0.118855         3.2342
  28   0.0000       0.133792         3.6407

MULLIKEN ATOMIC CHARGES
-----------------------
   0 C :   -0.454736
   1 C :   -0.255111
   2 C :   -0.317301
   3 C :    0.358112
   4 O :   -0.377002
   5 O :   -0.338021
   6 H :    0.138821
   7 H :    0.152934
   8 H :    0.138800
   9 H :    0.156518
  10 H :    0.156456
  11 H :    0.156531
  12 H :    0.156630
  13 H :    0.327370
Sum of atomic charges:    0.0000000

LOEWDIN ATOMIC CHARGES
----------------------
   0 C :   -0.421685
   1 C :   -0.294098
   2 C :   -0.261088
   3 C :    0.345342
   4 O :   -0.392956
   5 O :   -0.404586
   6 H :    0.149392
   7 H :    0.154459
   8 H :    0.149389
   9 H :    0.164904
  10 H :    0.164872
  11 H :    0.176111
  12 H :    0.176155
  13 H :    0.293789

  Mayer bond orders larger than 0.100000
B(  0-C ,  1-C ) :   0.8769 B(  0-C ,  6-H ) :   0.9817 B(  0-C ,  7-H ) :   0.9731
B(  0-C ,  8-H ) :   0.9817 B(  1-C ,  2-C ) :   0.9694 B(  1-C ,  9-H ) :   0.9684
B(  1-C , 10-H ) :   0.9684 B(  2-C ,  3-C ) :   0.9724 B(  2-C , 11-H ) :   0.9403
B(  2-C , 12-H ) :   0.9402 B(  3-C ,  4-O ) :   1.9804 B(  3-C ,  5-O ) :   1.0703
B(  5-O , 13-H ) :   0.8700

Dispersion correction           -0.003041887
FINAL SINGLE POINT ENERGY      -307.642380496595

DIPOLE MOMENT
-------------

Method             : SCF
Type of density    : Electron Density
Multiplicity       :   1
Irrep              :   0
Energy             :  -307.6468993134794800 Eh
Relativity type    :
Basis              : AO
                                X                 Y                 Z
Electronic contribution:      9.554786375      -1.431493138       0.000115358
Nuclear contribution   :    -10.380417720       2.869406495      -0.000074045
                        -----------------------------------------
Total Dipole Moment    :     -0.825631345       1.437913357       0.000041313
                        -----------------------------------------
Magnitude (a.u.)       :      1.658089847
Magnitude (Debye)      :      4.214529457

Rotational constants in cm-1:             0.297138             0.062217             0.052966
Rotational constants in MHz :          8907.987681          1865.224989          1587.870874

                             ****ORCA TERMINATED NORMALLY****
TOTAL RUN TIME: 0 days 0 hours 0 minutes 17 seconds 753 msec
