                         Program Version 6.0.0  -   RELEASE  -
|  1> ! r2scan-3c def2/J RI DEFGRID2 scfconv6 printgap
|  2> %output
|  3>     printlevel normal
|  4> end
|  5> %cpcm
|  6>     smd true
|  7>     smdsolvent "water"
|  8> end
|  9> * xyz 0 1
| 10> C -2.8110120205 0.1920554049 9.42242e-05
| 11> C -1.4332574545 -0.4583012162 -0.0006160768
| 12> C -0.3212983135 0.588884257 0.0003426526
| 13> C 1.051029372 -0.0350308717 0.0001223846
| 14> O 1.2601676879 -1.2260480472 0.0001800715
| 15> O 2.0785711585 0.8170518157 -0.0001324006
| 16> H -2.9409175931 0.8122050832 0.8836597098
| 17> H -3.5859650026 -0.5692030402 -0.000707593
| 18> H -2.9409350128 0.8140882051 -0.8821444768
| 19> H -1.3202115651 -1.0981494921 0.8763836888
| 20> H -1.3203588149 -1.0965088021 -0.8788370424
| 21> H -0.4111085367 1.2244434436 -0.8841787436
| 22> H -0.4113027178 1.2230275838 0.8858757695
| 23> H 1.8134374394 1.7550764853 -0.0001309923
| 24> *
| 25>
| 26>                          ****END OF INPUT****

CARTESIAN COORDINATES (ANGSTROEM)
---------------------------------
  C     -2.811012    0.192055    0.000094
  C     -1.433257   -0.458301   -0.000616
  C     -0.321298    0.588884    0.000343
  C      1.051029   -0.035031    0.000122
  O      1.260168   -1.226048    0.000180
  O      2.078571    0.817052   -0.000132
  H     -2.940918    0.812205    0.883660
  H     -3.585965   -0.569203   -0.000708
  H     -2.940935    0.814088   -0.882144
  H     -1.320212   -1.098149    0.876384
  H     -1.320359   -1.096509   -0.878837
  H     -0.411109    1.224443   -0.884179
  H     -0.411303    1.223028    0.885876
  H      1.813437    1.755076   -0.000131

 Total Charge           Charge          ....    0
 Multiplicity           Mult            ....    1
 Number of Electrons    NEL             ....   48
 Basis Dimension        Dim             ....  164

ORBITAL ENERGIES
----------------

  NO   OCC          E(Eh)            E(eV)
   0   2.0000     -19.001108      -517.0464
   1   2.0000     -18.946358      -515.5566
   2   2.0000     -10.169017      -276.7130
   3   2.0000     -10.038335      -273.1570
   4   2.0000     -10.024585      -272.7828
   5   2.0000     -10.010943      -272.4116
   6   2.0000      -1.074739       -29.2451
   7   2.0000      -0.991955       -26.9925
   8   2.0000      -0.761038       -20.7089
   9   2.0000      -0.675493       -18.3811
  10   2.0000      -0.595194       -16.1960
  11   2.0000      -0.557098       -15.1594
  12   2.0000      -0.482476       -13.1288
  13   2.0000      -0.453490       -12.3401
  14   2.0000      -0.434826       -11.8322
  15   2.0000      -0.405521       -11.0348
  16   2.0000      -0.376944       -10.2572
  17   2.0000      -0.373285       -10.1576
  18   2.0000      -0.348505        -9.4833
  19   2.0000      -0.316221        -8.6048
  20   2.0000      -0.303808        -8.2670
  21   2.0000      -0.303792        -8.2666
  22   2.0000      -0.294763        -8.0209
  23   2.0000      -0.256174        -6.9708
  24   0.0000      -0.023207        -0.6315
  25   0.0000       0.075106         2.0437
  26   0.0000       0.097039         2.6406
  27   0.0000       0.133996         3.6462
  28   0.0000       0.150274         4.0892

MULLIKEN ATOMIC CHARGES
-----------------------
   0 C :   -0.506419
   1 C :   -0.270567
   2 C :   -0.292908
   3 C :    0.367724
   4 O :   -0.481903
   5 O :   -0.375738
   6 H :    0.155544
   7 H :    0.159944
   8 H :    0.155530
   9 H :    0.156635
  10 H :    0.156653
  11 H :    0.191852
  12 H :    0.191918
  13 H :    0.391735
Sum of atomic charges:    0.0000000

LOEWDIN ATOMIC CHARGES
----------------------
   0 C :   -0.426944
   1 C :   -0.299831
   2 C :   -0.248113
   3 C :    0.358784
   4 O :   -0.477934
   5 O :   -0.401540
   6 H :    0.154522
   7 H :    0.155143
   8 H :    0.154522
   9 H :    0.161286
  10 H :    0.161277
  11 H :    0.193494
  12 H :    0.193525
  13 H :    0.321811

  Mayer bond orders larger than 0.100000
B(  0-C ,  1-C ) :   0.8832 B(  0-C ,  6-H ) :   0.9791 B(  0-C ,  7-H ) :   0.9713
B(  0-C ,  8-H ) :   0.9791 B(  1-C ,  2-C ) :   0.9267 B(  1-C ,  9-H ) :   0.9699
B(  1-C , 10-H ) :   0.9699 B(  2-C ,  3-C ) :   1.0007 B(  2-C , 11-H ) :   0.9242
B(  2-C , 12-H ) :   0.9240 B(  3-C ,  4-O ) :   1.9056 B(  3-C ,  5-O ) :   1.1168
B(  5-O , 13-H ) :   0.8373

Dispersion correction           -0.003041887
FINAL SINGLE POINT ENERGY      -307.657997651592

DIPOLE MOMENT
-------------

Method             : SCF
Type of density    : Electron Density
Multiplicity       :   1
Irrep              :   0
Energy             :  -307.6625164684771221 Eh
Relativity type    :
Basis              : AO
                                X                 Y                 Z
Electronic contribution:      9.318575307      -0.702371763       0.000159705
Nuclear contribution   :    -10.380417720       2.869406495      -0.000074045
                        -----------------------------------------
Total Dipole Moment    :     -1.061842412       2.167034732       0.000085660
                        -----------------------------------------
Magnitude (a.u.)       :      2.413203026
Magnitude (Debye)      :      6.133874626

Rotational constants in cm-1:             0.297138             0.062217             0.052966
Rotational constants in MHz :          8907.987681          1865.224989          1587.870874

                             ****ORCA TERMINATED NORMALLY****
TOTAL RUN TIME: 0 days 0 hours 0 minutes 20 seconds 274 msec
