                         Program Version 6.0.0  -   RELEASE  -
|  1> ! pbe def2-sv(p) def2/J RI DEFGRID1 loosescf d4 GCP(DFT/SV(P)) printgap
|  2> %output
|  3>     printlevel normal
|  4> end
|  5> * xyz 0 1
|  6> C -2.6042256555 -0.4371966386 -0.5777329389
|  7> C -1.7008017602 0.1316084993 0.5111144129
|  8> C -0.4819416365 0.8824200725 -0.0438283927
|  9> C 0.832267136 0.0742049737 0.0029620504
| 10> C 1.9844435973 0.9633398273 -0.4839141115
| 11> C 0.7606053971 -1.1878279252 -0.8574851047
| 12> O 1.0896495752 -0.3721847551 1.3319918061
| 13> H -2.9981848786 0.3651746912 -1.198139805
| 14> H -3.4431972902 -0.9660275797 -0.1307859291
| 15> H -2.0640672963 -1.1300643781 -1.216237214
| 16> H -2.2935578648 0.8121233602 1.1260031664
| 17> H -1.351953355 -0.6727375162 1.162562605
| 18> H -0.6677400425 1.1821131887 -1.0754643289
| 19> H -0.3262632697 1.7943506102 0.538060307
| 20> H 2.0370236654 1.8801519922 0.0999704605
| 21> H 1.8402739142 1.2253698782 -1.5277873741
| 22> H 2.927619623 0.4316672619 -0.3822878958
| 23> H 0.4946857361 -0.9347881759 -1.8788669348
| 24> H 0.0275872647 -1.8756592407 -0.4474897529
| 25> H 1.7275996225 -1.6844249581 -0.851324608
| 26> H 1.2083424733 0.3976888811 1.9038996534
| 27> *
| 28>
| 29>                          ****END OF INPUT****

CARTESIAN COORDINATES (ANGSTROEM)
---------------------------------
  C     -2.604226   -0.437197   -0.577733
  C     -1.700802    0.131608    0.511114
  C     -0.481942    0.882420   -0.043828
  C      0.832267    0.074205    0.002962
  C      1.984444    0.963340   -0.483914
  C      0.760605   -1.187828   -0.857485
  O      1.089650   -0.372185    1.331992
  H     -2.998185    0.365175   -1.198140
  H     -3.443197   -0.966028   -0.130786
  H     -2.064067   -1.130064   -1.216237
  H     -2.293558    0.812123    1.126003
  H     -1.351953   -0.672738    1.162563
  H     -0.667740    1.182113   -1.075464
  H     -0.326263    1.794351    0.538060
  H      2.037024    1.880152    0.099970
  H      1.840274    1.225370   -1.527787
  H      2.927620    0.431667   -0.382288
  H      0.494686   -0.934788   -1.878867
  H      0.027587   -1.875659   -0.447490
  H      1.727600   -1.684425   -0.851325
  H      1.208342    0.397689    1.903900

 Total Charge           Charge          ....    0
 Multiplicity           Mult            ....    1
 Number of Electrons    NEL             ....   58
 Basis Dimension        Dim             ....  126

ORBITAL ENERGIES
----------------

  NO   OCC          E(Eh)            E(eV)
   0   2.0000     -18.737853      -509.8829
   1   2.0000      -9.945289      -270.6251
   2   2.0000      -9.879403      -268.8322
   3   2.0000      -9.876767      -268.7605
   4   2.0000      -9.872887      -268.6549
   5   2.0000      -9.869919      -268.5741
   6   2.0000      -9.869166      -268.5537
   7   2.0000      -0.916856       -24.9489
   8   2.0000      -0.720012       -19.5925
   9   2.0000      -0.679215       -18.4824
  10   2.0000      -0.617966       -16.8157
  11   2.0000      -0.606239       -16.4966
  12   2.0000      -0.525051       -14.2874
  13   2.0000      -0.508368       -13.8334
  14   2.0000      -0.430435       -11.7127
  15   2.0000      -0.416237       -11.3264
  16   2.0000      -0.410608       -11.1732
  17   2.0000      -0.374466       -10.1897
  18   2.0000      -0.366603        -9.9758
  19   2.0000      -0.355022        -9.6606
  20   2.0000      -0.340988        -9.2788
  21   2.0000      -0.337154        -9.1744
  22   2.0000      -0.322310        -8.7705
  23   2.0000      -0.313988        -8.5440
  24   2.0000      -0.293902        -7.9975
  25   2.0000      -0.284806        -7.7500
  26   2.0000      -0.276873        -7.5341
  27   2.0000      -0.259907        -7.0724
  28   2.0000      -0.212135        -5.7725
  29   0.0000       0.019994         0.5441
  30   0.0000       0.056563         1.5392
  31   0.0000       0.063875         1.7381
  32   0.0000       0.074194         2.0189
  33   0.0000       0.082007         2.2315

MULLIKEN ATOMIC CHARGES
-----------------------
   0 C :   -0.291838
   1 C :   -0.160615
   2 C :   -0.118087
   3 C :   -0.081377
   4 C :   -0.209227
   5 C :   -0.214749
   6 O :   -0.417760
   7 H :    0.097530
   8 H :    0.100903
   9 H :    0.102058
  10 H :    0.076535
  11 H :    0.099781
  12 H :    0.075133
  13 H :    0.059827
  14 H :    0.082882
  15 H :    0.093023
  16 H :    0.103281
  17 H :    0.096338
  18 H :    0.115212
  19 H :    0.099634
  20 H :    0.291516
Sum of atomic charges:   -0.0000000

LOEWDIN ATOMIC CHARGES
----------------------
   0 C :   -0.342430
   1 C :   -0.241092
   2 C :   -0.228299
   3 C :   -0.015558
   4 C :   -0.337740
   5 C :   -0.326069
   6 O :   -0.317665
   7 H :    0.114571
   8 H :    0.118224
   9 H :    0.115071
  10 H :    0.114934
  11 H :    0.118410
  12 H :    0.117107
  13 H :    0.109051
  14 H :    0.111299
  15 H :    0.121868
  16 H :    0.120637
  17 H :    0.120643
  18 H :    0.124716
  19 H :    0.122643
  20 H :    0.279679

  Mayer bond orders larger than 0.100000
B(  0-C ,  1-C ) :   1.1611 B(  0-C ,  7-H ) :   0.9526 B(  0-C ,  8-H ) :   0.9522
B(  0-C ,  9-H ) :   0.9479 B(  1-C ,  2-C ) :   1.0954 B(  1-C , 10-H ) :   0.9264
B(  1-C , 11-H ) :   0.9150 B(  2-C ,  3-C ) :   1.0499 B(  2-C , 12-H ) :   0.9155
B(  2-C , 13-H ) :   0.9100 B(  3-C ,  4-C ) :   1.0855 B(  3-C ,  5-C ) :   1.0845
B(  3-C ,  6-O ) :   1.0119 B(  4-C , 14-H ) :   0.9389 B(  4-C , 15-H ) :   0.9388
B(  4-C , 16-H ) :   0.9421 B(  5-C , 17-H ) :   0.9437 B(  5-C , 18-H ) :   0.9328
B(  5-C , 19-H ) :   0.9395 B(  6-O , 20-H ) :   0.8538

Dispersion correction           -0.016959515
FINAL SINGLE POINT ENERGY      -311.518756823073

DIPOLE MOMENT
-------------

Method             : SCF
Type of density    : Electron Density
Multiplicity       :   1
Irrep              :   0
Energy             :  -311.5980936079357093 Eh
Relativity type    :
Basis              : AO
                                X                 Y                 Z
Electronic contribution:      2.703873961      -0.242861831       3.540320859
Nuclear contribution   :     -2.687458205       0.768403265      -3.618325044
                        -----------------------------------------
Total Dipole Moment    :      0.016415756       0.525541434      -0.078004185
                        -----------------------------------------
Magnitude (a.u.)       :      0.531552376
Magnitude (Debye)      :      1.351098766

Rotational constants in cm-1:             0.134369             0.053565             0.051892
Rotational constants in MHz :          4028.285926          1605.837386          1555.682053

                             ****ORCA TERMINATED NORMALLY****
TOTAL RUN TIME: 0 days 0 hours 0 minutes 9 seconds 370 msec
