                         Program Version 6.0.0  -   RELEASE  -
|  1> ! wb97x-v def2-tzvp def2/J RIJCOSX DEFGRID2 scfconv7 GCP(DFT/TZ) printgap
|  2> %output
|  3>     printlevel normal
|  4> end
|  5> * xyz 0 1
|  6> C -2.573544584907889 -0.40654874353321463 0.19843106496276156
|  7> C -1.7281658749433317 -1.2408605822475673 -0.5289325113712813
|  8> C -0.42163654125369776 -0.843920310635791 -0.8063658224589678
|  9> C 0.06179696097557926 0.390418514498838 -0.36191664359792053
| 10> C -0.795794875613895 1.2184062160779405 0.3706740419034769
| 11> C -2.102547432433996 0.8261123504251509 0.6479313865188527
| 12> C 1.4851592849315995 0.8036398027302613 -0.6197343573523271
| 13> C 2.4194170116913862 0.46594065322076195 0.5435869709027813
| 14> O 2.481053873735377 -0.943223797596541 0.8171063596244539
| 15> H -3.593469548693173 -0.7123234716275398 0.40980703978378286
| 16> H -2.0872424339728393 -2.201879397794703 -0.8849305628630784
| 17> H 0.23145550113781868 -1.49627310379848 -1.3798070477168989
| 18> H -0.4347997766395257 2.1819772655680247 0.7218693199106817
| 19> H -2.7556496868669926 1.4857498289563689 1.211278504270185
| 20> H 1.862511674344265 0.31499749921629266 -1.526326046001457
| 21> H 1.5400642473132529 1.887137449409107 -0.7802869065337088
| 22> H 3.4236997413465216 0.8551113396375551 0.32854498249767955
| 23> H 2.0597496685587857 0.9340198410834318 1.465256047631095
| 24> H 2.7928153684139496 -1.37857441256173 0.012709670100068684
| 25> *
| 26>
| 27>                          ****END OF INPUT****

CARTESIAN COORDINATES (ANGSTROEM)
---------------------------------
  C     -2.573545   -0.406549    0.198431
  C     -1.728166   -1.240861   -0.528933
  C     -0.421637   -0.843920   -0.806366
  C      0.061797    0.390419   -0.361917
  C     -0.795795    1.218406    0.370674
  C     -2.102547    0.826112    0.647931
  C      1.485159    0.803640   -0.619734
  C      2.419417    0.465941    0.543587
  O      2.481054   -0.943224    0.817106
  H     -3.593470   -0.712323    0.409807
  H     -2.087242   -2.201879   -0.884931
  H      0.231456   -1.496273   -1.379807
  H     -0.434800    2.181977    0.721869
  H     -2.755650    1.485750    1.211279
  H      1.862512    0.314997   -1.526326
  H      1.540064    1.887137   -0.780287
  H      3.423700    0.855111    0.328545
  H      2.059750    0.934020    1.465256
  H      2.792815   -1.378574    0.012710

 Total Charge           Charge          ....    0
 Multiplicity           Mult            ....    1
 Number of Electrons    NEL             ....   66
 Basis Dimension        Dim             ....  339

ORBITAL ENERGIES
----------------

  NO   OCC          E(Eh)            E(eV)
   0   2.0000     -21.671028      -589.6986
   1   2.0000     -12.096153      -329.1530
   2   2.0000     -12.058303      -328.1231
   3   2.0000     -12.054529      -328.0204
   4   2.0000     -12.050693      -327.9160
   5   2.0000     -12.050272      -327.9046
   6   2.0000     -12.048120      -327.8460
   7   2.0000     -12.047719      -327.8351
   8   2.0000     -12.046617      -327.8051
   9   2.0000      -1.670194       -45.4483
  10   2.0000      -1.383369       -37.6434
  11   2.0000      -1.307529       -35.5797
  12   2.0000      -1.269859       -34.5546
  13   2.0000      -1.245560       -33.8934
  14   2.0000      -1.153528       -31.3891
  15   2.0000      -1.104620       -30.0582
  16   2.0000      -1.084890       -29.5214
  17   2.0000      -1.017516       -27.6880
  18   2.0000      -0.962365       -26.1873
  19   2.0000      -0.956722       -26.0337
  20   2.0000      -0.945863       -25.7383
  21   2.0000      -0.932998       -25.3882
  22   2.0000      -0.912804       -24.8387
  23   2.0000      -0.877995       -23.8914
  24   2.0000      -0.871521       -23.7153
  25   2.0000      -0.839291       -22.8383
  26   2.0000      -0.825567       -22.4648
  27   2.0000      -0.814683       -22.1687
  28   2.0000      -0.798757       -21.7353
  29   2.0000      -0.785573       -21.3765
  30   2.0000      -0.761655       -20.7257
  31   2.0000      -0.635590       -17.2953
  32   2.0000      -0.633531       -17.2393
  33   0.0000      -0.239981        -6.5302
  34   0.0000      -0.234175        -6.3722
  35   0.0000      -0.139493        -3.7958
  36   0.0000      -0.074364        -2.0236
  37   0.0000      -0.055405        -1.5077

MULLIKEN ATOMIC CHARGES
-----------------------
   0 C :   -0.139587
   1 C :   -0.101184
   2 C :   -0.250382
   3 C :    0.337720
   4 C :   -0.232130
   5 C :   -0.102117
   6 C :   -0.334468
   7 C :   -0.017794
   8 O :   -0.441288
   9 H :    0.115822
  10 H :    0.114539
  11 H :    0.098453
  12 H :    0.114229
  13 H :    0.115361
  14 H :    0.124099
  15 H :    0.111087
  16 H :    0.094959
  17 H :    0.098760
  18 H :    0.293922
Sum of atomic charges:    0.0000000

LOEWDIN ATOMIC CHARGES
----------------------
   0 C :   -0.144443
   1 C :   -0.137371
   2 C :   -0.112580
   3 C :   -0.142315
   4 C :   -0.113619
   5 C :   -0.138954
   6 C :   -0.232822
   7 C :   -0.324150
   8 O :   -0.049706
   9 H :    0.140375
  10 H :    0.141126
  11 H :    0.140045
  12 H :    0.143158
  13 H :    0.141052
  14 H :    0.138941
  15 H :    0.146405
  16 H :    0.112510
  17 H :    0.127189
  18 H :    0.165158

  Mayer bond orders larger than 0.100000
B(  0-C ,  1-C ) :   1.4254 B(  0-C ,  5-C ) :   1.4201 B(  0-C ,  9-H ) :   0.9716
B(  1-C ,  2-C ) :   1.4565 B(  1-C , 10-H ) :   0.9734 B(  2-C ,  3-C ) :   1.3765
B(  2-C , 11-H ) :   0.9709 B(  3-C ,  4-C ) :   1.3672 B(  3-C ,  6-C ) :   0.8568
B(  4-C ,  5-C ) :   1.4513 B(  4-C , 12-H ) :   0.9719 B(  5-C , 13-H ) :   0.9738
B(  6-C ,  7-C ) :   0.9940 B(  6-C , 14-H ) :   0.9993 B(  6-C , 15-H ) :   0.9766
B(  7-C ,  8-O ) :   1.0263 B(  7-C , 16-H ) :   0.9780 B(  7-C , 17-H ) :   0.9636
B(  8-O , 18-H ) :   0.9056

FINAL SINGLE POINT ENERGY      -386.107914347401

DIPOLE MOMENT
-------------

Method             : SCF
Type of density    : Electron Density
Multiplicity       :   1
Irrep              :   0
Energy             :  -386.1188124883013302 Eh
Relativity type    :
Basis              : AO
                                X                 Y                 Z
Electronic contribution:     -2.750680030      -1.333596252       0.286216836
Nuclear contribution   :      2.976096181       1.635330289      -0.842565672
                        -----------------------------------------
Total Dipole Moment    :      0.225416151       0.301734036      -0.556348836
                        -----------------------------------------
Magnitude (a.u.)       :      0.671848120
Magnitude (Debye)      :      1.707702209

Rotational constants in cm-1:             0.112065             0.035631             0.031344
Rotational constants in MHz :          3359.634447          1068.199513           939.670254

                             ****ORCA TERMINATED NORMALLY****
TOTAL RUN TIME: 0 days 0 hours 2 minutes 51 seconds 960 msec
