                         Program Version 6.0.0  -   RELEASE  -
|  1> ! wb97x-v def2-tzvp def2/J RIJCOSX DEFGRID2 scfconv7 GCP(DFT/TZ) printgap
|  2> %output
|  3>     printlevel normal
|  4> end
|  5> %cpcm
|  6>     smd true
|  7>     smdsolvent "water"
|  8> end
|  9> * xyz 0 1
| 10> C -2.573544584907889 -0.40654874353321463 0.19843106496276156
| 11> C -1.7281658749433317 -1.2408605822475673 -0.5289325113712813
| 12> C -0.42163654125369776 -0.843920310635791 -0.8063658224589678
| 13> C 0.06179696097557926 0.390418514498838 -0.36191664359792053
| 14> C -0.795794875613895 1.2184062160779405 0.3706740419034769
| 15> C -2.102547432433996 0.8261123504251509 0.6479313865188527
| 16> C 1.4851592849315995 0.8036398027302613 -0.6197343573523271
| 17> C 2.4194170116913862 0.46594065322076195 0.5435869709027813
| 18> O 2.481053873735377 -0.943223797596541 0.8171063596244539
| 19> H -3.593469548693173 -0.7123234716275398 0.40980703978378286
| 20> H -2.0872424339728393 -2.201879397794703 -0.8849305628630784
| 21> H 0.23145550113781868 -1.49627310379848 -1.3798070477168989
| 22> H -0.4347997766395257 2.1819772655680247 0.7218693199106817
| 23> H -2.7556496868669926 1.4857498289563689 1.211278504270185
| 24> H 1.862511674344265 0.31499749921629266 -1.526326046001457
| 25> H 1.5400642473132529 1.887137449409107 -0.7802869065337088
| 26> H 3.4236997413465216 0.8551113396375551 0.32854498249767955
| 27> H 2.0597496685587857 0.9340198410834318 1.465256047631095
| 28> H 2.7928153684139496 -1.37857441256173 0.012709670100068684
| 29> *
| 30>
| 31>                          ****END OF INPUT****

CARTESIAN COORDINATES (ANGSTROEM)
---------------------------------
  C     -2.573545   -0.406549    0.198431
  C     -1.728166   -1.240861   -0.528933
  C     -0.421637   -0.843920   -0.806366
  C      0.061797    0.390419   -0.361917
  C     -0.795795    1.218406    0.370674
  C     -2.102547    0.826112    0.647931
  C      1.485159    0.803640   -0.619734
  C      2.419417    0.465941    0.543587
  O      2.481054   -0.943224    0.817106
  H     -3.593470   -0.712323    0.409807
  H     -2.087242   -2.201879   -0.884931
  H      0.231456   -1.496273   -1.379807
  H     -0.434800    2.181977    0.721869
  H     -2.755650    1.485750    1.211279
  H      1.862512    0.314997   -1.526326
  H      1.540064    1.887137   -0.780287
  H      3.423700    0.855111    0.328545
  H      2.059750    0.934020    1.465256
  H      2.792815   -1.378574    0.012710

 Total Charge           Charge          ....    0
 Multiplicity           Mult            ....    1
 Number of Electrons    NEL             ....   66
 Basis Dimension        Dim             ....  339

ORBITAL ENERGIES
----------------

  NO   OCC          E(Eh)            E(eV)
   0   2.0000     -21.673312      -589.7608
   1   2.0000     -12.087844      -328.9270
   2   2.0000     -12.056057      -328.0620
   3   2.0000     -12.048730      -327.8626
   4   2.0000     -12.048466      -327.8554
   5   2.0000     -12.045738      -327.7812
   6   2.0000     -12.045133      -327.7647
   7   2.0000     -12.044484      -327.7471
   8   2.0000     -12.041314      -327.6608
   9   2.0000      -1.672693       -45.5163
  10   2.0000      -1.382840       -37.6290
  11   2.0000      -1.302543       -35.4440
  12   2.0000      -1.269049       -34.5326
  13   2.0000      -1.240979       -33.7688
  14   2.0000      -1.149521       -31.2801
  15   2.0000      -1.102393       -29.9976
  16   2.0000      -1.082211       -29.4485
  17   2.0000      -1.017140       -27.6778
  18   2.0000      -0.962622       -26.1943
  19   2.0000      -0.953161       -25.9368
  20   2.0000      -0.945290       -25.7227
  21   2.0000      -0.933420       -25.3997
  22   2.0000      -0.907110       -24.6837
  23   2.0000      -0.873122       -23.7588
  24   2.0000      -0.868174       -23.6242
  25   2.0000      -0.830101       -22.5882
  26   2.0000      -0.821826       -22.3630
  27   2.0000      -0.808450       -21.9991
  28   2.0000      -0.793419       -21.5900
  29   2.0000      -0.776640       -21.1334
  30   2.0000      -0.762410       -20.7462
  31   2.0000      -0.636782       -17.3277
  32   2.0000      -0.634092       -17.2545
  33   0.0000      -0.240178        -6.5356
  34   0.0000      -0.234846        -6.3905
  35   0.0000      -0.132956        -3.6179
  36   0.0000      -0.072452        -1.9715
  37   0.0000      -0.037276        -1.0143

MULLIKEN ATOMIC CHARGES
-----------------------
   0 C :   -0.190906
   1 C :   -0.135436
   2 C :   -0.313432
   3 C :    0.235365
   4 C :   -0.265113
   5 C :   -0.143716
   6 C :   -0.254591
   7 C :   -0.041707
   8 O :   -0.560435
   9 H :    0.159699
  10 H :    0.159324
  11 H :    0.156056
  12 H :    0.158245
  13 H :    0.159315
  14 H :    0.143465
  15 H :    0.131145
  16 H :    0.120241
  17 H :    0.122119
  18 H :    0.360362
Sum of atomic charges:    0.0000000

LOEWDIN ATOMIC CHARGES
----------------------
   0 C :   -0.158086
   1 C :   -0.150823
   2 C :   -0.126622
   3 C :   -0.153411
   4 C :   -0.119545
   5 C :   -0.150610
   6 C :   -0.223902
   7 C :   -0.320896
   8 O :   -0.095311
   9 H :    0.149277
  10 H :    0.150294
  11 H :    0.152458
  12 H :    0.154234
  13 H :    0.150291
  14 H :    0.148763
  15 H :    0.153898
  16 H :    0.121362
  17 H :    0.129369
  18 H :    0.189260

  Mayer bond orders larger than 0.100000
B(  0-C ,  1-C ) :   1.4032 B(  0-C ,  5-C ) :   1.3942 B(  0-C ,  9-H ) :   0.9754
B(  1-C ,  2-C ) :   1.4225 B(  1-C , 10-H ) :   0.9770 B(  2-C ,  3-C ) :   1.3647
B(  2-C , 11-H ) :   0.9773 B(  3-C ,  4-C ) :   1.3523 B(  3-C ,  6-C ) :   0.8971
B(  4-C ,  5-C ) :   1.4254 B(  4-C , 12-H ) :   0.9789 B(  5-C , 13-H ) :   0.9776
B(  6-C ,  7-C ) :   0.9888 B(  6-C , 14-H ) :   0.9846 B(  6-C , 15-H ) :   0.9637
B(  7-C ,  8-O ) :   0.9842 B(  7-C , 16-H ) :   0.9806 B(  7-C , 17-H ) :   0.9680
B(  8-O , 18-H ) :   0.8669

FINAL SINGLE POINT ENERGY      -386.120627398806

DIPOLE MOMENT
-------------

Method             : SCF
Type of density    : Electron Density
Multiplicity       :   1
Irrep              :   0
Energy             :  -386.1315255397057626 Eh
Relativity type    :
Basis              : AO
                                X                 Y                 Z
Electronic contribution:     -2.573369338      -1.152920698       0.016622956
Nuclear contribution   :      2.976096181       1.635330289      -0.842565672
                        -----------------------------------------
Total Dipole Moment    :      0.402726843       0.482409591      -0.825942716
                        -----------------------------------------
Magnitude (a.u.)       :      1.037829125
Magnitude (Debye)      :      2.637951995

Rotational constants in cm-1:             0.112065             0.035631             0.031344
Rotational constants in MHz :          3359.634447          1068.199513           939.670254

                             ****ORCA TERMINATED NORMALLY****
TOTAL RUN TIME: 0 days 0 hours 2 minutes 56 seconds 978 msec
