                         Program Version 6.0.0  -   RELEASE  -
|  1> ! r2scan-3c def2/J RI DEFGRID2 scfconv6 printgap
|  2> %output
|  3>     printlevel normal
|  4> end
|  5> * xyz 0 1
|  6> C 2.1056417334 -1.102285451 -0.0336157312
|  7> C 1.221102624 0.0977769163 0.3094008459
|  8> C 1.9172593094 1.4121326099 -0.0478394774
|  9> O -7.49513e-05 0.0034454243 -0.4153674882
| 10> C -1.2214217984 -0.0968007502 0.3084567588
| 11> C -2.1100764859 1.0996913455 -0.036051046
| 12> C -1.9124209306 -1.4138901802 -0.0487502524
| 13> H 1.6065643171 -2.0282014785 0.2410732477
| 14> H 2.2971113804 -1.1167760017 -1.1030507375
| 15> H 3.0488776632 -1.0353541777 0.5000297043
| 16> H 1.0057027286 0.0879716831 1.3886827854
| 17> H 1.2827338306 2.2558379947 0.2121148718
| 18> H 2.1100070498 1.4411715325 -1.1166502298
| 19> H 2.8568584398 1.4951752411 0.489875571
| 20> H -1.0069409743 -0.0854094498 1.3879627148
| 21> H -3.0535467284 1.0298199642 0.4966737164
| 22> H -1.6144410276 2.0274374298 0.23843442
| 23> H -2.3005546816 1.1129442196 -1.1056097982
| 24> H -2.1007280766 -1.4454831213 -1.1183983842
| 25> H -2.8542166561 -1.4979995532 0.4850807624
| 26> H -1.2772438905 -2.2556014663 0.2156573427
| 27> *
| 28>
| 29>                          ****END OF INPUT****

CARTESIAN COORDINATES (ANGSTROEM)
---------------------------------
  C      2.105642   -1.102285   -0.033616
  C      1.221103    0.097777    0.309401
  C      1.917259    1.412133   -0.047839
  O     -0.000075    0.003445   -0.415367
  C     -1.221422   -0.096801    0.308457
  C     -2.110076    1.099691   -0.036051
  C     -1.912421   -1.413890   -0.048750
  H      1.606564   -2.028201    0.241073
  H      2.297111   -1.116776   -1.103051
  H      3.048878   -1.035354    0.500030
  H      1.005703    0.087972    1.388683
  H      1.282734    2.255838    0.212115
  H      2.110007    1.441172   -1.116650
  H      2.856858    1.495175    0.489876
  H     -1.006941   -0.085409    1.387963
  H     -3.053547    1.029820    0.496674
  H     -1.614441    2.027437    0.238434
  H     -2.300555    1.112944   -1.105610
  H     -2.100728   -1.445483   -1.118398
  H     -2.854217   -1.498000    0.485081
  H     -1.277244   -2.255601    0.215657

 Total Charge           Charge          ....    0
 Multiplicity           Mult            ....    1
 Number of Electrons    NEL             ....   58
 Basis Dimension        Dim             ....  208

ORBITAL ENERGIES
----------------

  NO   OCC          E(Eh)            E(eV)
   0   2.0000     -18.938057      -515.3307
   1   2.0000     -10.080525      -274.3050
   2   2.0000     -10.080515      -274.3048
   3   2.0000     -10.013257      -272.4746
   4   2.0000     -10.013252      -272.4744
   5   2.0000     -10.013229      -272.4738
   6   2.0000     -10.013218      -272.4735
   7   2.0000      -0.985625       -26.8202
   8   2.0000      -0.761793       -20.7294
   9   2.0000      -0.712202       -19.3800
  10   2.0000      -0.653922       -17.7941
  11   2.0000      -0.648545       -17.6478
  12   2.0000      -0.564980       -15.3739
  13   2.0000      -0.537544       -14.6273
  14   2.0000      -0.464876       -12.6499
  15   2.0000      -0.430585       -11.7168
  16   2.0000      -0.406234       -11.0542
  17   2.0000      -0.399989       -10.8843
  18   2.0000      -0.378950       -10.3118
  19   2.0000      -0.366826        -9.9819
  20   2.0000      -0.354278        -9.6404
  21   2.0000      -0.352184        -9.5834
  22   2.0000      -0.344624        -9.3777
  23   2.0000      -0.337875        -9.1940
  24   2.0000      -0.325549        -8.8586
  25   2.0000      -0.308022        -8.3817
  26   2.0000      -0.290804        -7.9132
  27   2.0000      -0.271055        -7.3758
  28   2.0000      -0.208756        -5.6805
  29   0.0000       0.076105         2.0709
  30   0.0000       0.100150         2.7252
  31   0.0000       0.116412         3.1677
  32   0.0000       0.119040         3.2392
  33   0.0000       0.131907         3.5894

MULLIKEN ATOMIC CHARGES
-----------------------
   0 C :   -0.467026
   1 C :    0.035142
   2 C :   -0.466868
   3 O :   -0.192215
   4 C :    0.035238
   5 C :   -0.467029
   6 C :   -0.466965
   7 H :    0.143814
   8 H :    0.155568
   9 H :    0.138980
  10 H :    0.118044
  11 H :    0.144086
  12 H :    0.155261
  13 H :    0.139108
  14 H :    0.118021
  15 H :    0.138968
  16 H :    0.143952
  17 H :    0.155507
  18 H :    0.155438
  19 H :    0.139061
  20 H :    0.143914
Sum of atomic charges:   -0.0000000

LOEWDIN ATOMIC CHARGES
----------------------
   0 C :   -0.391197
   1 C :    0.055842
   2 C :   -0.390912
   3 O :   -0.761002
   4 C :    0.055857
   5 C :   -0.391053
   6 C :   -0.391067
   7 H :    0.156238
   8 H :    0.161061
   9 H :    0.154207
  10 H :    0.163640
  11 H :    0.156458
  12 H :    0.160967
  13 H :    0.154193
  14 H :    0.163646
  15 H :    0.154179
  16 H :    0.156304
  17 H :    0.161065
  18 H :    0.161042
  19 H :    0.154214
  20 H :    0.156317

  Mayer bond orders larger than 0.100000
B(  0-C ,  1-C ) :   0.9512 B(  0-C ,  7-H ) :   0.9694 B(  0-C ,  8-H ) :   0.9810
B(  0-C ,  9-H ) :   0.9730 B(  1-C ,  2-C ) :   0.9516 B(  1-C ,  3-O ) :   0.7944
B(  1-C , 10-H ) :   0.9530 B(  2-C , 11-H ) :   0.9694 B(  2-C , 12-H ) :   0.9810
B(  2-C , 13-H ) :   0.9732 B(  3-O ,  4-C ) :   0.7942 B(  4-C ,  5-C ) :   0.9515
B(  4-C ,  6-C ) :   0.9514 B(  4-C , 14-H ) :   0.9530 B(  5-C , 15-H ) :   0.9731
B(  5-C , 16-H ) :   0.9695 B(  5-C , 17-H ) :   0.9810 B(  6-C , 18-H ) :   0.9811
B(  6-C , 19-H ) :   0.9731 B(  6-C , 20-H ) :   0.9693

Dispersion correction           -0.005301571
FINAL SINGLE POINT ENERGY      -312.191969878386

DIPOLE MOMENT
-------------

Method             : SCF
Type of density    : Electron Density
Multiplicity       :   1
Irrep              :   0
Energy             :  -312.1987510317987358 Eh
Relativity type    :
Basis              : AO
                                X                 Y                 Z
Electronic contribution:     -0.000344962       0.012010668      -0.658706374
Nuclear contribution   :      0.000170923      -0.013521451       1.130773499
                        -----------------------------------------
Total Dipole Moment    :     -0.000174039      -0.001510783       0.472067126
                        -----------------------------------------
Magnitude (a.u.)       :      0.472069575
Magnitude (Debye)      :      1.199905503

Rotational constants in cm-1:             0.136749             0.053970             0.041598
Rotational constants in MHz :          4099.628454          1617.969753          1247.072742

                             ****ORCA TERMINATED NORMALLY****
TOTAL RUN TIME: 0 days 0 hours 0 minutes 20 seconds 787 msec
