                         Program Version 6.0.0  -   RELEASE  -
|  1> ! r2scan-3c def2/J RI DEFGRID2 scfconv6 printgap
|  2> %output
|  3>     printlevel normal
|  4> end
|  5> %cpcm
|  6>     smd true
|  7>     smdsolvent "water"
|  8> end
|  9> * xyz 0 1
| 10> C 2.1056417334 -1.102285451 -0.0336157312
| 11> C 1.221102624 0.0977769163 0.3094008459
| 12> C 1.9172593094 1.4121326099 -0.0478394774
| 13> O -7.49513e-05 0.0034454243 -0.4153674882
| 14> C -1.2214217984 -0.0968007502 0.3084567588
| 15> C -2.1100764859 1.0996913455 -0.036051046
| 16> C -1.9124209306 -1.4138901802 -0.0487502524
| 17> H 1.6065643171 -2.0282014785 0.2410732477
| 18> H 2.2971113804 -1.1167760017 -1.1030507375
| 19> H 3.0488776632 -1.0353541777 0.5000297043
| 20> H 1.0057027286 0.0879716831 1.3886827854
| 21> H 1.2827338306 2.2558379947 0.2121148718
| 22> H 2.1100070498 1.4411715325 -1.1166502298
| 23> H 2.8568584398 1.4951752411 0.489875571
| 24> H -1.0069409743 -0.0854094498 1.3879627148
| 25> H -3.0535467284 1.0298199642 0.4966737164
| 26> H -1.6144410276 2.0274374298 0.23843442
| 27> H -2.3005546816 1.1129442196 -1.1056097982
| 28> H -2.1007280766 -1.4454831213 -1.1183983842
| 29> H -2.8542166561 -1.4979995532 0.4850807624
| 30> H -1.2772438905 -2.2556014663 0.2156573427
| 31> *
| 32>
| 33>                          ****END OF INPUT****

CARTESIAN COORDINATES (ANGSTROEM)
---------------------------------
  C      2.105642   -1.102285   -0.033616
  C      1.221103    0.097777    0.309401
  C      1.917259    1.412133   -0.047839
  O     -0.000075    0.003445   -0.415367
  C     -1.221422   -0.096801    0.308457
  C     -2.110076    1.099691   -0.036051
  C     -1.912421   -1.413890   -0.048750
  H      1.606564   -2.028201    0.241073
  H      2.297111   -1.116776   -1.103051
  H      3.048878   -1.035354    0.500030
  H      1.005703    0.087972    1.388683
  H      1.282734    2.255838    0.212115
  H      2.110007    1.441172   -1.116650
  H      2.856858    1.495175    0.489876
  H     -1.006941   -0.085409    1.387963
  H     -3.053547    1.029820    0.496674
  H     -1.614441    2.027437    0.238434
  H     -2.300555    1.112944   -1.105610
  H     -2.100728   -1.445483   -1.118398
  H     -2.854217   -1.498000    0.485081
  H     -1.277244   -2.255601    0.215657

 Total Charge           Charge          ....    0
 Multiplicity           Mult            ....    1
 Number of Electrons    NEL             ....   58
 Basis Dimension        Dim             ....  208

ORBITAL ENERGIES
----------------

  NO   OCC          E(Eh)            E(eV)
   0   2.0000     -18.944724      -515.5122
   1   2.0000     -10.076457      -274.1943
   2   2.0000     -10.076448      -274.1941
   3   2.0000     -10.008430      -272.3432
   4   2.0000     -10.008422      -272.3430
   5   2.0000     -10.008422      -272.3430
   6   2.0000     -10.008415      -272.3428
   7   2.0000      -0.990773       -26.9603
   8   2.0000      -0.758785       -20.6476
   9   2.0000      -0.708439       -19.2776
  10   2.0000      -0.650155       -17.6916
  11   2.0000      -0.644467       -17.5369
  12   2.0000      -0.563194       -15.3253
  13   2.0000      -0.534126       -14.5343
  14   2.0000      -0.461686       -12.5631
  15   2.0000      -0.427144       -11.6232
  16   2.0000      -0.405274       -11.0281
  17   2.0000      -0.395465       -10.7611
  18   2.0000      -0.374207       -10.1827
  19   2.0000      -0.362358        -9.8603
  20   2.0000      -0.350196        -9.5293
  21   2.0000      -0.347670        -9.4606
  22   2.0000      -0.343874        -9.3573
  23   2.0000      -0.334069        -9.0905
  24   2.0000      -0.321599        -8.7512
  25   2.0000      -0.303699        -8.2641
  26   2.0000      -0.285504        -7.7690
  27   2.0000      -0.274642        -7.4734
  28   2.0000      -0.213736        -5.8160
  29   0.0000       0.083143         2.2624
  30   0.0000       0.103768         2.8237
  31   0.0000       0.123856         3.3703
  32   0.0000       0.125618         3.4182
  33   0.0000       0.135750         3.6939

MULLIKEN ATOMIC CHARGES
-----------------------
   0 C :   -0.523822
   1 C :    0.065514
   2 C :   -0.523344
   3 O :   -0.260541
   4 C :    0.065604
   5 C :   -0.523695
   6 C :   -0.523515
   7 H :    0.159032
   8 H :    0.164034
   9 H :    0.160855
  10 H :    0.144229
  11 H :    0.158907
  12 H :    0.163825
  13 H :    0.161031
  14 H :    0.144207
  15 H :    0.160878
  16 H :    0.159027
  17 H :    0.163986
  18 H :    0.163887
  19 H :    0.160955
  20 H :    0.158947
Sum of atomic charges:    0.0000000

LOEWDIN ATOMIC CHARGES
----------------------
   0 C :   -0.400084
   1 C :    0.058578
   2 C :   -0.399768
   3 O :   -0.798079
   4 C :    0.058589
   5 C :   -0.399945
   6 C :   -0.399908
   7 H :    0.159335
   8 H :    0.160951
   9 H :    0.162506
  10 H :    0.174729
  11 H :    0.159400
  12 H :    0.160889
  13 H :    0.162497
  14 H :    0.174738
  15 H :    0.162492
  16 H :    0.159347
  17 H :    0.160957
  18 H :    0.160933
  19 H :    0.162503
  20 H :    0.159339

  Mayer bond orders larger than 0.100000
B(  0-C ,  1-C ) :   0.9350 B(  0-C ,  7-H ) :   0.9681 B(  0-C ,  8-H ) :   0.9794
B(  0-C ,  9-H ) :   0.9674 B(  1-C ,  2-C ) :   0.9352 B(  1-C ,  3-O ) :   0.7898
B(  1-C , 10-H ) :   0.9508 B(  2-C , 11-H ) :   0.9682 B(  2-C , 12-H ) :   0.9793
B(  2-C , 13-H ) :   0.9675 B(  3-O ,  4-C ) :   0.7896 B(  4-C ,  5-C ) :   0.9353
B(  4-C ,  6-C ) :   0.9351 B(  4-C , 14-H ) :   0.9508 B(  5-C , 15-H ) :   0.9674
B(  5-C , 16-H ) :   0.9681 B(  5-C , 17-H ) :   0.9794 B(  6-C , 18-H ) :   0.9794
B(  6-C , 19-H ) :   0.9675 B(  6-C , 20-H ) :   0.9681

Dispersion correction           -0.005301571
FINAL SINGLE POINT ENERGY      -312.193587261533

DIPOLE MOMENT
-------------

Method             : SCF
Type of density    : Electron Density
Multiplicity       :   1
Irrep              :   0
Energy             :  -312.2003684149452170 Eh
Relativity type    :
Basis              : AO
                                X                 Y                 Z
Electronic contribution:     -0.000395292       0.010709900      -0.311138375
Nuclear contribution   :      0.000170923      -0.013521451       1.130773499
                        -----------------------------------------
Total Dipole Moment    :     -0.000224369      -0.002811551       0.819635124
                        -----------------------------------------
Magnitude (a.u.)       :      0.819639977
Magnitude (Debye)      :      2.083359254

Rotational constants in cm-1:             0.136749             0.053970             0.041598
Rotational constants in MHz :          4099.628454          1617.969753          1247.072742

                             ****ORCA TERMINATED NORMALLY****
TOTAL RUN TIME: 0 days 0 hours 0 minutes 27 seconds 349 msec
