                         Program Version 6.0.0  -   RELEASE  -
|  1> ! pbe def2-sv(p) def2/J RI DEFGRID1 loosescf d4 GCP(DFT/SV(P)) printgap
|  2> %output
|  3>     printlevel normal
|  4> end
|  5> * xyz 0 1
|  6> C -3.0326089955 -0.6661270804 2.0505824192
|  7> C -3.0016436706 -1.4576378638 0.7478516767
|  8> C -2.7195569613 -0.5685562268 -0.4662349492
|  9> H -3.4821749524 0.2159885415 -0.5121810585
| 10> C -2.729690769 -1.3518660695 -1.7750438089
| 11> N -1.4483706424 0.162387495 -0.3064427672
| 12> C -0.2575820312 -0.5502337097 -0.2034479974
| 13> O -0.2233111383 -1.7663324496 -0.2559274645
| 14> C 0.9276869687 0.2679047555 -0.0296241159
| 15> C 0.8855853236 1.6214570472 0.0277255124
| 16> N -0.3434346844 2.2039769978 -0.0866908953
| 17> C -1.5277739294 1.5349078838 -0.2500920115
| 18> O -2.5742134931 2.1536410284 -0.3390974171
| 19> C 2.039235618 2.5373767982 0.20223824
| 20> Br 2.5480493938 -0.7174743334 0.1118512708
| 21> H -3.7251826753 0.1696298829 1.9727428012
| 22> H -3.3482927786 -1.3058050736 2.8697900057
| 23> H -2.0462699207 -0.2719662876 2.2906381554
| 24> H -2.2492611439 -2.2449004112 0.8061304529
| 25> H -3.9714706653 -1.9278845554 0.5846003305
| 26> H -3.7116066515 -1.7915321902 -1.9185729975
| 27> H -2.5169886335 -0.6909980627 -2.6123009073
| 28> H -1.98880296 -2.1463220774 -1.7517269733
| 29> H -0.4171667003 3.2159254302 -0.0478943551
| 30> H 2.1031905402 3.2152028568 -0.6464401841
| 31> H 2.9683888281 1.9822421113 0.2823545014
| 32> H 1.903861433 3.1338088869 1.1021273489
| 33> *
| 34>
| 35>                          ****END OF INPUT****

CARTESIAN COORDINATES (ANGSTROEM)
---------------------------------
  C     -3.032609   -0.666127    2.050582
  C     -3.001644   -1.457638    0.747852
  C     -2.719557   -0.568556   -0.466235
  H     -3.482175    0.215989   -0.512181
  C     -2.729691   -1.351866   -1.775044
  N     -1.448371    0.162387   -0.306443
  C     -0.257582   -0.550234   -0.203448
  O     -0.223311   -1.766332   -0.255927
  C      0.927687    0.267905   -0.029624
  C      0.885585    1.621457    0.027726
  N     -0.343435    2.203977   -0.086691
  C     -1.527774    1.534908   -0.250092
  O     -2.574213    2.153641   -0.339097
  C      2.039236    2.537377    0.202238
  Br     2.548049   -0.717474    0.111851
  H     -3.725183    0.169630    1.972743
  H     -3.348293   -1.305805    2.869790
  H     -2.046270   -0.271966    2.290638
  H     -2.249261   -2.244900    0.806130
  H     -3.971471   -1.927885    0.584600
  H     -3.711607   -1.791532   -1.918573
  H     -2.516989   -0.690998   -2.612301
  H     -1.988803   -2.146322   -1.751727
  H     -0.417167    3.215925   -0.047894
  H      2.103191    3.215203   -0.646440
  H      2.968389    1.982242    0.282355
  H      1.903861    3.133809    1.102127

 Total Charge           Charge          ....    0
 Multiplicity           Mult            ....    1
 Number of Electrons    NEL             ....  132
 Basis Dimension        Dim             ....  240

ORBITAL ENERGIES
----------------

  NO   OCC          E(Eh)            E(eV)
   0   2.0000    -480.941556    -13087.0851
   1   2.0000     -61.783279     -1681.2085
   2   2.0000     -55.713988     -1516.0547
   3   2.0000     -55.710856     -1515.9695
   4   2.0000     -55.710638     -1515.9635
   5   2.0000     -18.734711      -509.7974
   6   2.0000     -18.733372      -509.7610
   7   2.0000     -14.066750      -382.7757
   8   2.0000     -14.054549      -382.4437
   9   2.0000     -10.033897      -273.0362
  10   2.0000     -10.004534      -272.2372
  11   2.0000      -9.982272      -271.6314
  12   2.0000      -9.952198      -270.8131
  13   2.0000      -9.931411      -270.2474
  14   2.0000      -9.922036      -269.9923
  15   2.0000      -9.881933      -268.9011
  16   2.0000      -9.874030      -268.6860
  17   2.0000      -9.874016      -268.6856
  18   2.0000      -8.408476      -228.8063
  19   2.0000      -6.290915      -171.1845
  20   2.0000      -6.276006      -170.7788
  21   2.0000      -6.275465      -170.7641
  22   2.0000      -2.491954       -67.8095
  23   2.0000      -2.488310       -67.7103
  24   2.0000      -2.487916       -67.6996
  25   2.0000      -2.476715       -67.3948
  26   2.0000      -2.476708       -67.3947
  27   2.0000      -0.987944       -26.8833
  28   2.0000      -0.949389       -25.8342
  29   2.0000      -0.898136       -24.4395
  30   2.0000      -0.860875       -23.4256
  31   2.0000      -0.767565       -20.8865
  32   2.0000      -0.728921       -19.8350
  33   2.0000      -0.708328       -19.2746
  34   2.0000      -0.668425       -18.1888
  35   2.0000      -0.652631       -17.7590
  36   2.0000      -0.608498       -16.5581
  37   2.0000      -0.601655       -16.3719
  38   2.0000      -0.563089       -15.3224
  39   2.0000      -0.539103       -14.6697
  40   2.0000      -0.528961       -14.3938
  41   2.0000      -0.493923       -13.4403
  42   2.0000      -0.454558       -12.3691
  43   2.0000      -0.438618       -11.9354
  44   2.0000      -0.417892       -11.3714
  45   2.0000      -0.414160       -11.2699
  46   2.0000      -0.393277       -10.7016
  47   2.0000      -0.387253       -10.5377
  48   2.0000      -0.383833       -10.4446
  49   2.0000      -0.381401       -10.3784
  50   2.0000      -0.379652       -10.3309
  51   2.0000      -0.372133       -10.1263
  52   2.0000      -0.362837        -9.8733
  53   2.0000      -0.356953        -9.7132
  54   2.0000      -0.343466        -9.3462
  55   2.0000      -0.322692        -8.7809
  56   2.0000      -0.320692        -8.7265
  57   2.0000      -0.303555        -8.2602
  58   2.0000      -0.295836        -8.0501
  59   2.0000      -0.292258        -7.9528
  60   2.0000      -0.274888        -7.4801
  61   2.0000      -0.252795        -6.8789
  62   2.0000      -0.238960        -6.5024
  63   2.0000      -0.235184        -6.3997
  64   2.0000      -0.215280        -5.8581
  65   2.0000      -0.207173        -5.6375
  66   0.0000      -0.074746        -2.0339
  67   0.0000      -0.032671        -0.8890
  68   0.0000      -0.024594        -0.6692
  69   0.0000       0.015498         0.4217
  70   0.0000       0.047524         1.2932

MULLIKEN ATOMIC CHARGES
-----------------------
   0 C :   -0.269401
   1 C :   -0.174718
   2 C :   -0.083234
   3 H :    0.109615
   4 C :   -0.223453
   5 N :   -0.242861
   6 C :    0.180963
   7 O :   -0.169937
   8 C :   -0.190639
   9 C :    0.015907
  10 N :   -0.203502
  11 C :    0.170446
  12 O :   -0.206899
  13 C :   -0.213913
  14 Br:    0.008730
  15 H :    0.104548
  16 H :    0.106467
  17 H :    0.100553
  18 H :    0.118242
  19 H :    0.087293
  20 H :    0.101323
  21 H :    0.098931
  22 H :    0.131675
  23 H :    0.246818
  24 H :    0.130980
  25 H :    0.135040
  26 H :    0.131024
Sum of atomic charges:    0.0000000

LOEWDIN ATOMIC CHARGES
----------------------
   0 C :   -0.343496
   1 C :   -0.236335
   2 C :   -0.077130
   3 H :    0.133977
   4 C :   -0.338424
   5 N :    0.001009
   6 C :    0.022964
   7 O :   -0.163629
   8 C :   -0.214094
   9 C :   -0.006335
  10 N :   -0.088622
  11 C :    0.037758
  12 O :   -0.197975
  13 C :   -0.333734
  14 Br:    0.137895
  15 H :    0.120246
  16 H :    0.122478
  17 H :    0.114501
  18 H :    0.128283
  19 H :    0.121725
  20 H :    0.124828
  21 H :    0.120266
  22 H :    0.131106
  23 H :    0.254851
  24 H :    0.143677
  25 H :    0.140499
  26 H :    0.143710

  Mayer bond orders larger than 0.100000
B(  0-C ,  1-C ) :   1.1599 B(  0-C , 15-H ) :   0.9500 B(  0-C , 16-H ) :   0.9511
B(  0-C , 17-H ) :   0.9493 B(  1-C ,  2-C ) :   1.0879 B(  1-C , 18-H ) :   0.9017
B(  1-C , 19-H ) :   0.9190 B(  2-C ,  3-H ) :   0.8775 B(  2-C ,  4-C ) :   1.1265
B(  2-C ,  5-N ) :   0.9091 B(  4-C , 20-H ) :   0.9441 B(  4-C , 21-H ) :   0.9461
B(  4-C , 22-H ) :   0.9287 B(  5-N ,  6-C ) :   1.0391 B(  5-N , 11-C ) :   1.0732
B(  6-C ,  7-O ) :   2.0819 B(  6-C ,  8-C ) :   1.0283 B(  8-C ,  9-C ) :   1.6411
B(  8-C , 14-Br) :   1.0544 B(  9-C , 10-N ) :   1.1784 B(  9-C , 13-C ) :   1.1599
B( 10-N , 11-C ) :   1.0954 B( 10-N , 23-H ) :   0.8392 B( 11-C , 12-O ) :   2.0474
B( 13-C , 24-H ) :   0.9195 B( 13-C , 25-H ) :   0.9086 B( 13-C , 26-H ) :   0.9195

Dispersion correction           -0.034275628
FINAL SINGLE POINT ENERGY     -3182.943646574896

DIPOLE MOMENT
-------------

Method             : SCF
Type of density    : Electron Density
Multiplicity       :   1
Irrep              :   0
Energy             : -3183.0353744003914471 Eh
Relativity type    :
Basis              : AO
                                X                 Y                 Z
Electronic contribution:     43.477700202      -6.796056425      -1.069031432
Nuclear contribution   :    -42.925277765       8.137823610       1.220195930
                        -----------------------------------------
Total Dipole Moment    :      0.552422437       1.341767185       0.151164499
                        -----------------------------------------
Magnitude (a.u.)       :      1.458890137
Magnitude (Debye)      :      3.708204033

Rotational constants in cm-1:             0.027000             0.012083             0.009674
Rotational constants in MHz :           809.450523           362.232085           290.018920

                             ****ORCA TERMINATED NORMALLY****
TOTAL RUN TIME: 0 days 0 hours 0 minutes 21 seconds 938 msec
