                         Program Version 6.0.0  -   RELEASE  -
|  1> ! r2scan-3c def2/J RI DEFGRID2 scfconv6 printgap
|  2> %output
|  3>     printlevel normal
|  4> end
|  5> %cpcm
|  6>     smd true
|  7>     smdsolvent "water"
|  8> end
|  9> * xyz 0 1
| 10> C -1.5704097132 1.483389632 0.2771241038
| 11> C -1.1346518292 0.2565293937 -0.5203451609
| 12> C -0.1303429917 -0.6247191135 0.2425925341
| 13> H -0.2706283884 -0.4640085623 1.3163458275
| 14> C -0.352962046 -2.1039949201 -0.0675256185
| 15> C 1.3243944358 -0.2659500806 -0.1006879138
| 16> O 1.68479534 1.0679144577 0.1893005913
| 17> H -2.1920969263 2.1337747344 -0.3340133389
| 18> H -2.1487490751 1.1772839627 1.1462428219
| 19> H -0.713583076 2.0511034745 0.6303319531
| 20> H -0.6989725377 0.5649697072 -1.474030896
| 21> H -2.0218485583 -0.3357093526 -0.7525538571
| 22> H 0.3689047553 -2.7201199473 0.4630120913
| 23> H -0.2428800514 -2.2869065301 -1.134189374
| 24> H -1.3517461032 -2.407294791 0.2348272118
| 25> H 1.512957502 -0.4859307602 -1.1606278382
| 26> H 2.0011010913 -0.8802902749 0.499446157
| 27> H 1.2257970102 1.653676692 -0.4276808789
| 28> *
| 29>
| 30>                          ****END OF INPUT****

CARTESIAN COORDINATES (ANGSTROEM)
---------------------------------
  C     -1.570410    1.483390    0.277124
  C     -1.134652    0.256529   -0.520345
  C     -0.130343   -0.624719    0.242593
  H     -0.270628   -0.464009    1.316346
  C     -0.352962   -2.103995   -0.067526
  C      1.324394   -0.265950   -0.100688
  O      1.684795    1.067914    0.189301
  H     -2.192097    2.133775   -0.334013
  H     -2.148749    1.177284    1.146243
  H     -0.713583    2.051103    0.630332
  H     -0.698973    0.564970   -1.474031
  H     -2.021849   -0.335709   -0.752554
  H      0.368905   -2.720120    0.463012
  H     -0.242880   -2.286907   -1.134189
  H     -1.351746   -2.407295    0.234827
  H      1.512958   -0.485931   -1.160628
  H      2.001101   -0.880290    0.499446
  H      1.225797    1.653677   -0.427681

 Total Charge           Charge          ....    0
 Multiplicity           Mult            ....    1
 Number of Electrons    NEL             ....   50
 Basis Dimension        Dim             ....  179

ORBITAL ENERGIES
----------------

  NO   OCC          E(Eh)            E(eV)
   0   2.0000     -18.950201      -515.6612
   1   2.0000     -10.065188      -273.8877
   2   2.0000     -10.023609      -272.7563
   3   2.0000     -10.016405      -272.5602
   4   2.0000     -10.009173      -272.3635
   5   2.0000     -10.007813      -272.3264
   6   2.0000      -0.986070       -26.8323
   7   2.0000      -0.765600       -20.8330
   8   2.0000      -0.694785       -18.9060
   9   2.0000      -0.632147       -17.2016
  10   2.0000      -0.584367       -15.9014
  11   2.0000      -0.526625       -14.3302
  12   2.0000      -0.478949       -13.0329
  13   2.0000      -0.418070       -11.3763
  14   2.0000      -0.411245       -11.1905
  15   2.0000      -0.387050       -10.5322
  16   2.0000      -0.372877       -10.1465
  17   2.0000      -0.367735       -10.0066
  18   2.0000      -0.341504        -9.2928
  19   2.0000      -0.326639        -8.8883
  20   2.0000      -0.312259        -8.4970
  21   2.0000      -0.294670        -8.0184
  22   2.0000      -0.284611        -7.7446
  23   2.0000      -0.275183        -7.4881
  24   2.0000      -0.233654        -6.3581
  25   0.0000       0.069228         1.8838
  26   0.0000       0.099912         2.7187
  27   0.0000       0.119230         3.2444
  28   0.0000       0.124703         3.3933
  29   0.0000       0.137338         3.7371

MULLIKEN ATOMIC CHARGES
-----------------------
   0 C :   -0.550939
   1 C :   -0.272219
   2 C :    0.036889
   3 H :    0.160231
   4 C :   -0.544586
   5 C :   -0.251336
   6 O :   -0.508960
   7 H :    0.155650
   8 H :    0.160933
   9 H :    0.156617
  10 H :    0.160402
  11 H :    0.154832
  12 H :    0.156729
  13 H :    0.160033
  14 H :    0.164275
  15 H :    0.152860
  16 H :    0.150301
  17 H :    0.358288
Sum of atomic charges:    0.0000000

LOEWDIN ATOMIC CHARGES
----------------------
   0 C :   -0.431177
   1 C :   -0.311805
   2 C :   -0.228885
   3 H :    0.163203
   4 C :   -0.420187
   5 C :    0.001103
   6 O :   -0.654139
   7 H :    0.152033
   8 H :    0.152428
   9 H :    0.153938
  10 H :    0.160228
  11 H :    0.159424
  12 H :    0.156908
  13 H :    0.158498
  14 H :    0.157788
  15 H :    0.166529
  16 H :    0.180497
  17 H :    0.283619

  Mayer bond orders larger than 0.100000
B(  0-C ,  1-C ) :   0.8842 B(  0-C ,  7-H ) :   0.9731 B(  0-C ,  8-H ) :   0.9843
B(  0-C ,  9-H ) :   0.9764 B(  1-C ,  2-C ) :   0.8269 B(  1-C , 10-H ) :   0.9704
B(  1-C , 11-H ) :   0.9722 B(  2-C ,  3-H ) :   0.9600 B(  2-C ,  4-C ) :   0.8893
B(  2-C ,  5-C ) :   0.8906 B(  4-C , 12-H ) :   0.9745 B(  4-C , 13-H ) :   0.9770
B(  4-C , 14-H ) :   0.9706 B(  5-C ,  6-O ) :   0.9510 B(  5-C , 15-H ) :   0.9896
B(  5-C , 16-H ) :   0.9736 B(  6-O , 17-H ) :   0.8614

Dispersion correction           -0.004404386
FINAL SINGLE POINT ENERGY      -272.901890512943

DIPOLE MOMENT
-------------

Method             : SCF
Type of density    : Electron Density
Multiplicity       :   1
Irrep              :   0
Energy             :  -272.9074492098563951 Eh
Relativity type    :
Basis              : AO
                                X                 Y                 Z
Electronic contribution:      3.616937179       1.615252446       0.328809167
Nuclear contribution   :     -4.226514605      -1.859964480      -0.928684092
                        -----------------------------------------
Total Dipole Moment    :     -0.609577425      -0.244712034      -0.599874925
                        -----------------------------------------
Magnitude (a.u.)       :      0.889560871
Magnitude (Debye)      :      2.261084042

Rotational constants in cm-1:             0.112443             0.108493             0.061101
Rotational constants in MHz :          3370.964012          3252.524029          1831.771298

                             ****ORCA TERMINATED NORMALLY****
TOTAL RUN TIME: 0 days 0 hours 0 minutes 27 seconds 97 msec
