                         Program Version 6.0.0  -   RELEASE  -
|  1> ! r2scan-3c def2/J RI DEFGRID2 scfconv6 printgap
|  2> %output
|  3>     printlevel normal
|  4> end
|  5> * xyz 0 1
|  6> C -1.7978294926 1.4421705674 0.3296905193
|  7> C -1.1459491399 0.3349717555 -0.4903978992
|  8> C -0.2439311091 -0.5843736337 0.3419621656
|  9> H -0.7478375461 -0.8188232058 1.285590368
| 10> C 0.0232282234 -1.8919293356 -0.4056533149
| 11> C 1.0762428091 0.1129474239 0.7104764814
| 12> O 1.8331863601 0.5394341325 -0.4013588335
| 13> H -1.0491465823 2.1094705521 0.7487208259
| 14> H -2.4616585715 2.0314000143 -0.2981837595
| 15> H -2.3804492498 1.0205238417 1.1460190592
| 16> H -0.5481069563 0.7798355614 -1.2889693819
| 17> H -1.9295784385 -0.268484389 -0.9530675246
| 18> H 0.7277650101 -2.512531944 0.1440058904
| 19> H 0.4228638819 -1.6936069694 -1.3977242166
| 20> H -0.902022318 -2.4499288276 -0.5243211123
| 21> H 1.6769776556 -0.5570607922 1.3414366391
| 22> H 0.8722380916 1.0205135728 1.2824597795
| 23> H 2.1042048371 -0.2384633254 -0.9073196411
| 24> *
| 25>
| 26>                          ****END OF INPUT****

CARTESIAN COORDINATES (ANGSTROEM)
---------------------------------
  C     -1.797829    1.442171    0.329691
  C     -1.145949    0.334972   -0.490398
  C     -0.243931   -0.584374    0.341962
  H     -0.747838   -0.818823    1.285590
  C      0.023228   -1.891929   -0.405653
  C      1.076243    0.112947    0.710476
  O      1.833186    0.539434   -0.401359
  H     -1.049147    2.109471    0.748721
  H     -2.461659    2.031400   -0.298184
  H     -2.380449    1.020524    1.146019
  H     -0.548107    0.779836   -1.288969
  H     -1.929578   -0.268484   -0.953068
  H      0.727765   -2.512532    0.144006
  H      0.422864   -1.693607   -1.397724
  H     -0.902022   -2.449929   -0.524321
  H      1.676978   -0.557061    1.341437
  H      0.872238    1.020514    1.282460
  H      2.104205   -0.238463   -0.907320

 Total Charge           Charge          ....    0
 Multiplicity           Mult            ....    1
 Number of Electrons    NEL             ....   50
 Basis Dimension        Dim             ....  179

ORBITAL ENERGIES
----------------

  NO   OCC          E(Eh)            E(eV)
   0   2.0000     -18.947891      -515.5983
   1   2.0000     -10.071164      -274.0503
   2   2.0000     -10.033568      -273.0273
   3   2.0000     -10.023059      -272.7413
   4   2.0000     -10.020171      -272.6627
   5   2.0000     -10.014067      -272.4966
   6   2.0000      -0.985138       -26.8070
   7   2.0000      -0.773485       -21.0476
   8   2.0000      -0.698904       -19.0181
   9   2.0000      -0.647947       -17.6315
  10   2.0000      -0.590735       -16.0747
  11   2.0000      -0.532166       -14.4810
  12   2.0000      -0.464910       -12.6508
  13   2.0000      -0.444706       -12.1011
  14   2.0000      -0.419337       -11.4107
  15   2.0000      -0.396930       -10.8010
  16   2.0000      -0.381509       -10.3814
  17   2.0000      -0.371105       -10.0983
  18   2.0000      -0.346688        -9.4339
  19   2.0000      -0.334861        -9.1120
  20   2.0000      -0.310072        -8.4375
  21   2.0000      -0.299457        -8.1486
  22   2.0000      -0.296264        -8.0617
  23   2.0000      -0.278586        -7.5807
  24   2.0000      -0.234703        -6.3866
  25   0.0000       0.050363         1.3705
  26   0.0000       0.096157         2.6166
  27   0.0000       0.106023         2.8850
  28   0.0000       0.126179         3.4335
  29   0.0000       0.133043         3.6203

MULLIKEN ATOMIC CHARGES
-----------------------
   0 C :   -0.500744
   1 C :   -0.270243
   2 C :    0.032165
   3 H :    0.145782
   4 C :   -0.535300
   5 C :   -0.220374
   6 O :   -0.428366
   7 H :    0.146051
   8 H :    0.147705
   9 H :    0.144622
  10 H :    0.165846
  11 H :    0.138550
  12 H :    0.153139
  13 H :    0.145457
  14 H :    0.155543
  15 H :    0.135729
  16 H :    0.144818
  17 H :    0.299621
Sum of atomic charges:   -0.0000000

LOEWDIN ATOMIC CHARGES
----------------------
   0 C :   -0.420575
   1 C :   -0.308265
   2 C :   -0.234346
   3 H :    0.161546
   4 C :   -0.419964
   5 C :    0.005226
   6 O :   -0.620388
   7 H :    0.149879
   8 H :    0.151666
   9 H :    0.148550
  10 H :    0.167463
  11 H :    0.153064
  12 H :    0.154384
  13 H :    0.152000
  14 H :    0.157594
  15 H :    0.158544
  16 H :    0.178037
  17 H :    0.265586

  Mayer bond orders larger than 0.100000
B(  0-C ,  1-C ) :   0.9013 B(  0-C ,  7-H ) :   0.9790 B(  0-C ,  8-H ) :   0.9732
B(  0-C ,  9-H ) :   0.9915 B(  1-C ,  2-C ) :   0.8812 B(  1-C , 10-H ) :   0.9610
B(  1-C , 11-H ) :   0.9732 B(  2-C ,  3-H ) :   0.9559 B(  2-C ,  4-C ) :   0.8703
B(  2-C ,  5-C ) :   0.8928 B(  4-C , 12-H ) :   0.9794 B(  4-C , 13-H ) :   0.9858
B(  4-C , 14-H ) :   0.9735 B(  5-C ,  6-O ) :   0.9670 B(  5-C , 15-H ) :   0.9815
B(  5-C , 16-H ) :   0.9812 B(  6-O , 17-H ) :   0.8934

Dispersion correction           -0.004423904
FINAL SINGLE POINT ENERGY      -272.898317863430

DIPOLE MOMENT
-------------

Method             : SCF
Type of density    : Electron Density
Multiplicity       :   1
Irrep              :   0
Energy             :  -272.9038468375034654 Eh
Relativity type    :
Basis              : AO
                                X                 Y                 Z
Electronic contribution:      3.732737014       0.894499568      -0.449701987
Nuclear contribution   :     -3.926920013      -1.471624866       0.536909153
                        -----------------------------------------
Total Dipole Moment    :     -0.194182999      -0.577125298       0.087207166
                        -----------------------------------------
Magnitude (a.u.)       :      0.615130667
Magnitude (Debye)      :      1.563537898

Rotational constants in cm-1:             0.138747             0.088393             0.065305
Rotational constants in MHz :          4159.544140          2649.946169          1957.809381

                             ****ORCA TERMINATED NORMALLY****
TOTAL RUN TIME: 0 days 0 hours 0 minutes 23 seconds 651 msec
