                         Program Version 6.0.0  -   RELEASE  -
|  1> ! r2scan-3c def2/J RI DEFGRID2 scfconv6 printgap
|  2> %output
|  3>     printlevel normal
|  4> end
|  5> %cpcm
|  6>     smd true
|  7>     smdsolvent "water"
|  8> end
|  9> * xyz 0 1
| 10> C -1.7978294926 1.4421705674 0.3296905193
| 11> C -1.1459491399 0.3349717555 -0.4903978992
| 12> C -0.2439311091 -0.5843736337 0.3419621656
| 13> H -0.7478375461 -0.8188232058 1.285590368
| 14> C 0.0232282234 -1.8919293356 -0.4056533149
| 15> C 1.0762428091 0.1129474239 0.7104764814
| 16> O 1.8331863601 0.5394341325 -0.4013588335
| 17> H -1.0491465823 2.1094705521 0.7487208259
| 18> H -2.4616585715 2.0314000143 -0.2981837595
| 19> H -2.3804492498 1.0205238417 1.1460190592
| 20> H -0.5481069563 0.7798355614 -1.2889693819
| 21> H -1.9295784385 -0.268484389 -0.9530675246
| 22> H 0.7277650101 -2.512531944 0.1440058904
| 23> H 0.4228638819 -1.6936069694 -1.3977242166
| 24> H -0.902022318 -2.4499288276 -0.5243211123
| 25> H 1.6769776556 -0.5570607922 1.3414366391
| 26> H 0.8722380916 1.0205135728 1.2824597795
| 27> H 2.1042048371 -0.2384633254 -0.9073196411
| 28> *
| 29>
| 30>                          ****END OF INPUT****

CARTESIAN COORDINATES (ANGSTROEM)
---------------------------------
  C     -1.797829    1.442171    0.329691
  C     -1.145949    0.334972   -0.490398
  C     -0.243931   -0.584374    0.341962
  H     -0.747838   -0.818823    1.285590
  C      0.023228   -1.891929   -0.405653
  C      1.076243    0.112947    0.710476
  O      1.833186    0.539434   -0.401359
  H     -1.049147    2.109471    0.748721
  H     -2.461659    2.031400   -0.298184
  H     -2.380449    1.020524    1.146019
  H     -0.548107    0.779836   -1.288969
  H     -1.929578   -0.268484   -0.953068
  H      0.727765   -2.512532    0.144006
  H      0.422864   -1.693607   -1.397724
  H     -0.902022   -2.449929   -0.524321
  H      1.676978   -0.557061    1.341437
  H      0.872238    1.020514    1.282460
  H      2.104205   -0.238463   -0.907320

 Total Charge           Charge          ....    0
 Multiplicity           Mult            ....    1
 Number of Electrons    NEL             ....   50
 Basis Dimension        Dim             ....  179

ORBITAL ENERGIES
----------------

  NO   OCC          E(Eh)            E(eV)
   0   2.0000     -18.950193      -515.6610
   1   2.0000     -10.064199      -273.8608
   2   2.0000     -10.023793      -272.7613
   3   2.0000     -10.013835      -272.4903
   4   2.0000     -10.008449      -272.3438
   5   2.0000     -10.006977      -272.3037
   6   2.0000      -0.986310       -26.8389
   7   2.0000      -0.764716       -20.8090
   8   2.0000      -0.690454       -18.7882
   9   2.0000      -0.639463       -17.4007
  10   2.0000      -0.583081       -15.8665
  11   2.0000      -0.525251       -14.2928
  12   2.0000      -0.459602       -12.5064
  13   2.0000      -0.437421       -11.9028
  14   2.0000      -0.413257       -11.2453
  15   2.0000      -0.387186       -10.5359
  16   2.0000      -0.372372       -10.1327
  17   2.0000      -0.365952        -9.9581
  18   2.0000      -0.340924        -9.2770
  19   2.0000      -0.325460        -8.8562
  20   2.0000      -0.305120        -8.3027
  21   2.0000      -0.290930        -7.9166
  22   2.0000      -0.289780        -7.8853
  23   2.0000      -0.272899        -7.4260
  24   2.0000      -0.236273        -6.4293
  25   0.0000       0.064907         1.7662
  26   0.0000       0.108406         2.9499
  27   0.0000       0.115380         3.1396
  28   0.0000       0.133206         3.6247
  29   0.0000       0.144690         3.9372

MULLIKEN ATOMIC CHARGES
-----------------------
   0 C :   -0.539168
   1 C :   -0.286285
   2 C :    0.033233
   3 H :    0.158544
   4 C :   -0.557182
   5 C :   -0.218712
   6 O :   -0.514833
   7 H :    0.157228
   8 H :    0.156629
   9 H :    0.157825
  10 H :    0.154607
  11 H :    0.151376
  12 H :    0.162612
  13 H :    0.159871
  14 H :    0.164867
  15 H :    0.147743
  16 H :    0.157485
  17 H :    0.354160
Sum of atomic charges:   -0.0000000

LOEWDIN ATOMIC CHARGES
----------------------
   0 C :   -0.429465
   1 C :   -0.311012
   2 C :   -0.230329
   3 H :    0.166830
   4 C :   -0.423889
   5 C :    0.003670
   6 O :   -0.657490
   7 H :    0.152140
   8 H :    0.152783
   9 H :    0.152707
  10 H :    0.161830
  11 H :    0.156935
  12 H :    0.158526
  13 H :    0.157685
  14 H :    0.158541
  15 H :    0.166038
  16 H :    0.180981
  17 H :    0.283517

  Mayer bond orders larger than 0.100000
B(  0-C ,  1-C ) :   0.8967 B(  0-C ,  7-H ) :   0.9763 B(  0-C ,  8-H ) :   0.9714
B(  0-C ,  9-H ) :   0.9874 B(  1-C ,  2-C ) :   0.8736 B(  1-C , 10-H ) :   0.9677
B(  1-C , 11-H ) :   0.9723 B(  2-C ,  3-H ) :   0.9538 B(  2-C ,  4-C ) :   0.8781
B(  2-C ,  5-C ) :   0.9027 B(  4-C , 12-H ) :   0.9744 B(  4-C , 13-H ) :   0.9786
B(  4-C , 14-H ) :   0.9736 B(  5-C ,  6-O ) :   0.9521 B(  5-C , 15-H ) :   0.9715
B(  5-C , 16-H ) :   0.9779 B(  6-O , 17-H ) :   0.8663

Dispersion correction           -0.004423904
FINAL SINGLE POINT ENERGY      -272.903992853283

DIPOLE MOMENT
-------------

Method             : SCF
Type of density    : Electron Density
Multiplicity       :   1
Irrep              :   0
Energy             :  -272.9095218273569117 Eh
Relativity type    :
Basis              : AO
                                X                 Y                 Z
Electronic contribution:      3.688650732       0.631942951      -0.378531355
Nuclear contribution   :     -3.926920013      -1.471624866       0.536909153
                        -----------------------------------------
Total Dipole Moment    :     -0.238269281      -0.839681915       0.158377798
                        -----------------------------------------
Magnitude (a.u.)       :      0.887085957
Magnitude (Debye)      :      2.254793312

Rotational constants in cm-1:             0.138747             0.088393             0.065305
Rotational constants in MHz :          4159.544140          2649.946169          1957.809381

                             ****ORCA TERMINATED NORMALLY****
TOTAL RUN TIME: 0 days 0 hours 0 minutes 27 seconds 874 msec
