                         Program Version 6.0.0  -   RELEASE  -
|  1> ! pbe def2-sv(p) def2/J RI DEFGRID1 loosescf d4 GCP(DFT/SV(P)) printgap
|  2> %output
|  3>     printlevel normal
|  4> end
|  5> * xyz 0 1
|  6> C -2.2399834102 1.2453369202 -0.1320137715
|  7> C -1.8639533875 -0.0871764545 0.5195963031
|  8> C -0.553105768 -0.5916468251 -0.0263447016
|  9> O -0.420996118 -1.5910557235 -0.7046421606
| 10> O 0.4586327021 0.1933404458 0.3103446512
| 11> C 1.7678996706 -0.1587371912 -0.1663652351
| 12> C 2.7314743493 0.9394008552 0.239687678
| 13> H -1.4712577031 1.9878793866 0.0626181252
| 14> H -2.3478697794 1.1248332749 -1.2072576712
| 15> H -3.1829281961 1.5978320937 0.2747923976
| 16> H -2.625614477 -0.8409910599 0.323044694
| 17> H -1.7538679627 0.0519172309 1.5952643839
| 18> H 2.04487693 -1.1235962312 0.2712146159
| 19> H 1.720285873 -0.2800220542 -1.2535875697
| 20> H 3.731252023 0.6805003272 -0.0926862181
| 21> H 2.4365610777 1.8815359362 -0.2124912364
| 22> H 2.730032735 1.0533179694 1.319572786
| 23> *
| 24>
| 25>                          ****END OF INPUT****

CARTESIAN COORDINATES (ANGSTROEM)
---------------------------------
  C     -2.239983    1.245337   -0.132014
  C     -1.863953   -0.087176    0.519596
  C     -0.553106   -0.591647   -0.026345
  O     -0.420996   -1.591056   -0.704642
  O      0.458633    0.193340    0.310345
  C      1.767900   -0.158737   -0.166365
  C      2.731474    0.939401    0.239688
  H     -1.471258    1.987879    0.062618
  H     -2.347870    1.124833   -1.207258
  H     -3.182928    1.597832    0.274792
  H     -2.625614   -0.840991    0.323045
  H     -1.753868    0.051917    1.595264
  H      2.044877   -1.123596    0.271215
  H      1.720286   -0.280022   -1.253588
  H      3.731252    0.680500   -0.092686
  H      2.436561    1.881536   -0.212491
  H      2.730033    1.053318    1.319573

 Total Charge           Charge          ....    0
 Multiplicity           Mult            ....    1
 Number of Electrons    NEL             ....   56
 Basis Dimension        Dim             ....  118

ORBITAL ENERGIES
----------------

  NO   OCC          E(Eh)            E(eV)
   0   2.0000     -18.797315      -511.5009
   1   2.0000     -18.728470      -509.6276
   2   2.0000     -10.002689      -272.1870
   3   2.0000      -9.947277      -270.6792
   4   2.0000      -9.898421      -269.3497
   5   2.0000      -9.889812      -269.1155
   6   2.0000      -9.886899      -269.0362
   7   2.0000      -1.004543       -27.3350
   8   2.0000      -0.905173       -24.6310
   9   2.0000      -0.723109       -19.6768
  10   2.0000      -0.689054       -18.7501
  11   2.0000      -0.600641       -16.3443
  12   2.0000      -0.561018       -15.2661
  13   2.0000      -0.507897       -13.8206
  14   2.0000      -0.449318       -12.2266
  15   2.0000      -0.436102       -11.8669
  16   2.0000      -0.416930       -11.3452
  17   2.0000      -0.390992       -10.6394
  18   2.0000      -0.381889       -10.3917
  19   2.0000      -0.361377        -9.8336
  20   2.0000      -0.358335        -9.7508
  21   2.0000      -0.338653        -9.2152
  22   2.0000      -0.329821        -8.9749
  23   2.0000      -0.315451        -8.5839
  24   2.0000      -0.307055        -8.3554
  25   2.0000      -0.296240        -8.0611
  26   2.0000      -0.255442        -6.9509
  27   2.0000      -0.211681        -5.7601
  28   0.0000      -0.018109        -0.4928
  29   0.0000       0.038426         1.0456
  30   0.0000       0.056373         1.5340
  31   0.0000       0.080608         2.1934
  32   0.0000       0.084461         2.2983

MULLIKEN ATOMIC CHARGES
-----------------------
   0 C :   -0.304746
   1 C :   -0.131657
   2 C :    0.094363
   3 O :   -0.211936
   4 O :   -0.245317
   5 C :   -0.028016
   6 C :   -0.272385
   7 H :    0.116007
   8 H :    0.112574
   9 H :    0.113391
  10 H :    0.102763
  11 H :    0.106275
  12 H :    0.104294
  13 H :    0.105300
  14 H :    0.111047
  15 H :    0.113917
  16 H :    0.114128
Sum of atomic charges:    0.0000000

LOEWDIN ATOMIC CHARGES
----------------------
   0 C :   -0.334330
   1 C :   -0.249503
   2 C :    0.032836
   3 O :   -0.170542
   4 O :   -0.072170
   5 C :   -0.107753
   6 C :   -0.350904
   7 H :    0.122484
   8 H :    0.123575
   9 H :    0.123216
  10 H :    0.133431
  11 H :    0.135276
  12 H :    0.115790
  13 H :    0.116160
  14 H :    0.130277
  15 H :    0.125857
  16 H :    0.126298

  Mayer bond orders larger than 0.100000
B(  0-C ,  1-C ) :   1.1373 B(  0-C ,  7-H ) :   0.9525 B(  0-C ,  8-H ) :   0.9551
B(  0-C ,  9-H ) :   0.9521 B(  1-C ,  2-C ) :   1.0389 B(  1-C , 10-H ) :   0.9143
B(  1-C , 11-H ) :   0.9032 B(  2-C ,  3-O ) :   2.0600 B(  2-C ,  4-O ) :   1.1924
B(  4-O ,  5-C ) :   0.9138 B(  5-C ,  6-C ) :   1.1488 B(  5-C , 12-H ) :   0.9341
B(  5-C , 13-H ) :   0.9297 B(  6-C , 14-H ) :   0.9446 B(  6-C , 15-H ) :   0.9506
B(  6-C , 16-H ) :   0.9493

Dispersion correction           -0.011700983
FINAL SINGLE POINT ENERGY      -346.244138058377

DIPOLE MOMENT
-------------

Method             : SCF
Type of density    : Electron Density
Multiplicity       :   1
Irrep              :   0
Energy             :  -346.3087212221046798 Eh
Relativity type    :
Basis              : AO
                                X                 Y                 Z
Electronic contribution:     -0.923990538      -5.042895030      -0.663950195
Nuclear contribution   :      1.202791618       5.733250783       1.007829022
                        -----------------------------------------
Total Dipole Moment    :      0.278801080       0.690355753       0.343878827
                        -----------------------------------------
Magnitude (a.u.)       :      0.820105942
Magnitude (Debye)      :      2.084543643

Rotational constants in cm-1:             0.151805             0.052882             0.042469
Rotational constants in MHz :          4551.007877          1585.353646          1273.180774

                             ****ORCA TERMINATED NORMALLY****
TOTAL RUN TIME: 0 days 0 hours 0 minutes 9 seconds 32 msec
