                         Program Version 6.0.0  -   RELEASE  -
|  1> ! r2scan-3c def2/J RI DEFGRID2 scfconv6 printgap
|  2> %output
|  3>     printlevel normal
|  4> end
|  5> * xyz 0 1
|  6> C -1.8856300629 -1.2253457246 -0.2781564403
|  7> C -1.2052990371 -0.099684626 0.493011032
|  8> C -0.1444806581 0.6489956195 -0.3227829475
|  9> C 0.3604879828 1.8657174153 0.4528783325
| 10> C 1.0243680698 -0.2422503771 -0.7706787917
| 11> C 1.8227062448 -0.8898048927 0.3692925438
| 12> H -2.2890238478 -0.8547874374 -1.2182077337
| 13> H -1.1869603374 -2.0288539726 -0.4946534786
| 14> H -2.7040019968 -1.6382751486 0.3070750583
| 15> H -0.757756264 -0.5066019203 1.4011838853
| 16> H -1.9650327855 0.6227928094 0.8016227283
| 17> H -0.62972687 1.0138512941 -1.2369732396
| 18> H 1.0914544381 2.4146050012 -0.1361768728
| 19> H 0.829235734 1.5662271298 1.3866287661
| 20> H -0.4639294765 2.5354634783 0.6870530844
| 21> H 0.6322626749 -1.0174536246 -1.4298295609
| 22> H 1.691893314 0.3744811044 -1.3761733708
| 23> H 1.4185925673 -0.6218431924 1.3408143267
| 24> H 2.8617761469 -0.5724586451 0.3471588494
| 25> H 1.8030709053 -1.9738845233 0.2930205212
| 26> *
| 27>
| 28>                          ****END OF INPUT****

CARTESIAN COORDINATES (ANGSTROEM)
---------------------------------
  C     -1.885630   -1.225346   -0.278156
  C     -1.205299   -0.099685    0.493011
  C     -0.144481    0.648996   -0.322783
  C      0.360488    1.865717    0.452878
  C      1.024368   -0.242250   -0.770679
  C      1.822706   -0.889805    0.369293
  H     -2.289024   -0.854787   -1.218208
  H     -1.186960   -2.028854   -0.494653
  H     -2.704002   -1.638275    0.307075
  H     -0.757756   -0.506602    1.401184
  H     -1.965033    0.622793    0.801623
  H     -0.629727    1.013851   -1.236973
  H      1.091454    2.414605   -0.136177
  H      0.829236    1.566227    1.386629
  H     -0.463929    2.535463    0.687053
  H      0.632263   -1.017454   -1.429830
  H      1.691893    0.374481   -1.376173
  H      1.418593   -0.621843    1.340814
  H      2.861776   -0.572459    0.347159
  H      1.803071   -1.973885    0.293021

 Total Charge           Charge          ....    0
 Multiplicity           Mult            ....    1
 Number of Electrons    NEL             ....   50
 Basis Dimension        Dim             ....  184

ORBITAL ENERGIES
----------------

  NO   OCC          E(Eh)            E(eV)
   0   2.0000     -10.027801      -272.8703
   1   2.0000     -10.019715      -272.6503
   2   2.0000     -10.019561      -272.6461
   3   2.0000     -10.013375      -272.4778
   4   2.0000     -10.013053      -272.4690
   5   2.0000     -10.011191      -272.4184
   6   2.0000      -0.780103       -21.2277
   7   2.0000      -0.710344       -19.3294
   8   2.0000      -0.681524       -18.5452
   9   2.0000      -0.605528       -16.4773
  10   2.0000      -0.582662       -15.8550
  11   2.0000      -0.503730       -13.7072
  12   2.0000      -0.442419       -12.0388
  13   2.0000      -0.424915       -11.5625
  14   2.0000      -0.393444       -10.7062
  15   2.0000      -0.382169       -10.3993
  16   2.0000      -0.376080       -10.2336
  17   2.0000      -0.348903        -9.4941
  18   2.0000      -0.345181        -9.3929
  19   2.0000      -0.331832        -9.0296
  20   2.0000      -0.311654        -8.4805
  21   2.0000      -0.308418        -8.3925
  22   2.0000      -0.281937        -7.6719
  23   2.0000      -0.277740        -7.5577
  24   2.0000      -0.274845        -7.4789
  25   0.0000       0.080494         2.1904
  26   0.0000       0.108895         2.9632
  27   0.0000       0.113701         3.0940
  28   0.0000       0.121823         3.3150
  29   0.0000       0.130524         3.5517

MULLIKEN ATOMIC CHARGES
-----------------------
   0 C :   -0.501628
   1 C :   -0.216080
   2 C :   -0.102046
   3 C :   -0.481008
   4 C :   -0.265448
   5 C :   -0.502538
   6 H :    0.146533
   7 H :    0.150567
   8 H :    0.145964
   9 H :    0.138185
  10 H :    0.138848
  11 H :    0.146409
  12 H :    0.147871
  13 H :    0.148321
  14 H :    0.145172
  15 H :    0.158138
  16 H :    0.148089
  17 H :    0.153213
  18 H :    0.150647
  19 H :    0.150788
Sum of atomic charges:   -0.0000000

LOEWDIN ATOMIC CHARGES
----------------------
   0 C :   -0.422992
   1 C :   -0.311688
   2 C :   -0.245203
   3 C :   -0.415358
   4 C :   -0.314492
   5 C :   -0.430709
   6 H :    0.150765
   7 H :    0.149160
   8 H :    0.150798
   9 H :    0.153248
  10 H :    0.154512
  11 H :    0.156825
  12 H :    0.153133
  13 H :    0.152846
  14 H :    0.152780
  15 H :    0.154742
  16 H :    0.154940
  17 H :    0.150670
  18 H :    0.153315
  19 H :    0.152709

  Mayer bond orders larger than 0.100000
B(  0-C ,  1-C ) :   0.8896 B(  0-C ,  6-H ) :   0.9853 B(  0-C ,  7-H ) :   0.9836
B(  0-C ,  8-H ) :   0.9726 B(  1-C ,  2-C ) :   0.9224 B(  1-C ,  9-H ) :   0.9637
B(  1-C , 10-H ) :   0.9687 B(  2-C ,  3-C ) :   0.9214 B(  2-C ,  4-C ) :   0.8833
B(  2-C , 11-H ) :   0.9858 B(  3-C , 12-H ) :   0.9789 B(  3-C , 13-H ) :   0.9767
B(  3-C , 14-H ) :   0.9766 B(  4-C ,  5-C ) :   0.8145 B(  4-C , 15-H ) :   0.9923
B(  4-C , 16-H ) :   0.9851 B(  5-C , 17-H ) :   0.9949 B(  5-C , 18-H ) :   0.9765
B(  5-C , 19-H ) :   0.9764

Dispersion correction           -0.005201676
FINAL SINGLE POINT ENERGY      -236.982775665239

DIPOLE MOMENT
-------------

Method             : SCF
Type of density    : Electron Density
Multiplicity       :   1
Irrep              :   0
Energy             :  -236.9872509286550439 Eh
Relativity type    :
Basis              : AO
                                X                 Y                 Z
Electronic contribution:     -0.332857027       0.654527538      -0.659436114
Nuclear contribution   :      0.311332729      -0.644270598       0.630953697
                        -----------------------------------------
Total Dipole Moment    :     -0.021524298       0.010256940      -0.028482417
                        -----------------------------------------
Magnitude (a.u.)       :      0.037144963
Magnitude (Debye)      :      0.094414994

Rotational constants in cm-1:             0.129895             0.090019             0.064940
Rotational constants in MHz :          3894.144255          2698.713293          1946.860542

                             ****ORCA TERMINATED NORMALLY****
TOTAL RUN TIME: 0 days 0 hours 0 minutes 15 seconds 911 msec
