                         Program Version 6.0.0  -   RELEASE  -
|  1> ! r2scan-3c def2/J RI DEFGRID2 scfconv6 printgap
|  2> %output
|  3>     printlevel normal
|  4> end
|  5> %cpcm
|  6>     smd true
|  7>     smdsolvent "water"
|  8> end
|  9> * xyz 0 1
| 10> C -1.8856300629 -1.2253457246 -0.2781564403
| 11> C -1.2052990371 -0.099684626 0.493011032
| 12> C -0.1444806581 0.6489956195 -0.3227829475
| 13> C 0.3604879828 1.8657174153 0.4528783325
| 14> C 1.0243680698 -0.2422503771 -0.7706787917
| 15> C 1.8227062448 -0.8898048927 0.3692925438
| 16> H -2.2890238478 -0.8547874374 -1.2182077337
| 17> H -1.1869603374 -2.0288539726 -0.4946534786
| 18> H -2.7040019968 -1.6382751486 0.3070750583
| 19> H -0.757756264 -0.5066019203 1.4011838853
| 20> H -1.9650327855 0.6227928094 0.8016227283
| 21> H -0.62972687 1.0138512941 -1.2369732396
| 22> H 1.0914544381 2.4146050012 -0.1361768728
| 23> H 0.829235734 1.5662271298 1.3866287661
| 24> H -0.4639294765 2.5354634783 0.6870530844
| 25> H 0.6322626749 -1.0174536246 -1.4298295609
| 26> H 1.691893314 0.3744811044 -1.3761733708
| 27> H 1.4185925673 -0.6218431924 1.3408143267
| 28> H 2.8617761469 -0.5724586451 0.3471588494
| 29> H 1.8030709053 -1.9738845233 0.2930205212
| 30> *
| 31>
| 32>                          ****END OF INPUT****

CARTESIAN COORDINATES (ANGSTROEM)
---------------------------------
  C     -1.885630   -1.225346   -0.278156
  C     -1.205299   -0.099685    0.493011
  C     -0.144481    0.648996   -0.322783
  C      0.360488    1.865717    0.452878
  C      1.024368   -0.242250   -0.770679
  C      1.822706   -0.889805    0.369293
  H     -2.289024   -0.854787   -1.218208
  H     -1.186960   -2.028854   -0.494653
  H     -2.704002   -1.638275    0.307075
  H     -0.757756   -0.506602    1.401184
  H     -1.965033    0.622793    0.801623
  H     -0.629727    1.013851   -1.236973
  H      1.091454    2.414605   -0.136177
  H      0.829236    1.566227    1.386629
  H     -0.463929    2.535463    0.687053
  H      0.632263   -1.017454   -1.429830
  H      1.691893    0.374481   -1.376173
  H      1.418593   -0.621843    1.340814
  H      2.861776   -0.572459    0.347159
  H      1.803071   -1.973885    0.293021

 Total Charge           Charge          ....    0
 Multiplicity           Mult            ....    1
 Number of Electrons    NEL             ....   50
 Basis Dimension        Dim             ....  184

ORBITAL ENERGIES
----------------

  NO   OCC          E(Eh)            E(eV)
   0   2.0000     -10.020470      -272.6709
   1   2.0000     -10.012092      -272.4429
   2   2.0000     -10.012026      -272.4411
   3   2.0000     -10.006053      -272.2785
   4   2.0000     -10.005369      -272.2599
   5   2.0000     -10.004032      -272.2236
   6   2.0000      -0.772791       -21.0287
   7   2.0000      -0.703309       -19.1380
   8   2.0000      -0.674726       -18.3602
   9   2.0000      -0.598787       -16.2938
  10   2.0000      -0.575688       -15.6653
  11   2.0000      -0.496684       -13.5154
  12   2.0000      -0.434914       -11.8346
  13   2.0000      -0.417569       -11.3626
  14   2.0000      -0.386366       -10.5136
  15   2.0000      -0.375311       -10.2127
  16   2.0000      -0.368844       -10.0368
  17   2.0000      -0.341644        -9.2966
  18   2.0000      -0.338252        -9.2043
  19   2.0000      -0.324615        -8.8332
  20   2.0000      -0.304159        -8.2766
  21   2.0000      -0.301246        -8.1973
  22   2.0000      -0.274402        -7.4669
  23   2.0000      -0.270488        -7.3604
  24   2.0000      -0.267529        -7.2798
  25   0.0000       0.088538         2.4092
  26   0.0000       0.116252         3.1634
  27   0.0000       0.120464         3.2780
  28   0.0000       0.128611         3.4997
  29   0.0000       0.137063         3.7297

MULLIKEN ATOMIC CHARGES
-----------------------
   0 C :   -0.538857
   1 C :   -0.236922
   2 C :   -0.081513
   3 C :   -0.531088
   4 C :   -0.278283
   5 C :   -0.545896
   6 H :    0.156473
   7 H :    0.161637
   8 H :    0.155239
   9 H :    0.149591
  10 H :    0.147625
  11 H :    0.152758
  12 H :    0.158768
  13 H :    0.160843
  14 H :    0.156404
  15 H :    0.165595
  16 H :    0.157190
  17 H :    0.169023
  18 H :    0.160215
  19 H :    0.161196
Sum of atomic charges:   -0.0000000

LOEWDIN ATOMIC CHARGES
----------------------
   0 C :   -0.431449
   1 C :   -0.314768
   2 C :   -0.243672
   3 C :   -0.424772
   4 C :   -0.317812
   5 C :   -0.439945
   6 H :    0.153006
   7 H :    0.151963
   8 H :    0.152537
   9 H :    0.155763
  10 H :    0.156301
  11 H :    0.158626
  12 H :    0.155320
  13 H :    0.155413
  14 H :    0.155035
  15 H :    0.156627
  16 H :    0.156766
  17 H :    0.155119
  18 H :    0.154994
  19 H :    0.154948

  Mayer bond orders larger than 0.100000
B(  0-C ,  1-C ) :   0.8832 B(  0-C ,  6-H ) :   0.9829 B(  0-C ,  7-H ) :   0.9802
B(  0-C ,  8-H ) :   0.9706 B(  1-C ,  2-C ) :   0.9155 B(  1-C ,  9-H ) :   0.9650
B(  1-C , 10-H ) :   0.9688 B(  2-C ,  3-C ) :   0.9088 B(  2-C ,  4-C ) :   0.8827
B(  2-C , 11-H ) :   0.9860 B(  3-C , 12-H ) :   0.9764 B(  3-C , 13-H ) :   0.9760
B(  3-C , 14-H ) :   0.9746 B(  4-C ,  5-C ) :   0.8024 B(  4-C , 15-H ) :   0.9903
B(  4-C , 16-H ) :   0.9847 B(  5-C , 17-H ) :   0.9904 B(  5-C , 18-H ) :   0.9748
B(  5-C , 19-H ) :   0.9747

Dispersion correction           -0.005201676
FINAL SINGLE POINT ENERGY      -236.979467606116

DIPOLE MOMENT
-------------

Method             : SCF
Type of density    : Electron Density
Multiplicity       :   1
Irrep              :   0
Energy             :  -236.9839428695318020 Eh
Relativity type    :
Basis              : AO
                                X                 Y                 Z
Electronic contribution:     -0.340027255       0.655553001      -0.660113389
Nuclear contribution   :      0.311332729      -0.644270598       0.630953697
                        -----------------------------------------
Total Dipole Moment    :     -0.028694527       0.011282403      -0.029159692
                        -----------------------------------------
Magnitude (a.u.)       :      0.042437674
Magnitude (Debye)      :      0.107867994

Rotational constants in cm-1:             0.129895             0.090019             0.064940
Rotational constants in MHz :          3894.144255          2698.713293          1946.860542

                             ****ORCA TERMINATED NORMALLY****
TOTAL RUN TIME: 0 days 0 hours 0 minutes 19 seconds 561 msec
