                         Program Version 6.0.0  -   RELEASE  -
|  1> ! r2scan-3c def2/J RI DEFGRID2 scfconv6 printgap
|  2> %output
|  3>     printlevel normal
|  4> end
|  5> * xyz 0 1
|  6> C -2.2544300706 0.4282831991 -1.0548539529
|  7> C -1.8351631243 0.349328348 0.4162989257
|  8> C -0.4475521883 -0.2310889855 0.5024039375
|  9> O -0.1979683861 -1.4042396427 0.6886970427
| 10> O 0.4796573455 0.7008864979 0.3259840954
| 11> C 1.8600135945 0.3013991194 0.30463792
| 12> C 2.2882301508 -0.1124996193 -1.0949838951
| 13> H -2.2350770912 -0.5609709752 -1.5061230712
| 14> H -3.2619281243 0.8263353611 -1.1276441774
| 15> H -1.5783404158 1.078061366 -1.6043193424
| 16> H -2.5161240899 -0.2993229243 0.9658895254
| 17> H -1.8279288185 1.346867389 0.8529849218
| 18> H 2.4070146007 1.1815991626 0.6436768613
| 19> H 1.9943108757 -0.5251905885 1.00902713
| 20> H 3.3461253013 -0.3537050844 -1.0908340451
| 21> H 1.7276131468 -0.9893187889 -1.4115642278
| 22> H 2.1072904988 0.6967502738 -1.7972044526
| 23> *
| 24>
| 25>                          ****END OF INPUT****

CARTESIAN COORDINATES (ANGSTROEM)
---------------------------------
  C     -2.254430    0.428283   -1.054854
  C     -1.835163    0.349328    0.416299
  C     -0.447552   -0.231089    0.502404
  O     -0.197968   -1.404240    0.688697
  O      0.479657    0.700886    0.325984
  C      1.860014    0.301399    0.304638
  C      2.288230   -0.112500   -1.094984
  H     -2.235077   -0.560971   -1.506123
  H     -3.261928    0.826335   -1.127644
  H     -1.578340    1.078061   -1.604319
  H     -2.516124   -0.299323    0.965890
  H     -1.827929    1.346867    0.852985
  H      2.407015    1.181599    0.643677
  H      1.994311   -0.525191    1.009027
  H      3.346125   -0.353705   -1.090834
  H      1.727613   -0.989319   -1.411564
  H      2.107290    0.696750   -1.797204

 Total Charge           Charge          ....    0
 Multiplicity           Mult            ....    1
 Number of Electrons    NEL             ....   56
 Basis Dimension        Dim             ....  193

ORBITAL ENERGIES
----------------

  NO   OCC          E(Eh)            E(eV)
   0   2.0000     -18.996170      -516.9121
   1   2.0000     -18.926821      -515.0250
   2   2.0000     -10.150883      -276.2196
   3   2.0000     -10.091020      -274.5906
   4   2.0000     -10.043057      -273.2855
   5   2.0000     -10.032119      -272.9878
   6   2.0000     -10.029210      -272.9087
   7   2.0000      -1.071086       -29.1457
   8   2.0000      -0.974455       -26.5163
   9   2.0000      -0.765932       -20.8421
  10   2.0000      -0.730410       -19.8755
  11   2.0000      -0.641854       -17.4657
  12   2.0000      -0.599841       -16.3225
  13   2.0000      -0.521970       -14.2035
  14   2.0000      -0.472226       -12.8499
  15   2.0000      -0.455759       -12.4018
  16   2.0000      -0.436026       -11.8649
  17   2.0000      -0.410981       -11.1833
  18   2.0000      -0.407998       -11.1022
  19   2.0000      -0.379996       -10.3402
  20   2.0000      -0.372634       -10.1399
  21   2.0000      -0.354971        -9.6592
  22   2.0000      -0.336864        -9.1665
  23   2.0000      -0.329319        -8.9612
  24   2.0000      -0.324675        -8.8348
  25   2.0000      -0.306201        -8.3322
  26   2.0000      -0.270531        -7.3615
  27   2.0000      -0.233090        -6.3427
  28   0.0000      -0.013993        -0.3808
  29   0.0000       0.075459         2.0533
  30   0.0000       0.091503         2.4899
  31   0.0000       0.115866         3.1529
  32   0.0000       0.123456         3.3594

MULLIKEN ATOMIC CHARGES
-----------------------
   0 C :   -0.473801
   1 C :   -0.295738
   2 C :    0.415658
   3 O :   -0.430421
   4 O :   -0.181753
   5 C :   -0.138953
   6 C :   -0.466933
   7 H :    0.159498
   8 H :    0.153888
   9 H :    0.155956
  10 H :    0.162030
  11 H :    0.153665
  12 H :    0.147695
  13 H :    0.169503
  14 H :    0.147386
  15 H :    0.170937
  16 H :    0.151382
Sum of atomic charges:   -0.0000000

LOEWDIN ATOMIC CHARGES
----------------------
   0 C :   -0.392790
   1 C :   -0.236001
   2 C :    0.355758
   3 O :   -0.433247
   4 O :   -0.596217
   5 C :    0.027259
   6 C :   -0.390817
   7 H :    0.159301
   8 H :    0.153296
   9 H :    0.157585
  10 H :    0.174526
  11 H :    0.174011
  12 H :    0.177530
  13 H :    0.188934
  14 H :    0.159371
  15 H :    0.164913
  16 H :    0.156587

  Mayer bond orders larger than 0.100000
B(  0-C ,  1-C ) :   0.8912 B(  0-C ,  7-H ) :   0.9748 B(  0-C ,  8-H ) :   0.9707
B(  0-C ,  9-H ) :   0.9767 B(  1-C ,  2-C ) :   0.9551 B(  1-C , 10-H ) :   0.9756
B(  1-C , 11-H ) :   0.9728 B(  2-C ,  3-O ) :   1.8428 B(  2-C ,  4-O ) :   1.0412
B(  4-O ,  5-C ) :   0.8174 B(  5-C ,  6-C ) :   0.9336 B(  5-C , 12-H ) :   0.9624
B(  5-C , 13-H ) :   0.9676 B(  6-C , 14-H ) :   0.9654 B(  6-C , 15-H ) :   0.9714
B(  6-C , 16-H ) :   0.9737

Dispersion correction           -0.004061981
FINAL SINGLE POINT ENERGY      -346.936199194221

DIPOLE MOMENT
-------------

Method             : SCF
Type of density    : Electron Density
Multiplicity       :   1
Irrep              :   0
Energy             :  -346.9425245801558617 Eh
Relativity type    :
Basis              : AO
                                X                 Y                 Z
Electronic contribution:     -0.003146195      -1.490642557       4.447919317
Nuclear contribution   :      0.157056230       2.242210114      -4.737815243
                        -----------------------------------------
Total Dipole Moment    :      0.153910035       0.751567556      -0.289895927
                        -----------------------------------------
Magnitude (a.u.)       :      0.820110809
Magnitude (Debye)      :      2.084556014

Rotational constants in cm-1:             0.152153             0.054363             0.049517
Rotational constants in MHz :          4561.422632          1629.759979          1484.476385

                             ****ORCA TERMINATED NORMALLY****
TOTAL RUN TIME: 0 days 0 hours 0 minutes 23 seconds 88 msec
