                         Program Version 6.0.0  -   RELEASE  -
|  1> ! r2scan-3c def2/J RI DEFGRID2 scfconv6 printgap
|  2> %output
|  3>     printlevel normal
|  4> end
|  5> %cpcm
|  6>     smd true
|  7>     smdsolvent "water"
|  8> end
|  9> * xyz 0 1
| 10> C -2.2544300706 0.4282831991 -1.0548539529
| 11> C -1.8351631243 0.349328348 0.4162989257
| 12> C -0.4475521883 -0.2310889855 0.5024039375
| 13> O -0.1979683861 -1.4042396427 0.6886970427
| 14> O 0.4796573455 0.7008864979 0.3259840954
| 15> C 1.8600135945 0.3013991194 0.30463792
| 16> C 2.2882301508 -0.1124996193 -1.0949838951
| 17> H -2.2350770912 -0.5609709752 -1.5061230712
| 18> H -3.2619281243 0.8263353611 -1.1276441774
| 19> H -1.5783404158 1.078061366 -1.6043193424
| 20> H -2.5161240899 -0.2993229243 0.9658895254
| 21> H -1.8279288185 1.346867389 0.8529849218
| 22> H 2.4070146007 1.1815991626 0.6436768613
| 23> H 1.9943108757 -0.5251905885 1.00902713
| 24> H 3.3461253013 -0.3537050844 -1.0908340451
| 25> H 1.7276131468 -0.9893187889 -1.4115642278
| 26> H 2.1072904988 0.6967502738 -1.7972044526
| 27> *
| 28>
| 29>                          ****END OF INPUT****

CARTESIAN COORDINATES (ANGSTROEM)
---------------------------------
  C     -2.254430    0.428283   -1.054854
  C     -1.835163    0.349328    0.416299
  C     -0.447552   -0.231089    0.502404
  O     -0.197968   -1.404240    0.688697
  O      0.479657    0.700886    0.325984
  C      1.860014    0.301399    0.304638
  C      2.288230   -0.112500   -1.094984
  H     -2.235077   -0.560971   -1.506123
  H     -3.261928    0.826335   -1.127644
  H     -1.578340    1.078061   -1.604319
  H     -2.516124   -0.299323    0.965890
  H     -1.827929    1.346867    0.852985
  H      2.407015    1.181599    0.643677
  H      1.994311   -0.525191    1.009027
  H      3.346125   -0.353705   -1.090834
  H      1.727613   -0.989319   -1.411564
  H      2.107290    0.696750   -1.797204

 Total Charge           Charge          ....    0
 Multiplicity           Mult            ....    1
 Number of Electrons    NEL             ....   56
 Basis Dimension        Dim             ....  193

ORBITAL ENERGIES
----------------

  NO   OCC          E(Eh)            E(eV)
   0   2.0000     -19.002068      -517.0726
   1   2.0000     -18.943177      -515.4700
   2   2.0000     -10.161855      -276.5181
   3   2.0000     -10.083221      -274.3784
   4   2.0000     -10.037324      -273.1295
   5   2.0000     -10.022403      -272.7235
   6   2.0000     -10.018336      -272.6128
   7   2.0000      -1.078696       -29.3528
   8   2.0000      -0.988636       -26.9022
   9   2.0000      -0.761741       -20.7280
  10   2.0000      -0.722707       -19.6659
  11   2.0000      -0.636437       -17.3183
  12   2.0000      -0.593572       -16.1519
  13   2.0000      -0.519909       -14.1475
  14   2.0000      -0.471782       -12.8379
  15   2.0000      -0.460688       -12.5359
  16   2.0000      -0.440955       -11.9990
  17   2.0000      -0.411976       -11.2104
  18   2.0000      -0.401765       -10.9326
  19   2.0000      -0.375743       -10.2245
  20   2.0000      -0.367332        -9.9956
  21   2.0000      -0.346982        -9.4418
  22   2.0000      -0.332083        -9.0364
  23   2.0000      -0.327771        -8.9191
  24   2.0000      -0.317697        -8.6450
  25   2.0000      -0.304321        -8.2810
  26   2.0000      -0.277783        -7.5589
  27   2.0000      -0.249299        -6.7838
  28   0.0000      -0.022510        -0.6125
  29   0.0000       0.078252         2.1293
  30   0.0000       0.099181         2.6988
  31   0.0000       0.124920         3.3992
  32   0.0000       0.133996         3.6462

MULLIKEN ATOMIC CHARGES
-----------------------
   0 C :   -0.494132
   1 C :   -0.311825
   2 C :    0.452675
   3 O :   -0.514710
   4 O :   -0.199429
   5 C :   -0.144063
   6 C :   -0.492063
   7 H :    0.165220
   8 H :    0.173129
   9 H :    0.166005
  10 H :    0.174168
  11 H :    0.175309
  12 H :    0.173664
  13 H :    0.171847
  14 H :    0.170482
  15 H :    0.167641
  16 H :    0.166083
Sum of atomic charges:   -0.0000000

LOEWDIN ATOMIC CHARGES
----------------------
   0 C :   -0.393963
   1 C :   -0.233338
   2 C :    0.364815
   3 O :   -0.493826
   4 O :   -0.597790
   5 C :    0.031983
   6 C :   -0.393540
   7 H :    0.160736
   8 H :    0.160655
   9 H :    0.160855
  10 H :    0.179372
  11 H :    0.183264
  12 H :    0.188890
  13 H :    0.189723
  14 H :    0.167837
  15 H :    0.162450
  16 H :    0.161877

  Mayer bond orders larger than 0.100000
B(  0-C ,  1-C ) :   0.8825 B(  0-C ,  7-H ) :   0.9716 B(  0-C ,  8-H ) :   0.9656
B(  0-C ,  9-H ) :   0.9725 B(  1-C ,  2-C ) :   0.9548 B(  1-C , 10-H ) :   0.9717
B(  1-C , 11-H ) :   0.9636 B(  2-C ,  3-O ) :   1.7715 B(  2-C ,  4-O ) :   1.0673
B(  4-O ,  5-C ) :   0.8000 B(  5-C ,  6-C ) :   0.9330 B(  5-C , 12-H ) :   0.9530
B(  5-C , 13-H ) :   0.9638 B(  6-C , 14-H ) :   0.9604 B(  6-C , 15-H ) :   0.9689
B(  6-C , 16-H ) :   0.9696

Dispersion correction           -0.004061981
FINAL SINGLE POINT ENERGY      -346.941320434702

DIPOLE MOMENT
-------------

Method             : SCF
Type of density    : Electron Density
Multiplicity       :   1
Irrep              :   0
Energy             :  -346.9476458206368079 Eh
Relativity type    :
Basis              : AO
                                X                 Y                 Z
Electronic contribution:      0.038550215      -1.147150693       4.365553794
Nuclear contribution   :      0.157056230       2.242210114      -4.737815243
                        -----------------------------------------
Total Dipole Moment    :      0.195606445       1.095059421      -0.372261450
                        -----------------------------------------
Magnitude (a.u.)       :      1.173028390
Magnitude (Debye)      :      2.981601216

Rotational constants in cm-1:             0.152153             0.054363             0.049517
Rotational constants in MHz :          4561.422632          1629.759979          1484.476385

                             ****ORCA TERMINATED NORMALLY****
TOTAL RUN TIME: 0 days 0 hours 0 minutes 27 seconds 83 msec
