                         Program Version 6.0.0  -   RELEASE  -
|  1> ! r2scan-3c def2/J RI DEFGRID2 scfconv6 printgap
|  2> %output
|  3>     printlevel normal
|  4> end
|  5> * xyz 0 1
|  6> C -2.6307268466 -0.286068825 -0.2575888499
|  7> C -1.6252274516 -1.2293905181 -0.3836882565
|  8> C -0.3113849989 -0.8891983104 -0.1134931026
|  9> C 0.018723278 0.4024950717 0.2795054746
| 10> C -0.9974382142 1.3433568634 0.3975494201
| 11> C -2.3125911215 1.0029714569 0.1344711239
| 12> C 1.441860755 0.7864108893 0.5869875032
| 13> C 2.4678457706 0.2270677386 -0.4088249541
| 14> O 2.7772530003 -1.1364925325 -0.2146321829
| 15> H -3.656178249 -0.5532411701 -0.4654258085
| 16> H -1.8646895892 -2.2364348896 -0.6923416942
| 17> H 0.4673335536 -1.6288830344 -0.2207205722
| 18> H -0.7572087847 2.3528978652 0.6996455362
| 19> H -3.0902036762 1.7461484595 0.2328404424
| 20> H 1.5250903145 1.8741748387 0.5882051436
| 21> H 1.6974522272 0.4330572214 1.5905847746
| 22> H 2.0755931053 0.2944386401 -1.4264772244
| 23> H 3.3872226757 0.8252851401 -0.3530005883
| 24> H 3.1884256333 -1.2456193382 0.6542718348
| 25> *
| 26>
| 27>                          ****END OF INPUT****

CARTESIAN COORDINATES (ANGSTROEM)
---------------------------------
  C     -2.630727   -0.286069   -0.257589
  C     -1.625227   -1.229391   -0.383688
  C     -0.311385   -0.889198   -0.113493
  C      0.018723    0.402495    0.279505
  C     -0.997438    1.343357    0.397549
  C     -2.312591    1.002971    0.134471
  C      1.441861    0.786411    0.586988
  C      2.467846    0.227068   -0.408825
  O      2.777253   -1.136493   -0.214632
  H     -3.656178   -0.553241   -0.465426
  H     -1.864690   -2.236435   -0.692342
  H      0.467334   -1.628883   -0.220721
  H     -0.757209    2.352898    0.699646
  H     -3.090204    1.746148    0.232840
  H      1.525090    1.874175    0.588205
  H      1.697452    0.433057    1.590585
  H      2.075593    0.294439   -1.426477
  H      3.387223    0.825285   -0.353001
  H      3.188426   -1.245619    0.654272

 Total Charge           Charge          ....    0
 Multiplicity           Mult            ....    1
 Number of Electrons    NEL             ....   66
 Basis Dimension        Dim             ....  226

ORBITAL ENERGIES
----------------

  NO   OCC          E(Eh)            E(eV)
   0   2.0000     -18.954445      -515.7767
   1   2.0000     -10.081647      -274.3356
   2   2.0000     -10.039569      -273.1906
   3   2.0000     -10.038692      -273.1667
   4   2.0000     -10.030567      -272.9456
   5   2.0000     -10.029104      -272.9058
   6   2.0000     -10.029062      -272.9046
   7   2.0000     -10.028196      -272.8811
   8   2.0000     -10.023515      -272.7537
   9   2.0000      -0.991882       -26.9905
  10   2.0000      -0.825458       -22.4619
  11   2.0000      -0.752421       -20.4744
  12   2.0000      -0.711084       -19.3496
  13   2.0000      -0.685024       -18.6405
  14   2.0000      -0.606566       -16.5055
  15   2.0000      -0.571125       -15.5411
  16   2.0000      -0.548754       -14.9324
  17   2.0000      -0.491445       -13.3729
  18   2.0000      -0.462087       -12.5740
  19   2.0000      -0.435131       -11.8405
  20   2.0000      -0.429002       -11.6737
  21   2.0000      -0.415971       -11.3191
  22   2.0000      -0.388876       -10.5818
  23   2.0000      -0.381539       -10.3822
  24   2.0000      -0.369325       -10.0498
  25   2.0000      -0.357152        -9.7186
  26   2.0000      -0.330782        -9.0010
  27   2.0000      -0.313676        -8.5356
  28   2.0000      -0.306598        -8.3430
  29   2.0000      -0.293609        -7.9895
  30   2.0000      -0.244026        -6.6403
  31   2.0000      -0.232730        -6.3329
  32   2.0000      -0.221843        -6.0367
  33   0.0000      -0.028582        -0.7778
  34   0.0000      -0.025732        -0.7002
  35   0.0000       0.059038         1.6065
  36   0.0000       0.087615         2.3841
  37   0.0000       0.100956         2.7472

MULLIKEN ATOMIC CHARGES
-----------------------
   0 C :   -0.146977
   1 C :   -0.174439
   2 C :   -0.181703
   3 C :    0.133061
   4 C :   -0.220052
   5 C :   -0.159193
   6 C :   -0.307090
   7 C :   -0.177083
   8 O :   -0.421809
   9 H :    0.145469
  10 H :    0.144901
  11 H :    0.187588
  12 H :    0.144548
  13 H :    0.144495
  14 H :    0.146938
  15 H :    0.155483
  16 H :    0.157636
  17 H :    0.132801
  18 H :    0.295426
Sum of atomic charges:   -0.0000000

LOEWDIN ATOMIC CHARGES
----------------------
   0 C :   -0.173036
   1 C :   -0.160974
   2 C :   -0.156446
   3 C :   -0.092531
   4 C :   -0.166572
   5 C :   -0.163964
   6 C :   -0.269007
   7 C :    0.010140
   8 O :   -0.626089
   9 H :    0.165667
  10 H :    0.166448
  11 H :    0.189421
  12 H :    0.166594
  13 H :    0.166124
  14 H :    0.167349
  15 H :    0.170261
  16 H :    0.183319
  17 H :    0.158273
  18 H :    0.265022

  Mayer bond orders larger than 0.100000
B(  0-C ,  1-C ) :   1.4064 B(  0-C ,  5-C ) :   1.4301 B(  0-C ,  9-H ) :   0.9476
B(  1-C ,  2-C ) :   1.4205 B(  1-C , 10-H ) :   0.9544 B(  2-C ,  3-C ) :   1.4505
B(  2-C , 11-H ) :   0.9399 B(  3-C ,  4-C ) :   1.3942 B(  3-C ,  6-C ) :   0.8102
B(  4-C ,  5-C ) :   1.4418 B(  4-C , 12-H ) :   0.9416 B(  5-C , 13-H ) :   0.9464
B(  6-C ,  7-C ) :   0.8817 B(  6-C , 14-H ) :   1.0041 B(  6-C , 15-H ) :   0.9885
B(  7-C ,  8-O ) :   0.9107 B(  7-C , 16-H ) :   0.9852 B(  7-C , 17-H ) :   0.9683
B(  8-O , 18-H ) :   0.8954

Dispersion correction           -0.006119805
FINAL SINGLE POINT ENERGY      -385.987145532068

DIPOLE MOMENT
-------------

Method             : SCF
Type of density    : Electron Density
Multiplicity       :   1
Irrep              :   0
Energy             :  -385.9883640091440498 Eh
Relativity type    :
Basis              : AO
                                X                 Y                 Z
Electronic contribution:     -2.541272413      -1.333433354      -0.128684069
Nuclear contribution   :      2.830181962       1.729861905       0.566833421
                        -----------------------------------------
Total Dipole Moment    :      0.288909549       0.396428551       0.438149352
                        -----------------------------------------
Magnitude (a.u.)       :      0.657722721
Magnitude (Debye)      :      1.671798297

Rotational constants in cm-1:             0.128136             0.034621             0.028232
Rotational constants in MHz :          3841.433417          1037.906123           846.388395

                             ****ORCA TERMINATED NORMALLY****
TOTAL RUN TIME: 0 days 0 hours 0 minutes 25 seconds 367 msec
