                         Program Version 6.0.0  -   RELEASE  -
|  1> ! r2scan-3c def2/J RI DEFGRID2 scfconv6 printgap
|  2> %output
|  3>     printlevel normal
|  4> end
|  5> %cpcm
|  6>     smd true
|  7>     smdsolvent "water"
|  8> end
|  9> * xyz 0 1
| 10> C -2.6307268466 -0.286068825 -0.2575888499
| 11> C -1.6252274516 -1.2293905181 -0.3836882565
| 12> C -0.3113849989 -0.8891983104 -0.1134931026
| 13> C 0.018723278 0.4024950717 0.2795054746
| 14> C -0.9974382142 1.3433568634 0.3975494201
| 15> C -2.3125911215 1.0029714569 0.1344711239
| 16> C 1.441860755 0.7864108893 0.5869875032
| 17> C 2.4678457706 0.2270677386 -0.4088249541
| 18> O 2.7772530003 -1.1364925325 -0.2146321829
| 19> H -3.656178249 -0.5532411701 -0.4654258085
| 20> H -1.8646895892 -2.2364348896 -0.6923416942
| 21> H 0.4673335536 -1.6288830344 -0.2207205722
| 22> H -0.7572087847 2.3528978652 0.6996455362
| 23> H -3.0902036762 1.7461484595 0.2328404424
| 24> H 1.5250903145 1.8741748387 0.5882051436
| 25> H 1.6974522272 0.4330572214 1.5905847746
| 26> H 2.0755931053 0.2944386401 -1.4264772244
| 27> H 3.3872226757 0.8252851401 -0.3530005883
| 28> H 3.1884256333 -1.2456193382 0.6542718348
| 29> *
| 30>
| 31>                          ****END OF INPUT****

CARTESIAN COORDINATES (ANGSTROEM)
---------------------------------
  C     -2.630727   -0.286069   -0.257589
  C     -1.625227   -1.229391   -0.383688
  C     -0.311385   -0.889198   -0.113493
  C      0.018723    0.402495    0.279505
  C     -0.997438    1.343357    0.397549
  C     -2.312591    1.002971    0.134471
  C      1.441861    0.786411    0.586988
  C      2.467846    0.227068   -0.408825
  O      2.777253   -1.136493   -0.214632
  H     -3.656178   -0.553241   -0.465426
  H     -1.864690   -2.236435   -0.692342
  H      0.467334   -1.628883   -0.220721
  H     -0.757209    2.352898    0.699646
  H     -3.090204    1.746148    0.232840
  H      1.525090    1.874175    0.588205
  H      1.697452    0.433057    1.590585
  H      2.075593    0.294439   -1.426477
  H      3.387223    0.825285   -0.353001
  H      3.188426   -1.245619    0.654272

 Total Charge           Charge          ....    0
 Multiplicity           Mult            ....    1
 Number of Electrons    NEL             ....   66
 Basis Dimension        Dim             ....  226

ORBITAL ENERGIES
----------------

  NO   OCC          E(Eh)            E(eV)
   0   2.0000     -18.950786      -515.6771
   1   2.0000     -10.072162      -274.0775
   2   2.0000     -10.039822      -273.1975
   3   2.0000     -10.030750      -272.9506
   4   2.0000     -10.030561      -272.9454
   5   2.0000     -10.028662      -272.8938
   6   2.0000     -10.027988      -272.8754
   7   2.0000     -10.026840      -272.8442
   8   2.0000     -10.025854      -272.8174
   9   2.0000      -0.987333       -26.8667
  10   2.0000      -0.827322       -22.5126
  11   2.0000      -0.748158       -20.3584
  12   2.0000      -0.712702       -19.3936
  13   2.0000      -0.680893       -18.5281
  14   2.0000      -0.600226       -16.3330
  15   2.0000      -0.570757       -15.5311
  16   2.0000      -0.546167       -14.8620
  17   2.0000      -0.487541       -13.2667
  18   2.0000      -0.455495       -12.3947
  19   2.0000      -0.431642       -11.7456
  20   2.0000      -0.422890       -11.5074
  21   2.0000      -0.413151       -11.2424
  22   2.0000      -0.386762       -10.5243
  23   2.0000      -0.379150       -10.3172
  24   2.0000      -0.364889        -9.9291
  25   2.0000      -0.353388        -9.6162
  26   2.0000      -0.330553        -8.9948
  27   2.0000      -0.311745        -8.4830
  28   2.0000      -0.305249        -8.3062
  29   2.0000      -0.288634        -7.8541
  30   2.0000      -0.242907        -6.6098
  31   2.0000      -0.237685        -6.4678
  32   2.0000      -0.223496        -6.0816
  33   0.0000      -0.032295        -0.8788
  34   0.0000      -0.028054        -0.7634
  35   0.0000       0.078333         2.1315
  36   0.0000       0.098149         2.6708
  37   0.0000       0.109581         2.9819

MULLIKEN ATOMIC CHARGES
-----------------------
   0 C :   -0.184239
   1 C :   -0.216156
   2 C :   -0.211105
   3 C :    0.101546
   4 C :   -0.243952
   5 C :   -0.192728
   6 C :   -0.299146
   7 C :   -0.173676
   8 O :   -0.497304
   9 H :    0.177514
  10 H :    0.175545
  11 H :    0.194116
  12 H :    0.177797
  13 H :    0.176564
  14 H :    0.170943
  15 H :    0.181839
  16 H :    0.164563
  17 H :    0.147993
  18 H :    0.349886
Sum of atomic charges:   -0.0000000

LOEWDIN ATOMIC CHARGES
----------------------
   0 C :   -0.188107
   1 C :   -0.174066
   2 C :   -0.172615
   3 C :   -0.095124
   4 C :   -0.174139
   5 C :   -0.174699
   6 C :   -0.266178
   7 C :    0.011532
   8 O :   -0.657079
   9 H :    0.175885
  10 H :    0.176365
  11 H :    0.189709
  12 H :    0.178836
  13 H :    0.176785
  14 H :    0.176789
  15 H :    0.181618
  16 H :    0.183118
  17 H :    0.167548
  18 H :    0.283823

  Mayer bond orders larger than 0.100000
B(  0-C ,  1-C ) :   1.3742 B(  0-C ,  5-C ) :   1.3886 B(  0-C ,  9-H ) :   0.9557
B(  1-C ,  2-C ) :   1.3923 B(  1-C , 10-H ) :   0.9632 B(  2-C ,  3-C ) :   1.3989
B(  2-C , 11-H ) :   0.9488 B(  3-C ,  4-C ) :   1.3787 B(  3-C ,  6-C ) :   0.8250
B(  4-C ,  5-C ) :   1.4012 B(  4-C , 12-H ) :   0.9532 B(  5-C , 13-H ) :   0.9569
B(  6-C ,  7-C ) :   0.8735 B(  6-C , 14-H ) :   0.9979 B(  6-C , 15-H ) :   0.9788
B(  7-C ,  8-O ) :   0.9003 B(  7-C , 16-H ) :   0.9872 B(  7-C , 17-H ) :   0.9579
B(  8-O , 18-H ) :   0.8681

Dispersion correction           -0.006119805
FINAL SINGLE POINT ENERGY      -385.996485562830

DIPOLE MOMENT
-------------

Method             : SCF
Type of density    : Electron Density
Multiplicity       :   1
Irrep              :   0
Energy             :  -385.9977040399059547 Eh
Relativity type    :
Basis              : AO
                                X                 Y                 Z
Electronic contribution:     -2.413434881      -1.080671725       0.097239605
Nuclear contribution   :      2.830181962       1.729861905       0.566833421
                        -----------------------------------------
Total Dipole Moment    :      0.416747082       0.649190180       0.664073027
                        -----------------------------------------
Magnitude (a.u.)       :      1.017899310
Magnitude (Debye)      :      2.587294429

Rotational constants in cm-1:             0.128136             0.034621             0.028232
Rotational constants in MHz :          3841.433417          1037.906123           846.388395

                             ****ORCA TERMINATED NORMALLY****
TOTAL RUN TIME: 0 days 0 hours 0 minutes 29 seconds 614 msec
