                         Program Version 6.0.0  -   RELEASE  -
|  1> ! pbe def2-sv(p) def2/J RI DEFGRID1 loosescf d4 GCP(DFT/SV(P)) printgap
|  2> %output
|  3>     printlevel normal
|  4> end
|  5> * xyz 0 1
|  6> C 1.9167147212 0.7364605799 -0.703875444
|  7> C 1.368055642 0.0200514843 0.5283755793
|  8> C 1.4072837056 -1.4953304319 0.3412441139
|  9> C -0.0501378958 0.4961522059 0.8747839395
| 10> C -1.1395763372 0.1659184647 -0.1165166467
| 11> O -0.9462745643 -0.2067415529 -1.2562932736
| 12> C -2.5293860431 0.3386182574 0.4331288615
| 13> H 1.9248001892 1.8135159734 -0.5507828648
| 14> H 2.933950591 0.4106521825 -0.9069976402
| 15> H 1.3039567252 0.5138614962 -1.5733223102
| 16> H 2.0070111748 0.2750718808 1.3826692653
| 17> H 2.4270698298 -1.8274048119 0.1636142047
| 18> H 0.799984547 -1.7856095092 -0.5128143846
| 19> H 1.0289893884 -2.0023802906 1.2262307595
| 20> H -0.0463806016 1.5857274763 0.9702514307
| 21> H -0.3470126784 0.0911302208 1.8439063646
| 22> H -2.5963011671 1.2303812739 1.0481431414
| 23> H -3.2510331214 0.3797392462 -0.3781499543
| 24> H -2.7584278115 -0.5235446455 1.056797792
| 25> *
| 26>
| 27>                          ****END OF INPUT****

CARTESIAN COORDINATES (ANGSTROEM)
---------------------------------
  C      1.916715    0.736461   -0.703875
  C      1.368056    0.020051    0.528376
  C      1.407284   -1.495330    0.341244
  C     -0.050138    0.496152    0.874784
  C     -1.139576    0.165918   -0.116517
  O     -0.946275   -0.206742   -1.256293
  C     -2.529386    0.338618    0.433129
  H      1.924800    1.813516   -0.550783
  H      2.933951    0.410652   -0.906998
  H      1.303957    0.513861   -1.573322
  H      2.007011    0.275072    1.382669
  H      2.427070   -1.827405    0.163614
  H      0.799985   -1.785610   -0.512814
  H      1.028989   -2.002380    1.226231
  H     -0.046381    1.585727    0.970251
  H     -0.347013    0.091130    1.843906
  H     -2.596301    1.230381    1.048143
  H     -3.251033    0.379739   -0.378150
  H     -2.758428   -0.523545    1.056798

 Total Charge           Charge          ....    0
 Multiplicity           Mult            ....    1
 Number of Electrons    NEL             ....   56
 Basis Dimension        Dim             ....  122

ORBITAL ENERGIES
----------------

  NO   OCC          E(Eh)            E(eV)
   0   2.0000     -18.741157      -509.9728
   1   2.0000      -9.976773      -271.4818
   2   2.0000      -9.897883      -269.3351
   3   2.0000      -9.894095      -269.2320
   4   2.0000      -9.886479      -269.0248
   5   2.0000      -9.866916      -268.4924
   6   2.0000      -9.863478      -268.3989
   7   2.0000      -0.938879       -25.5482
   8   2.0000      -0.732435       -19.9306
   9   2.0000      -0.683965       -18.6116
  10   2.0000      -0.622930       -16.9508
  11   2.0000      -0.605047       -16.4642
  12   2.0000      -0.515402       -14.0248
  13   2.0000      -0.454197       -12.3593
  14   2.0000      -0.429863       -11.6972
  15   2.0000      -0.423150       -11.5145
  16   2.0000      -0.399795       -10.8790
  17   2.0000      -0.378984       -10.3127
  18   2.0000      -0.378156       -10.2902
  19   2.0000      -0.365658        -9.9501
  20   2.0000      -0.342200        -9.3117
  21   2.0000      -0.335601        -9.1322
  22   2.0000      -0.323864        -8.8128
  23   2.0000      -0.305816        -8.3217
  24   2.0000      -0.288865        -7.8604
  25   2.0000      -0.286868        -7.8061
  26   2.0000      -0.285381        -7.7656
  27   2.0000      -0.195257        -5.3132
  28   0.0000      -0.051814        -1.4099
  29   0.0000       0.023660         0.6438
  30   0.0000       0.058879         1.6022
  31   0.0000       0.082448         2.2435
  32   0.0000       0.089985         2.4486

MULLIKEN ATOMIC CHARGES
-----------------------
   0 C :   -0.264877
   1 C :   -0.140173
   2 C :   -0.263700
   3 C :   -0.161869
   4 C :   -0.013979
   5 O :   -0.165991
   6 C :   -0.250823
   7 H :    0.088621
   8 H :    0.094771
   9 H :    0.124424
  10 H :    0.067921
  11 H :    0.097775
  12 H :    0.121792
  13 H :    0.089213
  14 H :    0.111518
  15 H :    0.099314
  16 H :    0.116968
  17 H :    0.119467
  18 H :    0.129627
Sum of atomic charges:   -0.0000000

LOEWDIN ATOMIC CHARGES
----------------------
   0 C :   -0.338187
   1 C :   -0.150807
   2 C :   -0.336255
   3 C :   -0.247286
   4 C :    0.047789
   5 O :   -0.127104
   6 C :   -0.362116
   7 H :    0.112374
   8 H :    0.116247
   9 H :    0.126071
  10 H :    0.114845
  11 H :    0.118061
  12 H :    0.124777
  13 H :    0.112346
  14 H :    0.142322
  15 H :    0.131156
  16 H :    0.134179
  17 H :    0.134803
  18 H :    0.146787

  Mayer bond orders larger than 0.100000
B(  0-C ,  1-C ) :   1.1027 B(  0-C ,  7-H ) :   0.9506 B(  0-C ,  8-H ) :   0.9498
B(  0-C ,  9-H ) :   0.9398 B(  1-C ,  2-C ) :   1.1107 B(  1-C ,  3-C ) :   1.0718
B(  1-C , 10-H ) :   0.9039 B(  2-C , 11-H ) :   0.9511 B(  2-C , 12-H ) :   0.9413
B(  2-C , 13-H ) :   0.9515 B(  3-C ,  4-C ) :   0.9750 B(  3-C , 14-H ) :   0.8831
B(  3-C , 15-H ) :   0.9078 B(  4-C ,  5-O ) :   2.1514 B(  4-C ,  6-C ) :   1.0644
B(  6-C , 16-H ) :   0.9355 B(  6-C , 17-H ) :   0.9352 B(  6-C , 18-H ) :   0.9214

Dispersion correction           -0.015213141
FINAL SINGLE POINT ENERGY      -310.355074947457

DIPOLE MOMENT
-------------

Method             : SCF
Type of density    : Electron Density
Multiplicity       :   1
Irrep              :   0
Energy             :  -310.4201370024403559 Eh
Relativity type    :
Basis              : AO
                                X                 Y                 Z
Electronic contribution:     -3.396041729       0.134600279      -2.610433152
Nuclear contribution   :      3.200686034       0.148109527       3.517820296
                        -----------------------------------------
Total Dipole Moment    :     -0.195355695       0.282709806       0.907387144
                        -----------------------------------------
Magnitude (a.u.)       :      0.970278367
Magnitude (Debye)      :      2.466251614

Rotational constants in cm-1:             0.144538             0.055291             0.053737
Rotational constants in MHz :          4333.145552          1657.595848          1610.996956

                             ****ORCA TERMINATED NORMALLY****
TOTAL RUN TIME: 0 days 0 hours 0 minutes 9 seconds 25 msec
