                         Program Version 6.0.0  -   RELEASE  -
|  1> ! pbe def2-sv(p) def2/J RI DEFGRID1 loosescf d4 GCP(DFT/SV(P)) printgap
|  2> %output
|  3>     printlevel normal
|  4> end
|  5> * xyz 0 1
|  6> C -2.7651299064 -1.3089461935 -2.0337458198
|  7> C -3.4871950508 -0.8681367695 -0.7653596217
|  8> C -2.5726324835 -0.8897185561 0.462082859
|  9> H -2.153747857 -1.8957910992 0.5720910213
| 10> C -3.3105369969 -0.5123418203 1.7424938415
| 11> N -1.3956493844 -0.0240308807 0.2638972156
| 12> C -0.147897691 -0.6461561245 0.248531366
| 13> O -0.0339864234 -1.8501684843 0.4052507203
| 14> C 0.9759633145 0.2405242814 0.0372812238
| 15> C 0.8314820723 1.5786890925 -0.1325242509
| 16> N -0.439922514 2.0689571189 -0.0984258606
| 17> C -1.5802626767 1.3258450408 0.0899513549
| 18> O -2.6663237669 1.8749461958 0.0953691386
| 19> C 1.9175513774 2.5645676405 -0.3523926808
| 20> Br 2.6719154198 -0.6203541286 0.0172547055
| 21> H -2.3045247468 -2.2847697966 -1.8912875765
| 22> H -3.4657092056 -1.3728253156 -2.8613663275
| 23> H -1.9835670665 -0.6009000632 -2.3050414728
| 24> H -3.8961600875 0.1342833257 -0.8952622814
| 25> H -4.3142221992 -1.5490585147 -0.563949416
| 26> H -3.7490414978 0.4775269411 1.6525972715
| 27> H -4.1014217278 -1.2335550396 1.9224811617
| 28> H -2.6281078023 -0.5252258561 2.5893454805
| 29> H -0.5893562034 3.0657768972 -0.2224361213
| 30> H 1.7688067058 3.070998717 -1.303904197
| 31> H 2.8884988381 2.0796437355 -0.3579318658
| 32> H 1.8996608904 3.3141547669 0.4360466507
| 33> *
| 34>
| 35>                          ****END OF INPUT****

CARTESIAN COORDINATES (ANGSTROEM)
---------------------------------
  C     -2.765130   -1.308946   -2.033746
  C     -3.487195   -0.868137   -0.765360
  C     -2.572632   -0.889719    0.462083
  H     -2.153748   -1.895791    0.572091
  C     -3.310537   -0.512342    1.742494
  N     -1.395649   -0.024031    0.263897
  C     -0.147898   -0.646156    0.248531
  O     -0.033986   -1.850168    0.405251
  C      0.975963    0.240524    0.037281
  C      0.831482    1.578689   -0.132524
  N     -0.439923    2.068957   -0.098426
  C     -1.580263    1.325845    0.089951
  O     -2.666324    1.874946    0.095369
  C      1.917551    2.564568   -0.352393
  Br     2.671915   -0.620354    0.017255
  H     -2.304525   -2.284770   -1.891288
  H     -3.465709   -1.372825   -2.861366
  H     -1.983567   -0.600900   -2.305041
  H     -3.896160    0.134283   -0.895262
  H     -4.314222   -1.549059   -0.563949
  H     -3.749041    0.477527    1.652597
  H     -4.101422   -1.233555    1.922481
  H     -2.628108   -0.525226    2.589345
  H     -0.589356    3.065777   -0.222436
  H      1.768807    3.070999   -1.303904
  H      2.888499    2.079644   -0.357932
  H      1.899661    3.314155    0.436047

 Total Charge           Charge          ....    0
 Multiplicity           Mult            ....    1
 Number of Electrons    NEL             ....  132
 Basis Dimension        Dim             ....  240

ORBITAL ENERGIES
----------------

  NO   OCC          E(Eh)            E(eV)
   0   2.0000    -480.941633    -13087.0872
   1   2.0000     -61.783343     -1681.2102
   2   2.0000     -55.714055     -1516.0565
   3   2.0000     -55.710914     -1515.9710
   4   2.0000     -55.710703     -1515.9653
   5   2.0000     -18.735642      -509.8227
   6   2.0000     -18.733035      -509.7518
   7   2.0000     -14.065905      -382.7527
   8   2.0000     -14.054954      -382.4547
   9   2.0000     -10.034495      -273.0525
  10   2.0000     -10.004321      -272.2314
  11   2.0000      -9.982589      -271.6401
  12   2.0000      -9.952854      -270.8309
  13   2.0000      -9.930948      -270.2348
  14   2.0000      -9.922052      -269.9928
  15   2.0000      -9.882813      -268.9250
  16   2.0000      -9.875064      -268.7141
  17   2.0000      -9.873719      -268.6776
  18   2.0000      -8.408529      -228.8077
  19   2.0000      -6.290976      -171.1862
  20   2.0000      -6.276048      -170.7799
  21   2.0000      -6.275520      -170.7656
  22   2.0000      -2.491996       -67.8107
  23   2.0000      -2.488361       -67.7117
  24   2.0000      -2.488003       -67.7020
  25   2.0000      -2.476762       -67.3961
  26   2.0000      -2.476745       -67.3957
  27   2.0000      -0.988532       -26.8993
  28   2.0000      -0.948868       -25.8200
  29   2.0000      -0.898553       -24.4509
  30   2.0000      -0.860748       -23.4222
  31   2.0000      -0.767568       -20.8866
  32   2.0000      -0.729149       -19.8412
  33   2.0000      -0.708158       -19.2700
  34   2.0000      -0.668615       -18.1939
  35   2.0000      -0.652787       -17.7632
  36   2.0000      -0.614038       -16.7088
  37   2.0000      -0.596184       -16.2230
  38   2.0000      -0.563823       -15.3424
  39   2.0000      -0.542062       -14.7503
  40   2.0000      -0.527586       -14.3563
  41   2.0000      -0.492525       -13.4023
  42   2.0000      -0.454734       -12.3739
  43   2.0000      -0.438666       -11.9367
  44   2.0000      -0.418116       -11.3775
  45   2.0000      -0.413134       -11.2420
  46   2.0000      -0.394784       -10.7426
  47   2.0000      -0.387549       -10.5457
  48   2.0000      -0.385751       -10.4968
  49   2.0000      -0.385649       -10.4940
  50   2.0000      -0.374531       -10.1915
  51   2.0000      -0.369142       -10.0449
  52   2.0000      -0.364990        -9.9319
  53   2.0000      -0.358663        -9.7597
  54   2.0000      -0.344400        -9.3716
  55   2.0000      -0.323260        -8.7964
  56   2.0000      -0.320953        -8.7336
  57   2.0000      -0.303259        -8.2521
  58   2.0000      -0.295463        -8.0400
  59   2.0000      -0.292283        -7.9534
  60   2.0000      -0.274841        -7.4788
  61   2.0000      -0.253280        -6.8921
  62   2.0000      -0.238952        -6.5022
  63   2.0000      -0.234740        -6.3876
  64   2.0000      -0.216923        -5.9028
  65   2.0000      -0.207310        -5.6412
  66   0.0000      -0.074577        -2.0293
  67   0.0000      -0.032855        -0.8940
  68   0.0000      -0.026123        -0.7109
  69   0.0000       0.016079         0.4375
  70   0.0000       0.046379         1.2620

MULLIKEN ATOMIC CHARGES
-----------------------
   0 C :   -0.265976
   1 C :   -0.175299
   2 C :   -0.084429
   3 H :    0.111136
   4 C :   -0.224109
   5 N :   -0.242945
   6 C :    0.185921
   7 O :   -0.174246
   8 C :   -0.196889
   9 C :    0.019383
  10 N :   -0.204803
  11 C :    0.168423
  12 O :   -0.199454
  13 C :   -0.213801
  14 Br:    0.009890
  15 H :    0.108167
  16 H :    0.105229
  17 H :    0.098411
  18 H :    0.113839
  19 H :    0.087589
  20 H :    0.127723
  21 H :    0.102242
  22 H :    0.101050
  23 H :    0.245746
  24 H :    0.131229
  25 H :    0.135116
  26 H :    0.130857
Sum of atomic charges:   -0.0000000

LOEWDIN ATOMIC CHARGES
----------------------
   0 C :   -0.342570
   1 C :   -0.236366
   2 C :   -0.078549
   3 H :    0.135093
   4 C :   -0.338837
   5 N :    0.000734
   6 C :    0.019837
   7 O :   -0.168265
   8 C :   -0.215137
   9 C :   -0.005458
  10 N :   -0.088833
  11 C :    0.042063
  12 O :   -0.191568
  13 C :   -0.333741
  14 Br:    0.138522
  15 H :    0.122474
  16 H :    0.121623
  17 H :    0.113653
  18 H :    0.125914
  19 H :    0.121984
  20 H :    0.129026
  21 H :    0.125204
  22 H :    0.121154
  23 H :    0.254069
  24 H :    0.143867
  25 H :    0.140427
  26 H :    0.143681

  Mayer bond orders larger than 0.100000
B(  0-C ,  1-C ) :   1.1604 B(  0-C , 15-H ) :   0.9501 B(  0-C , 16-H ) :   0.9512
B(  0-C , 17-H ) :   0.9491 B(  1-C ,  2-C ) :   1.0865 B(  1-C , 18-H ) :   0.9029
B(  1-C , 19-H ) :   0.9192 B(  2-C ,  3-H ) :   0.8736 B(  2-C ,  4-C ) :   1.1253
B(  2-C ,  5-N ) :   0.9073 B(  4-C , 20-H ) :   0.9291 B(  4-C , 21-H ) :   0.9445
B(  4-C , 22-H ) :   0.9464 B(  5-N ,  6-C ) :   1.0318 B(  5-N , 11-C ) :   1.0790
B(  6-C ,  7-O ) :   2.0973 B(  6-C ,  8-C ) :   1.0353 B(  8-C ,  9-C ) :   1.6337
B(  8-C , 14-Br) :   1.0555 B(  9-C , 10-N ) :   1.1825 B(  9-C , 13-C ) :   1.1592
B( 10-N , 11-C ) :   1.0884 B( 10-N , 23-H ) :   0.8391 B( 11-C , 12-O ) :   2.0315
B( 13-C , 24-H ) :   0.9195 B( 13-C , 25-H ) :   0.9086 B( 13-C , 26-H ) :   0.9195

Dispersion correction           -0.034216354
FINAL SINGLE POINT ENERGY     -3182.944045488054

DIPOLE MOMENT
-------------

Method             : SCF
Type of density    : Electron Density
Multiplicity       :   1
Irrep              :   0
Energy             : -3183.0358322627025700 Eh
Relativity type    :
Basis              : AO
                                X                 Y                 Z
Electronic contribution:     46.490643533      -6.841869008       2.929688602
Nuclear contribution   :    -46.088542312       8.286135551      -3.180901832
                        -----------------------------------------
Total Dipole Moment    :      0.402101221       1.444266543      -0.251213230
                        -----------------------------------------
Magnitude (a.u.)       :      1.520098459
Magnitude (Debye)      :      3.863783223

Rotational constants in cm-1:             0.029783             0.011183             0.009360
Rotational constants in MHz :           892.868453           335.271504           280.614328

                             ****ORCA TERMINATED NORMALLY****
TOTAL RUN TIME: 0 days 0 hours 0 minutes 22 seconds 239 msec
