                         Program Version 6.0.0  -   RELEASE  -
|  1> ! r2scan-3c def2/J RI DEFGRID2 scfconv6 printgap
|  2> %output
|  3>     printlevel normal
|  4> end
|  5> * xyz 0 1
|  6> C -2.474604298 0.234763156 0.967440599
|  7> C -1.7667522318 0.6482790933 -0.3265236914
|  8> C -0.5204416046 -0.1809040301 -0.4945505638
|  9> O -0.4535482051 -1.2175041272 -1.1241525729
| 10> O 0.5063786947 0.3412425224 0.1584237025
| 11> C 1.7600862922 -0.3615070071 0.1256175945
| 12> C 2.8408885024 0.5722701756 0.6354004066
| 13> H -2.7318809188 -0.8213318196 0.9353245867
| 14> H -1.8288647333 0.4126283175 1.823400717
| 15> H -3.3852935298 0.8135821643 1.0872212602
| 16> H -1.4862474632 1.6991709876 -0.2752530953
| 17> H -2.4174620396 0.4710735912 -1.181866004
| 18> H 1.6688554614 -1.2536375639 0.753635887
| 19> H 1.9488850649 -0.6850196428 -0.9033272921
| 20> H 2.907029906 1.449718557 -0.0011275004
| 21> H 2.6087053421 0.8903821075 1.6473155906
| 22> H 3.7941506769 0.0542908784 0.631482203
| 23> *
| 24>
| 25>                          ****END OF INPUT****

CARTESIAN COORDINATES (ANGSTROEM)
---------------------------------
  C     -2.474604    0.234763    0.967441
  C     -1.766752    0.648279   -0.326524
  C     -0.520442   -0.180904   -0.494551
  O     -0.453548   -1.217504   -1.124153
  O      0.506379    0.341243    0.158424
  C      1.760086   -0.361507    0.125618
  C      2.840889    0.572270    0.635400
  H     -2.731881   -0.821332    0.935325
  H     -1.828865    0.412628    1.823401
  H     -3.385294    0.813582    1.087221
  H     -1.486247    1.699171   -0.275253
  H     -2.417462    0.471074   -1.181866
  H      1.668855   -1.253638    0.753636
  H      1.948885   -0.685020   -0.903327
  H      2.907030    1.449719   -0.001128
  H      2.608705    0.890382    1.647316
  H      3.794151    0.054291    0.631482

 Total Charge           Charge          ....    0
 Multiplicity           Mult            ....    1
 Number of Electrons    NEL             ....   56
 Basis Dimension        Dim             ....  193

ORBITAL ENERGIES
----------------

  NO   OCC          E(Eh)            E(eV)
   0   2.0000     -18.996563      -516.9227
   1   2.0000     -18.925778      -514.9966
   2   2.0000     -10.149890      -276.1925
   3   2.0000     -10.091624      -274.6070
   4   2.0000     -10.043022      -273.2845
   5   2.0000     -10.032489      -272.9979
   6   2.0000     -10.031819      -272.9797
   7   2.0000      -1.071721       -29.1630
   8   2.0000      -0.973000       -26.4767
   9   2.0000      -0.767046       -20.8724
  10   2.0000      -0.733593       -19.9621
  11   2.0000      -0.638744       -17.3811
  12   2.0000      -0.593955       -16.1623
  13   2.0000      -0.534366       -14.5408
  14   2.0000      -0.471427       -12.8282
  15   2.0000      -0.454494       -12.3674
  16   2.0000      -0.439463       -11.9584
  17   2.0000      -0.410095       -11.1592
  18   2.0000      -0.407523       -11.0893
  19   2.0000      -0.375715       -10.2237
  20   2.0000      -0.371865       -10.1190
  21   2.0000      -0.355969        -9.6864
  22   2.0000      -0.341066        -9.2809
  23   2.0000      -0.327150        -8.9022
  24   2.0000      -0.321099        -8.7375
  25   2.0000      -0.312681        -8.5085
  26   2.0000      -0.270829        -7.3696
  27   2.0000      -0.231473        -6.2987
  28   0.0000      -0.013668        -0.3719
  29   0.0000       0.072535         1.9738
  30   0.0000       0.096010         2.6126
  31   0.0000       0.119016         3.2386
  32   0.0000       0.124483         3.3873

MULLIKEN ATOMIC CHARGES
-----------------------
   0 C :   -0.471244
   1 C :   -0.296274
   2 C :    0.403647
   3 O :   -0.425259
   4 O :   -0.170168
   5 C :   -0.150141
   6 C :   -0.441181
   7 H :    0.160309
   8 H :    0.154932
   9 H :    0.153504
  10 H :    0.152776
  11 H :    0.161838
  12 H :    0.149225
  13 H :    0.166635
  14 H :    0.152854
  15 H :    0.151410
  16 H :    0.147136
Sum of atomic charges:    0.0000000

LOEWDIN ATOMIC CHARGES
----------------------
   0 C :   -0.392501
   1 C :   -0.237109
   2 C :    0.353208
   3 O :   -0.427577
   4 O :   -0.599244
   5 C :    0.033843
   6 C :   -0.386859
   7 H :    0.159683
   8 H :    0.157185
   9 H :    0.153063
  10 H :    0.173544
  11 H :    0.174640
  12 H :    0.175787
  13 H :    0.184554
  14 H :    0.159236
  15 H :    0.158988
  16 H :    0.159559

  Mayer bond orders larger than 0.100000
B(  0-C ,  1-C ) :   0.8985 B(  0-C ,  7-H ) :   0.9745 B(  0-C ,  8-H ) :   0.9775
B(  0-C ,  9-H ) :   0.9706 B(  1-C ,  2-C ) :   0.9495 B(  1-C , 10-H ) :   0.9752
B(  1-C , 11-H ) :   0.9737 B(  2-C ,  3-O ) :   1.8250 B(  2-C ,  4-O ) :   1.0630
B(  4-O ,  5-C ) :   0.8020 B(  5-C ,  6-C ) :   0.9437 B(  5-C , 12-H ) :   0.9461
B(  5-C , 13-H ) :   0.9606 B(  6-C , 14-H ) :   0.9742 B(  6-C , 15-H ) :   0.9694
B(  6-C , 16-H ) :   0.9679

Dispersion correction           -0.003892043
FINAL SINGLE POINT ENERGY      -346.935839816360

DIPOLE MOMENT
-------------

Method             : SCF
Type of density    : Electron Density
Multiplicity       :   1
Irrep              :   0
Energy             :  -346.9422671153860733 Eh
Relativity type    :
Basis              : AO
                                X                 Y                 Z
Electronic contribution:     -0.728406271      -2.195546756      -3.664541956
Nuclear contribution   :      1.012012841       2.830459579       4.223201528
                        -----------------------------------------
Total Dipole Moment    :      0.283606570       0.634912823       0.558659572
                        -----------------------------------------
Magnitude (a.u.)       :      0.891990750
Magnitude (Debye)      :      2.267260304

Rotational constants in cm-1:             0.171144             0.048970             0.041949
Rotational constants in MHz :          5130.761710          1468.096433          1257.613288

                             ****ORCA TERMINATED NORMALLY****
TOTAL RUN TIME: 0 days 0 hours 0 minutes 20 seconds 882 msec
