                         Program Version 6.0.0  -   RELEASE  -
|  1> ! r2scan-3c def2/J RI DEFGRID2 scfconv6 printgap
|  2> %output
|  3>     printlevel normal
|  4> end
|  5> %cpcm
|  6>     smd true
|  7>     smdsolvent "water"
|  8> end
|  9> * xyz 0 1
| 10> C -2.474604298 0.234763156 0.967440599
| 11> C -1.7667522318 0.6482790933 -0.3265236914
| 12> C -0.5204416046 -0.1809040301 -0.4945505638
| 13> O -0.4535482051 -1.2175041272 -1.1241525729
| 14> O 0.5063786947 0.3412425224 0.1584237025
| 15> C 1.7600862922 -0.3615070071 0.1256175945
| 16> C 2.8408885024 0.5722701756 0.6354004066
| 17> H -2.7318809188 -0.8213318196 0.9353245867
| 18> H -1.8288647333 0.4126283175 1.823400717
| 19> H -3.3852935298 0.8135821643 1.0872212602
| 20> H -1.4862474632 1.6991709876 -0.2752530953
| 21> H -2.4174620396 0.4710735912 -1.181866004
| 22> H 1.6688554614 -1.2536375639 0.753635887
| 23> H 1.9488850649 -0.6850196428 -0.9033272921
| 24> H 2.907029906 1.449718557 -0.0011275004
| 25> H 2.6087053421 0.8903821075 1.6473155906
| 26> H 3.7941506769 0.0542908784 0.631482203
| 27> *
| 28>
| 29>                          ****END OF INPUT****

CARTESIAN COORDINATES (ANGSTROEM)
---------------------------------
  C     -2.474604    0.234763    0.967441
  C     -1.766752    0.648279   -0.326524
  C     -0.520442   -0.180904   -0.494551
  O     -0.453548   -1.217504   -1.124153
  O      0.506379    0.341243    0.158424
  C      1.760086   -0.361507    0.125618
  C      2.840889    0.572270    0.635400
  H     -2.731881   -0.821332    0.935325
  H     -1.828865    0.412628    1.823401
  H     -3.385294    0.813582    1.087221
  H     -1.486247    1.699171   -0.275253
  H     -2.417462    0.471074   -1.181866
  H      1.668855   -1.253638    0.753636
  H      1.948885   -0.685020   -0.903327
  H      2.907030    1.449719   -0.001128
  H      2.608705    0.890382    1.647316
  H      3.794151    0.054291    0.631482

 Total Charge           Charge          ....    0
 Multiplicity           Mult            ....    1
 Number of Electrons    NEL             ....   56
 Basis Dimension        Dim             ....  193

ORBITAL ENERGIES
----------------

  NO   OCC          E(Eh)            E(eV)
   0   2.0000     -19.002628      -517.0878
   1   2.0000     -18.943226      -515.4714
   2   2.0000     -10.161598      -276.5111
   3   2.0000     -10.083955      -274.3984
   4   2.0000     -10.037532      -273.1351
   5   2.0000     -10.022437      -272.7244
   6   2.0000     -10.018842      -272.6266
   7   2.0000      -1.079657       -29.3790
   8   2.0000      -0.988119       -26.8881
   9   2.0000      -0.762771       -20.7560
  10   2.0000      -0.725187       -19.7333
  11   2.0000      -0.632512       -17.2115
  12   2.0000      -0.586948       -15.9717
  13   2.0000      -0.533085       -14.5060
  14   2.0000      -0.471742       -12.8368
  15   2.0000      -0.459070       -12.4919
  16   2.0000      -0.443510       -12.0685
  17   2.0000      -0.410065       -11.1584
  18   2.0000      -0.404356       -11.0031
  19   2.0000      -0.372523       -10.1369
  20   2.0000      -0.360415        -9.8074
  21   2.0000      -0.348467        -9.4823
  22   2.0000      -0.334009        -9.0889
  23   2.0000      -0.321411        -8.7460
  24   2.0000      -0.319399        -8.6913
  25   2.0000      -0.313268        -8.5245
  26   2.0000      -0.277257        -7.5445
  27   2.0000      -0.249026        -6.7763
  28   0.0000      -0.022724        -0.6183
  29   0.0000       0.076186         2.0731
  30   0.0000       0.105465         2.8698
  31   0.0000       0.127512         3.4698
  32   0.0000       0.133058         3.6207

MULLIKEN ATOMIC CHARGES
-----------------------
   0 C :   -0.491742
   1 C :   -0.311820
   2 C :    0.446415
   3 O :   -0.514055
   4 O :   -0.183947
   5 C :   -0.151765
   6 C :   -0.489119
   7 H :    0.164918
   8 H :    0.165762
   9 H :    0.172956
  10 H :    0.174728
  11 H :    0.174555
  12 H :    0.172335
  13 H :    0.171777
  14 H :    0.165864
  15 H :    0.164304
  16 H :    0.168834
Sum of atomic charges:    0.0000000

LOEWDIN ATOMIC CHARGES
----------------------
   0 C :   -0.393727
   1 C :   -0.234129
   2 C :    0.363050
   3 O :   -0.491238
   4 O :   -0.599018
   5 C :    0.036452
   6 C :   -0.389806
   7 H :    0.160644
   8 H :    0.160739
   9 H :    0.160565
  10 H :    0.183085
  11 H :    0.179668
  12 H :    0.183581
  13 H :    0.186838
  14 H :    0.162422
  15 H :    0.162580
  16 H :    0.168296

  Mayer bond orders larger than 0.100000
B(  0-C ,  1-C ) :   0.8895 B(  0-C ,  7-H ) :   0.9717 B(  0-C ,  8-H ) :   0.9732
B(  0-C ,  9-H ) :   0.9654 B(  1-C ,  2-C ) :   0.9487 B(  1-C , 10-H ) :   0.9658
B(  1-C , 11-H ) :   0.9698 B(  2-C ,  3-O ) :   1.7508 B(  2-C ,  4-O ) :   1.0925
B(  4-O ,  5-C ) :   0.7885 B(  5-C ,  6-C ) :   0.9444 B(  5-C , 12-H ) :   0.9375
B(  5-C , 13-H ) :   0.9544 B(  6-C , 14-H ) :   0.9728 B(  6-C , 15-H ) :   0.9667
B(  6-C , 16-H ) :   0.9614

Dispersion correction           -0.003892043
FINAL SINGLE POINT ENERGY      -346.941582171035

DIPOLE MOMENT
-------------

Method             : SCF
Type of density    : Electron Density
Multiplicity       :   1
Irrep              :   0
Energy             :  -346.9480094700611517 Eh
Relativity type    :
Basis              : AO
                                X                 Y                 Z
Electronic contribution:     -0.651296114      -1.936892722      -3.454783915
Nuclear contribution   :      1.012012841       2.830459579       4.223201528
                        -----------------------------------------
Total Dipole Moment    :      0.360716727       0.893566857       0.768417612
                        -----------------------------------------
Magnitude (a.u.)       :      1.232494995
Magnitude (Debye)      :      3.132753313

Rotational constants in cm-1:             0.171144             0.048970             0.041949
Rotational constants in MHz :          5130.761710          1468.096433          1257.613288

                             ****ORCA TERMINATED NORMALLY****
TOTAL RUN TIME: 0 days 0 hours 0 minutes 26 seconds 468 msec
