                         Program Version 6.0.0  -   RELEASE  -
|  1> ! pbe def2-sv(p) def2/J RI DEFGRID1 loosescf d4 GCP(DFT/SV(P)) printgap
|  2> %output
|  3>     printlevel normal
|  4> end
|  5> * xyz 0 1
|  6> C 1.7940245721 -1.1563658088 0.1150331255
|  7> C 1.2204924451 0.2170986475 0.4473948821
|  8> H 0.9784124642 0.2565439695 1.5231809197
|  9> C -0.0480395783 0.5207412803 -0.3613635719
| 10> C -1.2680089849 -0.312323396 0.0780501745
| 11> C -2.3779556501 0.5887697311 0.6185163342
| 12> C -1.7972011567 -1.1643471179 -1.0740703766
| 13> O 2.2439921742 1.1629553415 0.1719571122
| 14> H 2.064223725 -1.1894390484 -0.9372347452
| 15> H 2.6896840724 -1.3299441409 0.7052035072
| 16> H 1.0690233466 -1.9350413405 0.3270145122
| 17> H -0.2780243283 1.5830729461 -0.2521619423
| 18> H 0.1731546708 0.3455541968 -1.415529716
| 19> H -0.9613468203 -0.9846187204 0.8865691364
| 20> H -3.2226308856 -0.0083904182 0.954290783
| 21> H -2.72612001 1.2681444731 -0.1565925407
| 22> H -2.0191481649 1.175982639 1.4606363989
| 23> H -1.0206793379 -1.8259397245 -1.449881955
| 24> H -2.636149014 -1.7725062215 -0.743516362
| 25> H -2.1354329465 -0.5287468659 -1.8895102855
| 26> H 1.9182522125 2.0530799859 0.3604893278
| 27> *
| 28>
| 29>                          ****END OF INPUT****

CARTESIAN COORDINATES (ANGSTROEM)
---------------------------------
  C      1.794025   -1.156366    0.115033
  C      1.220492    0.217099    0.447395
  H      0.978412    0.256544    1.523181
  C     -0.048040    0.520741   -0.361364
  C     -1.268009   -0.312323    0.078050
  C     -2.377956    0.588770    0.618516
  C     -1.797201   -1.164347   -1.074070
  O      2.243992    1.162955    0.171957
  H      2.064224   -1.189439   -0.937235
  H      2.689684   -1.329944    0.705204
  H      1.069023   -1.935041    0.327015
  H     -0.278024    1.583073   -0.252162
  H      0.173155    0.345554   -1.415530
  H     -0.961347   -0.984619    0.886569
  H     -3.222631   -0.008390    0.954291
  H     -2.726120    1.268144   -0.156593
  H     -2.019148    1.175983    1.460636
  H     -1.020679   -1.825940   -1.449882
  H     -2.636149   -1.772506   -0.743516
  H     -2.135433   -0.528747   -1.889510
  H      1.918252    2.053080    0.360489

 Total Charge           Charge          ....    0
 Multiplicity           Mult            ....    1
 Number of Electrons    NEL             ....   58
 Basis Dimension        Dim             ....  126

ORBITAL ENERGIES
----------------

  NO   OCC          E(Eh)            E(eV)
   0   2.0000     -18.734614      -509.7948
   1   2.0000      -9.934952      -270.3438
   2   2.0000      -9.896928      -269.3091
   3   2.0000      -9.879252      -268.8281
   4   2.0000      -9.874546      -268.7001
   5   2.0000      -9.873413      -268.6692
   6   2.0000      -9.870077      -268.5785
   7   2.0000      -0.912305       -24.8251
   8   2.0000      -0.733566       -19.9613
   9   2.0000      -0.675112       -18.3707
  10   2.0000      -0.612691       -16.6722
  11   2.0000      -0.608742       -16.5647
  12   2.0000      -0.526096       -14.3158
  13   2.0000      -0.501988       -13.6598
  14   2.0000      -0.458705       -12.4820
  15   2.0000      -0.421590       -11.4720
  16   2.0000      -0.397238       -10.8094
  17   2.0000      -0.390200       -10.6179
  18   2.0000      -0.365609        -9.9487
  19   2.0000      -0.349565        -9.5121
  20   2.0000      -0.341197        -9.2844
  21   2.0000      -0.336760        -9.1637
  22   2.0000      -0.314876        -8.5682
  23   2.0000      -0.311404        -8.4737
  24   2.0000      -0.303666        -8.2632
  25   2.0000      -0.284250        -7.7348
  26   2.0000      -0.282172        -7.6783
  27   2.0000      -0.260470        -7.0878
  28   2.0000      -0.208155        -5.6642
  29   0.0000       0.026680         0.7260
  30   0.0000       0.043825         1.1925
  31   0.0000       0.060779         1.6539
  32   0.0000       0.066847         1.8190
  33   0.0000       0.083550         2.2735

MULLIKEN ATOMIC CHARGES
-----------------------
   0 C :   -0.246277
   1 C :   -0.010139
   2 H :    0.060520
   3 C :   -0.098697
   4 C :   -0.192518
   5 C :   -0.254205
   6 C :   -0.254975
   7 O :   -0.427750
   8 H :    0.100393
   9 H :    0.109062
  10 H :    0.106639
  11 H :    0.059515
  12 H :    0.079892
  13 H :    0.083634
  14 H :    0.097593
  15 H :    0.098283
  16 H :    0.098316
  17 H :    0.103665
  18 H :    0.096018
  19 H :    0.098337
  20 H :    0.292693
Sum of atomic charges:   -0.0000000

LOEWDIN ATOMIC CHARGES
----------------------
   0 C :   -0.340536
   1 C :   -0.056068
   2 H :    0.092557
   3 C :   -0.228783
   4 C :   -0.158205
   5 C :   -0.329180
   6 C :   -0.329167
   7 O :   -0.335868
   8 H :    0.122525
   9 H :    0.124980
  10 H :    0.121598
  11 H :    0.108808
  12 H :    0.118928
  13 H :    0.112314
  14 H :    0.116345
  15 H :    0.116281
  16 H :    0.115051
  17 H :    0.116631
  18 H :    0.115821
  19 H :    0.116854
  20 H :    0.279113

  Mayer bond orders larger than 0.100000
B(  0-C ,  1-C ) :   1.1141 B(  0-C ,  8-H ) :   0.9418 B(  0-C ,  9-H ) :   0.9444
B(  0-C , 10-H ) :   0.9397 B(  1-C ,  2-H ) :   0.9110 B(  1-C ,  3-C ) :   1.0694
B(  1-C ,  7-O ) :   1.0526 B(  3-C ,  4-C ) :   1.0086 B(  3-C , 11-H ) :   0.9168
B(  3-C , 12-H ) :   0.9114 B(  4-C ,  5-C ) :   1.1156 B(  4-C ,  6-C ) :   1.1158
B(  4-C , 13-H ) :   0.9100 B(  5-C , 14-H ) :   0.9510 B(  5-C , 15-H ) :   0.9482
B(  5-C , 16-H ) :   0.9497 B(  6-C , 17-H ) :   0.9489 B(  6-C , 18-H ) :   0.9510
B(  6-C , 19-H ) :   0.9485 B(  7-O , 20-H ) :   0.8527

Dispersion correction           -0.016185737
FINAL SINGLE POINT ENERGY      -311.514662995047

DIPOLE MOMENT
-------------

Method             : SCF
Type of density    : Electron Density
Multiplicity       :   1
Irrep              :   0
Energy             :  -311.5940222098511754 Eh
Relativity type    :
Basis              : AO
                                X                 Y                 Z
Electronic contribution:      5.183760532       2.862367657       0.782963897
Nuclear contribution   :     -5.695856759      -2.696142739      -0.585716872
                        -----------------------------------------
Total Dipole Moment    :     -0.512096227       0.166224919       0.197247025
                        -----------------------------------------
Magnitude (a.u.)       :      0.573393109
Magnitude (Debye)      :      1.457449458

Rotational constants in cm-1:             0.139817             0.047970             0.040607
Rotational constants in MHz :          4191.615904          1438.101636          1217.379571

                             ****ORCA TERMINATED NORMALLY****
TOTAL RUN TIME: 0 days 0 hours 0 minutes 10 seconds 295 msec
