                         Program Version 6.0.0  -   RELEASE  -
|  1> ! pbe def2-sv(p) def2/J RI DEFGRID1 loosescf d4 GCP(DFT/SV(P)) printgap
|  2> %output
|  3>     printlevel normal
|  4> end
|  5> * xyz 0 1
|  6> C -2.9184801066 -1.119291295 -0.4191145175
|  7> C -2.3890155345 0.3069402119 -0.3053132677
|  8> O -1.3836623421 0.4916451633 0.6903128993
|  9> C -0.07140064 0.2516380636 0.3220634076
| 10> C 0.8033432178 1.3336245499 0.308203732
| 11> C 2.1374142768 1.1454986569 -0.002645601
| 12> C 2.6086186856 -0.120097527 -0.3092713538
| 13> C 1.7413944819 -1.198556834 -0.2875274616
| 14> C 0.4061521372 -1.0207922602 0.031029218
| 15> H -3.8384770959 -1.107884654 -0.9962046133
| 16> H -2.2070924023 -1.7691632108 -0.9203521264
| 17> H -3.1278064254 -1.5140777617 0.5718038064
| 18> H -3.1961277697 0.9702143702 0.0177508718
| 19> H -2.012838449 0.6547125481 -1.275066153
| 20> H 0.4197135001 2.3129563039 0.5504241814
| 21> H 2.8080066283 1.9911781393 -0.0102418361
| 22> H 3.6482792828 -0.2661098041 -0.5580695626
| 23> H 2.104763899 -2.1896063395 -0.5134801623
| 24> H -0.2577616122 -1.8691617661 0.071233254
| 25> *
| 26>
| 27>                          ****END OF INPUT****

CARTESIAN COORDINATES (ANGSTROEM)
---------------------------------
  C     -2.918480   -1.119291   -0.419115
  C     -2.389016    0.306940   -0.305313
  O     -1.383662    0.491645    0.690313
  C     -0.071401    0.251638    0.322063
  C      0.803343    1.333625    0.308204
  C      2.137414    1.145499   -0.002646
  C      2.608619   -0.120098   -0.309271
  C      1.741394   -1.198557   -0.287527
  C      0.406152   -1.020792    0.031029
  H     -3.838477   -1.107885   -0.996205
  H     -2.207092   -1.769163   -0.920352
  H     -3.127806   -1.514078    0.571804
  H     -3.196128    0.970214    0.017751
  H     -2.012838    0.654713   -1.275066
  H      0.419714    2.312956    0.550424
  H      2.808007    1.991178   -0.010242
  H      3.648279   -0.266110   -0.558070
  H      2.104764   -2.189606   -0.513480
  H     -0.257762   -1.869162    0.071233

 Total Charge           Charge          ....    0
 Multiplicity           Mult            ....    1
 Number of Electrons    NEL             ....   66
 Basis Dimension        Dim             ....  146

ORBITAL ENERGIES
----------------

  NO   OCC          E(Eh)            E(eV)
   0   2.0000     -18.763920      -510.5922
   1   2.0000      -9.944364      -270.5999
   2   2.0000      -9.940275      -270.4886
   3   2.0000      -9.894107      -269.2323
   4   2.0000      -9.893339      -269.2114
   5   2.0000      -9.890526      -269.1349
   6   2.0000      -9.889619      -269.1102
   7   2.0000      -9.887962      -269.0651
   8   2.0000      -9.882221      -268.9089
   9   2.0000      -0.945865       -25.7383
  10   2.0000      -0.772636       -21.0245
  11   2.0000      -0.693287       -18.8653
  12   2.0000      -0.671760       -18.2795
  13   2.0000      -0.652576       -17.7575
  14   2.0000      -0.572665       -15.5830
  15   2.0000      -0.546545       -14.8722
  16   2.0000      -0.521199       -14.1826
  17   2.0000      -0.475299       -12.9335
  18   2.0000      -0.437900       -11.9159
  19   2.0000      -0.428373       -11.6566
  20   2.0000      -0.412351       -11.2206
  21   2.0000      -0.391681       -10.6582
  22   2.0000      -0.378007       -10.2861
  23   2.0000      -0.371932       -10.1208
  24   2.0000      -0.354990        -9.6598
  25   2.0000      -0.342592        -9.3224
  26   2.0000      -0.324552        -8.8315
  27   2.0000      -0.319150        -8.6845
  28   2.0000      -0.304176        -8.2771
  29   2.0000      -0.281662        -7.6644
  30   2.0000      -0.232230        -6.3193
  31   2.0000      -0.229659        -6.2493
  32   2.0000      -0.205367        -5.5883
  33   0.0000      -0.035301        -0.9606
  34   0.0000      -0.028554        -0.7770
  35   0.0000       0.039588         1.0772
  36   0.0000       0.051535         1.4023
  37   0.0000       0.069775         1.8987

MULLIKEN ATOMIC CHARGES
-----------------------
   0 C :   -0.300343
   1 C :    0.007269
   2 O :   -0.303388
   3 C :    0.222452
   4 C :   -0.103128
   5 C :   -0.054541
   6 C :   -0.041585
   7 C :   -0.055434
   8 C :   -0.136873
   9 H :    0.104579
  10 H :    0.117519
  11 H :    0.114155
  12 H :    0.096518
  13 H :    0.084192
  14 H :    0.041484
  15 H :    0.054424
  16 H :    0.051448
  17 H :    0.052514
  18 H :    0.048737
Sum of atomic charges:   -0.0000000

LOEWDIN ATOMIC CHARGES
----------------------
   0 C :   -0.365509
   1 C :   -0.105091
   2 O :   -0.124965
   3 C :    0.031538
   4 C :   -0.136962
   5 C :   -0.118524
   6 C :   -0.135571
   7 C :   -0.118554
   8 C :   -0.148087
   9 H :    0.127237
  10 H :    0.119841
  11 H :    0.126421
  12 H :    0.114260
  13 H :    0.105862
  14 H :    0.128770
  15 H :    0.124422
  16 H :    0.123130
  17 H :    0.123904
  18 H :    0.127880

  Mayer bond orders larger than 0.100000
B(  0-C ,  1-C ) :   1.1572 B(  0-C ,  9-H ) :   0.9382 B(  0-C , 10-H ) :   0.9385
B(  0-C , 11-H ) :   0.9475 B(  1-C ,  2-O ) :   0.9859 B(  1-C , 12-H ) :   0.9404
B(  1-C , 13-H ) :   0.9163 B(  2-O ,  3-C ) :   1.0525 B(  3-C ,  4-C ) :   1.3898
B(  3-C ,  8-C ) :   1.3591 B(  4-C ,  5-C ) :   1.3508 B(  4-C , 14-H ) :   0.9647
B(  5-C ,  6-C ) :   1.3727 B(  5-C , 15-H ) :   0.9625 B(  6-C ,  7-C ) :   1.3805
B(  6-C , 16-H ) :   0.9670 B(  7-C ,  8-C ) :   1.3547 B(  7-C , 17-H ) :   0.9611
B(  8-C , 18-H ) :   0.9556

Dispersion correction           -0.018308332
FINAL SINGLE POINT ENERGY      -385.223011392555

DIPOLE MOMENT
-------------

Method             : SCF
Type of density    : Electron Density
Multiplicity       :   1
Irrep              :   0
Energy             :  -385.2822704112103906 Eh
Relativity type    :
Basis              : AO
                                X                 Y                 Z
Electronic contribution:      5.164781871       2.463060509       2.418794309
Nuclear contribution   :     -5.329922172      -2.607335773      -2.862631983
                        -----------------------------------------
Total Dipole Moment    :     -0.165140301      -0.144275264      -0.443837674
                        -----------------------------------------
Magnitude (a.u.)       :      0.495054090
Magnitude (Debye)      :      1.258327496

Rotational constants in cm-1:             0.129948             0.035650             0.029372
Rotational constants in MHz :          3895.730970          1068.761554           880.542136

                             ****ORCA TERMINATED NORMALLY****
TOTAL RUN TIME: 0 days 0 hours 0 minutes 10 seconds 280 msec
