                         Program Version 6.0.0  -   RELEASE  -
|  1> ! r2scan-3c def2/J RI DEFGRID2 scfconv6 printgap
|  2> %output
|  3>     printlevel normal
|  4> end
|  5> * xyz 0 1
|  6> C -2.5480489891 0.2302620872 0.8821477386
|  7> C -1.7398866846 0.6749892189 -0.340817228
|  8> C -0.5071912005 -0.1837409621 -0.4541062629
|  9> O -0.4456062432 -1.229659652 -1.0688112072
| 10> O 0.5052312578 0.3254626289 0.2305859411
| 11> C 1.751952268 -0.3904181126 0.2619094311
| 12> C 2.8790521085 0.6103862267 0.437171467
| 13> H -1.9650027472 0.3661017221 1.7894126312
| 14> H -3.4559745809 0.8210285899 0.9555588891
| 15> H -2.818142325 -0.8194112967 0.7927371535
| 16> H -1.4377433149 1.7149379738 -0.2290024322
| 17> H -2.3337143806 0.5473350087 -1.2451045211
| 18> H 1.7114328887 -1.0938281935 1.0993319238
| 19> H 1.8488012371 -0.9590592207 -0.6685412267
| 20> H 2.7292277285 1.1800559142 1.3495621806
| 21> H 3.8236184618 0.0796001045 0.4959772687
| 22> H 2.9068341299 1.2969948209 -0.4042336661
| 23> *
| 24>
| 25>                          ****END OF INPUT****

CARTESIAN COORDINATES (ANGSTROEM)
---------------------------------
  C     -2.548049    0.230262    0.882148
  C     -1.739887    0.674989   -0.340817
  C     -0.507191   -0.183741   -0.454106
  O     -0.445606   -1.229660   -1.068811
  O      0.505231    0.325463    0.230586
  C      1.751952   -0.390418    0.261909
  C      2.879052    0.610386    0.437171
  H     -1.965003    0.366102    1.789413
  H     -3.455975    0.821029    0.955559
  H     -2.818142   -0.819411    0.792737
  H     -1.437743    1.714938   -0.229002
  H     -2.333714    0.547335   -1.245105
  H      1.711433   -1.093828    1.099332
  H      1.848801   -0.959059   -0.668541
  H      2.729228    1.180056    1.349562
  H      3.823618    0.079600    0.495977
  H      2.906834    1.296995   -0.404234

 Total Charge           Charge          ....    0
 Multiplicity           Mult            ....    1
 Number of Electrons    NEL             ....   56
 Basis Dimension        Dim             ....  193

ORBITAL ENERGIES
----------------

  NO   OCC          E(Eh)            E(eV)
   0   2.0000     -18.996669      -516.9256
   1   2.0000     -18.925529      -514.9898
   2   2.0000     -10.150314      -276.2041
   3   2.0000     -10.090932      -274.5882
   4   2.0000     -10.042853      -273.2799
   5   2.0000     -10.032300      -272.9928
   6   2.0000     -10.031650      -272.9751
   7   2.0000      -1.071271       -29.1508
   8   2.0000      -0.973274       -26.4841
   9   2.0000      -0.766732       -20.8638
  10   2.0000      -0.733319       -19.9546
  11   2.0000      -0.639537       -17.4027
  12   2.0000      -0.594009       -16.1638
  13   2.0000      -0.533137       -14.5074
  14   2.0000      -0.472912       -12.8686
  15   2.0000      -0.453137       -12.3305
  16   2.0000      -0.436860       -11.8876
  17   2.0000      -0.411851       -11.2070
  18   2.0000      -0.409204       -11.1350
  19   2.0000      -0.375031       -10.2051
  20   2.0000      -0.370015       -10.0686
  21   2.0000      -0.359249        -9.7757
  22   2.0000      -0.338935        -9.2229
  23   2.0000      -0.326922        -8.8960
  24   2.0000      -0.322938        -8.7876
  25   2.0000      -0.309639        -8.4257
  26   2.0000      -0.270264        -7.3543
  27   2.0000      -0.232009        -6.3133
  28   0.0000      -0.013344        -0.3631
  29   0.0000       0.073710         2.0057
  30   0.0000       0.096107         2.6152
  31   0.0000       0.118824         3.2334
  32   0.0000       0.124787         3.3956

MULLIKEN ATOMIC CHARGES
-----------------------
   0 C :   -0.471023
   1 C :   -0.295449
   2 C :    0.411060
   3 O :   -0.432019
   4 O :   -0.172694
   5 C :   -0.154147
   6 C :   -0.441835
   7 H :    0.153377
   8 H :    0.153514
   9 H :    0.162056
  10 H :    0.153055
  11 H :    0.160834
  12 H :    0.144766
  13 H :    0.177218
  14 H :    0.151905
  15 H :    0.146767
  16 H :    0.152615
Sum of atomic charges:   -0.0000000

LOEWDIN ATOMIC CHARGES
----------------------
   0 C :   -0.392300
   1 C :   -0.236867
   2 C :    0.355390
   3 O :   -0.433917
   4 O :   -0.597913
   5 C :    0.032846
   6 C :   -0.387009
   7 H :    0.156628
   8 H :    0.153070
   9 H :    0.160311
  10 H :    0.173395
  11 H :    0.174771
  12 H :    0.174412
  13 H :    0.190459
  14 H :    0.158620
  15 H :    0.159380
  16 H :    0.158722

  Mayer bond orders larger than 0.100000
B(  0-C ,  1-C ) :   0.8996 B(  0-C ,  7-H ) :   0.9772 B(  0-C ,  8-H ) :   0.9705
B(  0-C ,  9-H ) :   0.9747 B(  1-C ,  2-C ) :   0.9509 B(  1-C , 10-H ) :   0.9750
B(  1-C , 11-H ) :   0.9714 B(  2-C ,  3-O ) :   1.8322 B(  2-C ,  4-O ) :   1.0643
B(  4-O ,  5-C ) :   0.7865 B(  5-C ,  6-C ) :   0.9485 B(  5-C , 12-H ) :   0.9448
B(  5-C , 13-H ) :   0.9649 B(  6-C , 14-H ) :   0.9687 B(  6-C , 15-H ) :   0.9675
B(  6-C , 16-H ) :   0.9745

Dispersion correction           -0.003889760
FINAL SINGLE POINT ENERGY      -346.935208428873

DIPOLE MOMENT
-------------

Method             : SCF
Type of density    : Electron Density
Multiplicity       :   1
Irrep              :   0
Energy             :  -346.9416979352017165 Eh
Relativity type    :
Basis              : AO
                                X                 Y                 Z
Electronic contribution:     -0.664212545      -2.291093513      -3.139371004
Nuclear contribution   :      0.947810970       2.926580789       3.679915308
                        -----------------------------------------
Total Dipole Moment    :      0.283598425       0.635487275       0.540544304
                        -----------------------------------------
Magnitude (a.u.)       :      0.881169841
Magnitude (Debye)      :      2.239755739

Rotational constants in cm-1:             0.179526             0.047855             0.041895
Rotational constants in MHz :          5382.058507          1434.656381          1255.991254

                             ****ORCA TERMINATED NORMALLY****
TOTAL RUN TIME: 0 days 0 hours 0 minutes 22 seconds 435 msec
