                         Program Version 6.0.0  -   RELEASE  -
|  1> ! r2scan-3c def2/J RI DEFGRID2 scfconv6 printgap
|  2> %output
|  3>     printlevel normal
|  4> end
|  5> %cpcm
|  6>     smd true
|  7>     smdsolvent "water"
|  8> end
|  9> * xyz 0 1
| 10> C -2.5480489891 0.2302620872 0.8821477386
| 11> C -1.7398866846 0.6749892189 -0.340817228
| 12> C -0.5071912005 -0.1837409621 -0.4541062629
| 13> O -0.4456062432 -1.229659652 -1.0688112072
| 14> O 0.5052312578 0.3254626289 0.2305859411
| 15> C 1.751952268 -0.3904181126 0.2619094311
| 16> C 2.8790521085 0.6103862267 0.437171467
| 17> H -1.9650027472 0.3661017221 1.7894126312
| 18> H -3.4559745809 0.8210285899 0.9555588891
| 19> H -2.818142325 -0.8194112967 0.7927371535
| 20> H -1.4377433149 1.7149379738 -0.2290024322
| 21> H -2.3337143806 0.5473350087 -1.2451045211
| 22> H 1.7114328887 -1.0938281935 1.0993319238
| 23> H 1.8488012371 -0.9590592207 -0.6685412267
| 24> H 2.7292277285 1.1800559142 1.3495621806
| 25> H 3.8236184618 0.0796001045 0.4959772687
| 26> H 2.9068341299 1.2969948209 -0.4042336661
| 27> *
| 28>
| 29>                          ****END OF INPUT****

CARTESIAN COORDINATES (ANGSTROEM)
---------------------------------
  C     -2.548049    0.230262    0.882148
  C     -1.739887    0.674989   -0.340817
  C     -0.507191   -0.183741   -0.454106
  O     -0.445606   -1.229660   -1.068811
  O      0.505231    0.325463    0.230586
  C      1.751952   -0.390418    0.261909
  C      2.879052    0.610386    0.437171
  H     -1.965003    0.366102    1.789413
  H     -3.455975    0.821029    0.955559
  H     -2.818142   -0.819411    0.792737
  H     -1.437743    1.714938   -0.229002
  H     -2.333714    0.547335   -1.245105
  H      1.711433   -1.093828    1.099332
  H      1.848801   -0.959059   -0.668541
  H      2.729228    1.180056    1.349562
  H      3.823618    0.079600    0.495977
  H      2.906834    1.296995   -0.404234

 Total Charge           Charge          ....    0
 Multiplicity           Mult            ....    1
 Number of Electrons    NEL             ....   56
 Basis Dimension        Dim             ....  193

ORBITAL ENERGIES
----------------

  NO   OCC          E(Eh)            E(eV)
   0   2.0000     -19.002642      -517.0882
   1   2.0000     -18.942637      -515.4554
   2   2.0000     -10.161805      -276.5168
   3   2.0000     -10.083193      -274.3776
   4   2.0000     -10.037377      -273.1309
   5   2.0000     -10.022469      -272.7252
   6   2.0000     -10.018703      -272.6228
   7   2.0000      -1.079031       -29.3619
   8   2.0000      -0.988128       -26.8883
   9   2.0000      -0.762472       -20.7479
  10   2.0000      -0.724952       -19.7270
  11   2.0000      -0.633330       -17.2338
  12   2.0000      -0.587030       -15.9739
  13   2.0000      -0.531662       -14.4673
  14   2.0000      -0.472796       -12.8654
  15   2.0000      -0.459468       -12.5027
  16   2.0000      -0.439273       -11.9532
  17   2.0000      -0.410645       -11.1742
  18   2.0000      -0.407245       -11.0817
  19   2.0000      -0.369724       -10.0607
  20   2.0000      -0.361724        -9.8430
  21   2.0000      -0.350699        -9.5430
  22   2.0000      -0.332644        -9.0517
  23   2.0000      -0.322887        -8.7862
  24   2.0000      -0.319022        -8.6810
  25   2.0000      -0.309687        -8.4270
  26   2.0000      -0.276963        -7.5365
  27   2.0000      -0.249033        -6.7765
  28   0.0000      -0.022205        -0.6042
  29   0.0000       0.077081         2.0975
  30   0.0000       0.105565         2.8726
  31   0.0000       0.127741         3.4760
  32   0.0000       0.133097         3.6218

MULLIKEN ATOMIC CHARGES
-----------------------
   0 C :   -0.492186
   1 C :   -0.310410
   2 C :    0.449560
   3 O :   -0.519464
   4 O :   -0.187955
   5 C :   -0.149600
   6 C :   -0.487171
   7 H :    0.165364
   8 H :    0.173140
   9 H :    0.165346
  10 H :    0.173827
  11 H :    0.174675
  12 H :    0.171438
  13 H :    0.175266
  14 H :    0.164304
  15 H :    0.168387
  16 H :    0.165478
Sum of atomic charges:   -0.0000000

LOEWDIN ATOMIC CHARGES
----------------------
   0 C :   -0.393787
   1 C :   -0.233908
   2 C :    0.364794
   3 O :   -0.496884
   4 O :   -0.598016
   5 C :    0.036696
   6 C :   -0.390122
   7 H :    0.160538
   8 H :    0.160647
   9 H :    0.160698
  10 H :    0.182544
  11 H :    0.180101
  12 H :    0.184173
  13 H :    0.190534
  14 H :    0.162169
  15 H :    0.168060
  16 H :    0.161763

  Mayer bond orders larger than 0.100000
B(  0-C ,  1-C ) :   0.8897 B(  0-C ,  7-H ) :   0.9728 B(  0-C ,  8-H ) :   0.9652
B(  0-C ,  9-H ) :   0.9723 B(  1-C ,  2-C ) :   0.9509 B(  1-C , 10-H ) :   0.9660
B(  1-C , 11-H ) :   0.9670 B(  2-C ,  3-O ) :   1.7590 B(  2-C ,  4-O ) :   1.0925
B(  4-O ,  5-C ) :   0.7742 B(  5-C ,  6-C ) :   0.9456 B(  5-C , 12-H ) :   0.9360
B(  5-C , 13-H ) :   0.9602 B(  6-C , 14-H ) :   0.9659 B(  6-C , 15-H ) :   0.9612
B(  6-C , 16-H ) :   0.9728

Dispersion correction           -0.003889760
FINAL SINGLE POINT ENERGY      -346.940658665062

DIPOLE MOMENT
-------------

Method             : SCF
Type of density    : Electron Density
Multiplicity       :   1
Irrep              :   0
Energy             :  -346.9471481713907224 Eh
Relativity type    :
Basis              : AO
                                X                 Y                 Z
Electronic contribution:     -0.581723109      -2.031448571      -2.928095361
Nuclear contribution   :      0.947810970       2.926580789       3.679915308
                        -----------------------------------------
Total Dipole Moment    :      0.366087861       0.895132218       0.751819947
                        -----------------------------------------
Magnitude (a.u.)       :      1.224955200
Magnitude (Debye)      :      3.113588677

Rotational constants in cm-1:             0.179526             0.047855             0.041895
Rotational constants in MHz :          5382.058507          1434.656381          1255.991254

                             ****ORCA TERMINATED NORMALLY****
TOTAL RUN TIME: 0 days 0 hours 0 minutes 25 seconds 599 msec
