                         Program Version 6.0.0  -   RELEASE  -
|  1> ! r2scan-3c def2/J RI DEFGRID2 scfconv6 printgap
|  2> %output
|  3>     printlevel normal
|  4> end
|  5> * xyz 0 1
|  6> C 1.9772445911 -0.8237427837 -0.0299422625
|  7> C 1.3294389418 0.5318776207 0.2298490805
|  8> C -0.0497983176 0.6496094121 -0.4195899382
|  9> C -1.0965216674 -0.1788909244 0.2662846138
| 10> C -2.3841419824 -0.1363738447 -0.0229047613
| 11> H 1.3542086112 -1.6312364907 0.3467341074
| 12> H 2.9466475231 -0.8824662944 0.4592661839
| 13> H 2.1210159078 -0.9760284254 -1.0975758326
| 14> H 1.2365100454 0.6952709356 1.3059106265
| 15> H 1.9772066456 1.3159399925 -0.1683252379
| 16> H 0.0214311736 0.3424908075 -1.4671317731
| 17> H -0.3674873319 1.6955137171 -0.4152659255
| 18> H -0.7452796137 -0.8380813597 1.0486011964
| 19> H -3.107683696 -0.7388205035 0.4989776609
| 20> H -2.7700001475 0.5112273371 -0.7935639471
| 21> *
| 22>
| 23>                          ****END OF INPUT****

CARTESIAN COORDINATES (ANGSTROEM)
---------------------------------
  C      1.977245   -0.823743   -0.029942
  C      1.329439    0.531878    0.229849
  C     -0.049798    0.649609   -0.419590
  C     -1.096522   -0.178891    0.266285
  C     -2.384142   -0.136374   -0.022905
  H      1.354209   -1.631236    0.346734
  H      2.946648   -0.882466    0.459266
  H      2.121016   -0.976028   -1.097576
  H      1.236510    0.695271    1.305911
  H      1.977207    1.315940   -0.168325
  H      0.021431    0.342491   -1.467132
  H     -0.367487    1.695514   -0.415266
  H     -0.745280   -0.838081    1.048601
  H     -3.107684   -0.738821    0.498978
  H     -2.770000    0.511227   -0.793564

 Total Charge           Charge          ....    0
 Multiplicity           Mult            ....    1
 Number of Electrons    NEL             ....   40
 Basis Dimension        Dim             ....  145

ORBITAL ENERGIES
----------------

  NO   OCC          E(Eh)            E(eV)
   0   2.0000     -10.031903      -272.9819
   1   2.0000     -10.029300      -272.9111
   2   2.0000     -10.028137      -272.8795
   3   2.0000     -10.017559      -272.5916
   4   2.0000     -10.015133      -272.5256
   5   2.0000      -0.775812       -21.1109
   6   2.0000      -0.720806       -19.6141
   7   2.0000      -0.645435       -17.5632
   8   2.0000      -0.562080       -15.2950
   9   2.0000      -0.522092       -14.2069
  10   2.0000      -0.432253       -11.7622
  11   2.0000      -0.426687       -11.6107
  12   2.0000      -0.406058       -11.0494
  13   2.0000      -0.371797       -10.1171
  14   2.0000      -0.366308        -9.9678
  15   2.0000      -0.329149        -8.9566
  16   2.0000      -0.314324        -8.5532
  17   2.0000      -0.303050        -8.2464
  18   2.0000      -0.292995        -7.9728
  19   2.0000      -0.231562        -6.3011
  20   0.0000      -0.016008        -0.4356
  21   0.0000       0.095834         2.6078
  22   0.0000       0.110564         3.0086
  23   0.0000       0.119435         3.2500
  24   0.0000       0.134442         3.6583

MULLIKEN ATOMIC CHARGES
-----------------------
   0 C :   -0.476911
   1 C :   -0.266798
   2 C :   -0.209797
   3 C :   -0.152393
   4 C :   -0.348533
   5 H :    0.147336
   6 H :    0.147333
   7 H :    0.143389
   8 H :    0.141227
   9 H :    0.142400
  10 H :    0.149820
  11 H :    0.155304
  12 H :    0.150888
  13 H :    0.140147
  14 H :    0.136589
Sum of atomic charges:    0.0000000

LOEWDIN ATOMIC CHARGES
----------------------
   0 C :   -0.424463
   1 C :   -0.316198
   2 C :   -0.307572
   3 C :   -0.199352
   4 C :   -0.314959
   5 H :    0.149987
   6 H :    0.150937
   7 H :    0.150238
   8 H :    0.153187
   9 H :    0.152765
  10 H :    0.165935
  11 H :    0.166138
  12 H :    0.161293
  13 H :    0.156668
  14 H :    0.155394

  Mayer bond orders larger than 0.100000
B(  0-C ,  1-C ) :   0.9111 B(  0-C ,  5-H ) :   0.9812 B(  0-C ,  6-H ) :   0.9717
B(  0-C ,  7-H ) :   0.9789 B(  1-C ,  2-C ) :   0.8756 B(  1-C ,  8-H ) :   0.9831
B(  1-C ,  9-H ) :   0.9717 B(  2-C ,  3-C ) :   0.9055 B(  2-C , 10-H ) :   0.9759
B(  2-C , 11-H ) :   0.9674 B(  3-C ,  4-C ) :   1.9443 B(  3-C , 12-H ) :   0.9459
B(  4-C , 13-H ) :   0.9636 B(  4-C , 14-H ) :   0.9817

Dispersion correction           -0.003273808
FINAL SINGLE POINT ENERGY      -196.454530599581

DIPOLE MOMENT
-------------

Method             : SCF
Type of density    : Electron Density
Multiplicity       :   1
Irrep              :   0
Energy             :  -196.4571066487357598 Eh
Relativity type    :
Basis              : AO
                                X                 Y                 Z
Electronic contribution:     -2.326077844       0.552881807       0.230735112
Nuclear contribution   :      2.501699030      -0.474893275      -0.264914233
                        -----------------------------------------
Total Dipole Moment    :      0.175621186       0.077988531      -0.034179121
                        -----------------------------------------
Magnitude (a.u.)       :      0.195174856
Magnitude (Debye)      :      0.496095058

Rotational constants in cm-1:             0.429031             0.084121             0.076948
Rotational constants in MHz :         12862.022088          2521.870920          2306.834080

                             ****ORCA TERMINATED NORMALLY****
TOTAL RUN TIME: 0 days 0 hours 0 minutes 13 seconds 599 msec
