                         Program Version 6.0.0  -   RELEASE  -
|  1> ! r2scan-3c def2/J RI DEFGRID2 scfconv6 printgap
|  2> %output
|  3>     printlevel normal
|  4> end
|  5> %cpcm
|  6>     smd true
|  7>     smdsolvent "water"
|  8> end
|  9> * xyz 0 1
| 10> C 1.9772445911 -0.8237427837 -0.0299422625
| 11> C 1.3294389418 0.5318776207 0.2298490805
| 12> C -0.0497983176 0.6496094121 -0.4195899382
| 13> C -1.0965216674 -0.1788909244 0.2662846138
| 14> C -2.3841419824 -0.1363738447 -0.0229047613
| 15> H 1.3542086112 -1.6312364907 0.3467341074
| 16> H 2.9466475231 -0.8824662944 0.4592661839
| 17> H 2.1210159078 -0.9760284254 -1.0975758326
| 18> H 1.2365100454 0.6952709356 1.3059106265
| 19> H 1.9772066456 1.3159399925 -0.1683252379
| 20> H 0.0214311736 0.3424908075 -1.4671317731
| 21> H -0.3674873319 1.6955137171 -0.4152659255
| 22> H -0.7452796137 -0.8380813597 1.0486011964
| 23> H -3.107683696 -0.7388205035 0.4989776609
| 24> H -2.7700001475 0.5112273371 -0.7935639471
| 25> *
| 26>
| 27>                          ****END OF INPUT****

CARTESIAN COORDINATES (ANGSTROEM)
---------------------------------
  C      1.977245   -0.823743   -0.029942
  C      1.329439    0.531878    0.229849
  C     -0.049798    0.649609   -0.419590
  C     -1.096522   -0.178891    0.266285
  C     -2.384142   -0.136374   -0.022905
  H      1.354209   -1.631236    0.346734
  H      2.946648   -0.882466    0.459266
  H      2.121016   -0.976028   -1.097576
  H      1.236510    0.695271    1.305911
  H      1.977207    1.315940   -0.168325
  H      0.021431    0.342491   -1.467132
  H     -0.367487    1.695514   -0.415266
  H     -0.745280   -0.838081    1.048601
  H     -3.107684   -0.738821    0.498978
  H     -2.770000    0.511227   -0.793564

 Total Charge           Charge          ....    0
 Multiplicity           Mult            ....    1
 Number of Electrons    NEL             ....   40
 Basis Dimension        Dim             ....  145

ORBITAL ENERGIES
----------------

  NO   OCC          E(Eh)            E(eV)
   0   2.0000     -10.029888      -272.9271
   1   2.0000     -10.021622      -272.7022
   2   2.0000     -10.018886      -272.6278
   3   2.0000     -10.012041      -272.4415
   4   2.0000     -10.008146      -272.3355
   5   2.0000      -0.770045       -20.9540
   6   2.0000      -0.715770       -19.4771
   7   2.0000      -0.638953       -17.3868
   8   2.0000      -0.554917       -15.1001
   9   2.0000      -0.516489       -14.0544
  10   2.0000      -0.426515       -11.6061
  11   2.0000      -0.419344       -11.4109
  12   2.0000      -0.399697       -10.8763
  13   2.0000      -0.364313        -9.9134
  14   2.0000      -0.359751        -9.7893
  15   2.0000      -0.321904        -8.7595
  16   2.0000      -0.306349        -8.3362
  17   2.0000      -0.294875        -8.0240
  18   2.0000      -0.285321        -7.7640
  19   2.0000      -0.232276        -6.3206
  20   0.0000      -0.016002        -0.4354
  21   0.0000       0.104004         2.8301
  22   0.0000       0.118524         3.2252
  23   0.0000       0.126036         3.4296
  24   0.0000       0.141333         3.8459

MULLIKEN ATOMIC CHARGES
-----------------------
   0 C :   -0.519350
   1 C :   -0.263086
   2 C :   -0.224622
   3 C :   -0.185893
   4 C :   -0.421815
   5 H :    0.159282
   6 H :    0.157158
   7 H :    0.155285
   8 H :    0.148105
   9 H :    0.152575
  10 H :    0.165339
  11 H :    0.169478
  12 H :    0.180237
  13 H :    0.164935
  14 H :    0.162371
Sum of atomic charges:    0.0000000

LOEWDIN ATOMIC CHARGES
----------------------
   0 C :   -0.432841
   1 C :   -0.316942
   2 C :   -0.310795
   3 C :   -0.204841
   4 C :   -0.340029
   5 H :    0.152695
   6 H :    0.153328
   7 H :    0.152734
   8 H :    0.155372
   9 H :    0.155683
  10 H :    0.170935
  11 H :    0.170609
  12 H :    0.169719
  13 H :    0.162352
  14 H :    0.162020

  Mayer bond orders larger than 0.100000
B(  0-C ,  1-C ) :   0.8997 B(  0-C ,  5-H ) :   0.9791 B(  0-C ,  6-H ) :   0.9690
B(  0-C ,  7-H ) :   0.9768 B(  1-C ,  2-C ) :   0.8687 B(  1-C ,  8-H ) :   0.9824
B(  1-C ,  9-H ) :   0.9714 B(  2-C ,  3-C ) :   0.8958 B(  2-C , 10-H ) :   0.9735
B(  2-C , 11-H ) :   0.9657 B(  3-C ,  4-C ) :   1.9087 B(  3-C , 12-H ) :   0.9419
B(  4-C , 13-H ) :   0.9652 B(  4-C , 14-H ) :   0.9790

Dispersion correction           -0.003273808
FINAL SINGLE POINT ENERGY      -196.452839645720

DIPOLE MOMENT
-------------

Method             : SCF
Type of density    : Electron Density
Multiplicity       :   1
Irrep              :   0
Energy             :  -196.4554156948748016 Eh
Relativity type    :
Basis              : AO
                                X                 Y                 Z
Electronic contribution:     -2.259260856       0.578288439       0.224620284
Nuclear contribution   :      2.501699030      -0.474893275      -0.264914233
                        -----------------------------------------
Total Dipole Moment    :      0.242438173       0.103395164      -0.040293949
                        -----------------------------------------
Magnitude (a.u.)       :      0.266627887
Magnitude (Debye)      :      0.677714230

Rotational constants in cm-1:             0.429031             0.084121             0.076948
Rotational constants in MHz :         12862.022088          2521.870920          2306.834080

                             ****ORCA TERMINATED NORMALLY****
TOTAL RUN TIME: 0 days 0 hours 0 minutes 14 seconds 448 msec
