                         Program Version 6.0.0  -   RELEASE  -
|  1> ! pbe def2-sv(p) def2/J RI DEFGRID1 loosescf d4 GCP(DFT/SV(P)) printgap
|  2> %output
|  3>     printlevel normal
|  4> end
|  5> * xyz 0 1
|  6> C 2.1830234928 -0.7731839862 0.5446535472
|  7> C 1.4214151705 0.4282599066 -0.0055948382
|  8> C 0.3238539087 0.0492719013 -1.0086854288
|  9> C -1.0871037933 -0.0169431971 -0.4085412484
| 10> H -1.7784977963 -0.2862682323 -1.2268787126
| 11> C -1.2298373958 -1.0517518682 0.7059836913
| 12> O -1.4127235789 1.287242421 0.0499063607
| 13> H 2.6705266613 -1.3112561133 -0.2655865879
| 14> H 1.5225652592 -1.4616657641 1.0627991303
| 15> H 2.9485795265 -0.4419659766 1.2427296443
| 16> H 0.971607969 0.9977492986 0.8091070081
| 17> H 2.1367504718 1.0882506236 -0.5001305377
| 18> H 0.2870784298 0.802103218 -1.7982494601
| 19> H 0.5515480611 -0.9119504161 -1.47042525
| 20> H -2.2713774929 -1.1376088631 1.0094702437
| 21> H -0.892838662 -2.0222548343 0.3543682348
| 22> H -0.6411790892 -0.756387582 1.570031218
| 23> H -2.2814394286 1.266305097 0.4724471056
| 24> *
| 25>
| 26>                          ****END OF INPUT****

CARTESIAN COORDINATES (ANGSTROEM)
---------------------------------
  C      2.183023   -0.773184    0.544654
  C      1.421415    0.428260   -0.005595
  C      0.323854    0.049272   -1.008685
  C     -1.087104   -0.016943   -0.408541
  H     -1.778498   -0.286268   -1.226879
  C     -1.229837   -1.051752    0.705984
  O     -1.412724    1.287242    0.049906
  H      2.670527   -1.311256   -0.265587
  H      1.522565   -1.461666    1.062799
  H      2.948580   -0.441966    1.242730
  H      0.971608    0.997749    0.809107
  H      2.136750    1.088251   -0.500131
  H      0.287078    0.802103   -1.798249
  H      0.551548   -0.911950   -1.470425
  H     -2.271377   -1.137609    1.009470
  H     -0.892839   -2.022255    0.354368
  H     -0.641179   -0.756388    1.570031
  H     -2.281439    1.266305    0.472447

 Total Charge           Charge          ....    0
 Multiplicity           Mult            ....    1
 Number of Electrons    NEL             ....   50
 Basis Dimension        Dim             ....  108

ORBITAL ENERGIES
----------------

  NO   OCC          E(Eh)            E(eV)
   0   2.0000     -18.738114      -509.8900
   1   2.0000      -9.935329      -270.3540
   2   2.0000      -9.876291      -268.7476
   3   2.0000      -9.876230      -268.7459
   4   2.0000      -9.874193      -268.6904
   5   2.0000      -9.867801      -268.5165
   6   2.0000      -0.915340       -24.9077
   7   2.0000      -0.712673       -19.3928
   8   2.0000      -0.662576       -18.0296
   9   2.0000      -0.612825       -16.6758
  10   2.0000      -0.541977       -14.7480
  11   2.0000      -0.500643       -13.6232
  12   2.0000      -0.451354       -12.2820
  13   2.0000      -0.417742       -11.3673
  14   2.0000      -0.392588       -10.6829
  15   2.0000      -0.371560       -10.1107
  16   2.0000      -0.365124        -9.9355
  17   2.0000      -0.343751        -9.3539
  18   2.0000      -0.335946        -9.1415
  19   2.0000      -0.322226        -8.7682
  20   2.0000      -0.292202        -7.9512
  21   2.0000      -0.286151        -7.7866
  22   2.0000      -0.276940        -7.5359
  23   2.0000      -0.260894        -7.0993
  24   2.0000      -0.210297        -5.7225
  25   0.0000       0.022660         0.6166
  26   0.0000       0.057574         1.5667
  27   0.0000       0.068845         1.8734
  28   0.0000       0.077390         2.1059
  29   0.0000       0.086750         2.3606

MULLIKEN ATOMIC CHARGES
-----------------------
   0 C :   -0.291333
   1 C :   -0.190290
   2 C :   -0.128159
   3 C :    0.005780
   4 H :    0.056757
   5 C :   -0.279361
   6 O :   -0.426839
   7 H :    0.097023
   8 H :    0.099545
   9 H :    0.100436
  10 H :    0.104502
  11 H :    0.081642
  12 H :    0.086026
  13 H :    0.079262
  14 H :    0.092579
  15 H :    0.101809
  16 H :    0.116804
  17 H :    0.293816
Sum of atomic charges:   -0.0000000

LOEWDIN ATOMIC CHARGES
----------------------
   0 C :   -0.343930
   1 C :   -0.237926
   2 C :   -0.228910
   3 C :   -0.056112
   4 H :    0.094137
   5 C :   -0.356487
   6 O :   -0.334024
   7 H :    0.114757
   8 H :    0.113578
   9 H :    0.118051
  10 H :    0.118550
  11 H :    0.117319
  12 H :    0.122283
  13 H :    0.116299
  14 H :    0.113890
  15 H :    0.124074
  16 H :    0.123192
  17 H :    0.281260

  Mayer bond orders larger than 0.100000
B(  0-C ,  1-C ) :   1.1563 B(  0-C ,  7-H ) :   0.9526 B(  0-C ,  8-H ) :   0.9482
B(  0-C ,  9-H ) :   0.9526 B(  1-C ,  2-C ) :   1.0938 B(  1-C , 10-H ) :   0.9238
B(  1-C , 11-H ) :   0.9287 B(  2-C ,  3-C ) :   1.0978 B(  2-C , 12-H ) :   0.9144
B(  2-C , 13-H ) :   0.9239 B(  3-C ,  4-H ) :   0.9052 B(  3-C ,  5-C ) :   1.1137
B(  3-C ,  6-O ) :   1.0484 B(  5-C , 14-H ) :   0.9429 B(  5-C , 15-H ) :   0.9353
B(  5-C , 16-H ) :   0.9337 B(  6-O , 17-H ) :   0.8536

Dispersion correction           -0.013078540
FINAL SINGLE POINT ENERGY      -272.301838463515

DIPOLE MOMENT
-------------

Method             : SCF
Type of density    : Electron Density
Multiplicity       :   1
Irrep              :   0
Energy             :  -272.3715148797534766 Eh
Relativity type    :
Basis              : AO
                                X                 Y                 Z
Electronic contribution:     -3.415635588       3.525030290      -1.077049861
Nuclear contribution   :      3.003039798      -3.897682553       1.182528502
                        -----------------------------------------
Total Dipole Moment    :     -0.412595790      -0.372652264       0.105478641
                        -----------------------------------------
Magnitude (a.u.)       :      0.565889335
Magnitude (Debye)      :      1.438376379

Rotational constants in cm-1:             0.174546             0.075972             0.064885
Rotational constants in MHz :          5232.745969          2277.578723          1945.215049

                             ****ORCA TERMINATED NORMALLY****
TOTAL RUN TIME: 0 days 0 hours 0 minutes 7 seconds 458 msec
