                         Program Version 6.0.0  -   RELEASE  -
|  1> ! pbe def2-sv(p) def2/J RI DEFGRID1 loosescf d4 GCP(DFT/SV(P)) printgap
|  2> %output
|  3>     printlevel normal
|  4> end
|  5> * xyz 0 1
|  6> C 2.3958424746 0.9941005769 -0.0788202959
|  7> C 1.1593737448 0.1788499038 0.2923025408
|  8> C 1.4680628954 -1.3145652403 0.2447370865
|  9> C -0.0006246076 0.5261160932 -0.6656419005
| 10> C -1.2979244702 -0.0391994558 -0.1484282764
| 11> O -1.6957830477 -1.1465019387 -0.4586562238
| 12> C -2.0549021648 0.8530993378 0.789485237
| 13> H 2.1974108268 2.0593847011 0.0065968855
| 14> H 3.2206411353 0.7434124185 0.5833154225
| 15> H 2.698189056 0.7787939867 -1.1008355656
| 16> H 0.8605814784 0.4421778397 1.3127302941
| 17> H 0.5711119939 -1.9017479104 0.4305814494
| 18> H 2.2113136153 -1.5738700141 0.9945783918
| 19> H 1.8549936287 -1.5893815007 -0.7341334139
| 20> H 0.2156551427 0.0957236966 -1.6444830697
| 21> H -0.0820833847 1.6090643814 -0.7493304502
| 22> H -2.5149115846 1.6487719832 0.2063322745
| 23> H -2.8340573343 0.2955141345 1.3016805737
| 24> H -1.3790918992 1.3105471147 1.5061150499
| 25> *
| 26>
| 27>                          ****END OF INPUT****

CARTESIAN COORDINATES (ANGSTROEM)
---------------------------------
  C      2.395842    0.994101   -0.078820
  C      1.159374    0.178850    0.292303
  C      1.468063   -1.314565    0.244737
  C     -0.000625    0.526116   -0.665642
  C     -1.297924   -0.039199   -0.148428
  O     -1.695783   -1.146502   -0.458656
  C     -2.054902    0.853099    0.789485
  H      2.197411    2.059385    0.006597
  H      3.220641    0.743412    0.583315
  H      2.698189    0.778794   -1.100836
  H      0.860581    0.442178    1.312730
  H      0.571112   -1.901748    0.430581
  H      2.211314   -1.573870    0.994578
  H      1.854994   -1.589382   -0.734133
  H      0.215655    0.095724   -1.644483
  H     -0.082083    1.609064   -0.749330
  H     -2.514912    1.648772    0.206332
  H     -2.834057    0.295514    1.301681
  H     -1.379092    1.310547    1.506115

 Total Charge           Charge          ....    0
 Multiplicity           Mult            ....    1
 Number of Electrons    NEL             ....   56
 Basis Dimension        Dim             ....  122

ORBITAL ENERGIES
----------------

  NO   OCC          E(Eh)            E(eV)
   0   2.0000     -18.734247      -509.7848
   1   2.0000      -9.971328      -271.3336
   2   2.0000      -9.910913      -269.6897
   3   2.0000      -9.890008      -269.1208
   4   2.0000      -9.886355      -269.0214
   5   2.0000      -9.880520      -268.8626
   6   2.0000      -9.872605      -268.6472
   7   2.0000      -0.931622       -25.3507
   8   2.0000      -0.741977       -20.1902
   9   2.0000      -0.680722       -18.5234
  10   2.0000      -0.625637       -17.0244
  11   2.0000      -0.614955       -16.7338
  12   2.0000      -0.514185       -13.9917
  13   2.0000      -0.473506       -12.8847
  14   2.0000      -0.422543       -11.4980
  15   2.0000      -0.417800       -11.3689
  16   2.0000      -0.409238       -11.1359
  17   2.0000      -0.385381       -10.4868
  18   2.0000      -0.379684       -10.3317
  19   2.0000      -0.359865        -9.7924
  20   2.0000      -0.344677        -9.3791
  21   2.0000      -0.333162        -9.0658
  22   2.0000      -0.328985        -8.9521
  23   2.0000      -0.315133        -8.5752
  24   2.0000      -0.301147        -8.1946
  25   2.0000      -0.294538        -8.0148
  26   2.0000      -0.287348        -7.8191
  27   2.0000      -0.191554        -5.2124
  28   0.0000      -0.049140        -1.3372
  29   0.0000       0.026705         0.7267
  30   0.0000       0.053937         1.4677
  31   0.0000       0.070715         1.9242
  32   0.0000       0.083170         2.2632

MULLIKEN ATOMIC CHARGES
-----------------------
   0 C :   -0.217012
   1 C :   -0.239686
   2 C :   -0.247475
   3 C :   -0.091456
   4 C :   -0.010982
   5 O :   -0.173387
   6 C :   -0.254614
   7 H :    0.097209
   8 H :    0.103230
   9 H :    0.097037
  10 H :    0.081214
  11 H :    0.122865
  12 H :    0.099788
  13 H :    0.096329
  14 H :    0.090080
  15 H :    0.081561
  16 H :    0.127355
  17 H :    0.118413
  18 H :    0.119530
Sum of atomic charges:   -0.0000000

LOEWDIN ATOMIC CHARGES
----------------------
   0 C :   -0.327633
   1 C :   -0.147395
   2 C :   -0.332906
   3 C :   -0.237655
   4 C :    0.041839
   5 O :   -0.134884
   6 C :   -0.362137
   7 H :    0.116432
   8 H :    0.120183
   9 H :    0.119366
  10 H :    0.113708
  11 H :    0.125012
  12 H :    0.118425
  13 H :    0.119326
  14 H :    0.131101
  15 H :    0.122173
  16 H :    0.146655
  17 H :    0.134180
  18 H :    0.134211

  Mayer bond orders larger than 0.100000
B(  0-C ,  1-C ) :   1.1131 B(  0-C ,  7-H ) :   0.9480 B(  0-C ,  8-H ) :   0.9502
B(  0-C ,  9-H ) :   0.9476 B(  1-C ,  2-C ) :   1.1093 B(  1-C ,  3-C ) :   1.0634
B(  1-C , 10-H ) :   0.9037 B(  2-C , 11-H ) :   0.9392 B(  2-C , 12-H ) :   0.9486
B(  2-C , 13-H ) :   0.9490 B(  3-C ,  4-C ) :   1.0036 B(  3-C , 14-H ) :   0.8879
B(  3-C , 15-H ) :   0.9046 B(  4-C ,  5-O ) :   2.1572 B(  4-C ,  6-C ) :   1.0703
B(  6-C , 16-H ) :   0.9170 B(  6-C , 17-H ) :   0.9349 B(  6-C , 18-H ) :   0.9276

Dispersion correction           -0.014967811
FINAL SINGLE POINT ENERGY      -310.355627190230

DIPOLE MOMENT
-------------

Method             : SCF
Type of density    : Electron Density
Multiplicity       :   1
Irrep              :   0
Energy             :  -310.4201965161036014 Eh
Relativity type    :
Basis              : AO
                                X                 Y                 Z
Electronic contribution:     -6.146232758      -2.761878812      -1.678411478
Nuclear contribution   :      6.560531618       3.659090194       1.975677835
                        -----------------------------------------
Total Dipole Moment    :      0.414298860       0.897211382       0.297266357
                        -----------------------------------------
Magnitude (a.u.)       :      1.031987934
Magnitude (Debye)      :      2.623104867

Rotational constants in cm-1:             0.143791             0.054954             0.046119
Rotational constants in MHz :          4310.734651          1647.486514          1382.614404

                             ****ORCA TERMINATED NORMALLY****
TOTAL RUN TIME: 0 days 0 hours 0 minutes 9 seconds 570 msec
