                         Program Version 6.0.0  -   RELEASE  -
|  1> ! pbe def2-sv(p) def2/J RI DEFGRID1 loosescf d4 GCP(DFT/SV(P)) printgap
|  2> %output
|  3>     printlevel normal
|  4> end
|  5> * xyz 0 1
|  6> C 2.1033062732 -0.7694447266 -0.7427560002
|  7> C 1.4754285625 -0.4545284674 0.6120789113
|  8> C 0.2019713514 0.406060755 0.5457751619
|  9> H -0.1820836964 0.5190670446 1.5677069626
| 10> C -0.9225384473 -0.181074971 -0.3312123719
| 11> C -1.2790623293 -1.6091906471 0.0738593982
| 12> C -2.1610569155 0.7102928555 -0.2308494074
| 13> O 0.5103506058 1.7330648016 0.15020033
| 14> H 2.3662815027 0.1414635657 -1.2754855972
| 15> H 1.4313972528 -1.3557148576 -1.3636896151
| 16> H 3.0151708508 -1.3428903368 -0.5951687691
| 17> H 1.2430652866 -1.3817817042 1.1348950746
| 18> H 2.1988070035 0.0949635131 1.2194448233
| 19> H -0.5821001646 -0.1778467408 -1.3725771753
| 20> H -1.5154192832 -1.651667285 1.1347996251
| 21> H -2.1513733507 -1.9405538193 -0.4845189668
| 22> H -0.4653167047 -2.2991056248 -0.1286129268
| 23> H -1.8976632897 1.7486489209 -0.416969797
| 24> H -2.5910156611 0.6426997058 0.7662865374
| 25> H -2.9119236051 0.4031481333 -0.9544381233
| 26> H 0.8759034411 1.7057329632 -0.7447778323
| 27> *
| 28>
| 29>                          ****END OF INPUT****

CARTESIAN COORDINATES (ANGSTROEM)
---------------------------------
  C      2.103306   -0.769445   -0.742756
  C      1.475429   -0.454528    0.612079
  C      0.201971    0.406061    0.545775
  H     -0.182084    0.519067    1.567707
  C     -0.922538   -0.181075   -0.331212
  C     -1.279062   -1.609191    0.073859
  C     -2.161057    0.710293   -0.230849
  O      0.510351    1.733065    0.150200
  H      2.366282    0.141464   -1.275486
  H      1.431397   -1.355715   -1.363690
  H      3.015171   -1.342890   -0.595169
  H      1.243065   -1.381782    1.134895
  H      2.198807    0.094964    1.219445
  H     -0.582100   -0.177847   -1.372577
  H     -1.515419   -1.651667    1.134800
  H     -2.151373   -1.940554   -0.484519
  H     -0.465317   -2.299106   -0.128613
  H     -1.897663    1.748649   -0.416970
  H     -2.591016    0.642700    0.766287
  H     -2.911924    0.403148   -0.954438
  H      0.875903    1.705733   -0.744778

 Total Charge           Charge          ....    0
 Multiplicity           Mult            ....    1
 Number of Electrons    NEL             ....   58
 Basis Dimension        Dim             ....  126

ORBITAL ENERGIES
----------------

  NO   OCC          E(Eh)            E(eV)
   0   2.0000     -18.738321      -509.8956
   1   2.0000      -9.931128      -270.2397
   2   2.0000      -9.892897      -269.1994
   3   2.0000      -9.882774      -268.9239
   4   2.0000      -9.881641      -268.8931
   5   2.0000      -9.875732      -268.7323
   6   2.0000      -9.865759      -268.4609
   7   2.0000      -0.916895       -24.9500
   8   2.0000      -0.725753       -19.7488
   9   2.0000      -0.686237       -18.6735
  10   2.0000      -0.608230       -16.5508
  11   2.0000      -0.605302       -16.4711
  12   2.0000      -0.537491       -14.6259
  13   2.0000      -0.507172       -13.8009
  14   2.0000      -0.437746       -11.9117
  15   2.0000      -0.419609       -11.4181
  16   2.0000      -0.409053       -11.1309
  17   2.0000      -0.387815       -10.5530
  18   2.0000      -0.370971       -10.0946
  19   2.0000      -0.351283        -9.5589
  20   2.0000      -0.340708        -9.2711
  21   2.0000      -0.338033        -9.1983
  22   2.0000      -0.320594        -8.7238
  23   2.0000      -0.310663        -8.4536
  24   2.0000      -0.299484        -8.1494
  25   2.0000      -0.289864        -7.8876
  26   2.0000      -0.283287        -7.7086
  27   2.0000      -0.258655        -7.0384
  28   2.0000      -0.210161        -5.7188
  29   0.0000       0.021420         0.5829
  30   0.0000       0.042471         1.1557
  31   0.0000       0.060663         1.6507
  32   0.0000       0.070118         1.9080
  33   0.0000       0.093207         2.5363

MULLIKEN ATOMIC CHARGES
-----------------------
   0 C :   -0.314279
   1 C :   -0.139071
   2 C :    0.059721
   3 H :    0.059871
   4 C :   -0.197052
   5 C :   -0.253772
   6 C :   -0.225523
   7 O :   -0.426143
   8 H :    0.087204
   9 H :    0.116075
  10 H :    0.110773
  11 H :    0.086202
  12 H :    0.090588
  13 H :    0.060862
  14 H :    0.097481
  15 H :    0.100321
  16 H :    0.107209
  17 H :    0.103109
  18 H :    0.088045
  19 H :    0.094899
  20 H :    0.293479
Sum of atomic charges:   -0.0000000

LOEWDIN ATOMIC CHARGES
----------------------
   0 C :   -0.346909
   1 C :   -0.247649
   2 C :   -0.046757
   3 H :    0.111092
   4 C :   -0.172465
   5 C :   -0.329802
   6 C :   -0.331684
   7 O :   -0.322139
   8 H :    0.109661
   9 H :    0.118235
  10 H :    0.125511
  11 H :    0.119281
  12 H :    0.121448
  13 H :    0.109079
  14 H :    0.118963
  15 H :    0.120398
  16 H :    0.116028
  17 H :    0.119151
  18 H :    0.115861
  19 H :    0.114960
  20 H :    0.277735

  Mayer bond orders larger than 0.100000
B(  0-C ,  1-C ) :   1.1425 B(  0-C ,  8-H ) :   0.9462 B(  0-C ,  9-H ) :   0.9435
B(  0-C , 10-H ) :   0.9502 B(  1-C ,  2-C ) :   1.0759 B(  1-C , 11-H ) :   0.9046
B(  1-C , 12-H ) :   0.9174 B(  2-C ,  3-H ) :   0.8939 B(  2-C ,  4-C ) :   1.0248
B(  2-C ,  7-O ) :   1.0290 B(  4-C ,  5-C ) :   1.0995 B(  4-C ,  6-C ) :   1.1142
B(  4-C , 13-H ) :   0.8825 B(  5-C , 14-H ) :   0.9480 B(  5-C , 15-H ) :   0.9473
B(  5-C , 16-H ) :   0.9391 B(  6-C , 17-H ) :   0.9384 B(  6-C , 18-H ) :   0.9502
B(  6-C , 19-H ) :   0.9507 B(  7-O , 20-H ) :   0.8472

Dispersion correction           -0.017030091
FINAL SINGLE POINT ENERGY      -311.518161188328

DIPOLE MOMENT
-------------

Method             : SCF
Type of density    : Electron Density
Multiplicity       :   1
Irrep              :   0
Energy             :  -311.5980912501276521 Eh
Relativity type    :
Basis              : AO
                                X                 Y                 Z
Electronic contribution:      1.243112829       4.085989501       1.052249590
Nuclear contribution   :     -1.086578394      -4.565499007      -1.417311597
                        -----------------------------------------
Total Dipole Moment    :      0.156534435      -0.479509506      -0.365062006
                        -----------------------------------------
Magnitude (a.u.)       :      0.622657742
Magnitude (Debye)      :      1.582670204

Rotational constants in cm-1:             0.110299             0.066762             0.049194
Rotational constants in MHz :          3306.694222          2001.461219          1474.803936

                             ****ORCA TERMINATED NORMALLY****
TOTAL RUN TIME: 0 days 0 hours 0 minutes 9 seconds 355 msec
