                         Program Version 6.0.0  -   RELEASE  -
|  1> ! r2scan-3c def2/J RI DEFGRID2 scfconv6 printgap
|  2> %output
|  3>     printlevel normal
|  4> end
|  5> * xyz 0 1
|  6> C -1.3909036865 0.0090235426 0.6621345519
|  7> C 0.1006683468 0.3277516349 0.4613435052
|  8> C 0.8311895594 -0.8258121128 -0.2336430408
|  9> O 2.1874020333 -0.7912668955 0.1538220686
| 10> O 0.2426532879 1.4807076538 -0.3479504007
| 11> O -2.038099187 -0.2748803213 -0.5553084156
| 12> H -1.8781702 0.8600154007 1.1585998767
| 13> H -1.5065906923 -0.8756980276 1.2895743409
| 14> H 0.5741582701 0.4759176809 1.4396313286
| 15> H 0.7289184174 -0.6958704584 -1.3164444558
| 16> H 0.3697430465 -1.776259719 0.060579293
| 17> H 2.6793666474 -1.4559104792 -0.3471044893
| 18> H 0.10842069 2.2757537167 0.1846102257
| 19> H -1.8274650301 0.4390048238 -1.176742544
| 20> *
| 21>
| 22>                          ****END OF INPUT****

CARTESIAN COORDINATES (ANGSTROEM)
---------------------------------
  C     -1.390904    0.009024    0.662135
  C      0.100668    0.327752    0.461344
  C      0.831190   -0.825812   -0.233643
  O      2.187402   -0.791267    0.153822
  O      0.242653    1.480708   -0.347950
  O     -2.038099   -0.274880   -0.555308
  H     -1.878170    0.860015    1.158600
  H     -1.506591   -0.875698    1.289574
  H      0.574158    0.475918    1.439631
  H      0.728918   -0.695870   -1.316444
  H      0.369743   -1.776260    0.060579
  H      2.679367   -1.455910   -0.347104
  H      0.108421    2.275754    0.184610
  H     -1.827465    0.439005   -1.176743

 Total Charge           Charge          ....    0
 Multiplicity           Mult            ....    1
 Number of Electrons    NEL             ....   50
 Basis Dimension        Dim             ....  169

ORBITAL ENERGIES
----------------

  NO   OCC          E(Eh)            E(eV)
   0   2.0000     -18.960985      -515.9546
   1   2.0000     -18.950316      -515.6643
   2   2.0000     -18.949008      -515.6287
   3   2.0000     -10.087854      -274.5045
   4   2.0000     -10.078637      -274.2537
   5   2.0000     -10.077210      -274.2148
   6   2.0000      -1.007352       -27.4114
   7   2.0000      -0.986115       -26.8335
   8   2.0000      -0.979174       -26.6447
   9   2.0000      -0.728224       -19.8160
  10   2.0000      -0.644220       -17.5301
  11   2.0000      -0.565601       -15.3908
  12   2.0000      -0.507515       -13.8102
  13   2.0000      -0.488614       -13.2959
  14   2.0000      -0.463149       -12.6029
  15   2.0000      -0.418013       -11.3747
  16   2.0000      -0.407887       -11.0992
  17   2.0000      -0.395178       -10.7533
  18   2.0000      -0.373091       -10.1523
  19   2.0000      -0.328599        -8.9416
  20   2.0000      -0.309793        -8.4299
  21   2.0000      -0.293610        -7.9895
  22   2.0000      -0.262491        -7.1427
  23   2.0000      -0.241000        -6.5580
  24   2.0000      -0.228616        -6.2210
  25   0.0000       0.045056         1.2260
  26   0.0000       0.060544         1.6475
  27   0.0000       0.079755         2.1702
  28   0.0000       0.111506         3.0342
  29   0.0000       0.124889         3.3984

MULLIKEN ATOMIC CHARGES
-----------------------
   0 C :   -0.178161
   1 C :    0.038653
   2 C :   -0.171956
   3 O :   -0.416162
   4 O :   -0.427483
   5 O :   -0.424960
   6 H :    0.125985
   7 H :    0.140054
   8 H :    0.140680
   9 H :    0.137015
  10 H :    0.129184
  11 H :    0.294482
  12 H :    0.298781
  13 H :    0.313888
Sum of atomic charges:    0.0000000

LOEWDIN ATOMIC CHARGES
----------------------
   0 C :    0.015133
   1 C :    0.079818
   2 C :    0.039064
   3 O :   -0.612866
   4 O :   -0.594369
   5 O :   -0.602412
   6 H :    0.159055
   7 H :    0.179848
   8 H :    0.183044
   9 H :    0.175343
  10 H :    0.164504
  11 H :    0.268116
  12 H :    0.271362
  13 H :    0.274360

  Mayer bond orders larger than 0.100000
B(  0-C ,  1-C ) :   0.9295 B(  0-C ,  5-O ) :   0.9582 B(  0-C ,  6-H ) :   0.9709
B(  0-C ,  7-H ) :   0.9699 B(  1-C ,  2-C ) :   0.9691 B(  1-C ,  4-O ) :   0.9392
B(  1-C ,  8-H ) :   0.9507 B(  2-C ,  3-O ) :   0.9495 B(  2-C ,  9-H ) :   0.9619
B(  2-C , 10-H ) :   0.9603 B(  3-O , 11-H ) :   0.8979 B(  4-O , 12-H ) :   0.8983
B(  5-O , 13-H ) :   0.8742

Dispersion correction           -0.003008140
FINAL SINGLE POINT ENERGY      -344.721357082849

DIPOLE MOMENT
-------------

Method             : SCF
Type of density    : Electron Density
Multiplicity       :   1
Irrep              :   0
Energy             :  -344.7287665631587288 Eh
Relativity type    :
Basis              : AO
                                X                 Y                 Z
Electronic contribution:      0.800219206       0.864139763      -0.965437624
Nuclear contribution   :     -0.699327724      -0.700331929       1.201649943
                        -----------------------------------------
Total Dipole Moment    :      0.100891482       0.163807833       0.236212319
                        -----------------------------------------
Magnitude (a.u.)       :      0.304644641
Magnitude (Debye)      :      0.774345138

Rotational constants in cm-1:             0.193369             0.075699             0.064325
Rotational constants in MHz :          5797.062039          2269.409804          1928.401048

                             ****ORCA TERMINATED NORMALLY****
TOTAL RUN TIME: 0 days 0 hours 0 minutes 20 seconds 237 msec
