                         Program Version 6.0.0  -   RELEASE  -
|  1> ! r2scan-3c def2/J RI DEFGRID2 scfconv6 printgap
|  2> %output
|  3>     printlevel normal
|  4> end
|  5> %cpcm
|  6>     smd true
|  7>     smdsolvent "water"
|  8> end
|  9> * xyz 0 1
| 10> C -1.3909036865 0.0090235426 0.6621345519
| 11> C 0.1006683468 0.3277516349 0.4613435052
| 12> C 0.8311895594 -0.8258121128 -0.2336430408
| 13> O 2.1874020333 -0.7912668955 0.1538220686
| 14> O 0.2426532879 1.4807076538 -0.3479504007
| 15> O -2.038099187 -0.2748803213 -0.5553084156
| 16> H -1.8781702 0.8600154007 1.1585998767
| 17> H -1.5065906923 -0.8756980276 1.2895743409
| 18> H 0.5741582701 0.4759176809 1.4396313286
| 19> H 0.7289184174 -0.6958704584 -1.3164444558
| 20> H 0.3697430465 -1.776259719 0.060579293
| 21> H 2.6793666474 -1.4559104792 -0.3471044893
| 22> H 0.10842069 2.2757537167 0.1846102257
| 23> H -1.8274650301 0.4390048238 -1.176742544
| 24> *
| 25>
| 26>                          ****END OF INPUT****

CARTESIAN COORDINATES (ANGSTROEM)
---------------------------------
  C     -1.390904    0.009024    0.662135
  C      0.100668    0.327752    0.461344
  C      0.831190   -0.825812   -0.233643
  O      2.187402   -0.791267    0.153822
  O      0.242653    1.480708   -0.347950
  O     -2.038099   -0.274880   -0.555308
  H     -1.878170    0.860015    1.158600
  H     -1.506591   -0.875698    1.289574
  H      0.574158    0.475918    1.439631
  H      0.728918   -0.695870   -1.316444
  H      0.369743   -1.776260    0.060579
  H      2.679367   -1.455910   -0.347104
  H      0.108421    2.275754    0.184610
  H     -1.827465    0.439005   -1.176743

 Total Charge           Charge          ....    0
 Multiplicity           Mult            ....    1
 Number of Electrons    NEL             ....   50
 Basis Dimension        Dim             ....  169

ORBITAL ENERGIES
----------------

  NO   OCC          E(Eh)            E(eV)
   0   2.0000     -18.956315      -515.8276
   1   2.0000     -18.953866      -515.7609
   2   2.0000     -18.953451      -515.7496
   3   2.0000     -10.080899      -274.3152
   4   2.0000     -10.072130      -274.0766
   5   2.0000     -10.070606      -274.0351
   6   2.0000      -1.005188       -27.3526
   7   2.0000      -0.988634       -26.9021
   8   2.0000      -0.979012       -26.6403
   9   2.0000      -0.722525       -19.6609
  10   2.0000      -0.639252       -17.3949
  11   2.0000      -0.560496       -15.2519
  12   2.0000      -0.502191       -13.6653
  13   2.0000      -0.486217       -13.2306
  14   2.0000      -0.459027       -12.4908
  15   2.0000      -0.415471       -11.3055
  16   2.0000      -0.404478       -11.0064
  17   2.0000      -0.392048       -10.6682
  18   2.0000      -0.372282       -10.1303
  19   2.0000      -0.333143        -9.0653
  20   2.0000      -0.313047        -8.5184
  21   2.0000      -0.292339        -7.9549
  22   2.0000      -0.262984        -7.1561
  23   2.0000      -0.245734        -6.6868
  24   2.0000      -0.230540        -6.2733
  25   0.0000       0.060201         1.6382
  26   0.0000       0.076061         2.0697
  27   0.0000       0.097854         2.6627
  28   0.0000       0.120964         3.2916
  29   0.0000       0.136957         3.7268

MULLIKEN ATOMIC CHARGES
-----------------------
   0 C :   -0.191518
   1 C :    0.074515
   2 C :   -0.207585
   3 O :   -0.499041
   4 O :   -0.495553
   5 O :   -0.504028
   6 H :    0.146998
   7 H :    0.159212
   8 H :    0.157359
   9 H :    0.155409
  10 H :    0.151560
  11 H :    0.348960
  12 H :    0.351480
  13 H :    0.352233
Sum of atomic charges:    0.0000000

LOEWDIN ATOMIC CHARGES
----------------------
   0 C :    0.018802
   1 C :    0.082831
   2 C :    0.035447
   3 O :   -0.645360
   4 O :   -0.618329
   5 O :   -0.638922
   6 H :    0.170278
   7 H :    0.187328
   8 H :    0.191187
   9 H :    0.179119
  10 H :    0.173128
  11 H :    0.287325
  12 H :    0.290255
  13 H :    0.286911

  Mayer bond orders larger than 0.100000
B(  0-C ,  1-C ) :   0.9462 B(  0-C ,  5-O ) :   0.9423 B(  0-C ,  6-H ) :   0.9643
B(  0-C ,  7-H ) :   0.9624 B(  1-C ,  2-C ) :   0.9334 B(  1-C ,  4-O ) :   0.9257
B(  1-C ,  8-H ) :   0.9375 B(  2-C ,  3-O ) :   0.9380 B(  2-C ,  9-H ) :   0.9621
B(  2-C , 10-H ) :   0.9636 B(  3-O , 11-H ) :   0.8708 B(  4-O , 12-H ) :   0.8710
B(  5-O , 13-H ) :   0.8555

Dispersion correction           -0.003008140
FINAL SINGLE POINT ENERGY      -344.743398495144

DIPOLE MOMENT
-------------

Method             : SCF
Type of density    : Electron Density
Multiplicity       :   1
Irrep              :   0
Energy             :  -344.7508079754529149 Eh
Relativity type    :
Basis              : AO
                                X                 Y                 Z
Electronic contribution:      0.757446416       0.908729752      -0.816065860
Nuclear contribution   :     -0.699327724      -0.700331929       1.201649943
                        -----------------------------------------
Total Dipole Moment    :      0.058118693       0.208397822       0.385584083
                        -----------------------------------------
Magnitude (a.u.)       :      0.442134052
Magnitude (Debye)      :      1.123815448

Rotational constants in cm-1:             0.193369             0.075699             0.064325
Rotational constants in MHz :          5797.062039          2269.409804          1928.401048

                             ****ORCA TERMINATED NORMALLY****
TOTAL RUN TIME: 0 days 0 hours 0 minutes 23 seconds 350 msec
