                         Program Version 6.0.0  -   RELEASE  -
|  1> ! pbe def2-sv(p) def2/J RI DEFGRID1 loosescf d4 GCP(DFT/SV(P)) printgap
|  2> %output
|  3>     printlevel normal
|  4> end
|  5> * xyz 0 1
|  6> C 0.0468494578 -2.5850777279 0.045142577
|  7> C -0.0629812783 -1.0973698023 -0.2240081168
|  8> O 0.8521895271 -0.3722953783 0.5877160988
|  9> C 1.8027541221 0.3705372512 -0.0046234771
| 10> O 2.0088950501 0.3489510901 -1.1952006593
| 11> C 2.5507066508 1.1847120541 0.9986738228
| 12> O -1.3733253942 -0.6872231861 0.1283448844
| 13> C -1.729029479 0.5890747804 -0.0969856702
| 14> O -0.9827797089 1.3986797714 -0.5998025355
| 15> C -3.1244309302 0.849257628 0.3639811285
| 16> H 1.0347432863 -2.930203047 -0.2420431476
| 17> H -0.7083415291 -3.1060939273 -0.5332122516
| 18> H -0.1140496509 -2.7653733841 1.1036182982
| 19> H 0.1351105001 -0.8380964372 -1.2759374364
| 20> H 2.5382878658 0.6892242544 1.9634854724
| 21> H 3.5632732758 1.356858785 0.6486644452
| 22> H 2.0445785793 2.1444448756 1.0882229136
| 23> H -3.5156171389 1.7298787547 -0.134694833
| 24> H -3.7418527013 -0.0228653154 0.1757129038
| 25> H -3.1015096759 1.0282492885 1.4371201061
| 26> *
| 27>
| 28>                          ****END OF INPUT****

CARTESIAN COORDINATES (ANGSTROEM)
---------------------------------
  C      0.046849   -2.585078    0.045143
  C     -0.062981   -1.097370   -0.224008
  O      0.852190   -0.372295    0.587716
  C      1.802754    0.370537   -0.004623
  O      2.008895    0.348951   -1.195201
  C      2.550707    1.184712    0.998674
  O     -1.373325   -0.687223    0.128345
  C     -1.729029    0.589075   -0.096986
  O     -0.982780    1.398680   -0.599803
  C     -3.124431    0.849258    0.363981
  H      1.034743   -2.930203   -0.242043
  H     -0.708342   -3.106094   -0.533212
  H     -0.114050   -2.765373    1.103618
  H      0.135111   -0.838096   -1.275937
  H      2.538288    0.689224    1.963485
  H      3.563273    1.356859    0.648664
  H      2.044579    2.144445    1.088223
  H     -3.515617    1.729879   -0.134695
  H     -3.741853   -0.022865    0.175713
  H     -3.101510    1.028249    1.437120

 Total Charge           Charge          ....    0
 Multiplicity           Mult            ....    1
 Number of Electrons    NEL             ....   78
 Basis Dimension        Dim             ....  160

ORBITAL ENERGIES
----------------

  NO   OCC          E(Eh)            E(eV)
   0   2.0000     -18.806655      -511.7551
   1   2.0000     -18.801692      -511.6201
   2   2.0000     -18.741906      -509.9932
   3   2.0000     -18.732825      -509.7461
   4   2.0000     -10.018457      -272.6161
   5   2.0000     -10.011919      -272.4382
   6   2.0000     -10.008231      -272.3378
   7   2.0000      -9.900766      -269.4135
   8   2.0000      -9.896204      -269.2894
   9   2.0000      -9.893714      -269.2217
  10   2.0000      -1.032599       -28.0984
  11   2.0000      -0.993534       -27.0354
  12   2.0000      -0.925376       -25.1808
  13   2.0000      -0.907387       -24.6913
  14   2.0000      -0.730557       -19.8795
  15   2.0000      -0.683433       -18.5972
  16   2.0000      -0.668653       -18.1950
  17   2.0000      -0.597383       -16.2556
  18   2.0000      -0.559474       -15.2241
  19   2.0000      -0.508948       -13.8492
  20   2.0000      -0.450480       -12.2582
  21   2.0000      -0.434417       -11.8211
  22   2.0000      -0.428746       -11.6668
  23   2.0000      -0.420602       -11.4452
  24   2.0000      -0.414959       -11.2916
  25   2.0000      -0.401627       -10.9288
  26   2.0000      -0.381285       -10.3753
  27   2.0000      -0.375653       -10.2220
  28   2.0000      -0.367890       -10.0108
  29   2.0000      -0.359648        -9.7865
  30   2.0000      -0.358822        -9.7640
  31   2.0000      -0.348733        -9.4895
  32   2.0000      -0.330055        -8.9813
  33   2.0000      -0.322507        -8.7759
  34   2.0000      -0.301109        -8.1936
  35   2.0000      -0.275031        -7.4840
  36   2.0000      -0.263041        -7.1577
  37   2.0000      -0.226629        -6.1669
  38   2.0000      -0.218987        -5.9589
  39   0.0000      -0.032091        -0.8732
  40   0.0000      -0.021767        -0.5923
  41   0.0000       0.044543         1.2121
  42   0.0000       0.058472         1.5911
  43   0.0000       0.063597         1.7305

MULLIKEN ATOMIC CHARGES
-----------------------
   0 C :   -0.221777
   1 C :    0.139201
   2 O :   -0.248337
   3 C :    0.101839
   4 O :   -0.191519
   5 C :   -0.246185
   6 O :   -0.234162
   7 C :    0.089982
   8 O :   -0.193007
   9 C :   -0.242278
  10 H :    0.119392
  11 H :    0.118259
  12 H :    0.114856
  13 H :    0.109722
  14 H :    0.119213
  15 H :    0.127170
  16 H :    0.144320
  17 H :    0.129490
  18 H :    0.125191
  19 H :    0.138631
Sum of atomic charges:   -0.0000000

LOEWDIN ATOMIC CHARGES
----------------------
   0 C :   -0.343526
   1 C :    0.034511
   2 O :   -0.074347
   3 C :    0.043286
   4 O :   -0.152842
   5 C :   -0.357545
   6 O :   -0.069286
   7 C :    0.039531
   8 O :   -0.154296
   9 C :   -0.357647
  10 H :    0.135714
  11 H :    0.134753
  12 H :    0.131384
  13 H :    0.117506
  14 H :    0.137240
  15 H :    0.142648
  16 H :    0.155816
  17 H :    0.143411
  18 H :    0.141322
  19 H :    0.152365

  Mayer bond orders larger than 0.100000
B(  0-C ,  1-C ) :   1.1288 B(  0-C , 10-H ) :   0.9385 B(  0-C , 11-H ) :   0.9411
B(  0-C , 12-H ) :   0.9348 B(  1-C ,  2-O ) :   0.9552 B(  1-C ,  6-O ) :   0.9672
B(  1-C , 13-H ) :   0.8894 B(  2-O ,  3-C ) :   1.1253 B(  3-C ,  4-O ) :   2.0818
B(  3-C ,  5-C ) :   1.0933 B(  5-C , 14-H ) :   0.9331 B(  5-C , 15-H ) :   0.9370
B(  5-C , 16-H ) :   0.9193 B(  6-O ,  7-C ) :   1.1402 B(  7-C ,  8-O ) :   2.0787
B(  7-C ,  9-C ) :   1.0941 B(  9-C , 17-H ) :   0.9376 B(  9-C , 18-H ) :   0.9311
B(  9-C , 19-H ) :   0.9209

Dispersion correction           -0.016862178
FINAL SINGLE POINT ENERGY      -534.472670842924

DIPOLE MOMENT
-------------

Method             : SCF
Type of density    : Electron Density
Multiplicity       :   1
Irrep              :   0
Energy             :  -534.5525626171121303 Eh
Relativity type    :
Basis              : AO
                                X                 Y                 Z
Electronic contribution:      1.176169913       1.959088240      -3.055722631
Nuclear contribution   :     -1.742559495      -2.535976410       3.953352805
                        -----------------------------------------
Total Dipole Moment    :     -0.566389582      -0.576888170       0.897630174
                        -----------------------------------------
Magnitude (a.u.)       :      1.208030235
Magnitude (Debye)      :      3.070568835

Rotational constants in cm-1:             0.063256             0.032850             0.025520
Rotational constants in MHz :          1896.380106           984.803468           765.084771

                             ****ORCA TERMINATED NORMALLY****
TOTAL RUN TIME: 0 days 0 hours 0 minutes 13 seconds 123 msec
