                         Program Version 6.0.0  -   RELEASE  -
|  1> ! pbe def2-sv(p) def2/J RI DEFGRID1 loosescf d4 GCP(DFT/SV(P)) printgap
|  2> %output
|  3>     printlevel normal
|  4> end
|  5> * xyz 0 1
|  6> C -2.6450183483 0.668798502 0.0892245811
|  7> C -1.2759488727 0.1390891627 0.4987714381
|  8> C -0.5674342114 -0.5431148578 -0.6694363271
|  9> C 0.815662774 -1.0784562692 -0.2712513557
| 10> C 1.7188326796 -0.0134609938 0.0609309589
| 11> N 2.4425142076 0.8386853646 0.3130303545
| 12> H -3.2778512958 -0.1423920683 -0.2633846967
| 13> H -3.1358206414 1.1464510389 0.9330899224
| 14> H -2.547219279 1.4005586803 -0.7094010833
| 15> H -0.6588303357 0.9643375071 0.8631215952
| 16> H -1.3942302838 -0.5733412238 1.3186763641
| 17> H -0.4583391865 0.1663154296 -1.4925619109
| 18> H -1.1722285284 -1.379961018 -1.0224997486
| 19> H 0.7300141146 -1.737212758 0.5966366109
| 20> H 1.2554236315 -1.6430789255 -1.0970046787
| 21> *
| 22>
| 23>                          ****END OF INPUT****

CARTESIAN COORDINATES (ANGSTROEM)
---------------------------------
  C     -2.645018    0.668799    0.089225
  C     -1.275949    0.139089    0.498771
  C     -0.567434   -0.543115   -0.669436
  C      0.815663   -1.078456   -0.271251
  C      1.718833   -0.013461    0.060931
  N      2.442514    0.838685    0.313030
  H     -3.277851   -0.142392   -0.263385
  H     -3.135821    1.146451    0.933090
  H     -2.547219    1.400559   -0.709401
  H     -0.658830    0.964338    0.863122
  H     -1.394230   -0.573341    1.318676
  H     -0.458339    0.166315   -1.492562
  H     -1.172229   -1.379961   -1.022500
  H      0.730014   -1.737213    0.596637
  H      1.255424   -1.643079   -1.097005

 Total Charge           Charge          ....    0
 Multiplicity           Mult            ....    1
 Number of Electrons    NEL             ....   46
 Basis Dimension        Dim             ....  102

ORBITAL ENERGIES
----------------

  NO   OCC          E(Eh)            E(eV)
   0   2.0000     -13.975311      -380.2875
   1   2.0000      -9.935392      -270.3558
   2   2.0000      -9.924253      -270.0527
   3   2.0000      -9.911088      -269.6944
   4   2.0000      -9.897615      -269.3278
   5   2.0000      -9.883225      -268.9362
   6   2.0000      -0.813282       -22.1305
   7   2.0000      -0.748656       -20.3720
   8   2.0000      -0.688599       -18.7377
   9   2.0000      -0.601568       -16.3695
  10   2.0000      -0.537855       -14.6358
  11   2.0000      -0.471893       -12.8409
  12   2.0000      -0.431088       -11.7305
  13   2.0000      -0.416432       -11.3317
  14   2.0000      -0.404542       -11.0081
  15   2.0000      -0.364276        -9.9125
  16   2.0000      -0.344627        -9.3778
  17   2.0000      -0.321611        -8.7515
  18   2.0000      -0.310795        -8.4572
  19   2.0000      -0.303051        -8.2464
  20   2.0000      -0.292717        -7.9652
  21   2.0000      -0.285270        -7.7626
  22   2.0000      -0.281452        -7.6587
  23   0.0000      -0.001834        -0.0499
  24   0.0000       0.007673         0.2088
  25   0.0000       0.040610         1.1051
  26   0.0000       0.047780         1.3002
  27   0.0000       0.061679         1.6784

MULLIKEN ATOMIC CHARGES
-----------------------
   0 C :   -0.260223
   1 C :   -0.216983
   2 C :   -0.197157
   3 C :   -0.086715
   4 C :   -0.273582
   5 N :    0.054751
   6 H :    0.099354
   7 H :    0.110253
   8 H :    0.103674
   9 H :    0.118607
  10 H :    0.087229
  11 H :    0.107852
  12 H :    0.098394
  13 H :    0.124648
  14 H :    0.129896
Sum of atomic charges:   -0.0000000

LOEWDIN ATOMIC CHARGES
----------------------
   0 C :   -0.338736
   1 C :   -0.237465
   2 C :   -0.214071
   3 C :   -0.241073
   4 C :   -0.057793
   5 N :   -0.069724
   6 H :    0.117425
   7 H :    0.123226
   8 H :    0.120317
   9 H :    0.125751
  10 H :    0.116477
  11 H :    0.126166
  12 H :    0.122121
  13 H :    0.152541
  14 H :    0.154838

  Mayer bond orders larger than 0.100000
B(  0-C ,  1-C ) :   1.1570 B(  0-C ,  6-H ) :   0.9543 B(  0-C ,  7-H ) :   0.9524
B(  0-C ,  8-H ) :   0.9541 B(  1-C ,  2-C ) :   1.1283 B(  1-C ,  9-H ) :   0.9200
B(  1-C , 10-H ) :   0.9257 B(  2-C ,  3-C ) :   1.1016 B(  2-C , 11-H ) :   0.9217
B(  2-C , 12-H ) :   0.9195 B(  3-C ,  4-C ) :   1.1882 B(  3-C , 13-H ) :   0.8784
B(  3-C , 14-H ) :   0.8761 B(  4-C ,  5-N ) :   3.0474

Dispersion correction           -0.010344806
FINAL SINGLE POINT ENERGY      -250.096343456479

DIPOLE MOMENT
-------------

Method             : SCF
Type of density    : Electron Density
Multiplicity       :   1
Irrep              :   0
Energy             :  -250.1441137986251420 Eh
Relativity type    :
Basis              : AO
                                X                 Y                 Z
Electronic contribution:      8.944105905       0.723592732       0.512606900
Nuclear contribution   :     -9.986606133      -1.682518462      -0.817607984
                        -----------------------------------------
Total Dipole Moment    :     -1.042500228      -0.958925730      -0.305001084
                        -----------------------------------------
Magnitude (a.u.)       :      1.448920613
Magnitude (Debye)      :      3.682863516

Rotational constants in cm-1:             0.261767             0.060046             0.052617
Rotational constants in MHz :          7847.564539          1800.128719          1577.411315

                             ****ORCA TERMINATED NORMALLY****
TOTAL RUN TIME: 0 days 0 hours 0 minutes 6 seconds 690 msec
