                         Program Version 6.0.0  -   RELEASE  -
|  1> ! r2scan-3c def2/J RI DEFGRID2 scfconv6 printgap
|  2> %output
|  3>     printlevel normal
|  4> end
|  5> * xyz 0 1
|  6> C 1.931745632 0.7515073863 0.6538020114
|  7> C 1.3494282822 -0.5290132129 0.0629441955
|  8> C 1.2470778158 -0.4306223881 -1.4575827351
|  9> C -0.0260800645 -0.8518594717 0.6841319897
| 10> C -1.0883731475 0.1118832634 0.2312992272
| 11> O -1.1755515712 1.2747427565 0.5675246714
| 12> O -1.952843395 -0.4476488074 -0.6020696241
| 13> H 2.8752312961 0.9940703704 0.1716910322
| 14> H 2.108013561 0.6367887886 1.7205254643
| 15> H 1.2449395531 1.5828149146 0.5101968601
| 16> H 2.0131096458 -1.3627578812 0.3141622971
| 17> H 2.237949101 -0.3517316025 -1.8974105116
| 18> H 0.7538191404 -1.3080323684 -1.868757583
| 19> H 0.6775383736 0.451978128 -1.7428798934
| 20> H 0.0525960903 -0.789231801 1.7698798378
| 21> H -0.3370038003 -1.8544604765 0.392384083
| 22> H -2.6478137361 0.1697010243 -0.9020450739
| 23> *
| 24>
| 25>                          ****END OF INPUT****

CARTESIAN COORDINATES (ANGSTROEM)
---------------------------------
  C      1.931746    0.751507    0.653802
  C      1.349428   -0.529013    0.062944
  C      1.247078   -0.430622   -1.457583
  C     -0.026080   -0.851859    0.684132
  C     -1.088373    0.111883    0.231299
  O     -1.175552    1.274743    0.567525
  O     -1.952843   -0.447649   -0.602070
  H      2.875231    0.994070    0.171691
  H      2.108014    0.636789    1.720525
  H      1.244940    1.582815    0.510197
  H      2.013110   -1.362758    0.314162
  H      2.237949   -0.351732   -1.897411
  H      0.753819   -1.308032   -1.868758
  H      0.677538    0.451978   -1.742880
  H      0.052596   -0.789232    1.769880
  H     -0.337004   -1.854460    0.392384
  H     -2.647814    0.169701   -0.902045

 Total Charge           Charge          ....    0
 Multiplicity           Mult            ....    1
 Number of Electrons    NEL             ....   56
 Basis Dimension        Dim             ....  193

ORBITAL ENERGIES
----------------

  NO   OCC          E(Eh)            E(eV)
   0   2.0000     -19.003746      -517.1182
   1   2.0000     -18.934031      -515.2212
   2   2.0000     -10.161698      -276.5138
   3   2.0000     -10.048783      -273.4413
   4   2.0000     -10.044718      -273.3307
   5   2.0000     -10.020876      -272.6819
   6   2.0000     -10.012461      -272.4529
   7   2.0000      -1.078333       -29.3429
   8   2.0000      -0.978620       -26.6296
   9   2.0000      -0.787925       -21.4405
  10   2.0000      -0.697550       -18.9813
  11   2.0000      -0.653511       -17.7829
  12   2.0000      -0.601028       -16.3548
  13   2.0000      -0.534918       -14.5559
  14   2.0000      -0.467513       -12.7217
  15   2.0000      -0.451546       -12.2872
  16   2.0000      -0.435377       -11.8472
  17   2.0000      -0.410773       -11.1777
  18   2.0000      -0.403165       -10.9707
  19   2.0000      -0.390844       -10.6354
  20   2.0000      -0.358136        -9.7454
  21   2.0000      -0.350694        -9.5429
  22   2.0000      -0.341747        -9.2994
  23   2.0000      -0.308383        -8.3915
  24   2.0000      -0.307437        -8.3658
  25   2.0000      -0.304341        -8.2815
  26   2.0000      -0.289983        -7.8908
  27   2.0000      -0.237416        -6.4604
  28   0.0000      -0.023475        -0.6388
  29   0.0000       0.057625         1.5681
  30   0.0000       0.088238         2.4011
  31   0.0000       0.125784         3.4227
  32   0.0000       0.128348         3.4925

MULLIKEN ATOMIC CHARGES
-----------------------
   0 C :   -0.512011
   1 C :    0.003277
   2 C :   -0.511195
   3 C :   -0.316515
   4 C :    0.312796
   5 O :   -0.393391
   6 O :   -0.341502
   7 H :    0.141504
   8 H :    0.142381
   9 H :    0.190752
  10 H :    0.154136
  11 H :    0.149095
  12 H :    0.158236
  13 H :    0.160929
  14 H :    0.165846
  15 H :    0.167693
  16 H :    0.327967
Sum of atomic charges:   -0.0000000

LOEWDIN ATOMIC CHARGES
----------------------
   0 C :   -0.410397
   1 C :   -0.222465
   2 C :   -0.409008
   3 C :   -0.231674
   4 C :    0.332078
   5 O :   -0.430773
   6 O :   -0.403122
   7 H :    0.152259
   8 H :    0.154155
   9 H :    0.174741
  10 H :    0.157679
  11 H :    0.155499
  12 H :    0.157439
  13 H :    0.160335
  14 H :    0.183883
  15 H :    0.180526
  16 H :    0.298845

  Mayer bond orders larger than 0.100000
B(  0-C ,  1-C ) :   0.9434 B(  0-C ,  7-H ) :   0.9734 B(  0-C ,  8-H ) :   0.9699
B(  0-C ,  9-H ) :   0.9679 B(  1-C ,  2-C ) :   0.8986 B(  1-C ,  3-C ) :   0.8673
B(  1-C , 10-H ) :   0.9593 B(  2-C , 11-H ) :   0.9652 B(  2-C , 12-H ) :   0.9754
B(  2-C , 13-H ) :   0.9670 B(  3-C ,  4-C ) :   0.9501 B(  3-C , 14-H ) :   0.9579
B(  3-C , 15-H ) :   0.9728 B(  4-C ,  5-O ) :   1.9353 B(  4-C ,  6-O ) :   1.0276
B(  6-O , 16-H ) :   0.8596

Dispersion correction           -0.004530032
FINAL SINGLE POINT ENERGY      -346.948121397890

DIPOLE MOMENT
-------------

Method             : SCF
Type of density    : Electron Density
Multiplicity       :   1
Irrep              :   0
Energy             :  -346.9529188518237106 Eh
Relativity type    :
Basis              : AO
                                X                 Y                 Z
Electronic contribution:     -8.332364484       1.045666144       1.120232995
Nuclear contribution   :      8.376838837      -1.705391026      -1.438022135
                        -----------------------------------------
Total Dipole Moment    :      0.044474353      -0.659724882      -0.317789140
                        -----------------------------------------
Magnitude (a.u.)       :      0.733624445
Magnitude (Debye)      :      1.864725146

Rotational constants in cm-1:             0.131945             0.066201             0.055704
Rotational constants in MHz :          3955.623373          1984.642375          1669.970516

                             ****ORCA TERMINATED NORMALLY****
TOTAL RUN TIME: 0 days 0 hours 0 minutes 27 seconds 30 msec
