                         Program Version 6.0.0  -   RELEASE  -
|  1> ! r2scan-3c def2/J RI DEFGRID2 scfconv6 printgap
|  2> %output
|  3>     printlevel normal
|  4> end
|  5> %cpcm
|  6>     smd true
|  7>     smdsolvent "water"
|  8> end
|  9> * xyz 0 1
| 10> C 1.931745632 0.7515073863 0.6538020114
| 11> C 1.3494282822 -0.5290132129 0.0629441955
| 12> C 1.2470778158 -0.4306223881 -1.4575827351
| 13> C -0.0260800645 -0.8518594717 0.6841319897
| 14> C -1.0883731475 0.1118832634 0.2312992272
| 15> O -1.1755515712 1.2747427565 0.5675246714
| 16> O -1.952843395 -0.4476488074 -0.6020696241
| 17> H 2.8752312961 0.9940703704 0.1716910322
| 18> H 2.108013561 0.6367887886 1.7205254643
| 19> H 1.2449395531 1.5828149146 0.5101968601
| 20> H 2.0131096458 -1.3627578812 0.3141622971
| 21> H 2.237949101 -0.3517316025 -1.8974105116
| 22> H 0.7538191404 -1.3080323684 -1.868757583
| 23> H 0.6775383736 0.451978128 -1.7428798934
| 24> H 0.0525960903 -0.789231801 1.7698798378
| 25> H -0.3370038003 -1.8544604765 0.392384083
| 26> H -2.6478137361 0.1697010243 -0.9020450739
| 27> *
| 28>
| 29>                          ****END OF INPUT****

CARTESIAN COORDINATES (ANGSTROEM)
---------------------------------
  C      1.931746    0.751507    0.653802
  C      1.349428   -0.529013    0.062944
  C      1.247078   -0.430622   -1.457583
  C     -0.026080   -0.851859    0.684132
  C     -1.088373    0.111883    0.231299
  O     -1.175552    1.274743    0.567525
  O     -1.952843   -0.447649   -0.602070
  H      2.875231    0.994070    0.171691
  H      2.108014    0.636789    1.720525
  H      1.244940    1.582815    0.510197
  H      2.013110   -1.362758    0.314162
  H      2.237949   -0.351732   -1.897411
  H      0.753819   -1.308032   -1.868758
  H      0.677538    0.451978   -1.742880
  H      0.052596   -0.789232    1.769880
  H     -0.337004   -1.854460    0.392384
  H     -2.647814    0.169701   -0.902045

 Total Charge           Charge          ....    0
 Multiplicity           Mult            ....    1
 Number of Electrons    NEL             ....   56
 Basis Dimension        Dim             ....  193

ORBITAL ENERGIES
----------------

  NO   OCC          E(Eh)            E(eV)
   0   2.0000     -19.000822      -517.0387
   1   2.0000     -18.943150      -515.4693
   2   2.0000     -10.166681      -276.6494
   3   2.0000     -10.039437      -273.1870
   4   2.0000     -10.035264      -273.0734
   5   2.0000     -10.010790      -272.4075
   6   2.0000     -10.007590      -272.3204
   7   2.0000      -1.078107       -29.3368
   8   2.0000      -0.985271       -26.8106
   9   2.0000      -0.779829       -21.2202
  10   2.0000      -0.690592       -18.7920
  11   2.0000      -0.646211       -17.5843
  12   2.0000      -0.593078       -16.1385
  13   2.0000      -0.527390       -14.3510
  14   2.0000      -0.468294       -12.7429
  15   2.0000      -0.455387       -12.3917
  16   2.0000      -0.433397       -11.7933
  17   2.0000      -0.405724       -11.0403
  18   2.0000      -0.396298       -10.7838
  19   2.0000      -0.386220       -10.5096
  20   2.0000      -0.356420        -9.6987
  21   2.0000      -0.348431        -9.4813
  22   2.0000      -0.332856        -9.0575
  23   2.0000      -0.302530        -8.2323
  24   2.0000      -0.300818        -8.1857
  25   2.0000      -0.296531        -8.0690
  26   2.0000      -0.293450        -7.9852
  27   2.0000      -0.246763        -6.7148
  28   0.0000      -0.026183        -0.7125
  29   0.0000       0.076211         2.0738
  30   0.0000       0.103322         2.8115
  31   0.0000       0.136317         3.7094
  32   0.0000       0.138503         3.7689

MULLIKEN ATOMIC CHARGES
-----------------------
   0 C :   -0.561621
   1 C :    0.037383
   2 C :   -0.556527
   3 C :   -0.335762
   4 C :    0.337650
   5 O :   -0.473696
   6 O :   -0.368416
   7 H :    0.158252
   8 H :    0.161598
   9 H :    0.175156
  10 H :    0.171704
  11 H :    0.163776
  12 H :    0.170668
  13 H :    0.168179
  14 H :    0.189556
  15 H :    0.184411
  16 H :    0.377688
Sum of atomic charges:   -0.0000000

LOEWDIN ATOMIC CHARGES
----------------------
   0 C :   -0.419023
   1 C :   -0.217015
   2 C :   -0.416203
   3 C :   -0.229686
   4 C :    0.341846
   5 O :   -0.491346
   6 O :   -0.395473
   7 H :    0.157180
   8 H :    0.158374
   9 H :    0.166343
  10 H :    0.165155
  11 H :    0.159581
  12 H :    0.160572
  13 H :    0.160797
  14 H :    0.191531
  15 H :    0.188107
  16 H :    0.319259

  Mayer bond orders larger than 0.100000
B(  0-C ,  1-C ) :   0.9220 B(  0-C ,  7-H ) :   0.9703 B(  0-C ,  8-H ) :   0.9697
B(  0-C ,  9-H ) :   0.9739 B(  1-C ,  2-C ) :   0.8850 B(  1-C ,  3-C ) :   0.8578
B(  1-C , 10-H ) :   0.9550 B(  2-C , 11-H ) :   0.9623 B(  2-C , 12-H ) :   0.9733
B(  2-C , 13-H ) :   0.9655 B(  3-C ,  4-C ) :   0.9539 B(  3-C , 14-H ) :   0.9545
B(  3-C , 15-H ) :   0.9655 B(  4-C ,  5-O ) :   1.8676 B(  4-C ,  6-O ) :   1.0603
B(  6-O , 16-H ) :   0.8352

Dispersion correction           -0.004530032
FINAL SINGLE POINT ENERGY      -346.957289727119

DIPOLE MOMENT
-------------

Method             : SCF
Type of density    : Electron Density
Multiplicity       :   1
Irrep              :   0
Energy             :  -346.9620871810524250 Eh
Relativity type    :
Basis              : AO
                                X                 Y                 Z
Electronic contribution:     -8.318187955       0.716774984       1.004914394
Nuclear contribution   :      8.376838837      -1.705391026      -1.438022135
                        -----------------------------------------
Total Dipole Moment    :      0.058650882      -0.988616042      -0.433107741
                        -----------------------------------------
Magnitude (a.u.)       :      1.080918091
Magnitude (Debye)      :      2.747475441

Rotational constants in cm-1:             0.131945             0.066201             0.055704
Rotational constants in MHz :          3955.623373          1984.642375          1669.970516

                             ****ORCA TERMINATED NORMALLY****
TOTAL RUN TIME: 0 days 0 hours 0 minutes 29 seconds 847 msec
