                         Program Version 6.0.0  -   RELEASE  -
|  1> ! r2scan-3c def2/J RI DEFGRID2 scfconv6 printgap
|  2> %output
|  3>     printlevel normal
|  4> end
|  5> * xyz 0 1
|  6> C -2.3585858753 0.7436972904 0.0052305763
|  7> C -0.8417918461 0.8819749515 -0.0405531526
|  8> C -0.0998033937 -0.3418208186 0.5083959287
|  9> H -0.4714463366 -0.5569579079 1.5166416783
| 10> C -0.294539816 -1.5755077187 -0.3697003927
| 11> C 1.396029981 -0.0276434949 0.6391670276
| 12> O 1.9306622704 0.2937009001 -0.629215185
| 13> H -2.6888297356 0.513786133 1.0159954417
| 14> H -2.8262379977 1.6746283117 -0.3057722882
| 15> H -2.7020879123 -0.0445497187 -0.6586448667
| 16> H -0.5503839402 1.7538905284 0.5504326545
| 17> H -0.5138261639 1.055365658 -1.0667908358
| 18> H 0.2439661347 -2.4232124771 0.0480236885
| 19> H 0.0903543115 -1.3787091316 -1.3672441515
| 20> H -1.3452294898 -1.8389521748 -0.4405508575
| 21> H 1.9128384516 -0.9026878239 1.0573875372
| 22> H 1.5299534006 0.8170374649 1.3300449635
| 23> H 2.8750904778 0.4732042766 -0.540106709
| 24> *
| 25>
| 26>                          ****END OF INPUT****

CARTESIAN COORDINATES (ANGSTROEM)
---------------------------------
  C     -2.358586    0.743697    0.005231
  C     -0.841792    0.881975   -0.040553
  C     -0.099803   -0.341821    0.508396
  H     -0.471446   -0.556958    1.516642
  C     -0.294540   -1.575508   -0.369700
  C      1.396030   -0.027643    0.639167
  O      1.930662    0.293701   -0.629215
  H     -2.688830    0.513786    1.015995
  H     -2.826238    1.674628   -0.305772
  H     -2.702088   -0.044550   -0.658645
  H     -0.550384    1.753891    0.550433
  H     -0.513826    1.055366   -1.066791
  H      0.243966   -2.423212    0.048024
  H      0.090354   -1.378709   -1.367244
  H     -1.345229   -1.838952   -0.440551
  H      1.912838   -0.902688    1.057388
  H      1.529953    0.817037    1.330045
  H      2.875090    0.473204   -0.540107

 Total Charge           Charge          ....    0
 Multiplicity           Mult            ....    1
 Number of Electrons    NEL             ....   50
 Basis Dimension        Dim             ....  179

ORBITAL ENERGIES
----------------

  NO   OCC          E(Eh)            E(eV)
   0   2.0000     -18.947098      -515.5767
   1   2.0000     -10.071485      -274.0590
   2   2.0000     -10.030285      -272.9379
   3   2.0000     -10.016434      -272.5610
   4   2.0000     -10.011501      -272.4268
   5   2.0000     -10.008495      -272.3450
   6   2.0000      -0.984141       -26.7798
   7   2.0000      -0.770537       -20.9674
   8   2.0000      -0.693928       -18.8827
   9   2.0000      -0.640128       -17.4188
  10   2.0000      -0.585622       -15.9356
  11   2.0000      -0.520426       -14.1615
  12   2.0000      -0.481307       -13.0970
  13   2.0000      -0.425414       -11.5761
  14   2.0000      -0.417314       -11.3557
  15   2.0000      -0.404201       -10.9989
  16   2.0000      -0.378220       -10.2919
  17   2.0000      -0.349782        -9.5180
  18   2.0000      -0.340266        -9.2591
  19   2.0000      -0.327516        -8.9122
  20   2.0000      -0.319890        -8.7046
  21   2.0000      -0.292450        -7.9580
  22   2.0000      -0.285635        -7.7725
  23   2.0000      -0.273119        -7.4319
  24   2.0000      -0.234018        -6.3679
  25   0.0000       0.059058         1.6071
  26   0.0000       0.097489         2.6528
  27   0.0000       0.112792         3.0692
  28   0.0000       0.133552         3.6341
  29   0.0000       0.136053         3.7022

MULLIKEN ATOMIC CHARGES
-----------------------
   0 C :   -0.497562
   1 C :   -0.260950
   2 C :   -0.008411
   3 H :    0.142838
   4 C :   -0.527673
   5 C :   -0.144758
   6 O :   -0.438357
   7 H :    0.141732
   8 H :    0.147374
   9 H :    0.147938
  10 H :    0.135305
  11 H :    0.162130
  12 H :    0.139022
  13 H :    0.173662
  14 H :    0.146485
  15 H :    0.124799
  16 H :    0.123997
  17 H :    0.292430
Sum of atomic charges:    0.0000000

LOEWDIN ATOMIC CHARGES
----------------------
   0 C :   -0.423385
   1 C :   -0.305247
   2 C :   -0.220820
   3 H :    0.161250
   4 C :   -0.410243
   5 C :    0.008722
   6 O :   -0.634660
   7 H :    0.149210
   8 H :    0.151078
   9 H :    0.149272
  10 H :    0.155343
  11 H :    0.166287
  12 H :    0.154143
  13 H :    0.166125
  14 H :    0.151811
  15 H :    0.157234
  16 H :    0.157070
  17 H :    0.266811

  Mayer bond orders larger than 0.100000
B(  0-C ,  1-C ) :   0.8857 B(  0-C ,  7-H ) :   0.9848 B(  0-C ,  8-H ) :   0.9747
B(  0-C ,  9-H ) :   0.9847 B(  1-C ,  2-C ) :   0.9129 B(  1-C , 10-H ) :   0.9648
B(  1-C , 11-H ) :   0.9747 B(  2-C ,  3-H ) :   0.9507 B(  2-C ,  4-C ) :   0.8918
B(  2-C ,  5-C ) :   0.9730 B(  4-C , 12-H ) :   0.9696 B(  4-C , 13-H ) :   0.9825
B(  4-C , 14-H ) :   0.9767 B(  5-C ,  6-O ) :   0.9183 B(  5-C , 15-H ) :   0.9710
B(  5-C , 16-H ) :   0.9670 B(  6-O , 17-H ) :   0.9018

Dispersion correction           -0.004373319
FINAL SINGLE POINT ENERGY      -272.897716691009

DIPOLE MOMENT
-------------

Method             : SCF
Type of density    : Electron Density
Multiplicity       :   1
Irrep              :   0
Energy             :  -272.9031931456222537 Eh
Relativity type    :
Basis              : AO
                                X                 Y                 Z
Electronic contribution:      4.496756510       0.821044564      -0.627850002
Nuclear contribution   :     -4.142272359      -0.799794737       1.059621050
                        -----------------------------------------
Total Dipole Moment    :      0.354484151       0.021249827       0.431771048
                        -----------------------------------------
Magnitude (a.u.)       :      0.559049914
Magnitude (Debye)      :      1.420991954

Rotational constants in cm-1:             0.181992             0.073664             0.062720
Rotational constants in MHz :          5455.992358          2208.386726          1880.309874

                             ****ORCA TERMINATED NORMALLY****
TOTAL RUN TIME: 0 days 0 hours 0 minutes 22 seconds 951 msec
