                         Program Version 6.0.0  -   RELEASE  -
|  1> ! r2scan-3c def2/J RI DEFGRID2 scfconv6 printgap
|  2> %output
|  3>     printlevel normal
|  4> end
|  5> %cpcm
|  6>     smd true
|  7>     smdsolvent "water"
|  8> end
|  9> * xyz 0 1
| 10> C -2.3585858753 0.7436972904 0.0052305763
| 11> C -0.8417918461 0.8819749515 -0.0405531526
| 12> C -0.0998033937 -0.3418208186 0.5083959287
| 13> H -0.4714463366 -0.5569579079 1.5166416783
| 14> C -0.294539816 -1.5755077187 -0.3697003927
| 15> C 1.396029981 -0.0276434949 0.6391670276
| 16> O 1.9306622704 0.2937009001 -0.629215185
| 17> H -2.6888297356 0.513786133 1.0159954417
| 18> H -2.8262379977 1.6746283117 -0.3057722882
| 19> H -2.7020879123 -0.0445497187 -0.6586448667
| 20> H -0.5503839402 1.7538905284 0.5504326545
| 21> H -0.5138261639 1.055365658 -1.0667908358
| 22> H 0.2439661347 -2.4232124771 0.0480236885
| 23> H 0.0903543115 -1.3787091316 -1.3672441515
| 24> H -1.3452294898 -1.8389521748 -0.4405508575
| 25> H 1.9128384516 -0.9026878239 1.0573875372
| 26> H 1.5299534006 0.8170374649 1.3300449635
| 27> H 2.8750904778 0.4732042766 -0.540106709
| 28> *
| 29>
| 30>                          ****END OF INPUT****

CARTESIAN COORDINATES (ANGSTROEM)
---------------------------------
  C     -2.358586    0.743697    0.005231
  C     -0.841792    0.881975   -0.040553
  C     -0.099803   -0.341821    0.508396
  H     -0.471446   -0.556958    1.516642
  C     -0.294540   -1.575508   -0.369700
  C      1.396030   -0.027643    0.639167
  O      1.930662    0.293701   -0.629215
  H     -2.688830    0.513786    1.015995
  H     -2.826238    1.674628   -0.305772
  H     -2.702088   -0.044550   -0.658645
  H     -0.550384    1.753891    0.550433
  H     -0.513826    1.055366   -1.066791
  H      0.243966   -2.423212    0.048024
  H      0.090354   -1.378709   -1.367244
  H     -1.345229   -1.838952   -0.440551
  H      1.912838   -0.902688    1.057388
  H      1.529953    0.817037    1.330045
  H      2.875090    0.473204   -0.540107

 Total Charge           Charge          ....    0
 Multiplicity           Mult            ....    1
 Number of Electrons    NEL             ....   50
 Basis Dimension        Dim             ....  179

ORBITAL ENERGIES
----------------

  NO   OCC          E(Eh)            E(eV)
   0   2.0000     -18.948570      -515.6168
   1   2.0000     -10.064794      -273.8770
   2   2.0000     -10.025147      -272.7981
   3   2.0000     -10.014338      -272.5040
   4   2.0000     -10.007147      -272.3083
   5   2.0000     -10.006093      -272.2796
   6   2.0000      -0.984578       -26.7917
   7   2.0000      -0.767026       -20.8718
   8   2.0000      -0.690490       -18.7892
   9   2.0000      -0.636639       -17.3238
  10   2.0000      -0.582226       -15.8432
  11   2.0000      -0.517216       -14.0742
  12   2.0000      -0.477140       -12.9836
  13   2.0000      -0.421529       -11.4704
  14   2.0000      -0.413939       -11.2638
  15   2.0000      -0.401466       -10.9244
  16   2.0000      -0.375683       -10.2229
  17   2.0000      -0.347696        -9.4613
  18   2.0000      -0.338532        -9.2119
  19   2.0000      -0.325994        -8.8707
  20   2.0000      -0.318925        -8.6784
  21   2.0000      -0.289316        -7.8727
  22   2.0000      -0.282589        -7.6896
  23   2.0000      -0.270239        -7.3536
  24   2.0000      -0.236307        -6.4302
  25   0.0000       0.073495         1.9999
  26   0.0000       0.104872         2.8537
  27   0.0000       0.120432         3.2771
  28   0.0000       0.138141         3.7590
  29   0.0000       0.140531         3.8240

MULLIKEN ATOMIC CHARGES
-----------------------
   0 C :   -0.537303
   1 C :   -0.277000
   2 C :    0.008755
   3 H :    0.159950
   4 C :   -0.569021
   5 C :   -0.155548
   6 O :   -0.520572
   7 H :    0.155803
   8 H :    0.157057
   9 H :    0.159677
  10 H :    0.151307
  11 H :    0.152382
  12 H :    0.157467
  13 H :    0.165031
  14 H :    0.161661
  15 H :    0.143335
  16 H :    0.141679
  17 H :    0.345340
Sum of atomic charges:    0.0000000

LOEWDIN ATOMIC CHARGES
----------------------
   0 C :   -0.430220
   1 C :   -0.310123
   2 C :   -0.220991
   3 H :    0.167828
   4 C :   -0.419177
   5 C :    0.011612
   6 O :   -0.668335
   7 H :    0.153545
   8 H :    0.153123
   9 H :    0.152342
  10 H :    0.158936
  11 H :    0.160775
  12 H :    0.158513
  13 H :    0.160783
  14 H :    0.156493
  15 H :    0.165151
  16 H :    0.164726
  17 H :    0.285020

  Mayer bond orders larger than 0.100000
B(  0-C ,  1-C ) :   0.8873 B(  0-C ,  7-H ) :   0.9824 B(  0-C ,  8-H ) :   0.9716
B(  0-C ,  9-H ) :   0.9810 B(  1-C ,  2-C ) :   0.9035 B(  1-C , 10-H ) :   0.9651
B(  1-C , 11-H ) :   0.9754 B(  2-C ,  3-H ) :   0.9459 B(  2-C ,  4-C ) :   0.8822
B(  2-C ,  5-C ) :   0.9566 B(  4-C , 12-H ) :   0.9682 B(  4-C , 13-H ) :   0.9843
B(  4-C , 14-H ) :   0.9719 B(  5-C ,  6-O ) :   0.9022 B(  5-C , 15-H ) :   0.9724
B(  5-C , 16-H ) :   0.9680 B(  6-O , 17-H ) :   0.8753

Dispersion correction           -0.004373319
FINAL SINGLE POINT ENERGY      -272.902932851211

DIPOLE MOMENT
-------------

Method             : SCF
Type of density    : Electron Density
Multiplicity       :   1
Irrep              :   0
Energy             :  -272.9084093058244775 Eh
Relativity type    :
Basis              : AO
                                X                 Y                 Z
Electronic contribution:      4.576630378       0.794352511      -0.350850375
Nuclear contribution   :     -4.142272359      -0.799794737       1.059621050
                        -----------------------------------------
Total Dipole Moment    :      0.434358019      -0.005442226       0.708770675
                        -----------------------------------------
Magnitude (a.u.)       :      0.831295601
Magnitude (Debye)      :      2.112985497

Rotational constants in cm-1:             0.181992             0.073664             0.062720
Rotational constants in MHz :          5455.992358          2208.386726          1880.309874

                             ****ORCA TERMINATED NORMALLY****
TOTAL RUN TIME: 0 days 0 hours 0 minutes 27 seconds 473 msec
