                         Program Version 6.0.0  -   RELEASE  -
|  1> ! pbe def2-sv(p) def2/J RI DEFGRID1 loosescf d4 GCP(DFT/SV(P)) printgap
|  2> %output
|  3>     printlevel normal
|  4> end
|  5> * xyz 0 1
|  6> C 2.8646415364 -0.3782773398 -0.0806833168
|  7> C 1.419091965 -0.3506600695 0.4007675444
|  8> C 0.6450596551 0.8097469833 -0.220595335
|  9> C -0.7729370604 0.9432810926 0.3137934124
| 10> S -1.882713562 -0.4211726182 -0.205554178
| 11> H 3.3980088163 -1.2142566592 0.3645665607
| 12> H 3.3763222196 0.5416969063 0.1930460446
| 13> H 2.9031997352 -0.4828284766 -1.1625838173
| 14> H 1.400528658 -0.2559356285 1.4891465082
| 15> H 0.9371030169 -1.2934563571 0.1339380212
| 16> H 0.6088868881 0.6848322674 -1.3051168569
| 17> H 1.1685970208 1.7452420375 -0.0079019069
| 18> H -0.7932306152 0.9842280538 1.4015783425
| 19> H -1.2510992122 1.8369461062 -0.0866753431
| 20> H -1.3767543992 -1.3512313956 0.5944092482
| 21> *
| 22>
| 23>                          ****END OF INPUT****

CARTESIAN COORDINATES (ANGSTROEM)
---------------------------------
  C      2.864642   -0.378277   -0.080683
  C      1.419092   -0.350660    0.400768
  C      0.645060    0.809747   -0.220595
  C     -0.772937    0.943281    0.313793
  S     -1.882714   -0.421173   -0.205554
  H      3.398009   -1.214257    0.364567
  H      3.376322    0.541697    0.193046
  H      2.903200   -0.482828   -1.162584
  H      1.400529   -0.255936    1.489147
  H      0.937103   -1.293456    0.133938
  H      0.608887    0.684832   -1.305117
  H      1.168597    1.745242   -0.007902
  H     -0.793231    0.984228    1.401578
  H     -1.251099    1.836946   -0.086675
  H     -1.376754   -1.351231    0.594409

 Total Charge           Charge          ....    0
 Multiplicity           Mult            ....    1
 Number of Electrons    NEL             ....   50
 Basis Dimension        Dim             ....   94

ORBITAL ENERGIES
----------------

  NO   OCC          E(Eh)            E(eV)
   0   2.0000     -88.012381     -2394.9387
   1   2.0000      -9.916950      -269.8539
   2   2.0000      -9.888989      -269.0931
   3   2.0000      -9.886840      -269.0346
   4   2.0000      -9.875340      -268.7217
   5   2.0000      -7.658953      -208.4107
   6   2.0000      -5.687287      -154.7589
   7   2.0000      -5.683438      -154.6542
   8   2.0000      -5.675189      -154.4297
   9   2.0000      -0.738165       -20.0865
  10   2.0000      -0.687184       -18.6992
  11   2.0000      -0.622546       -16.9403
  12   2.0000      -0.556519       -15.1437
  13   2.0000      -0.512665       -13.9503
  14   2.0000      -0.430764       -11.7217
  15   2.0000      -0.405864       -11.0441
  16   2.0000      -0.389480       -10.5983
  17   2.0000      -0.376658       -10.2494
  18   2.0000      -0.337289        -9.1781
  19   2.0000      -0.334345        -9.0980
  20   2.0000      -0.305643        -8.3170
  21   2.0000      -0.294600        -8.0165
  22   2.0000      -0.287385        -7.8201
  23   2.0000      -0.278709        -7.5841
  24   2.0000      -0.194124        -5.2824
  25   0.0000       0.008102         0.2205
  26   0.0000       0.038277         1.0416
  27   0.0000       0.044360         1.2071
  28   0.0000       0.060901         1.6572
  29   0.0000       0.073004         1.9865

MULLIKEN ATOMIC CHARGES
-----------------------
   0 C :   -0.259875
   1 C :   -0.210344
   2 C :   -0.125653
   3 C :   -0.281690
   4 S :   -0.182212
   5 H :    0.103457
   6 H :    0.097779
   7 H :    0.101177
   8 H :    0.082426
   9 H :    0.082445
  10 H :    0.093114
  11 H :    0.085208
  12 H :    0.127952
  13 H :    0.135921
  14 H :    0.150296
Sum of atomic charges:   -0.0000000

LOEWDIN ATOMIC CHARGES
----------------------
   0 C :   -0.338214
   1 C :   -0.241280
   2 C :   -0.246444
   3 C :   -0.331282
   4 S :    0.014923
   5 H :    0.119388
   6 H :    0.116388
   7 H :    0.118987
   8 H :    0.112707
   9 H :    0.110237
  10 H :    0.118883
  11 H :    0.118141
  12 H :    0.122168
  13 H :    0.127738
  14 H :    0.077661

  Mayer bond orders larger than 0.100000
B(  0-C ,  1-C ) :   1.1599 B(  0-C ,  5-H ) :   0.9535 B(  0-C ,  6-H ) :   0.9555
B(  0-C ,  7-H ) :   0.9544 B(  1-C ,  2-C ) :   1.1311 B(  1-C ,  8-H ) :   0.9276
B(  1-C ,  9-H ) :   0.9150 B(  2-C ,  3-C ) :   1.0737 B(  2-C , 10-H ) :   0.9195
B(  2-C , 11-H ) :   0.9090 B(  3-C ,  4-S ) :   1.0802 B(  3-C , 12-H ) :   0.9253
B(  3-C , 13-H ) :   0.9294 B(  4-S , 14-H ) :   0.9037

Dispersion correction           -0.011053162
FINAL SINGLE POINT ENERGY      -555.913454596853

DIPOLE MOMENT
-------------

Method             : SCF
Type of density    : Electron Density
Multiplicity       :   1
Irrep              :   0
Energy             :  -555.9654162512114226 Eh
Relativity type    :
Basis              : AO
                                X                 Y                 Z
Electronic contribution:     -9.295788398      -0.971400026      -1.178821818
Nuclear contribution   :      9.783745850       1.133291163       1.520425733
                        -----------------------------------------
Total Dipole Moment    :      0.487957452       0.161891137       0.341603916
                        -----------------------------------------
Magnitude (a.u.)       :      0.617255580
Magnitude (Debye)      :      1.568938997

Rotational constants in cm-1:             0.314528             0.055865             0.051021
Rotational constants in MHz :          9429.306848          1674.781602          1529.574876

                             ****ORCA TERMINATED NORMALLY****
TOTAL RUN TIME: 0 days 0 hours 0 minutes 5 seconds 510 msec
