                         Program Version 6.0.0  -   RELEASE  -
|  1> ! pbe def2-sv(p) def2/J RI DEFGRID1 loosescf d4 GCP(DFT/SV(P)) printgap
|  2> %output
|  3>     printlevel normal
|  4> end
|  5> * xyz 0 1
|  6> C -3.3616956254 -0.2472023551 -0.6253095037
|  7> C -2.1647224607 -0.473978601 0.2909203042
|  8> C -0.976374751 0.3990060862 -0.1078517998
|  9> C 0.2526520415 0.1691162419 0.7780936067
| 10> C 0.9961994571 -1.1277757315 0.4179836402
| 11> C 2.1354231986 -0.7304466139 -0.5413382432
| 12> C 2.0605670438 0.7946959459 -0.6836724732
| 13> C 1.3174741026 1.2504623568 0.5685372423
| 14> H -4.2010706088 -0.867006774 -0.3194320657
| 15> H -3.6737126592 0.7944426853 -0.5938323481
| 16> H -3.1068396679 -0.49654391 -1.6530043394
| 17> H -2.4478538564 -0.2460482175 1.3213064328
| 18> H -1.8792707838 -1.5271772372 0.2549848244
| 19> H -0.7186475208 0.2003653443 -1.1493498864
| 20> H -1.2775832739 1.4470028111 -0.0339873567
| 21> H -0.0795413168 0.1521513538 1.8203315874
| 22> H 1.4060853799 -1.5837554252 1.3193494836
| 23> H 0.3257242674 -1.8527954154 -0.0399844428
| 24> H 3.0982293594 -1.0226212845 -0.1221085947
| 25> H 2.0356413206 -1.2222756578 -1.5080783592
| 26> H 3.0474306695 1.2478037797 -0.7665326222
| 27> H 1.4897364321 1.0678620604 -1.5714963176
| 28> H 2.0006973607 1.2591318626 1.4195714163
| 29> H 0.8882763846 2.245752742 0.4620043557
| 30> *
| 31>
| 32>                          ****END OF INPUT****

CARTESIAN COORDINATES (ANGSTROEM)
---------------------------------
  C     -3.361696   -0.247202   -0.625310
  C     -2.164722   -0.473979    0.290920
  C     -0.976375    0.399006   -0.107852
  C      0.252652    0.169116    0.778094
  C      0.996199   -1.127776    0.417984
  C      2.135423   -0.730447   -0.541338
  C      2.060567    0.794696   -0.683672
  C      1.317474    1.250462    0.568537
  H     -4.201071   -0.867007   -0.319432
  H     -3.673713    0.794443   -0.593832
  H     -3.106840   -0.496544   -1.653004
  H     -2.447854   -0.246048    1.321306
  H     -1.879271   -1.527177    0.254985
  H     -0.718648    0.200365   -1.149350
  H     -1.277583    1.447003   -0.033987
  H     -0.079541    0.152151    1.820332
  H      1.406085   -1.583755    1.319349
  H      0.325724   -1.852795   -0.039984
  H      3.098229   -1.022621   -0.122109
  H      2.035641   -1.222276   -1.508078
  H      3.047431    1.247804   -0.766533
  H      1.489736    1.067862   -1.571496
  H      2.000697    1.259132    1.419571
  H      0.888276    2.245753    0.462004

 Total Charge           Charge          ....    0
 Multiplicity           Mult            ....    1
 Number of Electrons    NEL             ....   64
 Basis Dimension        Dim             ....  144

ORBITAL ENERGIES
----------------

  NO   OCC          E(Eh)            E(eV)
   0   2.0000      -9.883418      -268.9415
   1   2.0000      -9.879561      -268.8365
   2   2.0000      -9.876525      -268.7539
   3   2.0000      -9.874647      -268.7028
   4   2.0000      -9.874254      -268.6921
   5   2.0000      -9.873613      -268.6747
   6   2.0000      -9.873493      -268.6714
   7   2.0000      -9.870152      -268.5805
   8   2.0000      -0.758871       -20.6499
   9   2.0000      -0.703164       -19.1341
  10   2.0000      -0.643334       -17.5060
  11   2.0000      -0.629590       -17.1320
  12   2.0000      -0.584744       -15.9117
  13   2.0000      -0.521079       -14.1793
  14   2.0000      -0.496873       -13.5206
  15   2.0000      -0.479924       -13.0594
  16   2.0000      -0.434641       -11.8272
  17   2.0000      -0.423292       -11.5184
  18   2.0000      -0.409420       -11.1409
  19   2.0000      -0.376030       -10.2323
  20   2.0000      -0.371441       -10.1074
  21   2.0000      -0.348797        -9.4912
  22   2.0000      -0.337912        -9.1951
  23   2.0000      -0.323687        -8.8080
  24   2.0000      -0.301508        -8.2044
  25   2.0000      -0.293904        -7.9975
  26   2.0000      -0.290842        -7.9142
  27   2.0000      -0.287952        -7.8356
  28   2.0000      -0.276132        -7.5139
  29   2.0000      -0.271303        -7.3825
  30   2.0000      -0.264234        -7.1902
  31   2.0000      -0.259630        -7.0649
  32   0.0000       0.028835         0.7846
  33   0.0000       0.043950         1.1959
  34   0.0000       0.053709         1.4615
  35   0.0000       0.069323         1.8864
  36   0.0000       0.077205         2.1009

MULLIKEN ATOMIC CHARGES
-----------------------
   0 C :   -0.255289
   1 C :   -0.186435
   2 C :   -0.158828
   3 C :   -0.171501
   4 C :   -0.114269
   5 C :   -0.157642
   6 C :   -0.169354
   7 C :   -0.109859
   8 H :    0.100452
   9 H :    0.095803
  10 H :    0.095806
  11 H :    0.082247
  12 H :    0.086806
  13 H :    0.077363
  14 H :    0.074929
  15 H :    0.060174
  16 H :    0.077517
  17 H :    0.082642
  18 H :    0.079519
  19 H :    0.080345
  20 H :    0.085234
  21 H :    0.085817
  22 H :    0.077092
  23 H :    0.081431
Sum of atomic charges:    0.0000000

LOEWDIN ATOMIC CHARGES
----------------------
   0 C :   -0.339446
   1 C :   -0.233461
   2 C :   -0.217940
   3 C :   -0.145674
   4 C :   -0.221619
   5 C :   -0.230307
   6 C :   -0.230578
   7 C :   -0.218157
   8 H :    0.117840
   9 H :    0.116007
  10 H :    0.116031
  11 H :    0.113515
  12 H :    0.113003
  13 H :    0.112087
  14 H :    0.112933
  15 H :    0.111793
  16 H :    0.117458
  17 H :    0.114885
  18 H :    0.117514
  19 H :    0.116618
  20 H :    0.116069
  21 H :    0.114435
  22 H :    0.113991
  23 H :    0.113002

  Mayer bond orders larger than 0.100000
B(  0-C ,  1-C ) :   1.1551 B(  0-C ,  8-H ) :   0.9527 B(  0-C ,  9-H ) :   0.9545
B(  0-C , 10-H ) :   0.9539 B(  1-C ,  2-C ) :   1.1423 B(  1-C , 11-H ) :   0.9230
B(  1-C , 12-H ) :   0.9184 B(  2-C ,  3-C ) :   1.0713 B(  2-C , 13-H ) :   0.9165
B(  2-C , 14-H ) :   0.9171 B(  3-C ,  4-C ) :   1.1009 B(  3-C ,  7-C ) :   1.0813
B(  3-C , 15-H ) :   0.9005 B(  4-C ,  5-C ) :   1.1529 B(  4-C , 16-H ) :   0.9168
B(  4-C , 17-H ) :   0.9167 B(  5-C ,  6-C ) :   1.1607 B(  5-C , 18-H ) :   0.9232
B(  5-C , 19-H ) :   0.9256 B(  6-C ,  7-C ) :   1.1208 B(  6-C , 20-H ) :   0.9275
B(  6-C , 21-H ) :   0.9186 B(  7-C , 22-H ) :   0.9224 B(  7-C , 23-H ) :   0.9235

Dispersion correction           -0.020776944
FINAL SINGLE POINT ENERGY      -313.692202877696

DIPOLE MOMENT
-------------

Method             : SCF
Type of density    : Electron Density
Multiplicity       :   1
Irrep              :   0
Energy             :  -313.7733003327733741 Eh
Relativity type    :
Basis              : AO
                                X                 Y                 Z
Electronic contribution:      2.898757442       0.367860813       1.115965137
Nuclear contribution   :     -2.901455438      -0.378747004      -1.088511390
                        -----------------------------------------
Total Dipole Moment    :     -0.002697996      -0.010886191       0.027453747
                        -----------------------------------------
Magnitude (a.u.)       :      0.029656307
Magnitude (Debye)      :      0.075380342

Rotational constants in cm-1:             0.137646             0.035272             0.033301
Rotational constants in MHz :          4126.509224          1057.442814           998.334712

                             ****ORCA TERMINATED NORMALLY****
TOTAL RUN TIME: 0 days 0 hours 0 minutes 11 seconds 213 msec
