                         Program Version 6.0.0  -   RELEASE  -
|  1> ! pbe def2-sv(p) def2/J RI DEFGRID1 loosescf d4 GCP(DFT/SV(P)) printgap
|  2> %output
|  3>     printlevel normal
|  4> end
|  5> * xyz 0 1
|  6> C 1.9470667286 -0.2111031232 0.5222275351
|  7> O 1.0066580107 -0.2731045272 -0.5299248219
|  8> C 0.0280182869 0.7518925383 -0.5106512784
|  9> C -1.1179664841 0.4747322635 0.4662889032
| 10> N -1.9137676987 -0.6433331146 -0.0207867895
| 11> H 2.6636772323 -1.0060864149 0.3296702074
| 12> H 1.480187467 -0.3713522311 1.4990216949
| 13> H 2.460137034 0.7568475298 0.5262814113
| 14> H 0.4985062454 1.7148671527 -0.2750815147
| 15> H -0.373816029 0.7802480583 -1.5251173001
| 16> H -0.7012767658 0.3070892415 1.4737977317
| 17> H -1.7608868553 1.3575539601 0.5102362874
| 18> H -2.5694973549 -0.9426744018 0.6917403438
| 19> H -1.295199096 -1.4224921091 -0.2242967953
| 20> *
| 21>
| 22>                          ****END OF INPUT****

CARTESIAN COORDINATES (ANGSTROEM)
---------------------------------
  C      1.947067   -0.211103    0.522228
  O      1.006658   -0.273105   -0.529925
  C      0.028018    0.751893   -0.510651
  C     -1.117966    0.474732    0.466289
  N     -1.913768   -0.643333   -0.020787
  H      2.663677   -1.006086    0.329670
  H      1.480187   -0.371352    1.499022
  H      2.460137    0.756848    0.526281
  H      0.498506    1.714867   -0.275082
  H     -0.373816    0.780248   -1.525117
  H     -0.701277    0.307089    1.473798
  H     -1.760887    1.357554    0.510236
  H     -2.569497   -0.942674    0.691740
  H     -1.295199   -1.422492   -0.224297

 Total Charge           Charge          ....    0
 Multiplicity           Mult            ....    1
 Number of Electrons    NEL             ....   42
 Basis Dimension        Dim             ....   88

ORBITAL ENERGIES
----------------

  NO   OCC          E(Eh)            E(eV)
   0   2.0000     -18.751692      -510.2595
   1   2.0000     -13.956822      -379.7844
   2   2.0000      -9.926055      -270.1017
   3   2.0000      -9.925552      -270.0880
   4   2.0000      -9.906021      -269.5565
   5   2.0000      -0.931191       -25.3390
   6   2.0000      -0.789671       -21.4880
   7   2.0000      -0.660963       -17.9857
   8   2.0000      -0.601856       -16.3773
   9   2.0000      -0.523749       -14.2519
  10   2.0000      -0.449346       -12.2273
  11   2.0000      -0.438121       -11.9219
  12   2.0000      -0.425875       -11.5887
  13   2.0000      -0.394832       -10.7439
  14   2.0000      -0.378690       -10.3047
  15   2.0000      -0.344128        -9.3642
  16   2.0000      -0.330439        -8.9917
  17   2.0000      -0.320836        -8.7304
  18   2.0000      -0.260881        -7.0989
  19   2.0000      -0.208433        -5.6717
  20   2.0000      -0.179215        -4.8767
  21   0.0000       0.031339         0.8528
  22   0.0000       0.063728         1.7341
  23   0.0000       0.073604         2.0029
  24   0.0000       0.081363         2.2140
  25   0.0000       0.095835         2.6078

MULLIKEN ATOMIC CHARGES
-----------------------
   0 C :   -0.111124
   1 O :   -0.345768
   2 C :   -0.004766
   3 C :   -0.081976
   4 N :   -0.470026
   5 H :    0.115266
   6 H :    0.091049
   7 H :    0.086664
   8 H :    0.069050
   9 H :    0.096288
  10 H :    0.067569
  11 H :    0.082284
  12 H :    0.200754
  13 H :    0.204735
Sum of atomic charges:    0.0000000

LOEWDIN ATOMIC CHARGES
----------------------
   0 C :   -0.209515
   1 O :   -0.183941
   2 C :   -0.120492
   3 C :   -0.196012
   4 N :   -0.422443
   5 H :    0.116233
   6 H :    0.094404
   7 H :    0.097774
   8 H :    0.097186
   9 H :    0.117070
  10 H :    0.090745
  11 H :    0.114258
  12 H :    0.203069
  13 H :    0.201664

  Mayer bond orders larger than 0.100000
B(  0-C ,  1-O ) :   1.0200 B(  0-C ,  5-H ) :   0.9630 B(  0-C ,  6-H ) :   0.9369
B(  0-C ,  7-H ) :   0.9420 B(  1-O ,  2-C ) :   1.0227 B(  2-C ,  3-C ) :   1.1116
B(  2-C ,  8-H ) :   0.9159 B(  2-C ,  9-H ) :   0.9240 B(  3-C ,  4-N ) :   1.0988
B(  3-C , 10-H ) :   0.9039 B(  3-C , 11-H ) :   0.9199 B(  4-N , 12-H ) :   0.9057
B(  4-N , 13-H ) :   0.8959

Dispersion correction           -0.008483554
FINAL SINGLE POINT ENERGY      -249.092667872888

DIPOLE MOMENT
-------------

Method             : SCF
Type of density    : Electron Density
Multiplicity       :   1
Irrep              :   0
Energy             :  -249.1537999676828292 Eh
Relativity type    :
Basis              : AO
                                X                 Y                 Z
Electronic contribution:     -0.162371195      -1.017455789      -2.042689974
Nuclear contribution   :      0.381420246       1.093809207       2.812385331
                        -----------------------------------------
Total Dipole Moment    :      0.219049051       0.076353418       0.769695357
                        -----------------------------------------
Magnitude (a.u.)       :      0.803892576
Magnitude (Debye)      :      2.043332542

Rotational constants in cm-1:             0.345841             0.095340             0.091705
Rotational constants in MHz :         10368.051831          2858.214351          2749.242669

                             ****ORCA TERMINATED NORMALLY****
TOTAL RUN TIME: 0 days 0 hours 0 minutes 5 seconds 943 msec
