                         Program Version 6.0.0  -   RELEASE  -
|  1> ! r2scan-3c def2/J RI DEFGRID2 scfconv6 printgap
|  2> %output
|  3>     printlevel normal
|  4> end
|  5> * xyz 0 1
|  6> C 1.7523379834 0.8313437324 0.9598308431
|  7> C 1.3620042301 0.590929613 -0.4947024129
|  8> C 0.2462055525 -0.4326656575 -0.7708743729
|  9> H 0.1247153556 -0.4249854024 -1.8633075111
| 10> C 0.6904532365 -1.8451637297 -0.388801261
| 11> C -1.1573310452 -0.1065136689 -0.208913636
| 12> C -1.3566741263 -0.4024931418 1.2774933065
| 13> C -1.5639692461 1.3353089151 -0.5132847755
| 14> H 0.9855976764 1.3889231856 1.4900645427
| 15> H 1.9302718982 -0.1040519358 1.4824084429
| 16> H 2.6695662344 1.4162916834 0.9947767498
| 17> H 2.247707786 0.2349925163 -1.0287583682
| 18> H 1.0843018105 1.5458451929 -0.9441083703
| 19> H -0.0897051193 -2.5644432416 -0.6283446804
| 20> H 1.5863925264 -2.11596462 -0.9433052088
| 21> H 0.9130371445 -1.920210516 0.6712152116
| 22> H -1.849566212 -0.7629194285 -0.7535596473
| 23> H -0.706668733 0.2022254839 1.9000438321
| 24> H -1.172322376 -1.4499960234 1.496514109
| 25> H -2.3868471241 -0.1805449359 1.5502354621
| 26> H -2.6171890412 1.4818512433 -0.2835878728
| 27> H -1.4095918515 1.5648814451 -1.5653798204
| 28> H -0.988261649 2.0367203353 0.0845429565
| 29> *
| 30>
| 31>                          ****END OF INPUT****

CARTESIAN COORDINATES (ANGSTROEM)
---------------------------------
  C      1.752338    0.831344    0.959831
  C      1.362004    0.590930   -0.494702
  C      0.246206   -0.432666   -0.770874
  H      0.124715   -0.424985   -1.863308
  C      0.690453   -1.845164   -0.388801
  C     -1.157331   -0.106514   -0.208914
  C     -1.356674   -0.402493    1.277493
  C     -1.563969    1.335309   -0.513285
  H      0.985598    1.388923    1.490065
  H      1.930272   -0.104052    1.482408
  H      2.669566    1.416292    0.994777
  H      2.247708    0.234993   -1.028758
  H      1.084302    1.545845   -0.944108
  H     -0.089705   -2.564443   -0.628345
  H      1.586393   -2.115965   -0.943305
  H      0.913037   -1.920211    0.671215
  H     -1.849566   -0.762919   -0.753560
  H     -0.706669    0.202225    1.900044
  H     -1.172322   -1.449996    1.496514
  H     -2.386847   -0.180545    1.550235
  H     -2.617189    1.481851   -0.283588
  H     -1.409592    1.564881   -1.565380
  H     -0.988262    2.036720    0.084543

 Total Charge           Charge          ....    0
 Multiplicity           Mult            ....    1
 Number of Electrons    NEL             ....   58
 Basis Dimension        Dim             ....  213

ORBITAL ENERGIES
----------------

  NO   OCC          E(Eh)            E(eV)
   0   2.0000     -10.029263      -272.9101
   1   2.0000     -10.027846      -272.8716
   2   2.0000     -10.020411      -272.6692
   3   2.0000     -10.013473      -272.4805
   4   2.0000     -10.012176      -272.4452
   5   2.0000     -10.011619      -272.4300
   6   2.0000     -10.009825      -272.3812
   7   2.0000      -0.786641       -21.4056
   8   2.0000      -0.725643       -19.7457
   9   2.0000      -0.685680       -18.6583
  10   2.0000      -0.648189       -17.6381
  11   2.0000      -0.605352       -16.4725
  12   2.0000      -0.562818       -15.3151
  13   2.0000      -0.490385       -13.3441
  14   2.0000      -0.443347       -12.0641
  15   2.0000      -0.426966       -11.6183
  16   2.0000      -0.409476       -11.1424
  17   2.0000      -0.384783       -10.4705
  18   2.0000      -0.379220       -10.3191
  19   2.0000      -0.354471        -9.6457
  20   2.0000      -0.349386        -9.5073
  21   2.0000      -0.347118        -9.4456
  22   2.0000      -0.343786        -9.3549
  23   2.0000      -0.319887        -8.7046
  24   2.0000      -0.311946        -8.4885
  25   2.0000      -0.303738        -8.2651
  26   2.0000      -0.276855        -7.5336
  27   2.0000      -0.272653        -7.4193
  28   2.0000      -0.264964        -7.2100
  29   0.0000       0.076170         2.0727
  30   0.0000       0.108929         2.9641
  31   0.0000       0.110079         2.9954
  32   0.0000       0.118747         3.2313
  33   0.0000       0.131160         3.5691

MULLIKEN ATOMIC CHARGES
-----------------------
   0 C :   -0.493395
   1 C :   -0.270511
   2 C :   -0.029061
   3 H :    0.154125
   4 C :   -0.541237
   5 C :   -0.056421
   6 C :   -0.501757
   7 C :   -0.510092
   8 H :    0.142012
   9 H :    0.153149
  10 H :    0.144547
  11 H :    0.137801
  12 H :    0.153407
  13 H :    0.152013
  14 H :    0.148191
  15 H :    0.160874
  16 H :    0.150545
  17 H :    0.155021
  18 H :    0.156431
  19 H :    0.141093
  20 H :    0.146967
  21 H :    0.150900
  22 H :    0.155397
Sum of atomic charges:    0.0000000

LOEWDIN ATOMIC CHARGES
----------------------
   0 C :   -0.426274
   1 C :   -0.309133
   2 C :   -0.236750
   3 H :    0.160800
   4 C :   -0.416930
   5 C :   -0.239642
   6 C :   -0.415750
   7 C :   -0.415611
   8 H :    0.145800
   9 H :    0.150428
  10 H :    0.150980
  11 H :    0.155172
  12 H :    0.155981
  13 H :    0.155093
  14 H :    0.153598
  15 H :    0.152038
  16 H :    0.157423
  17 H :    0.154729
  18 H :    0.155118
  19 H :    0.153163
  20 H :    0.152677
  21 H :    0.154172
  22 H :    0.152917

  Mayer bond orders larger than 0.100000
B(  0-C ,  1-C ) :   0.8679 B(  0-C ,  8-H ) :   0.9800 B(  0-C ,  9-H ) :   0.9891
B(  0-C , 10-H ) :   0.9657 B(  1-C ,  2-C ) :   0.8942 B(  1-C , 11-H ) :   0.9705
B(  1-C , 12-H ) :   0.9679 B(  2-C ,  3-H ) :   0.9746 B(  2-C ,  4-C ) :   0.8957
B(  2-C ,  5-C ) :   0.8866 B(  4-C , 13-H ) :   0.9759 B(  4-C , 14-H ) :   0.9730
B(  4-C , 15-H ) :   0.9836 B(  5-C ,  6-C ) :   0.9024 B(  5-C ,  7-C ) :   0.8876
B(  5-C , 16-H ) :   0.9690 B(  6-C , 17-H ) :   0.9782 B(  6-C , 18-H ) :   0.9721
B(  6-C , 19-H ) :   0.9713 B(  7-C , 20-H ) :   0.9721 B(  7-C , 21-H ) :   0.9782
B(  7-C , 22-H ) :   0.9813

Dispersion correction           -0.006801523
FINAL SINGLE POINT ENERGY      -276.282673041470

DIPOLE MOMENT
-------------

Method             : SCF
Type of density    : Electron Density
Multiplicity       :   1
Irrep              :   0
Energy             :  -276.2872733668488650 Eh
Relativity type    :
Basis              : AO
                                X                 Y                 Z
Electronic contribution:     -0.306511408      -0.334927538      -1.632051891
Nuclear contribution   :      0.301561041       0.327057133       1.556831833
                        -----------------------------------------
Total Dipole Moment    :     -0.004950367      -0.007870405      -0.075220058
                        -----------------------------------------
Magnitude (a.u.)       :      0.075792523
Magnitude (Debye)      :      0.192649282

Rotational constants in cm-1:             0.092964             0.068306             0.058404
Rotational constants in MHz :          2786.998159          2047.762491          1750.922736

                             ****ORCA TERMINATED NORMALLY****
TOTAL RUN TIME: 0 days 0 hours 0 minutes 24 seconds 277 msec
