                         Program Version 6.0.0  -   RELEASE  -
|  1> ! r2scan-3c def2/J RI DEFGRID2 scfconv6 printgap
|  2> %output
|  3>     printlevel normal
|  4> end
|  5> %cpcm
|  6>     smd true
|  7>     smdsolvent "water"
|  8> end
|  9> * xyz 0 1
| 10> C 1.7523379834 0.8313437324 0.9598308431
| 11> C 1.3620042301 0.590929613 -0.4947024129
| 12> C 0.2462055525 -0.4326656575 -0.7708743729
| 13> H 0.1247153556 -0.4249854024 -1.8633075111
| 14> C 0.6904532365 -1.8451637297 -0.388801261
| 15> C -1.1573310452 -0.1065136689 -0.208913636
| 16> C -1.3566741263 -0.4024931418 1.2774933065
| 17> C -1.5639692461 1.3353089151 -0.5132847755
| 18> H 0.9855976764 1.3889231856 1.4900645427
| 19> H 1.9302718982 -0.1040519358 1.4824084429
| 20> H 2.6695662344 1.4162916834 0.9947767498
| 21> H 2.247707786 0.2349925163 -1.0287583682
| 22> H 1.0843018105 1.5458451929 -0.9441083703
| 23> H -0.0897051193 -2.5644432416 -0.6283446804
| 24> H 1.5863925264 -2.11596462 -0.9433052088
| 25> H 0.9130371445 -1.920210516 0.6712152116
| 26> H -1.849566212 -0.7629194285 -0.7535596473
| 27> H -0.706668733 0.2022254839 1.9000438321
| 28> H -1.172322376 -1.4499960234 1.496514109
| 29> H -2.3868471241 -0.1805449359 1.5502354621
| 30> H -2.6171890412 1.4818512433 -0.2835878728
| 31> H -1.4095918515 1.5648814451 -1.5653798204
| 32> H -0.988261649 2.0367203353 0.0845429565
| 33> *
| 34>
| 35>                          ****END OF INPUT****

CARTESIAN COORDINATES (ANGSTROEM)
---------------------------------
  C      1.752338    0.831344    0.959831
  C      1.362004    0.590930   -0.494702
  C      0.246206   -0.432666   -0.770874
  H      0.124715   -0.424985   -1.863308
  C      0.690453   -1.845164   -0.388801
  C     -1.157331   -0.106514   -0.208914
  C     -1.356674   -0.402493    1.277493
  C     -1.563969    1.335309   -0.513285
  H      0.985598    1.388923    1.490065
  H      1.930272   -0.104052    1.482408
  H      2.669566    1.416292    0.994777
  H      2.247708    0.234993   -1.028758
  H      1.084302    1.545845   -0.944108
  H     -0.089705   -2.564443   -0.628345
  H      1.586393   -2.115965   -0.943305
  H      0.913037   -1.920211    0.671215
  H     -1.849566   -0.762919   -0.753560
  H     -0.706669    0.202225    1.900044
  H     -1.172322   -1.449996    1.496514
  H     -2.386847   -0.180545    1.550235
  H     -2.617189    1.481851   -0.283588
  H     -1.409592    1.564881   -1.565380
  H     -0.988262    2.036720    0.084543

 Total Charge           Charge          ....    0
 Multiplicity           Mult            ....    1
 Number of Electrons    NEL             ....   58
 Basis Dimension        Dim             ....  213

ORBITAL ENERGIES
----------------

  NO   OCC          E(Eh)            E(eV)
   0   2.0000     -10.021612      -272.7019
   1   2.0000     -10.019905      -272.6555
   2   2.0000     -10.012488      -272.4536
   3   2.0000     -10.005073      -272.2519
   4   2.0000     -10.004167      -272.2272
   5   2.0000     -10.003466      -272.2082
   6   2.0000     -10.002497      -272.1818
   7   2.0000      -0.778811       -21.1925
   8   2.0000      -0.718044       -19.5390
   9   2.0000      -0.678009       -18.4496
  10   2.0000      -0.641173       -17.4472
  11   2.0000      -0.597817       -16.2674
  12   2.0000      -0.555403       -15.1133
  13   2.0000      -0.482841       -13.1388
  14   2.0000      -0.435438       -11.8489
  15   2.0000      -0.419081       -11.4038
  16   2.0000      -0.401952       -10.9377
  17   2.0000      -0.377130       -10.2622
  18   2.0000      -0.371322       -10.1042
  19   2.0000      -0.346894        -9.4395
  20   2.0000      -0.341721        -9.2987
  21   2.0000      -0.339353        -9.2343
  22   2.0000      -0.336163        -9.1475
  23   2.0000      -0.311949        -8.4886
  24   2.0000      -0.304225        -8.2784
  25   2.0000      -0.295962        -8.0535
  26   2.0000      -0.269334        -7.3289
  27   2.0000      -0.264762        -7.2045
  28   2.0000      -0.257000        -6.9933
  29   0.0000       0.084777         2.3069
  30   0.0000       0.117025         3.1844
  31   0.0000       0.117500         3.1973
  32   0.0000       0.126120         3.4319
  33   0.0000       0.136571         3.7163

MULLIKEN ATOMIC CHARGES
-----------------------
   0 C :   -0.533806
   1 C :   -0.280426
   2 C :   -0.021909
   3 H :    0.159201
   4 C :   -0.578978
   5 C :   -0.038997
   6 C :   -0.545022
   7 C :   -0.551505
   8 H :    0.157879
   9 H :    0.163287
  10 H :    0.152605
  11 H :    0.145996
  12 H :    0.157782
  13 H :    0.160727
  14 H :    0.158158
  15 H :    0.172406
  16 H :    0.156652
  17 H :    0.165496
  18 H :    0.164350
  19 H :    0.151661
  20 H :    0.157385
  21 H :    0.159957
  22 H :    0.167100
Sum of atomic charges:    0.0000000

LOEWDIN ATOMIC CHARGES
----------------------
   0 C :   -0.434758
   1 C :   -0.311470
   2 C :   -0.235586
   3 H :    0.162394
   4 C :   -0.424894
   5 C :   -0.237788
   6 C :   -0.424227
   7 C :   -0.423911
   8 H :    0.150110
   9 H :    0.152748
  10 H :    0.152208
  11 H :    0.156706
  12 H :    0.156862
  13 H :    0.156886
  14 H :    0.155348
  15 H :    0.155024
  16 H :    0.159158
  17 H :    0.156984
  18 H :    0.156649
  19 H :    0.155029
  20 H :    0.154453
  21 H :    0.156235
  22 H :    0.155841

  Mayer bond orders larger than 0.100000
B(  0-C ,  1-C ) :   0.8588 B(  0-C ,  8-H ) :   0.9775 B(  0-C ,  9-H ) :   0.9857
B(  0-C , 10-H ) :   0.9639 B(  1-C ,  2-C ) :   0.8917 B(  1-C , 11-H ) :   0.9719
B(  1-C , 12-H ) :   0.9689 B(  2-C ,  3-H ) :   0.9749 B(  2-C ,  4-C ) :   0.8911
B(  2-C ,  5-C ) :   0.8878 B(  4-C , 13-H ) :   0.9736 B(  4-C , 14-H ) :   0.9720
B(  4-C , 15-H ) :   0.9794 B(  5-C ,  6-C ) :   0.8936 B(  5-C ,  7-C ) :   0.8802
B(  5-C , 16-H ) :   0.9699 B(  6-C , 17-H ) :   0.9773 B(  6-C , 18-H ) :   0.9699
B(  6-C , 19-H ) :   0.9704 B(  7-C , 20-H ) :   0.9709 B(  7-C , 21-H ) :   0.9754
B(  7-C , 22-H ) :   0.9791

Dispersion correction           -0.006801523
FINAL SINGLE POINT ENERGY      -276.279013868678

DIPOLE MOMENT
-------------

Method             : SCF
Type of density    : Electron Density
Multiplicity       :   1
Irrep              :   0
Energy             :  -276.2836141940565540 Eh
Relativity type    :
Basis              : AO
                                X                 Y                 Z
Electronic contribution:     -0.313224795      -0.332671354      -1.644739509
Nuclear contribution   :      0.301561041       0.327057133       1.556831833
                        -----------------------------------------
Total Dipole Moment    :     -0.011663754      -0.005614222      -0.087907676
                        -----------------------------------------
Magnitude (a.u.)       :      0.088855625
Magnitude (Debye)      :      0.225853051

Rotational constants in cm-1:             0.092964             0.068306             0.058404
Rotational constants in MHz :          2786.998159          2047.762491          1750.922736

                             ****ORCA TERMINATED NORMALLY****
TOTAL RUN TIME: 0 days 0 hours 0 minutes 26 seconds 581 msec
