                         Program Version 6.0.0  -   RELEASE  -
|  1> ! r2scan-3c def2/J RI DEFGRID2 scfconv6 printgap
|  2> %output
|  3>     printlevel normal
|  4> end
|  5> * xyz 0 1
|  6> C -2.0239847766 0.3046373907 -0.6788410825
|  7> C -1.4421597845 -0.7606700213 0.2419463197
|  8> C -0.2294940328 -0.240205583 1.0282359045
|  9> C 0.8931575868 0.1953652673 0.1174135654
| 10> O 1.1688735931 1.3688199036 -0.0465403276
| 11> C 1.6469601288 -0.9068903583 -0.5651200138
| 12> H -1.2855909986 0.6312230103 -1.4087272669
| 13> H -2.3340790033 1.1753477162 -0.1055530328
| 14> H -2.8883611867 -0.0837303127 -1.2114166372
| 15> H -1.1560355246 -1.6357693424 -0.3424614139
| 16> H -2.2034579707 -1.072950135 0.9584153145
| 17> H -0.5347096122 0.6176041748 1.6302562729
| 18> H 0.1337942098 -1.030305543 1.6855546568
| 19> H 0.9621351128 -1.5181534602 -1.1466015177
| 20> H 2.1103189171 -1.5440659451 0.1838593239
| 21> H 2.4113538048 -0.4919026288 -1.2161416311
| 22> *
| 23>
| 24>                          ****END OF INPUT****

CARTESIAN COORDINATES (ANGSTROEM)
---------------------------------
  C     -2.023985    0.304637   -0.678841
  C     -1.442160   -0.760670    0.241946
  C     -0.229494   -0.240206    1.028236
  C      0.893158    0.195365    0.117414
  O      1.168874    1.368820   -0.046540
  C      1.646960   -0.906890   -0.565120
  H     -1.285591    0.631223   -1.408727
  H     -2.334079    1.175348   -0.105553
  H     -2.888361   -0.083730   -1.211417
  H     -1.156036   -1.635769   -0.342461
  H     -2.203458   -1.072950    0.958415
  H     -0.534710    0.617604    1.630256
  H      0.133794   -1.030306    1.685555
  H      0.962135   -1.518153   -1.146602
  H      2.110319   -1.544066    0.183859
  H      2.411354   -0.491903   -1.216142

 Total Charge           Charge          ....    0
 Multiplicity           Mult            ....    1
 Number of Electrons    NEL             ....   48
 Basis Dimension        Dim             ....  169

ORBITAL ENERGIES
----------------

  NO   OCC          E(Eh)            E(eV)
   0   2.0000     -18.936043      -515.2759
   1   2.0000     -10.117570      -275.3131
   2   2.0000     -10.043425      -273.2955
   3   2.0000     -10.037236      -273.1271
   4   2.0000     -10.034307      -273.0474
   5   2.0000     -10.022029      -272.7133
   6   2.0000      -1.001311       -27.2470
   7   2.0000      -0.776237       -21.1225
   8   2.0000      -0.717780       -19.5318
   9   2.0000      -0.665222       -18.1016
  10   2.0000      -0.577180       -15.7059
  11   2.0000      -0.498154       -13.5555
  12   2.0000      -0.446226       -12.1424
  13   2.0000      -0.439624       -11.9628
  14   2.0000      -0.418964       -11.4006
  15   2.0000      -0.398999       -10.8573
  16   2.0000      -0.395050       -10.7499
  17   2.0000      -0.366860        -9.9828
  18   2.0000      -0.348007        -9.4697
  19   2.0000      -0.335903        -9.1404
  20   2.0000      -0.324695        -8.8354
  21   2.0000      -0.314883        -8.5684
  22   2.0000      -0.307616        -8.3707
  23   2.0000      -0.210876        -5.7382
  24   0.0000      -0.046281        -1.2594
  25   0.0000       0.074534         2.0282
  26   0.0000       0.107428         2.9233
  27   0.0000       0.115959         3.1554
  28   0.0000       0.128076         3.4851

MULLIKEN ATOMIC CHARGES
-----------------------
   0 C :   -0.457589
   1 C :   -0.279058
   2 C :   -0.245342
   3 C :    0.266267
   4 O :   -0.342690
   5 C :   -0.499112
   6 H :    0.155635
   7 H :    0.152290
   8 H :    0.147271
   9 H :    0.140223
  10 H :    0.150037
  11 H :    0.167196
  12 H :    0.145396
  13 H :    0.160404
  14 H :    0.160570
  15 H :    0.178504
Sum of atomic charges:   -0.0000000

LOEWDIN ATOMIC CHARGES
----------------------
   0 C :   -0.416151
   1 C :   -0.299067
   2 C :   -0.282789
   3 C :    0.209149
   4 O :   -0.462709
   5 C :   -0.386693
   6 H :    0.157339
   7 H :    0.156015
   8 H :    0.151429
   9 H :    0.150775
  10 H :    0.155972
  11 H :    0.177869
  12 H :    0.168704
  13 H :    0.171177
  14 H :    0.173733
  15 H :    0.175249

  Mayer bond orders larger than 0.100000
B(  0-C ,  1-C ) :   0.9006 B(  0-C ,  6-H ) :   0.9715 B(  0-C ,  7-H ) :   0.9756
B(  0-C ,  8-H ) :   0.9685 B(  1-C ,  2-C ) :   0.8792 B(  1-C ,  9-H ) :   0.9880
B(  1-C , 10-H ) :   0.9612 B(  2-C ,  3-C ) :   0.8898 B(  2-C , 11-H ) :   0.9779
B(  2-C , 12-H ) :   0.9498 B(  3-C ,  4-O ) :   1.9626 B(  3-C ,  5-C ) :   0.9163
B(  5-C , 13-H ) :   0.9495 B(  5-C , 14-H ) :   0.9428 B(  5-C , 15-H ) :   0.9789

Dispersion correction           -0.003894284
FINAL SINGLE POINT ENERGY      -271.702860192669

DIPOLE MOMENT
-------------

Method             : SCF
Type of density    : Electron Density
Multiplicity       :   1
Irrep              :   0
Energy             :  -271.7063560047422470 Eh
Relativity type    :
Basis              : AO
                                X                 Y                 Z
Electronic contribution:      4.095826008       3.489671633       1.048519210
Nuclear contribution   :     -4.471426468      -4.626131727      -0.913361169
                        -----------------------------------------
Total Dipole Moment    :     -0.375600459      -1.136460094       0.135158041
                        -----------------------------------------
Magnitude (a.u.)       :      1.204526856
Magnitude (Debye)      :      3.061663953

Rotational constants in cm-1:             0.175594             0.080669             0.072164
Rotational constants in MHz :          5264.171106          2418.384857          2163.418190

                             ****ORCA TERMINATED NORMALLY****
TOTAL RUN TIME: 0 days 0 hours 0 minutes 22 seconds 800 msec
