                         Program Version 6.0.0  -   RELEASE  -
|  1> ! r2scan-3c def2/J RI DEFGRID2 scfconv6 printgap
|  2> %output
|  3>     printlevel normal
|  4> end
|  5> %cpcm
|  6>     smd true
|  7>     smdsolvent "water"
|  8> end
|  9> * xyz 0 1
| 10> C -2.0239847766 0.3046373907 -0.6788410825
| 11> C -1.4421597845 -0.7606700213 0.2419463197
| 12> C -0.2294940328 -0.240205583 1.0282359045
| 13> C 0.8931575868 0.1953652673 0.1174135654
| 14> O 1.1688735931 1.3688199036 -0.0465403276
| 15> C 1.6469601288 -0.9068903583 -0.5651200138
| 16> H -1.2855909986 0.6312230103 -1.4087272669
| 17> H -2.3340790033 1.1753477162 -0.1055530328
| 18> H -2.8883611867 -0.0837303127 -1.2114166372
| 19> H -1.1560355246 -1.6357693424 -0.3424614139
| 20> H -2.2034579707 -1.072950135 0.9584153145
| 21> H -0.5347096122 0.6176041748 1.6302562729
| 22> H 0.1337942098 -1.030305543 1.6855546568
| 23> H 0.9621351128 -1.5181534602 -1.1466015177
| 24> H 2.1103189171 -1.5440659451 0.1838593239
| 25> H 2.4113538048 -0.4919026288 -1.2161416311
| 26> *
| 27>
| 28>                          ****END OF INPUT****

CARTESIAN COORDINATES (ANGSTROEM)
---------------------------------
  C     -2.023985    0.304637   -0.678841
  C     -1.442160   -0.760670    0.241946
  C     -0.229494   -0.240206    1.028236
  C      0.893158    0.195365    0.117414
  O      1.168874    1.368820   -0.046540
  C      1.646960   -0.906890   -0.565120
  H     -1.285591    0.631223   -1.408727
  H     -2.334079    1.175348   -0.105553
  H     -2.888361   -0.083730   -1.211417
  H     -1.156036   -1.635769   -0.342461
  H     -2.203458   -1.072950    0.958415
  H     -0.534710    0.617604    1.630256
  H      0.133794   -1.030306    1.685555
  H      0.962135   -1.518153   -1.146602
  H      2.110319   -1.544066    0.183859
  H      2.411354   -0.491903   -1.216142

 Total Charge           Charge          ....    0
 Multiplicity           Mult            ....    1
 Number of Electrons    NEL             ....   48
 Basis Dimension        Dim             ....  169

ORBITAL ENERGIES
----------------

  NO   OCC          E(Eh)            E(eV)
   0   2.0000     -18.946225      -515.5530
   1   2.0000     -10.124094      -275.4906
   2   2.0000     -10.029204      -272.9085
   3   2.0000     -10.027377      -272.8588
   4   2.0000     -10.022021      -272.7130
   5   2.0000     -10.011294      -272.4212
   6   2.0000      -1.014166       -27.5969
   7   2.0000      -0.765923       -20.8418
   8   2.0000      -0.708045       -19.2669
   9   2.0000      -0.655337       -17.8326
  10   2.0000      -0.566859       -15.4250
  11   2.0000      -0.493510       -13.4291
  12   2.0000      -0.441457       -12.0127
  13   2.0000      -0.433955       -11.8085
  14   2.0000      -0.415770       -11.3137
  15   2.0000      -0.393644       -10.7116
  16   2.0000      -0.383172       -10.4266
  17   2.0000      -0.363510        -9.8916
  18   2.0000      -0.338966        -9.2237
  19   2.0000      -0.335733        -9.1358
  20   2.0000      -0.314885        -8.5684
  21   2.0000      -0.305383        -8.3099
  22   2.0000      -0.297901        -8.1063
  23   2.0000      -0.221828        -6.0363
  24   0.0000      -0.048925        -1.3313
  25   0.0000       0.088227         2.4008
  26   0.0000       0.119793         3.2597
  27   0.0000       0.129264         3.5175
  28   0.0000       0.139159         3.7867

MULLIKEN ATOMIC CHARGES
-----------------------
   0 C :   -0.514838
   1 C :   -0.269063
   2 C :   -0.258608
   3 C :    0.302411
   4 O :   -0.452507
   5 C :   -0.529000
   6 H :    0.160576
   7 H :    0.163019
   8 H :    0.161319
   9 H :    0.162268
  10 H :    0.164043
  11 H :    0.168846
  12 H :    0.177049
  13 H :    0.193676
  14 H :    0.193604
  15 H :    0.177205
Sum of atomic charges:   -0.0000000

LOEWDIN ATOMIC CHARGES
----------------------
   0 C :   -0.426031
   1 C :   -0.294232
   2 C :   -0.279020
   3 C :    0.226987
   4 O :   -0.542576
   5 C :   -0.383754
   6 H :    0.156070
   7 H :    0.156160
   8 H :    0.156072
   9 H :    0.159557
  10 H :    0.161287
  11 H :    0.177702
  12 H :    0.182785
  13 H :    0.186387
  14 H :    0.188373
  15 H :    0.174232

  Mayer bond orders larger than 0.100000
B(  0-C ,  1-C ) :   0.8763 B(  0-C ,  6-H ) :   0.9720 B(  0-C ,  7-H ) :   0.9763
B(  0-C ,  8-H ) :   0.9646 B(  1-C ,  2-C ) :   0.8757 B(  1-C ,  9-H ) :   0.9829
B(  1-C , 10-H ) :   0.9604 B(  2-C ,  3-C ) :   0.9087 B(  2-C , 11-H ) :   0.9737
B(  2-C , 12-H ) :   0.9401 B(  3-C ,  4-O ) :   1.8821 B(  3-C ,  5-C ) :   0.9423
B(  5-C , 13-H ) :   0.9344 B(  5-C , 14-H ) :   0.9295 B(  5-C , 15-H ) :   0.9740

Dispersion correction           -0.003894284
FINAL SINGLE POINT ENERGY      -271.710022923916

DIPOLE MOMENT
-------------

Method             : SCF
Type of density    : Electron Density
Multiplicity       :   1
Irrep              :   0
Energy             :  -271.7135187359896236 Eh
Relativity type    :
Basis              : AO
                                X                 Y                 Z
Electronic contribution:      3.966040317       2.899887251       1.127021564
Nuclear contribution   :     -4.471426468      -4.626131727      -0.913361169
                        -----------------------------------------
Total Dipole Moment    :     -0.505386151      -1.726244476       0.213660395
                        -----------------------------------------
Magnitude (a.u.)       :      1.811349198
Magnitude (Debye)      :      4.604083769

Rotational constants in cm-1:             0.175594             0.080669             0.072164
Rotational constants in MHz :          5264.171106          2418.384857          2163.418190

                             ****ORCA TERMINATED NORMALLY****
TOTAL RUN TIME: 0 days 0 hours 0 minutes 26 seconds 852 msec
