                         Program Version 6.0.0  -   RELEASE  -
|  1> ! wb97x-v def2-tzvp def2/J RIJCOSX DEFGRID2 scfconv7 GCP(DFT/TZ) printgap
|  2> %output
|  3>     printlevel normal
|  4> end
|  5> * xyz 0 1
|  6> C -2.5396199573945935 -0.18062029226765172 -0.49660637928452706
|  7> C -1.8485304760366748 -1.2792801530434412 0.0128444609579917
|  8> C -0.5738907660957889 -1.1167363156670846 0.5475640244330112
|  9> C 0.03361223897802724 0.14335312162604988 0.5830398366156091
| 10> C -0.6684848183247395 1.2369450609139734 0.0699767509620383
| 11> C -1.945724434308084 1.078595799319374 -0.46516215143977846
| 12> C 1.4301966087888294 0.2989723777432256 1.1264145092475268
| 13> C 2.4921281097705275 -0.22626406764019835 0.17146086753251633
| 14> O 2.4516253627393954 0.5605182906020622 -1.0347321245836196
| 15> H -3.534769907623335 -0.3059145945575598 -0.9118747087498554
| 16> H -2.306075098091568 -2.2639750161483154 -0.002979813035307303
| 17> H -0.04139249314904791 -1.976757170872602 0.9460085195742906
| 18> H -0.21019663298592334 2.222011906069918 0.0938274094933694
| 19> H -2.477018517684636 1.9407094648443401 -0.8571941041294926
| 20> H 1.6346344203455505 1.3531849670555747 1.3431497931715466
| 21> H 1.5318335799543086 -0.25865878771887046 2.064526420167553
| 22> H 3.481859897009413 -0.147222664416923 0.6415283325323982
| 23> H 2.3008704220004828 -1.2837162879637642 -0.059106123364230656
| 24> H 3.099687939793411 0.18611624998493934 -1.644193923167079
| 25> *
| 26>
| 27>                          ****END OF INPUT****

CARTESIAN COORDINATES (ANGSTROEM)
---------------------------------
  C     -2.539620   -0.180620   -0.496606
  C     -1.848530   -1.279280    0.012844
  C     -0.573891   -1.116736    0.547564
  C      0.033612    0.143353    0.583040
  C     -0.668485    1.236945    0.069977
  C     -1.945724    1.078596   -0.465162
  C      1.430197    0.298972    1.126415
  C      2.492128   -0.226264    0.171461
  O      2.451625    0.560518   -1.034732
  H     -3.534770   -0.305915   -0.911875
  H     -2.306075   -2.263975   -0.002980
  H     -0.041392   -1.976757    0.946009
  H     -0.210197    2.222012    0.093827
  H     -2.477019    1.940709   -0.857194
  H      1.634634    1.353185    1.343150
  H      1.531834   -0.258659    2.064526
  H      3.481860   -0.147223    0.641528
  H      2.300870   -1.283716   -0.059106
  H      3.099688    0.186116   -1.644194

 Total Charge           Charge          ....    0
 Multiplicity           Mult            ....    1
 Number of Electrons    NEL             ....   66
 Basis Dimension        Dim             ....  339

ORBITAL ENERGIES
----------------

  NO   OCC          E(Eh)            E(eV)
   0   2.0000     -21.669966      -589.6697
   1   2.0000     -12.096365      -329.1588
   2   2.0000     -12.053991      -328.0058
   3   2.0000     -12.049456      -327.8824
   4   2.0000     -12.047393      -327.8262
   5   2.0000     -12.046171      -327.7930
   6   2.0000     -12.044460      -327.7464
   7   2.0000     -12.043553      -327.7217
   8   2.0000     -12.042026      -327.6802
   9   2.0000      -1.668647       -45.4062
  10   2.0000      -1.379463       -37.5371
  11   2.0000      -1.305476       -35.5238
  12   2.0000      -1.265878       -34.4463
  13   2.0000      -1.244846       -33.8740
  14   2.0000      -1.143215       -31.1085
  15   2.0000      -1.100668       -29.9507
  16   2.0000      -1.075351       -29.2618
  17   2.0000      -1.034097       -28.1392
  18   2.0000      -0.960914       -26.1478
  19   2.0000      -0.951245       -25.8847
  20   2.0000      -0.937150       -25.5012
  21   2.0000      -0.935234       -25.4490
  22   2.0000      -0.903397       -24.5827
  23   2.0000      -0.868671       -23.6377
  24   2.0000      -0.866724       -23.5847
  25   2.0000      -0.843683       -22.9578
  26   2.0000      -0.828742       -22.5512
  27   2.0000      -0.810135       -22.0449
  28   2.0000      -0.794981       -21.6325
  29   2.0000      -0.776116       -21.1192
  30   2.0000      -0.758805       -20.6481
  31   2.0000      -0.631695       -17.1893
  32   2.0000      -0.629785       -17.1373
  33   0.0000      -0.235945        -6.4204
  34   0.0000      -0.229813        -6.2535
  35   0.0000      -0.141087        -3.8392
  36   0.0000      -0.069394        -1.8883
  37   0.0000      -0.042530        -1.1573

MULLIKEN ATOMIC CHARGES
-----------------------
   0 C :   -0.133757
   1 C :   -0.111318
   2 C :   -0.228894
   3 C :    0.252307
   4 C :   -0.219802
   5 C :   -0.102624
   6 C :   -0.215661
   7 C :   -0.056062
   8 O :   -0.447040
   9 H :    0.114318
  10 H :    0.113071
  11 H :    0.114293
  12 H :    0.109276
  13 H :    0.114038
  14 H :    0.108146
  15 H :    0.112896
  16 H :    0.089673
  17 H :    0.089133
  18 H :    0.298008
Sum of atomic charges:   -0.0000000

LOEWDIN ATOMIC CHARGES
----------------------
   0 C :   -0.146552
   1 C :   -0.141808
   2 C :   -0.115597
   3 C :   -0.140888
   4 C :   -0.106247
   5 C :   -0.138230
   6 C :   -0.220900
   7 C :   -0.326754
   8 O :   -0.054425
   9 H :    0.139651
  10 H :    0.140204
  11 H :    0.142122
  12 H :    0.145011
  13 H :    0.140786
  14 H :    0.144547
  15 H :    0.146317
  16 H :    0.111922
  17 H :    0.114201
  18 H :    0.166643

  Mayer bond orders larger than 0.100000
B(  0-C ,  1-C ) :   1.4176 B(  0-C ,  5-C ) :   1.4235 B(  0-C ,  9-H ) :   0.9726
B(  1-C ,  2-C ) :   1.4560 B(  1-C , 10-H ) :   0.9750 B(  2-C ,  3-C ) :   1.3541
B(  2-C , 11-H ) :   0.9717 B(  3-C ,  4-C ) :   1.4148 B(  3-C ,  6-C ) :   0.8966
B(  4-C ,  5-C ) :   1.4393 B(  4-C , 12-H ) :   0.9670 B(  5-C , 13-H ) :   0.9755
B(  6-C ,  7-C ) :   0.9927 B(  6-C , 14-H ) :   0.9828 B(  6-C , 15-H ) :   0.9782
B(  7-C ,  8-O ) :   1.0744 B(  7-C , 16-H ) :   0.9703 B(  7-C , 17-H ) :   0.9652
B(  8-O , 18-H ) :   0.9074

FINAL SINGLE POINT ENERGY      -386.108148741865

DIPOLE MOMENT
-------------

Method             : SCF
Type of density    : Electron Density
Multiplicity       :   1
Irrep              :   0
Energy             :  -386.1190131179652099 Eh
Relativity type    :
Basis              : AO
                                X                 Y                 Z
Electronic contribution:     -2.824480786       0.654505244      -1.126135560
Nuclear contribution   :      3.358479556      -1.099640529       1.215317397
                        -----------------------------------------
Total Dipole Moment    :      0.533998770      -0.445135285       0.089181837
                        -----------------------------------------
Magnitude (a.u.)       :      0.700894791
Magnitude (Debye)      :      1.781532979

Rotational constants in cm-1:             0.111984             0.035382             0.031839
Rotational constants in MHz :          3357.187175          1060.724851           954.504447

                             ****ORCA TERMINATED NORMALLY****
TOTAL RUN TIME: 0 days 0 hours 2 minutes 50 seconds 920 msec
