                         Program Version 6.0.0  -   RELEASE  -
|  1> ! wb97x-v def2-tzvp def2/J RIJCOSX DEFGRID2 scfconv7 GCP(DFT/TZ) printgap
|  2> %output
|  3>     printlevel normal
|  4> end
|  5> %cpcm
|  6>     smd true
|  7>     smdsolvent "water"
|  8> end
|  9> * xyz 0 1
| 10> C -2.5396199573945935 -0.18062029226765172 -0.49660637928452706
| 11> C -1.8485304760366748 -1.2792801530434412 0.0128444609579917
| 12> C -0.5738907660957889 -1.1167363156670846 0.5475640244330112
| 13> C 0.03361223897802724 0.14335312162604988 0.5830398366156091
| 14> C -0.6684848183247395 1.2369450609139734 0.0699767509620383
| 15> C -1.945724434308084 1.078595799319374 -0.46516215143977846
| 16> C 1.4301966087888294 0.2989723777432256 1.1264145092475268
| 17> C 2.4921281097705275 -0.22626406764019835 0.17146086753251633
| 18> O 2.4516253627393954 0.5605182906020622 -1.0347321245836196
| 19> H -3.534769907623335 -0.3059145945575598 -0.9118747087498554
| 20> H -2.306075098091568 -2.2639750161483154 -0.002979813035307303
| 21> H -0.04139249314904791 -1.976757170872602 0.9460085195742906
| 22> H -0.21019663298592334 2.222011906069918 0.0938274094933694
| 23> H -2.477018517684636 1.9407094648443401 -0.8571941041294926
| 24> H 1.6346344203455505 1.3531849670555747 1.3431497931715466
| 25> H 1.5318335799543086 -0.25865878771887046 2.064526420167553
| 26> H 3.481859897009413 -0.147222664416923 0.6415283325323982
| 27> H 2.3008704220004828 -1.2837162879637642 -0.059106123364230656
| 28> H 3.099687939793411 0.18611624998493934 -1.644193923167079
| 29> *
| 30>
| 31>                          ****END OF INPUT****

CARTESIAN COORDINATES (ANGSTROEM)
---------------------------------
  C     -2.539620   -0.180620   -0.496606
  C     -1.848530   -1.279280    0.012844
  C     -0.573891   -1.116736    0.547564
  C      0.033612    0.143353    0.583040
  C     -0.668485    1.236945    0.069977
  C     -1.945724    1.078596   -0.465162
  C      1.430197    0.298972    1.126415
  C      2.492128   -0.226264    0.171461
  O      2.451625    0.560518   -1.034732
  H     -3.534770   -0.305915   -0.911875
  H     -2.306075   -2.263975   -0.002980
  H     -0.041392   -1.976757    0.946009
  H     -0.210197    2.222012    0.093827
  H     -2.477019    1.940709   -0.857194
  H      1.634634    1.353185    1.343150
  H      1.531834   -0.258659    2.064526
  H      3.481860   -0.147223    0.641528
  H      2.300870   -1.283716   -0.059106
  H      3.099688    0.186116   -1.644194

 Total Charge           Charge          ....    0
 Multiplicity           Mult            ....    1
 Number of Electrons    NEL             ....   66
 Basis Dimension        Dim             ....  339

ORBITAL ENERGIES
----------------

  NO   OCC          E(Eh)            E(eV)
   0   2.0000     -21.672332      -589.7341
   1   2.0000     -12.087718      -328.9235
   2   2.0000     -12.056207      -328.0661
   3   2.0000     -12.048741      -327.8629
   4   2.0000     -12.048441      -327.8548
   5   2.0000     -12.045638      -327.7785
   6   2.0000     -12.044986      -327.7607
   7   2.0000     -12.044379      -327.7442
   8   2.0000     -12.041658      -327.6702
   9   2.0000      -1.671099       -45.4729
  10   2.0000      -1.382966       -37.6324
  11   2.0000      -1.304276       -35.4911
  12   2.0000      -1.269028       -34.5320
  13   2.0000      -1.243498       -33.8373
  14   2.0000      -1.141395       -31.0589
  15   2.0000      -1.102542       -30.0017
  16   2.0000      -1.075730       -29.2721
  17   2.0000      -1.033940       -28.1349
  18   2.0000      -0.961628       -26.1672
  19   2.0000      -0.953071       -25.9344
  20   2.0000      -0.938423       -25.5358
  21   2.0000      -0.936989       -25.4968
  22   2.0000      -0.902737       -24.5647
  23   2.0000      -0.868648       -23.6371
  24   2.0000      -0.867036       -23.5932
  25   2.0000      -0.838108       -22.8061
  26   2.0000      -0.824991       -22.4491
  27   2.0000      -0.808658       -22.0047
  28   2.0000      -0.793408       -21.5897
  29   2.0000      -0.769944       -20.9512
  30   2.0000      -0.763525       -20.7766
  31   2.0000      -0.636707       -17.3257
  32   2.0000      -0.634310       -17.2605
  33   0.0000      -0.239868        -6.5271
  34   0.0000      -0.234535        -6.3820
  35   0.0000      -0.134574        -3.6620
  36   0.0000      -0.071654        -1.9498
  37   0.0000      -0.037328        -1.0157

MULLIKEN ATOMIC CHARGES
-----------------------
   0 C :   -0.184103
   1 C :   -0.150590
   2 C :   -0.258300
   3 C :    0.195410
   4 C :   -0.288750
   5 C :   -0.144064
   6 C :   -0.190955
   7 C :   -0.078381
   8 O :   -0.558749
   9 H :    0.159775
  10 H :    0.158971
  11 H :    0.160616
  12 H :    0.156077
  13 H :    0.159159
  14 H :    0.129842
  15 H :    0.134772
  16 H :    0.118728
  17 H :    0.119376
  18 H :    0.361166
Sum of atomic charges:   -0.0000000

LOEWDIN ATOMIC CHARGES
----------------------
   0 C :   -0.158033
   1 C :   -0.150429
   2 C :   -0.118920
   3 C :   -0.153220
   4 C :   -0.126192
   5 C :   -0.150532
   6 C :   -0.220356
   7 C :   -0.318423
   8 O :   -0.096160
   9 H :    0.149250
  10 H :    0.150310
  11 H :    0.154441
  12 H :    0.152821
  13 H :    0.150303
  14 H :    0.147749
  15 H :    0.154871
  16 H :    0.121314
  17 H :    0.122821
  18 H :    0.188385

  Mayer bond orders larger than 0.100000
B(  0-C ,  1-C ) :   1.3915 B(  0-C ,  5-C ) :   1.4053 B(  0-C ,  9-H ) :   0.9752
B(  1-C ,  2-C ) :   1.4314 B(  1-C , 10-H ) :   0.9782 B(  2-C ,  3-C ) :   1.3444
B(  2-C , 11-H ) :   0.9772 B(  3-C ,  4-C ) :   1.3802 B(  3-C ,  6-C ) :   0.9004
B(  4-C ,  5-C ) :   1.4213 B(  4-C , 12-H ) :   0.9749 B(  5-C , 13-H ) :   0.9776
B(  6-C ,  7-C ) :   0.9816 B(  6-C , 14-H ) :   0.9839 B(  6-C , 15-H ) :   0.9655
B(  7-C ,  8-O ) :   1.0247 B(  7-C , 16-H ) :   0.9776 B(  7-C , 17-H ) :   0.9746
B(  8-O , 18-H ) :   0.8699

FINAL SINGLE POINT ENERGY      -386.119983109273

DIPOLE MOMENT
-------------

Method             : SCF
Type of density    : Electron Density
Multiplicity       :   1
Irrep              :   0
Energy             :  -386.1308474853726693 Eh
Relativity type    :
Basis              : AO
                                X                 Y                 Z
Electronic contribution:     -2.628465525       0.383683929      -0.971609070
Nuclear contribution   :      3.358479556      -1.099640529       1.215317397
                        -----------------------------------------
Total Dipole Moment    :      0.730014031      -0.715956600       0.243708327
                        -----------------------------------------
Magnitude (a.u.)       :      1.051146083
Magnitude (Debye)      :      2.671801012

Rotational constants in cm-1:             0.111984             0.035382             0.031839
Rotational constants in MHz :          3357.187175          1060.724851           954.504447

                             ****ORCA TERMINATED NORMALLY****
TOTAL RUN TIME: 0 days 0 hours 2 minutes 56 seconds 72 msec
