                         Program Version 6.0.0  -   RELEASE  -
|  1> ! r2scan-3c def2/J RI DEFGRID2 scfconv6 printgap
|  2> %output
|  3>     printlevel normal
|  4> end
|  5> * xyz 0 1
|  6> C 1.9796171173 -1.0002311308 0.2518885712
|  7> C 1.2287229784 0.1592888838 0.8986352249
|  8> C 0.1692231844 0.8365071208 0.0125603818
|  9> H -0.0489046853 1.8116925565 0.4862922072
| 10> C -1.1940254418 0.1198639275 -0.1296593009
| 11> C -1.1046162292 -1.2444188265 -0.8095952647
| 12> C -1.9175360776 0.011923722 1.2103210582
| 13> O 0.7574132712 1.0724926549 -1.2563453216
| 14> H 2.8448684093 -1.2543188991 0.859781951
| 15> H 2.3232755991 -0.7079547429 -0.7364822213
| 16> H 1.3582813855 -1.8838653072 0.1576655506
| 17> H 0.7572841769 -0.1628519116 1.8262827998
| 18> H 1.9607255261 0.9307949235 1.1486474572
| 19> H -1.7946912888 0.7728531153 -0.7779462767
| 20> H -0.4105082854 -1.2053694279 -1.6452121666
| 21> H -0.7706810751 -2.0041443235 -0.1088352754
| 22> H -2.0833389925 -1.5377648872 -1.1828175054
| 23> H -2.9306696311 -0.3494250699 1.0527549731
| 24> H -1.9684765591 0.9810816434 1.7014841476
| 25> H -1.4094085035 -0.6851667759 1.8714112009
| 26> H 0.1427176716 1.5816148049 -1.8003751574
| 27> *
| 28>
| 29>                          ****END OF INPUT****

CARTESIAN COORDINATES (ANGSTROEM)
---------------------------------
  C      1.979617   -1.000231    0.251889
  C      1.228723    0.159289    0.898635
  C      0.169223    0.836507    0.012560
  H     -0.048905    1.811693    0.486292
  C     -1.194025    0.119864   -0.129659
  C     -1.104616   -1.244419   -0.809595
  C     -1.917536    0.011924    1.210321
  O      0.757413    1.072493   -1.256345
  H      2.844868   -1.254319    0.859782
  H      2.323276   -0.707955   -0.736482
  H      1.358281   -1.883865    0.157666
  H      0.757284   -0.162852    1.826283
  H      1.960726    0.930795    1.148647
  H     -1.794691    0.772853   -0.777946
  H     -0.410508   -1.205369   -1.645212
  H     -0.770681   -2.004144   -0.108835
  H     -2.083339   -1.537765   -1.182818
  H     -2.930670   -0.349425    1.052755
  H     -1.968477    0.981082    1.701484
  H     -1.409409   -0.685167    1.871411
  H      0.142718    1.581615   -1.800375

 Total Charge           Charge          ....    0
 Multiplicity           Mult            ....    1
 Number of Electrons    NEL             ....   58
 Basis Dimension        Dim             ....  208

ORBITAL ENERGIES
----------------

  NO   OCC          E(Eh)            E(eV)
   0   2.0000     -18.945639      -515.5370
   1   2.0000     -10.077241      -274.2157
   2   2.0000     -10.035068      -273.0681
   3   2.0000     -10.022756      -272.7331
   4   2.0000     -10.019599      -272.6472
   5   2.0000     -10.012101      -272.4431
   6   2.0000     -10.006623      -272.2941
   7   2.0000      -0.983983       -26.7755
   8   2.0000      -0.771669       -20.9982
   9   2.0000      -0.724913       -19.7259
  10   2.0000      -0.652659       -17.7598
  11   2.0000      -0.637391       -17.3443
  12   2.0000      -0.567375       -15.4391
  13   2.0000      -0.522692       -14.2232
  14   2.0000      -0.468606       -12.7514
  15   2.0000      -0.449084       -12.2202
  16   2.0000      -0.411022       -11.1845
  17   2.0000      -0.392400       -10.6778
  18   2.0000      -0.385051       -10.4778
  19   2.0000      -0.370998       -10.0954
  20   2.0000      -0.356588        -9.7033
  21   2.0000      -0.345115        -9.3911
  22   2.0000      -0.332602        -9.0506
  23   2.0000      -0.315560        -8.5868
  24   2.0000      -0.311296        -8.4708
  25   2.0000      -0.296387        -8.0651
  26   2.0000      -0.295134        -8.0310
  27   2.0000      -0.270858        -7.3704
  28   2.0000      -0.230480        -6.2717
  29   0.0000       0.058103         1.5811
  30   0.0000       0.092532         2.5179
  31   0.0000       0.110763         3.0140
  32   0.0000       0.121606         3.3091
  33   0.0000       0.128241         3.4896

MULLIKEN ATOMIC CHARGES
-----------------------
   0 C :   -0.492476
   1 C :   -0.287505
   2 C :    0.049679
   3 H :    0.130317
   4 C :    0.000153
   5 C :   -0.541623
   6 C :   -0.524399
   7 O :   -0.434169
   8 H :    0.142046
   9 H :    0.180042
  10 H :    0.139719
  11 H :    0.140819
  12 H :    0.148385
  13 H :    0.132202
  14 H :    0.177979
  15 H :    0.149101
  16 H :    0.147851
  17 H :    0.149622
  18 H :    0.148655
  19 H :    0.156187
  20 H :    0.287416
Sum of atomic charges:   -0.0000000

LOEWDIN ATOMIC CHARGES
----------------------
   0 C :   -0.414792
   1 C :   -0.276119
   2 C :    0.058047
   3 H :    0.165897
   4 C :   -0.225975
   5 C :   -0.412453
   6 C :   -0.414314
   7 O :   -0.626744
   8 H :    0.148435
   9 H :    0.169252
  10 H :    0.149364
  11 H :    0.159505
  12 H :    0.161869
  13 H :    0.155757
  14 H :    0.166458
  15 H :    0.151874
  16 H :    0.152292
  17 H :    0.155950
  18 H :    0.154568
  19 H :    0.152791
  20 H :    0.268337

  Mayer bond orders larger than 0.100000
B(  0-C ,  1-C ) :   0.8912 B(  0-C ,  8-H ) :   0.9738 B(  0-C ,  9-H ) :   0.9828
B(  0-C , 10-H ) :   0.9665 B(  1-C ,  2-C ) :   0.9382 B(  1-C , 11-H ) :   0.9781
B(  1-C , 12-H ) :   0.9621 B(  2-C ,  3-H ) :   0.9681 B(  2-C ,  4-C ) :   0.9059
B(  2-C ,  7-O ) :   0.8853 B(  4-C ,  5-C ) :   0.8599 B(  4-C ,  6-C ) :   0.9100
B(  4-C , 13-H ) :   0.9634 B(  5-C , 14-H ) :   0.9716 B(  5-C , 15-H ) :   0.9832
B(  5-C , 16-H ) :   0.9670 B(  6-C , 17-H ) :   0.9668 B(  6-C , 18-H ) :   0.9742
B(  6-C , 19-H ) :   0.9850 B(  7-O , 20-H ) :   0.8981

Dispersion correction           -0.005868893
FINAL SINGLE POINT ENERGY      -312.198509970735

DIPOLE MOMENT
-------------

Method             : SCF
Type of density    : Electron Density
Multiplicity       :   1
Irrep              :   0
Energy             :  -312.2040426842864349 Eh
Relativity type    :
Basis              : AO
                                X                 Y                 Z
Electronic contribution:      1.359030475       3.668427083      -2.549963321
Nuclear contribution   :     -1.892786949      -3.467319796       2.657608686
                        -----------------------------------------
Total Dipole Moment    :     -0.533756474       0.201107287       0.107645366
                        -----------------------------------------
Magnitude (a.u.)       :      0.580454683
Magnitude (Debye)      :      1.475398553

Rotational constants in cm-1:             0.104031             0.063028             0.059192
Rotational constants in MHz :          3118.765404          1889.532355          1774.519540

                             ****ORCA TERMINATED NORMALLY****
TOTAL RUN TIME: 0 days 0 hours 0 minutes 27 seconds 935 msec
