                         Program Version 6.0.0  -   RELEASE  -
|  1> ! r2scan-3c def2/J RI DEFGRID2 scfconv6 printgap
|  2> %output
|  3>     printlevel normal
|  4> end
|  5> %cpcm
|  6>     smd true
|  7>     smdsolvent "water"
|  8> end
|  9> * xyz 0 1
| 10> C 1.9796171173 -1.0002311308 0.2518885712
| 11> C 1.2287229784 0.1592888838 0.8986352249
| 12> C 0.1692231844 0.8365071208 0.0125603818
| 13> H -0.0489046853 1.8116925565 0.4862922072
| 14> C -1.1940254418 0.1198639275 -0.1296593009
| 15> C -1.1046162292 -1.2444188265 -0.8095952647
| 16> C -1.9175360776 0.011923722 1.2103210582
| 17> O 0.7574132712 1.0724926549 -1.2563453216
| 18> H 2.8448684093 -1.2543188991 0.859781951
| 19> H 2.3232755991 -0.7079547429 -0.7364822213
| 20> H 1.3582813855 -1.8838653072 0.1576655506
| 21> H 0.7572841769 -0.1628519116 1.8262827998
| 22> H 1.9607255261 0.9307949235 1.1486474572
| 23> H -1.7946912888 0.7728531153 -0.7779462767
| 24> H -0.4105082854 -1.2053694279 -1.6452121666
| 25> H -0.7706810751 -2.0041443235 -0.1088352754
| 26> H -2.0833389925 -1.5377648872 -1.1828175054
| 27> H -2.9306696311 -0.3494250699 1.0527549731
| 28> H -1.9684765591 0.9810816434 1.7014841476
| 29> H -1.4094085035 -0.6851667759 1.8714112009
| 30> H 0.1427176716 1.5816148049 -1.8003751574
| 31> *
| 32>
| 33>                          ****END OF INPUT****

CARTESIAN COORDINATES (ANGSTROEM)
---------------------------------
  C      1.979617   -1.000231    0.251889
  C      1.228723    0.159289    0.898635
  C      0.169223    0.836507    0.012560
  H     -0.048905    1.811693    0.486292
  C     -1.194025    0.119864   -0.129659
  C     -1.104616   -1.244419   -0.809595
  C     -1.917536    0.011924    1.210321
  O      0.757413    1.072493   -1.256345
  H      2.844868   -1.254319    0.859782
  H      2.323276   -0.707955   -0.736482
  H      1.358281   -1.883865    0.157666
  H      0.757284   -0.162852    1.826283
  H      1.960726    0.930795    1.148647
  H     -1.794691    0.772853   -0.777946
  H     -0.410508   -1.205369   -1.645212
  H     -0.770681   -2.004144   -0.108835
  H     -2.083339   -1.537765   -1.182818
  H     -2.930670   -0.349425    1.052755
  H     -1.968477    0.981082    1.701484
  H     -1.409409   -0.685167    1.871411
  H      0.142718    1.581615   -1.800375

 Total Charge           Charge          ....    0
 Multiplicity           Mult            ....    1
 Number of Electrons    NEL             ....   58
 Basis Dimension        Dim             ....  208

ORBITAL ENERGIES
----------------

  NO   OCC          E(Eh)            E(eV)
   0   2.0000     -18.946886      -515.5710
   1   2.0000     -10.071419      -274.0572
   2   2.0000     -10.025081      -272.7963
   3   2.0000     -10.017758      -272.5970
   4   2.0000     -10.008263      -272.3387
   5   2.0000     -10.005926      -272.2751
   6   2.0000     -10.005202      -272.2554
   7   2.0000      -0.984175       -26.7808
   8   2.0000      -0.763940       -20.7879
   9   2.0000      -0.720575       -19.6078
  10   2.0000      -0.645488       -17.5646
  11   2.0000      -0.632321       -17.2063
  12   2.0000      -0.561560       -15.2808
  13   2.0000      -0.517741       -14.0885
  14   2.0000      -0.462778       -12.5928
  15   2.0000      -0.442391       -12.0381
  16   2.0000      -0.404863       -11.0169
  17   2.0000      -0.390845       -10.6354
  18   2.0000      -0.380014       -10.3407
  19   2.0000      -0.363783        -9.8990
  20   2.0000      -0.349688        -9.5155
  21   2.0000      -0.341562        -9.2944
  22   2.0000      -0.326896        -8.8953
  23   2.0000      -0.312812        -8.5121
  24   2.0000      -0.305322        -8.3082
  25   2.0000      -0.292470        -7.9585
  26   2.0000      -0.290390        -7.9019
  27   2.0000      -0.265256        -7.2180
  28   2.0000      -0.231100        -6.2886
  29   0.0000       0.073402         1.9974
  30   0.0000       0.103304         2.8110
  31   0.0000       0.119890         3.2624
  32   0.0000       0.130032         3.5383
  33   0.0000       0.133669         3.6373

MULLIKEN ATOMIC CHARGES
-----------------------
   0 C :   -0.533083
   1 C :   -0.300296
   2 C :    0.054882
   3 H :    0.142674
   4 C :    0.018228
   5 C :   -0.584028
   6 C :   -0.565761
   7 O :   -0.517174
   8 H :    0.156407
   9 H :    0.168953
  10 H :    0.158770
  11 H :    0.159036
  12 H :    0.159906
  13 H :    0.155062
  14 H :    0.166661
  15 H :    0.165875
  16 H :    0.161281
  17 H :    0.160724
  18 H :    0.160380
  19 H :    0.169481
  20 H :    0.342022
Sum of atomic charges:   -0.0000000

LOEWDIN ATOMIC CHARGES
----------------------
   0 C :   -0.424129
   1 C :   -0.280151
   2 C :    0.059503
   3 H :    0.173029
   4 C :   -0.221224
   5 C :   -0.419957
   6 C :   -0.420871
   7 O :   -0.659743
   8 H :    0.152442
   9 H :    0.162017
  10 H :    0.154276
  11 H :    0.166634
  12 H :    0.162338
  13 H :    0.164290
  14 H :    0.160914
  15 H :    0.155908
  16 H :    0.155959
  17 H :    0.158513
  18 H :    0.157897
  19 H :    0.156161
  20 H :    0.286193

  Mayer bond orders larger than 0.100000
B(  0-C ,  1-C ) :   0.8686 B(  0-C ,  8-H ) :   0.9701 B(  0-C ,  9-H ) :   0.9860
B(  0-C , 10-H ) :   0.9664 B(  1-C ,  2-C ) :   0.9316 B(  1-C , 11-H ) :   0.9713
B(  1-C , 12-H ) :   0.9682 B(  2-C ,  3-H ) :   0.9638 B(  2-C ,  4-C ) :   0.9123
B(  2-C ,  7-O ) :   0.8753 B(  4-C ,  5-C ) :   0.8470 B(  4-C ,  6-C ) :   0.9007
B(  4-C , 13-H ) :   0.9619 B(  5-C , 14-H ) :   0.9731 B(  5-C , 15-H ) :   0.9807
B(  5-C , 16-H ) :   0.9649 B(  6-C , 17-H ) :   0.9652 B(  6-C , 18-H ) :   0.9719
B(  6-C , 19-H ) :   0.9805 B(  7-O , 20-H ) :   0.8725

Dispersion correction           -0.005868893
FINAL SINGLE POINT ENERGY      -312.203279705567

DIPOLE MOMENT
-------------

Method             : SCF
Type of density    : Electron Density
Multiplicity       :   1
Irrep              :   0
Energy             :  -312.2088124191186012 Eh
Relativity type    :
Basis              : AO
                                X                 Y                 Z
Electronic contribution:      1.081899061       3.755838289      -2.425630204
Nuclear contribution   :     -1.892786949      -3.467319796       2.657608686
                        -----------------------------------------
Total Dipole Moment    :     -0.810887887       0.288518493       0.231978482
                        -----------------------------------------
Magnitude (a.u.)       :      0.891401202
Magnitude (Debye)      :      2.265761792

Rotational constants in cm-1:             0.104031             0.063028             0.059192
Rotational constants in MHz :          3118.765404          1889.532355          1774.519540

                             ****ORCA TERMINATED NORMALLY****
TOTAL RUN TIME: 0 days 0 hours 0 minutes 33 seconds 652 msec
