                         Program Version 6.0.0  -   RELEASE  -
|  1> ! pbe def2-sv(p) def2/J RI DEFGRID1 loosescf d4 GCP(DFT/SV(P)) printgap
|  2> %output
|  3>     printlevel normal
|  4> end
|  5> * xyz 0 1
|  6> C -0.3345119406 -2.7092461587 -0.1445244796
|  7> C 0.4825701202 -1.4625441461 -0.02799066
|  8> C 1.8524447866 -1.4136459028 -0.3316344148
|  9> N 2.5610753736 -0.3064836631 -0.2071487673
| 10> C 1.9437960392 0.8068297606 0.2192797482
| 11> N 0.6265444178 0.8722586238 0.4956567953
| 12> C -0.0578315875 -0.2436685742 0.3607413176
| 13> O -1.4068872124 -0.1318068272 0.6859876371
| 14> C -2.2789694795 -0.1065250524 -0.3634714441
| 15> O -1.9088051454 -0.2097860738 -1.5240473936
| 16> N -3.5470302723 0.0353536779 0.0243524355
| 17> C -4.6049876039 0.0686891048 -0.9632710052
| 18> C -3.9675874055 0.1621165384 1.403074119
| 19> N 2.6747415835 1.9149027849 0.3736677454
| 20> C 4.0873707463 1.9416834457 0.0805021656
| 21> C 2.0959976989 3.161813446 0.8095647421
| 22> C 2.5830845035 -2.6229269086 -0.8153623451
| 23> H 0.2324180696 -3.5724270892 0.1940104837
| 24> H -1.239778895 -2.6228486797 0.4530976446
| 25> H -0.6270666546 -2.8681849922 -1.1832832803
| 26> H -5.1298651543 1.0226043523 -0.9099289132
| 27> H -5.3080506024 -0.7429788746 -0.7758253261
| 28> H -4.1628289858 -0.0493640581 -1.9494885267
| 29> H -4.5726287618 -0.701569897 1.6828957581
| 30> H -4.5653882811 1.066998087 1.5124891246
| 31> H -3.0984005939 0.2221693723 2.0500377729
| 32> H 4.4001642996 0.9495234007 -0.2280226753
| 33> H 4.6408542159 2.2444140749 0.9706057817
| 34> H 4.2857828411 2.6558302118 -0.7205523271
| 35> H 2.5887434821 3.4963690546 1.7239325137
| 36> H 1.0376181104 3.0123159141 0.9970025788
| 37> H 2.2272335074 3.9218296709 0.0371312992
| 38> H 3.6030798142 -2.3503145533 -1.0647813724
| 39> H 2.5937226442 -3.3861921343 -0.0398917985
| 40> H 2.0849797806 -3.0327019296 -1.6907228207
| 41> *
| 42>
| 43>                          ****END OF INPUT****

CARTESIAN COORDINATES (ANGSTROEM)
---------------------------------
  C     -0.334512   -2.709246   -0.144524
  C      0.482570   -1.462544   -0.027991
  C      1.852445   -1.413646   -0.331634
  N      2.561075   -0.306484   -0.207149
  C      1.943796    0.806830    0.219280
  N      0.626544    0.872259    0.495657
  C     -0.057832   -0.243669    0.360741
  O     -1.406887   -0.131807    0.685988
  C     -2.278969   -0.106525   -0.363471
  O     -1.908805   -0.209786   -1.524047
  N     -3.547030    0.035354    0.024352
  C     -4.604988    0.068689   -0.963271
  C     -3.967587    0.162117    1.403074
  N      2.674742    1.914903    0.373668
  C      4.087371    1.941683    0.080502
  C      2.095998    3.161813    0.809565
  C      2.583085   -2.622927   -0.815362
  H      0.232418   -3.572427    0.194010
  H     -1.239779   -2.622849    0.453098
  H     -0.627067   -2.868185   -1.183283
  H     -5.129865    1.022604   -0.909929
  H     -5.308051   -0.742979   -0.775825
  H     -4.162829   -0.049364   -1.949489
  H     -4.572629   -0.701570    1.682896
  H     -4.565388    1.066998    1.512489
  H     -3.098401    0.222169    2.050038
  H      4.400164    0.949523   -0.228023
  H      4.640854    2.244414    0.970606
  H      4.285783    2.655830   -0.720552
  H      2.588743    3.496369    1.723933
  H      1.037618    3.012316    0.997003
  H      2.227234    3.921830    0.037131
  H      3.603080   -2.350315   -1.064781
  H      2.593723   -3.386192   -0.039892
  H      2.084980   -3.032702   -1.690723

 Total Charge           Charge          ....    0
 Multiplicity           Mult            ....    1
 Number of Electrons    NEL             ....  128
 Basis Dimension        Dim             ....  274

ORBITAL ENERGIES
----------------

  NO   OCC          E(Eh)            E(eV)
   0   2.0000     -18.794086      -511.4131
   1   2.0000     -18.711814      -509.1744
   2   2.0000     -14.029066      -381.7503
   3   2.0000     -14.018099      -381.4519
   4   2.0000     -13.969867      -380.1394
   5   2.0000     -13.965103      -380.0098
   6   2.0000     -10.018199      -272.6091
   7   2.0000      -9.975286      -271.4413
   8   2.0000      -9.972793      -271.3735
   9   2.0000      -9.930592      -270.2251
  10   2.0000      -9.920888      -269.9611
  11   2.0000      -9.917503      -269.8690
  12   2.0000      -9.906928      -269.5812
  13   2.0000      -9.906206      -269.5616
  14   2.0000      -9.889087      -269.0957
  15   2.0000      -9.879687      -268.8400
  16   2.0000      -9.877575      -268.7825
  17   2.0000      -1.007374       -27.4120
  18   2.0000      -0.915419       -24.9098
  19   2.0000      -0.901030       -24.5183
  20   2.0000      -0.857511       -23.3341
  21   2.0000      -0.840166       -22.8621
  22   2.0000      -0.789955       -21.4958
  23   2.0000      -0.721100       -19.6221
  24   2.0000      -0.666791       -18.1443
  25   2.0000      -0.658407       -17.9162
  26   2.0000      -0.652253       -17.7487
  27   2.0000      -0.643244       -17.5035
  28   2.0000      -0.634791       -17.2735
  29   2.0000      -0.586356       -15.9556
  30   2.0000      -0.569164       -15.4877
  31   2.0000      -0.522356       -14.2140
  32   2.0000      -0.501953       -13.6588
  33   2.0000      -0.482838       -13.1387
  34   2.0000      -0.480663       -13.0795
  35   2.0000      -0.453012       -12.3271
  36   2.0000      -0.437928       -11.9166
  37   2.0000      -0.431233       -11.7344
  38   2.0000      -0.425896       -11.5892
  39   2.0000      -0.404326       -11.0023
  40   2.0000      -0.398712       -10.8495
  41   2.0000      -0.391003       -10.6397
  42   2.0000      -0.375050       -10.2056
  43   2.0000      -0.371897       -10.1198
  44   2.0000      -0.366132        -9.9629
  45   2.0000      -0.364267        -9.9122
  46   2.0000      -0.357759        -9.7351
  47   2.0000      -0.357546        -9.7293
  48   2.0000      -0.353219        -9.6116
  49   2.0000      -0.352781        -9.5996
  50   2.0000      -0.347323        -9.4511
  51   2.0000      -0.342481        -9.3194
  52   2.0000      -0.337627        -9.1873
  53   2.0000      -0.336795        -9.1646
  54   2.0000      -0.330272        -8.9872
  55   2.0000      -0.322113        -8.7651
  56   2.0000      -0.261111        -7.1052
  57   2.0000      -0.254056        -6.9132
  58   2.0000      -0.250092        -6.8053
  59   2.0000      -0.246933        -6.7194
  60   2.0000      -0.214294        -5.8312
  61   2.0000      -0.205605        -5.5948
  62   2.0000      -0.189776        -5.1641
  63   2.0000      -0.170128        -4.6294
  64   0.0000      -0.041706        -1.1349
  65   0.0000      -0.013691        -0.3725
  66   0.0000       0.024939         0.6786
  67   0.0000       0.032435         0.8826
  68   0.0000       0.045234         1.2309

MULLIKEN ATOMIC CHARGES
-----------------------
   0 C :   -0.187512
   1 C :   -0.108899
   2 C :   -0.124876
   3 N :   -0.103001
   4 C :    0.052712
   5 N :   -0.087774
   6 C :    0.092898
   7 O :   -0.254387
   8 C :    0.222300
   9 O :   -0.252680
  10 N :   -0.242643
  11 C :   -0.170004
  12 C :   -0.173838
  13 N :   -0.206454
  14 C :   -0.167469
  15 C :   -0.167393
  16 C :   -0.196525
  17 H :    0.099040
  18 H :    0.104692
  19 H :    0.119667
  20 H :    0.109642
  21 H :    0.107000
  22 H :    0.145340
  23 H :    0.107557
  24 H :    0.107719
  25 H :    0.148726
  26 H :    0.140211
  27 H :    0.100471
  28 H :    0.101989
  29 H :    0.101033
  30 H :    0.142243
  31 H :    0.102842
  32 H :    0.105608
  33 H :    0.116979
  34 H :    0.114787
Sum of atomic charges:    0.0000000

LOEWDIN ATOMIC CHARGES
----------------------
   0 C :   -0.324413
   1 C :   -0.122958
   2 C :    0.008916
   3 N :   -0.120199
   4 C :    0.030676
   5 N :   -0.119242
   6 C :    0.067787
   7 O :   -0.058518
   8 C :    0.042880
   9 O :   -0.216832
  10 N :   -0.058866
  11 C :   -0.246635
  12 C :   -0.251077
  13 N :   -0.037975
  14 C :   -0.254278
  15 C :   -0.253305
  16 C :   -0.331426
  17 H :    0.123834
  18 H :    0.126063
  19 H :    0.136298
  20 H :    0.116304
  21 H :    0.115300
  22 H :    0.138774
  23 H :    0.114609
  24 H :    0.116385
  25 H :    0.135324
  26 H :    0.133672
  27 H :    0.112544
  28 H :    0.113165
  29 H :    0.112755
  30 H :    0.135062
  31 H :    0.113681
  32 H :    0.131063
  33 H :    0.135337
  34 H :    0.135294

  Mayer bond orders larger than 0.100000
B(  0-C ,  1-C ) :   1.1679 B(  0-C , 17-H ) :   0.9208 B(  0-C , 18-H ) :   0.9247
B(  0-C , 19-H ) :   0.9152 B(  1-C ,  2-C ) :   1.3065 B(  1-C ,  6-C ) :   1.3665
B(  2-C ,  3-N ) :   1.6058 B(  2-C , 16-C ) :   1.1546 B(  3-N ,  4-C ) :   1.4184
B(  4-C ,  5-N ) :   1.3980 B(  4-C , 13-N ) :   1.2108 B(  5-N ,  6-C ) :   1.5878
B(  6-C ,  7-O ) :   1.0122 B(  7-O ,  8-C ) :   1.0506 B(  8-C ,  9-O ) :   1.9758
B(  8-C , 10-N ) :   1.2016 B( 10-N , 11-C ) :   1.0125 B( 10-N , 12-C ) :   1.0068
B( 11-C , 20-H ) :   0.9524 B( 11-C , 21-H ) :   0.9522 B( 11-C , 22-H ) :   0.9328
B( 12-C , 23-H ) :   0.9501 B( 12-C , 24-H ) :   0.9492 B( 12-C , 25-H ) :   0.9390
B( 13-N , 14-C ) :   1.0180 B( 13-N , 15-C ) :   1.0184 B( 14-C , 26-H ) :   0.9228
B( 14-C , 27-H ) :   0.9499 B( 14-C , 28-H ) :   0.9495 B( 15-C , 29-H ) :   0.9499
B( 15-C , 30-H ) :   0.9247 B( 15-C , 31-H ) :   0.9494 B( 16-C , 32-H ) :   0.9278
B( 16-C , 33-H ) :   0.9232 B( 16-C , 34-H ) :   0.9234

Dispersion correction           -0.039714962
FINAL SINGLE POINT ENERGY      -797.789237131855

DIPOLE MOMENT
-------------

Method             : SCF
Type of density    : Electron Density
Multiplicity       :   1
Irrep              :   0
Energy             :  -797.9087680329114391 Eh
Relativity type    :
Basis              : AO
                                X                 Y                 Z
Electronic contribution:      0.484711748       0.754942772      -0.295899813
Nuclear contribution   :     -0.983429262      -0.680372065       0.984593085
                        -----------------------------------------
Total Dipole Moment    :     -0.498717514       0.074570708       0.688693273
                        -----------------------------------------
Magnitude (a.u.)       :      0.853568025
Magnitude (Debye)      :      2.169597499

Rotational constants in cm-1:             0.025168             0.009621             0.007621
Rotational constants in MHz :           754.523025           288.422807           228.482183

                             ****ORCA TERMINATED NORMALLY****
TOTAL RUN TIME: 0 days 0 hours 0 minutes 24 seconds 517 msec
