                         Program Version 6.0.0  -   RELEASE  -
|  1> ! pbe def2-sv(p) def2/J RI DEFGRID1 loosescf d4 GCP(DFT/SV(P)) printgap
|  2> %output
|  3>     printlevel normal
|  4> end
|  5> * xyz 0 1
|  6> C 2.0800084961 0.1689333054 -1.1122641709
|  7> C 1.6654775393 -0.5670481823 0.1561842408
|  8> C 0.2760441567 -0.1834402382 0.6980166075
|  9> H 0.1257654468 -0.7850713373 1.612213723
| 10> C -0.8878412481 -0.5213699752 -0.2638097595
| 11> C -2.1152285753 -0.9567563229 0.5382130378
| 12> C -1.2694119642 0.651228393 -1.1659157941
| 13> O 0.2060361616 1.1877231547 1.0449444348
| 14> H 1.9231389769 1.2384476749 -0.9937454242
| 15> H 1.5062005447 -0.1769303296 -1.9674070537
| 16> H 3.1335782833 -0.0069991396 -1.3162585258
| 17> H 1.6750973593 -1.6442215866 -0.0184041623
| 18> H 2.3971264386 -0.3558556961 0.941286763
| 19> H -0.5663938896 -1.3613356197 -0.8881663776
| 20> H -2.421501047 -0.1563676612 1.2080148878
| 21> H -2.9418438178 -1.1834338707 -0.1304826798
| 22> H -1.8982063507 -1.8431965815 1.1301742004
| 23> H -0.4328742823 0.9756199184 -1.7749043242
| 24> H -1.5932392464 1.4920963346 -0.5586439788
| 25> H -2.0848020713 0.3566049997 -1.8223337947
| 26> H 0.8978908018 1.3810639516 1.6905442402
| 27> *
| 28>
| 29>                          ****END OF INPUT****

CARTESIAN COORDINATES (ANGSTROEM)
---------------------------------
  C      2.080008    0.168933   -1.112264
  C      1.665478   -0.567048    0.156184
  C      0.276044   -0.183440    0.698017
  H      0.125765   -0.785071    1.612214
  C     -0.887841   -0.521370   -0.263810
  C     -2.115229   -0.956756    0.538213
  C     -1.269412    0.651228   -1.165916
  O      0.206036    1.187723    1.044944
  H      1.923139    1.238448   -0.993745
  H      1.506201   -0.176930   -1.967407
  H      3.133578   -0.006999   -1.316259
  H      1.675097   -1.644222   -0.018404
  H      2.397126   -0.355856    0.941287
  H     -0.566394   -1.361336   -0.888166
  H     -2.421501   -0.156368    1.208015
  H     -2.941844   -1.183434   -0.130483
  H     -1.898206   -1.843197    1.130174
  H     -0.432874    0.975620   -1.774904
  H     -1.593239    1.492096   -0.558644
  H     -2.084802    0.356605   -1.822334
  H      0.897891    1.381064    1.690544

 Total Charge           Charge          ....    0
 Multiplicity           Mult            ....    1
 Number of Electrons    NEL             ....   58
 Basis Dimension        Dim             ....  126

ORBITAL ENERGIES
----------------

  NO   OCC          E(Eh)            E(eV)
   0   2.0000     -18.741668      -509.9867
   1   2.0000      -9.932170      -270.2681
   2   2.0000      -9.889539      -269.1080
   3   2.0000      -9.883602      -268.9465
   4   2.0000      -9.871014      -268.6040
   5   2.0000      -9.866220      -268.4735
   6   2.0000      -9.860413      -268.3155
   7   2.0000      -0.919557       -25.0224
   8   2.0000      -0.721430       -19.6311
   9   2.0000      -0.682631       -18.5753
  10   2.0000      -0.605152       -16.4670
  11   2.0000      -0.596751       -16.2384
  12   2.0000      -0.535000       -14.5581
  13   2.0000      -0.495842       -13.4925
  14   2.0000      -0.442208       -12.0331
  15   2.0000      -0.414050       -11.2669
  16   2.0000      -0.407680       -11.0935
  17   2.0000      -0.386023       -10.5042
  18   2.0000      -0.372962       -10.1488
  19   2.0000      -0.341201        -9.2846
  20   2.0000      -0.332514        -9.0482
  21   2.0000      -0.324917        -8.8414
  22   2.0000      -0.319000        -8.6804
  23   2.0000      -0.309785        -8.4297
  24   2.0000      -0.288576        -7.8526
  25   2.0000      -0.283313        -7.7093
  26   2.0000      -0.280757        -7.6398
  27   2.0000      -0.256880        -6.9900
  28   2.0000      -0.210703        -5.7335
  29   0.0000       0.018782         0.5111
  30   0.0000       0.053798         1.4639
  31   0.0000       0.068922         1.8755
  32   0.0000       0.070363         1.9147
  33   0.0000       0.083205         2.2641

MULLIKEN ATOMIC CHARGES
-----------------------
   0 C :   -0.281459
   1 C :   -0.186410
   2 C :    0.073183
   3 H :    0.050910
   4 C :   -0.180082
   5 C :   -0.254730
   6 C :   -0.237238
   7 O :   -0.419384
   8 H :    0.106832
   9 H :    0.114109
  10 H :    0.099924
  11 H :    0.083317
  12 H :    0.068582
  13 H :    0.071785
  14 H :    0.104740
  15 H :    0.095588
  16 H :    0.094920
  17 H :    0.099716
  18 H :    0.109647
  19 H :    0.089806
  20 H :    0.296243
Sum of atomic charges:   -0.0000000

LOEWDIN ATOMIC CHARGES
----------------------
   0 C :   -0.346422
   1 C :   -0.246710
   2 C :   -0.042996
   3 H :    0.093454
   4 C :   -0.158347
   5 C :   -0.328811
   6 C :   -0.331130
   7 O :   -0.323680
   8 H :    0.119025
   9 H :    0.118922
  10 H :    0.118933
  11 H :    0.118117
  12 H :    0.107513
  13 H :    0.114646
  14 H :    0.120945
  15 H :    0.115450
  16 H :    0.112742
  17 H :    0.116845
  18 H :    0.123630
  19 H :    0.114277
  20 H :    0.283597

  Mayer bond orders larger than 0.100000
B(  0-C ,  1-C ) :   1.1512 B(  0-C ,  8-H ) :   0.9422 B(  0-C ,  9-H ) :   0.9456
B(  0-C , 10-H ) :   0.9483 B(  1-C ,  2-C ) :   1.0756 B(  1-C , 11-H ) :   0.9119
B(  1-C , 12-H ) :   0.9191 B(  2-C ,  3-H ) :   0.9112 B(  2-C ,  4-C ) :   0.9965
B(  2-C ,  7-O ) :   1.0544 B(  4-C ,  5-C ) :   1.1098 B(  4-C ,  6-C ) :   1.1187
B(  4-C , 13-H ) :   0.9079 B(  5-C , 14-H ) :   0.9496 B(  5-C , 15-H ) :   0.9516
B(  5-C , 16-H ) :   0.9486 B(  6-C , 17-H ) :   0.9411 B(  6-C , 18-H ) :   0.9405
B(  6-C , 19-H ) :   0.9483 B(  7-O , 20-H ) :   0.8485

Dispersion correction           -0.017053732
FINAL SINGLE POINT ENERGY      -311.514283334541

DIPOLE MOMENT
-------------

Method             : SCF
Type of density    : Electron Density
Multiplicity       :   1
Irrep              :   0
Energy             :  -311.5939374845797829 Eh
Relativity type    :
Basis              : AO
                                X                 Y                 Z
Electronic contribution:      0.697970908       1.663754218       2.958719130
Nuclear contribution   :     -0.259687024      -1.923976791      -2.694014090
                        -----------------------------------------
Total Dipole Moment    :      0.438283884      -0.260222573       0.264705040
                        -----------------------------------------
Magnitude (a.u.)       :      0.574349466
Magnitude (Debye)      :      1.459880324

Rotational constants in cm-1:             0.118949             0.058973             0.055141
Rotational constants in MHz :          3566.010662          1767.976088          1653.075114

                             ****ORCA TERMINATED NORMALLY****
TOTAL RUN TIME: 0 days 0 hours 0 minutes 9 seconds 222 msec
