                         Program Version 6.0.0  -   RELEASE  -
|  1> ! pbe def2-sv(p) def2/J RI DEFGRID1 loosescf d4 GCP(DFT/SV(P)) printgap
|  2> %output
|  3>     printlevel normal
|  4> end
|  5> * xyz 0 1
|  6> C -2.1911667115 -0.2025268221 -1.368451785
|  7> C -1.7233058327 -0.5549041496 0.0411630039
|  8> C -2.9281042572 -0.924333602 0.907877358
|  9> C -0.9675339997 0.6031902213 0.7022532142
| 10> C 0.2978602751 1.1237538374 0.0103208495
| 11> C 1.5475831066 0.2170470005 -0.0429670374
| 12> C 1.4919758115 -0.7608709802 -1.2203845234
| 13> C 2.7659877628 1.1281544677 -0.2509480114
| 14> C 1.7394354949 -0.560533097 1.2606067802
| 15> H -1.3479572827 -0.0294200879 -2.0306435686
| 16> H -2.8060250327 0.6950094841 -1.3475581488
| 17> H -2.784613184 -1.0149061601 -1.7824599446
| 18> H -1.0714227202 -1.4317499979 -0.0117517746
| 19> H -2.6114047362 -1.1986339692 1.9117811744
| 20> H -3.6131282397 -0.0822955485 0.9829818938
| 21> H -3.465600213 -1.7657658596 0.4764796679
| 22> H -1.6598403402 1.4480874342 0.7699304954
| 23> H -0.7195068504 0.3147709947 1.72505693
| 24> H 0.5811291723 2.0300000802 0.5531736365
| 25> H 0.0523815577 1.4312092757 -1.0076091031
| 26> H 0.6638377535 -1.455552668 -1.1269080862
| 27> H 1.3845216547 -0.221189906 -2.1590793337
| 28> H 2.412601675 -1.3394498721 -1.2666581006
| 29> H 3.6704096957 0.5353725433 -0.3686819117
| 30> H 2.6386307583 1.73772151 -1.1429900099
| 31> H 2.9018904061 1.790926309 0.6008841275
| 32> H 1.7355115664 0.1150811737 2.1130805248
| 33> H 2.6941661363 -1.0820256569 1.244099389
| 34> H 0.9543598397 -1.2991766357 1.3965156084
| 35> *
| 36>
| 37>                          ****END OF INPUT****

CARTESIAN COORDINATES (ANGSTROEM)
---------------------------------
  C     -2.191167   -0.202527   -1.368452
  C     -1.723306   -0.554904    0.041163
  C     -2.928104   -0.924334    0.907877
  C     -0.967534    0.603190    0.702253
  C      0.297860    1.123754    0.010321
  C      1.547583    0.217047   -0.042967
  C      1.491976   -0.760871   -1.220385
  C      2.765988    1.128154   -0.250948
  C      1.739435   -0.560533    1.260607
  H     -1.347957   -0.029420   -2.030644
  H     -2.806025    0.695009   -1.347558
  H     -2.784613   -1.014906   -1.782460
  H     -1.071423   -1.431750   -0.011752
  H     -2.611405   -1.198634    1.911781
  H     -3.613128   -0.082296    0.982982
  H     -3.465600   -1.765766    0.476480
  H     -1.659840    1.448087    0.769930
  H     -0.719507    0.314771    1.725057
  H      0.581129    2.030000    0.553174
  H      0.052382    1.431209   -1.007609
  H      0.663838   -1.455553   -1.126908
  H      1.384522   -0.221190   -2.159079
  H      2.412602   -1.339450   -1.266658
  H      3.670410    0.535373   -0.368682
  H      2.638631    1.737722   -1.142990
  H      2.901890    1.790926    0.600884
  H      1.735512    0.115081    2.113081
  H      2.694166   -1.082026    1.244099
  H      0.954360   -1.299177    1.396516

 Total Charge           Charge          ....    0
 Multiplicity           Mult            ....    1
 Number of Electrons    NEL             ....   74
 Basis Dimension        Dim             ....  166

ORBITAL ENERGIES
----------------

  NO   OCC          E(Eh)            E(eV)
   0   2.0000      -9.901935      -269.4454
   1   2.0000      -9.889403      -269.1043
   2   2.0000      -9.876492      -268.7530
   3   2.0000      -9.876314      -268.7482
   4   2.0000      -9.868747      -268.5423
   5   2.0000      -9.868376      -268.5322
   6   2.0000      -9.867971      -268.5211
   7   2.0000      -9.867602      -268.5111
   8   2.0000      -9.867305      -268.5030
   9   2.0000      -0.747326       -20.3358
  10   2.0000      -0.718473       -19.5506
  11   2.0000      -0.645215       -17.5572
  12   2.0000      -0.611565       -16.6415
  13   2.0000      -0.608432       -16.5563
  14   2.0000      -0.605285       -16.4706
  15   2.0000      -0.557499       -15.1703
  16   2.0000      -0.496446       -13.5090
  17   2.0000      -0.461870       -12.5681
  18   2.0000      -0.423794       -11.5320
  19   2.0000      -0.407319       -11.0837
  20   2.0000      -0.401801       -10.9336
  21   2.0000      -0.387711       -10.5502
  22   2.0000      -0.382680       -10.4133
  23   2.0000      -0.364643        -9.9224
  24   2.0000      -0.350415        -9.5353
  25   2.0000      -0.343129        -9.3370
  26   2.0000      -0.336337        -9.1522
  27   2.0000      -0.326598        -8.8872
  28   2.0000      -0.319745        -8.7007
  29   2.0000      -0.317414        -8.6373
  30   2.0000      -0.308782        -8.4024
  31   2.0000      -0.292480        -7.9588
  32   2.0000      -0.284933        -7.7534
  33   2.0000      -0.282709        -7.6929
  34   2.0000      -0.267137        -7.2692
  35   2.0000      -0.260299        -7.0831
  36   2.0000      -0.258469        -7.0333
  37   0.0000       0.025822         0.7027
  38   0.0000       0.050706         1.3798
  39   0.0000       0.058726         1.5980
  40   0.0000       0.065357         1.7785
  41   0.0000       0.082109         2.2343

MULLIKEN ATOMIC CHARGES
-----------------------
   0 C :   -0.256147
   1 C :   -0.200825
   2 C :   -0.234316
   3 C :   -0.124463
   4 C :   -0.088352
   5 C :   -0.258376
   6 C :   -0.220437
   7 C :   -0.211809
   8 C :   -0.220199
   9 H :    0.108858
  10 H :    0.090542
  11 H :    0.095776
  12 H :    0.088671
  13 H :    0.094841
  14 H :    0.089494
  15 H :    0.096189
  16 H :    0.069615
  17 H :    0.077065
  18 H :    0.068585
  19 H :    0.075432
  20 H :    0.106833
  21 H :    0.094361
  22 H :    0.089982
  23 H :    0.090944
  24 H :    0.092761
  25 H :    0.093082
  26 H :    0.095647
  27 H :    0.091908
  28 H :    0.104336
Sum of atomic charges:   -0.0000000

LOEWDIN ATOMIC CHARGES
----------------------
   0 C :   -0.331188
   1 C :   -0.162390
   2 C :   -0.327152
   3 C :   -0.217704
   4 C :   -0.209534
   5 C :   -0.104989
   6 C :   -0.318906
   7 C :   -0.316049
   8 C :   -0.318258
   9 H :    0.116086
  10 H :    0.116552
  11 H :    0.117771
  12 H :    0.111465
  13 H :    0.115426
  14 H :    0.115141
  15 H :    0.115642
  16 H :    0.115307
  17 H :    0.113922
  18 H :    0.116827
  19 H :    0.114062
  20 H :    0.115568
  21 H :    0.115001
  22 H :    0.115537
  23 H :    0.113499
  24 H :    0.115161
  25 H :    0.113812
  26 H :    0.116364
  27 H :    0.116919
  28 H :    0.116109

  Mayer bond orders larger than 0.100000
B(  0-C ,  1-C ) :   1.1064 B(  0-C ,  9-H ) :   0.9414 B(  0-C , 10-H ) :   0.9484
B(  0-C , 11-H ) :   0.9497 B(  1-C ,  2-C ) :   1.1119 B(  1-C ,  3-C ) :   1.0967
B(  1-C , 12-H ) :   0.8838 B(  2-C , 13-H ) :   0.9499 B(  2-C , 14-H ) :   0.9491
B(  2-C , 15-H ) :   0.9509 B(  3-C ,  4-C ) :   1.1532 B(  3-C , 16-H ) :   0.9055
B(  3-C , 17-H ) :   0.9029 B(  4-C ,  5-C ) :   1.0371 B(  4-C , 18-H ) :   0.9047
B(  4-C , 19-H ) :   0.9076 B(  5-C ,  6-C ) :   1.0821 B(  5-C ,  7-C ) :   1.0739
B(  5-C ,  8-C ) :   1.0882 B(  6-C , 20-H ) :   0.9357 B(  6-C , 21-H ) :   0.9421
B(  6-C , 22-H ) :   0.9436 B(  7-C , 23-H ) :   0.9472 B(  7-C , 24-H ) :   0.9489
B(  7-C , 25-H ) :   0.9450 B(  8-C , 26-H ) :   0.9443 B(  8-C , 27-H ) :   0.9447
B(  8-C , 28-H ) :   0.9360

Dispersion correction           -0.027033537
FINAL SINGLE POINT ENERGY      -354.085868767616

DIPOLE MOMENT
-------------

Method             : SCF
Type of density    : Electron Density
Multiplicity       :   1
Irrep              :   0
Energy             :  -354.1825024395810146 Eh
Relativity type    :
Basis              : AO
                                X                 Y                 Z
Electronic contribution:      0.380366956       0.752312957       0.452017573
Nuclear contribution   :     -0.365937870      -0.771157315      -0.441270527
                        -----------------------------------------
Total Dipole Moment    :      0.014429086      -0.018844358       0.010747046
                        -----------------------------------------
Magnitude (a.u.)       :      0.026053931
Magnitude (Debye)      :      0.066223831

Rotational constants in cm-1:             0.089271             0.028746             0.027099
Rotational constants in MHz :          2676.285865           861.796127           812.399468

                             ****ORCA TERMINATED NORMALLY****
TOTAL RUN TIME: 0 days 0 hours 0 minutes 15 seconds 107 msec
