                         Program Version 6.0.0  -   RELEASE  -
|  1> ! r2scan-3c def2/J RI DEFGRID2 scfconv6 printgap
|  2> %output
|  3>     printlevel normal
|  4> end
|  5> * xyz 0 1
|  6> C 1.8468705843 -1.069587771 0.3823613761
|  7> C 1.2865849603 0.2720168975 0.8440489988
|  8> C 0.1811333819 0.8678047548 -0.045732102
|  9> H -0.0324738163 1.8728029977 0.3647898656
| 10> C -1.1783459733 0.135900861 -0.0860722992
| 11> C -1.1548785004 -1.1778294131 -0.8649759603
| 12> C -1.751343536 -0.0700100681 1.3129324994
| 13> O 0.6173249524 1.0125531411 -1.3877797384
| 14> H 2.8240604436 -1.2367385995 0.8295860715
| 15> H 1.9533457998 -1.0804479555 -0.6994381858
| 16> H 1.200227104 -1.8911164124 0.6739791841
| 17> H 0.9101106769 0.195437492 1.8634998613
| 18> H 2.1022502361 1.0012910243 0.8567418441
| 19> H -1.8398175577 0.8186891484 -0.6337899801
| 20> H -0.6109579798 -1.0462364686 -1.7960076478
| 21> H -0.6893117138 -1.972226958 -0.2911604162
| 22> H -2.1734641736 -1.4794847991 -1.0981305574
| 23> H -2.7767494647 -0.422989338 1.2394925595
| 24> H -1.7466831368 0.8615194864 1.8744343064
| 25> H -1.1762800229 -0.8119623203 1.8606302407
| 26> H 1.4320606253 1.5320449954 -1.3975145289
| 27> *
| 28>
| 29>                          ****END OF INPUT****

CARTESIAN COORDINATES (ANGSTROEM)
---------------------------------
  C      1.846871   -1.069588    0.382361
  C      1.286585    0.272017    0.844049
  C      0.181133    0.867805   -0.045732
  H     -0.032474    1.872803    0.364790
  C     -1.178346    0.135901   -0.086072
  C     -1.154879   -1.177829   -0.864976
  C     -1.751344   -0.070010    1.312932
  O      0.617325    1.012553   -1.387780
  H      2.824060   -1.236739    0.829586
  H      1.953346   -1.080448   -0.699438
  H      1.200227   -1.891116    0.673979
  H      0.910111    0.195437    1.863500
  H      2.102250    1.001291    0.856742
  H     -1.839818    0.818689   -0.633790
  H     -0.610958   -1.046236   -1.796008
  H     -0.689312   -1.972227   -0.291160
  H     -2.173464   -1.479485   -1.098131
  H     -2.776749   -0.422989    1.239493
  H     -1.746683    0.861519    1.874434
  H     -1.176280   -0.811962    1.860630
  H      1.432061    1.532045   -1.397515

 Total Charge           Charge          ....    0
 Multiplicity           Mult            ....    1
 Number of Electrons    NEL             ....   58
 Basis Dimension        Dim             ....  208

ORBITAL ENERGIES
----------------

  NO   OCC          E(Eh)            E(eV)
   0   2.0000     -18.945862      -515.5431
   1   2.0000     -10.077283      -274.2168
   2   2.0000     -10.030791      -272.9517
   3   2.0000     -10.027062      -272.8502
   4   2.0000     -10.017181      -272.5814
   5   2.0000     -10.013678      -272.4860
   6   2.0000     -10.005587      -272.2659
   7   2.0000      -0.984244       -26.7826
   8   2.0000      -0.770271       -20.9601
   9   2.0000      -0.725908       -19.7530
  10   2.0000      -0.648698       -17.6520
  11   2.0000      -0.640423       -17.4268
  12   2.0000      -0.575496       -15.6600
  13   2.0000      -0.508696       -13.8423
  14   2.0000      -0.464795       -12.6477
  15   2.0000      -0.447622       -12.1804
  16   2.0000      -0.426662       -11.6101
  17   2.0000      -0.398634       -10.8474
  18   2.0000      -0.386629       -10.5207
  19   2.0000      -0.359717        -9.7884
  20   2.0000      -0.349370        -9.5068
  21   2.0000      -0.340690        -9.2706
  22   2.0000      -0.334926        -9.1138
  23   2.0000      -0.332122        -9.0375
  24   2.0000      -0.303223        -8.2511
  25   2.0000      -0.299052        -8.1376
  26   2.0000      -0.291463        -7.9311
  27   2.0000      -0.267232        -7.2718
  28   2.0000      -0.232745        -6.3333
  29   0.0000       0.059262         1.6126
  30   0.0000       0.091647         2.4938
  31   0.0000       0.109965         2.9923
  32   0.0000       0.123627         3.3641
  33   0.0000       0.127302         3.4641

MULLIKEN ATOMIC CHARGES
-----------------------
   0 C :   -0.484941
   1 C :   -0.302230
   2 C :    0.042500
   3 H :    0.130996
   4 C :   -0.004337
   5 C :   -0.541170
   6 C :   -0.515677
   7 O :   -0.437036
   8 H :    0.144338
   9 H :    0.175877
  10 H :    0.141977
  11 H :    0.154794
  12 H :    0.136203
  13 H :    0.151900
  14 H :    0.180842
  15 H :    0.138957
  16 H :    0.145997
  17 H :    0.148883
  18 H :    0.149264
  19 H :    0.156033
  20 H :    0.286831
Sum of atomic charges:   -0.0000000

LOEWDIN ATOMIC CHARGES
----------------------
   0 C :   -0.421199
   1 C :   -0.294319
   2 C :    0.057540
   3 H :    0.166216
   4 C :   -0.209379
   5 C :   -0.406745
   6 C :   -0.411948
   7 O :   -0.628923
   8 H :    0.149253
   9 H :    0.162884
  10 H :    0.148726
  11 H :    0.161646
  12 H :    0.153728
  13 H :    0.166118
  14 H :    0.171913
  15 H :    0.150484
  16 H :    0.151846
  17 H :    0.156174
  18 H :    0.154455
  19 H :    0.152457
  20 H :    0.269074

  Mayer bond orders larger than 0.100000
B(  0-C ,  1-C ) :   0.8572 B(  0-C ,  8-H ) :   0.9670 B(  0-C ,  9-H ) :   0.9871
B(  0-C , 10-H ) :   0.9761 B(  1-C ,  2-C ) :   0.9115 B(  1-C , 11-H ) :   0.9707
B(  1-C , 12-H ) :   0.9720 B(  2-C ,  3-H ) :   0.9623 B(  2-C ,  4-C ) :   0.9386
B(  2-C ,  7-O ) :   0.8970 B(  4-C ,  5-C ) :   0.9052 B(  4-C ,  6-C ) :   0.8819
B(  4-C , 13-H ) :   0.9561 B(  5-C , 14-H ) :   0.9728 B(  5-C , 15-H ) :   0.9754
B(  5-C , 16-H ) :   0.9702 B(  6-C , 17-H ) :   0.9663 B(  6-C , 18-H ) :   0.9749
B(  6-C , 19-H ) :   0.9813 B(  7-O , 20-H ) :   0.9000

Dispersion correction           -0.005907697
FINAL SINGLE POINT ENERGY      -312.198623019563

DIPOLE MOMENT
-------------

Method             : SCF
Type of density    : Electron Density
Multiplicity       :   1
Irrep              :   0
Energy             :  -312.2041040528501981 Eh
Relativity type    :
Basis              : AO
                                X                 Y                 Z
Electronic contribution:      0.846251755       3.662279041      -2.990858397
Nuclear contribution   :     -0.575955056      -3.418105224       3.400992384
                        -----------------------------------------
Total Dipole Moment    :      0.270296698       0.244173816       0.410133987
                        -----------------------------------------
Magnitude (a.u.)       :      0.548535363
Magnitude (Debye)      :      1.394266089

Rotational constants in cm-1:             0.098837             0.066821             0.060346
Rotational constants in MHz :          2963.048339          2003.242484          1809.130468

                             ****ORCA TERMINATED NORMALLY****
TOTAL RUN TIME: 0 days 0 hours 0 minutes 28 seconds 590 msec
