                         Program Version 6.0.0  -   RELEASE  -
|  1> ! r2scan-3c def2/J RI DEFGRID2 scfconv6 printgap
|  2> %output
|  3>     printlevel normal
|  4> end
|  5> %cpcm
|  6>     smd true
|  7>     smdsolvent "water"
|  8> end
|  9> * xyz 0 1
| 10> C 1.8468705843 -1.069587771 0.3823613761
| 11> C 1.2865849603 0.2720168975 0.8440489988
| 12> C 0.1811333819 0.8678047548 -0.045732102
| 13> H -0.0324738163 1.8728029977 0.3647898656
| 14> C -1.1783459733 0.135900861 -0.0860722992
| 15> C -1.1548785004 -1.1778294131 -0.8649759603
| 16> C -1.751343536 -0.0700100681 1.3129324994
| 17> O 0.6173249524 1.0125531411 -1.3877797384
| 18> H 2.8240604436 -1.2367385995 0.8295860715
| 19> H 1.9533457998 -1.0804479555 -0.6994381858
| 20> H 1.200227104 -1.8911164124 0.6739791841
| 21> H 0.9101106769 0.195437492 1.8634998613
| 22> H 2.1022502361 1.0012910243 0.8567418441
| 23> H -1.8398175577 0.8186891484 -0.6337899801
| 24> H -0.6109579798 -1.0462364686 -1.7960076478
| 25> H -0.6893117138 -1.972226958 -0.2911604162
| 26> H -2.1734641736 -1.4794847991 -1.0981305574
| 27> H -2.7767494647 -0.422989338 1.2394925595
| 28> H -1.7466831368 0.8615194864 1.8744343064
| 29> H -1.1762800229 -0.8119623203 1.8606302407
| 30> H 1.4320606253 1.5320449954 -1.3975145289
| 31> *
| 32>
| 33>                          ****END OF INPUT****

CARTESIAN COORDINATES (ANGSTROEM)
---------------------------------
  C      1.846871   -1.069588    0.382361
  C      1.286585    0.272017    0.844049
  C      0.181133    0.867805   -0.045732
  H     -0.032474    1.872803    0.364790
  C     -1.178346    0.135901   -0.086072
  C     -1.154879   -1.177829   -0.864976
  C     -1.751344   -0.070010    1.312932
  O      0.617325    1.012553   -1.387780
  H      2.824060   -1.236739    0.829586
  H      1.953346   -1.080448   -0.699438
  H      1.200227   -1.891116    0.673979
  H      0.910111    0.195437    1.863500
  H      2.102250    1.001291    0.856742
  H     -1.839818    0.818689   -0.633790
  H     -0.610958   -1.046236   -1.796008
  H     -0.689312   -1.972227   -0.291160
  H     -2.173464   -1.479485   -1.098131
  H     -2.776749   -0.422989    1.239493
  H     -1.746683    0.861519    1.874434
  H     -1.176280   -0.811962    1.860630
  H      1.432061    1.532045   -1.397515

 Total Charge           Charge          ....    0
 Multiplicity           Mult            ....    1
 Number of Electrons    NEL             ....   58
 Basis Dimension        Dim             ....  208

ORBITAL ENERGIES
----------------

  NO   OCC          E(Eh)            E(eV)
   0   2.0000     -18.947056      -515.5756
   1   2.0000     -10.071475      -274.0588
   2   2.0000     -10.026381      -272.8317
   3   2.0000     -10.016652      -272.5669
   4   2.0000     -10.008694      -272.3504
   5   2.0000     -10.006699      -272.2961
   6   2.0000     -10.004188      -272.2278
   7   2.0000      -0.984419       -26.7874
   8   2.0000      -0.764876       -20.8133
   9   2.0000      -0.718493       -19.5512
  10   2.0000      -0.645184       -17.5563
  11   2.0000      -0.634224       -17.2581
  12   2.0000      -0.569216       -15.4892
  13   2.0000      -0.504319       -13.7232
  14   2.0000      -0.459914       -12.5149
  15   2.0000      -0.441246       -12.0069
  16   2.0000      -0.421345       -11.4654
  17   2.0000      -0.394967       -10.7476
  18   2.0000      -0.378700       -10.3050
  19   2.0000      -0.355105        -9.6629
  20   2.0000      -0.344630        -9.3779
  21   2.0000      -0.340134        -9.2555
  22   2.0000      -0.329090        -8.9550
  23   2.0000      -0.324528        -8.8309
  24   2.0000      -0.297999        -8.1090
  25   2.0000      -0.295241        -8.0339
  26   2.0000      -0.288264        -7.8441
  27   2.0000      -0.262040        -7.1305
  28   2.0000      -0.233866        -6.3638
  29   0.0000       0.074809         2.0356
  30   0.0000       0.102631         2.7927
  31   0.0000       0.118317         3.2196
  32   0.0000       0.130201         3.5430
  33   0.0000       0.133961         3.6453

MULLIKEN ATOMIC CHARGES
-----------------------
   0 C :   -0.532419
   1 C :   -0.297015
   2 C :    0.046742
   3 H :    0.143396
   4 C :    0.005700
   5 C :   -0.578825
   6 C :   -0.555325
   7 O :   -0.519343
   8 H :    0.156629
   9 H :    0.168265
  10 H :    0.159679
  11 H :    0.164897
  12 H :    0.156238
  13 H :    0.158148
  14 H :    0.168410
  15 H :    0.160439
  16 H :    0.161010
  17 H :    0.159587
  18 H :    0.161696
  19 H :    0.171126
  20 H :    0.340966
Sum of atomic charges:   -0.0000000

LOEWDIN ATOMIC CHARGES
----------------------
   0 C :   -0.428495
   1 C :   -0.292034
   2 C :    0.059279
   3 H :    0.173205
   4 C :   -0.210403
   5 C :   -0.416584
   6 C :   -0.417194
   7 O :   -0.662308
   8 H :    0.152826
   9 H :    0.158236
  10 H :    0.152487
  11 H :    0.165690
  12 H :    0.161681
  13 H :    0.165637
  14 H :    0.164703
  15 H :    0.156347
  16 H :    0.155620
  17 H :    0.158328
  18 H :    0.158663
  19 H :    0.157281
  20 H :    0.287033

  Mayer bond orders larger than 0.100000
B(  0-C ,  1-C ) :   0.8407 B(  0-C ,  8-H ) :   0.9640 B(  0-C ,  9-H ) :   0.9881
B(  0-C , 10-H ) :   0.9756 B(  1-C ,  2-C ) :   0.9220 B(  1-C , 11-H ) :   0.9702
B(  1-C , 12-H ) :   0.9677 B(  2-C ,  3-H ) :   0.9588 B(  2-C ,  4-C ) :   0.9304
B(  2-C ,  7-O ) :   0.8858 B(  4-C ,  5-C ) :   0.8810 B(  4-C ,  6-C ) :   0.8852
B(  4-C , 13-H ) :   0.9602 B(  5-C , 14-H ) :   0.9757 B(  5-C , 15-H ) :   0.9741
B(  5-C , 16-H ) :   0.9681 B(  6-C , 17-H ) :   0.9642 B(  6-C , 18-H ) :   0.9709
B(  6-C , 19-H ) :   0.9790 B(  7-O , 20-H ) :   0.8748

Dispersion correction           -0.005907697
FINAL SINGLE POINT ENERGY      -312.203450458877

DIPOLE MOMENT
-------------

Method             : SCF
Type of density    : Electron Density
Multiplicity       :   1
Irrep              :   0
Energy             :  -312.2089314921640266 Eh
Relativity type    :
Basis              : AO
                                X                 Y                 Z
Electronic contribution:      0.960515367       3.771081300      -2.704680039
Nuclear contribution   :     -0.575955056      -3.418105224       3.400992384
                        -----------------------------------------
Total Dipole Moment    :      0.384560311       0.352976076       0.696312345
                        -----------------------------------------
Magnitude (a.u.)       :      0.870246876
Magnitude (Debye)      :      2.211991768

Rotational constants in cm-1:             0.098837             0.066821             0.060346
Rotational constants in MHz :          2963.048339          2003.242484          1809.130468

                             ****ORCA TERMINATED NORMALLY****
TOTAL RUN TIME: 0 days 0 hours 0 minutes 33 seconds 573 msec
