                         Program Version 6.0.0  -   RELEASE  -
|  1> ! pbe def2-sv(p) def2/J RI DEFGRID1 loosescf d4 GCP(DFT/SV(P)) printgap
|  2> %output
|  3>     printlevel normal
|  4> end
|  5> * xyz 0 1
|  6> C -2.763515938 0.2711762931 -0.0036319022
|  7> C -1.3469338128 -0.0192552274 -0.4836411921
|  8> C -0.3315478244 0.1415050061 0.660213191
|  9> C 1.0525026837 -0.1451413503 0.1385108043
| 10> O 1.5687034914 -1.2394141148 0.1813667878
| 11> O 1.698243545 0.8687773434 -0.4335920931
| 12> H -3.4681648746 0.1438063412 -0.8207595295
| 13> H -2.8423722775 1.2909751233 0.3643462545
| 14> H -3.0407760272 -0.4076312612 0.7986398423
| 15> H -1.2863642506 -1.0405139165 -0.8646270623
| 16> H -1.0936508939 0.6554779294 -1.3034222403
| 17> H -0.3913737434 1.1495893012 1.0710263384
| 18> H -0.558680207 -0.580742945 1.444337152
| 19> H 1.2135648337 1.7137009867 -0.3971621874
| 20> *
| 21>
| 22>                          ****END OF INPUT****

CARTESIAN COORDINATES (ANGSTROEM)
---------------------------------
  C     -2.763516    0.271176   -0.003632
  C     -1.346934   -0.019255   -0.483641
  C     -0.331548    0.141505    0.660213
  C      1.052503   -0.145141    0.138511
  O      1.568703   -1.239414    0.181367
  O      1.698244    0.868777   -0.433592
  H     -3.468165    0.143806   -0.820760
  H     -2.842372    1.290975    0.364346
  H     -3.040776   -0.407631    0.798640
  H     -1.286364   -1.040514   -0.864627
  H     -1.093651    0.655478   -1.303422
  H     -0.391374    1.149589    1.071026
  H     -0.558680   -0.580743    1.444337
  H      1.213565    1.713701   -0.397162

 Total Charge           Charge          ....    0
 Multiplicity           Mult            ....    1
 Number of Electrons    NEL             ....   48
 Basis Dimension        Dim             ....  100

ORBITAL ENERGIES
----------------

  NO   OCC          E(Eh)            E(eV)
   0   2.0000     -18.800543      -511.5888
   1   2.0000     -18.727751      -509.6080
   2   2.0000     -10.010951      -272.4118
   3   2.0000      -9.910578      -269.6805
   4   2.0000      -9.908736      -269.6304
   5   2.0000      -9.890465      -269.1332
   6   2.0000      -1.003435       -27.3049
   7   2.0000      -0.910625       -24.7794
   8   2.0000      -0.734757       -19.9938
   9   2.0000      -0.648456       -17.6454
  10   2.0000      -0.571763       -15.5585
  11   2.0000      -0.548077       -14.9139
  12   2.0000      -0.465852       -12.6765
  13   2.0000      -0.442255       -12.0344
  14   2.0000      -0.409770       -11.1504
  15   2.0000      -0.385819       -10.4987
  16   2.0000      -0.373418       -10.1612
  17   2.0000      -0.355288        -9.6679
  18   2.0000      -0.341777        -9.3002
  19   2.0000      -0.317179        -8.6309
  20   2.0000      -0.315006        -8.5717
  21   2.0000      -0.306042        -8.3278
  22   2.0000      -0.266625        -7.2552
  23   2.0000      -0.213708        -5.8153
  24   0.0000      -0.022620        -0.6155
  25   0.0000      -0.000996        -0.0271
  26   0.0000       0.043210         1.1758
  27   0.0000       0.069962         1.9038
  28   0.0000       0.071748         1.9524

MULLIKEN ATOMIC CHARGES
-----------------------
   0 C :   -0.243923
   1 C :   -0.227282
   2 C :   -0.220170
   3 C :    0.133630
   4 O :   -0.183740
   5 O :   -0.287285
   6 H :    0.112051
   7 H :    0.097559
   8 H :    0.106374
   9 H :    0.115579
  10 H :    0.086160
  11 H :    0.084771
  12 H :    0.110943
  13 H :    0.315334
Sum of atomic charges:    0.0000000

LOEWDIN ATOMIC CHARGES
----------------------
   0 C :   -0.338840
   1 C :   -0.226318
   2 C :   -0.261546
   3 C :    0.025194
   4 O :   -0.154132
   5 O :   -0.204628
   6 H :    0.124257
   7 H :    0.117152
   8 H :    0.121841
   9 H :    0.128649
  10 H :    0.112355
  11 H :    0.117893
  12 H :    0.140058
  13 H :    0.298064

  Mayer bond orders larger than 0.100000
B(  0-C ,  1-C ) :   1.1527 B(  0-C ,  6-H ) :   0.9511 B(  0-C ,  7-H ) :   0.9536
B(  0-C ,  8-H ) :   0.9533 B(  1-C ,  2-C ) :   1.1096 B(  1-C ,  9-H ) :   0.9253
B(  1-C , 10-H ) :   0.9289 B(  2-C ,  3-C ) :   1.0200 B(  2-C , 11-H ) :   0.9031
B(  2-C , 12-H ) :   0.8995 B(  3-C ,  4-O ) :   2.1388 B(  3-C ,  5-O ) :   1.2048
B(  5-O , 13-H ) :   0.8275

Dispersion correction           -0.009257062
FINAL SINGLE POINT ENERGY      -307.023572947724

DIPOLE MOMENT
-------------

Method             : SCF
Type of density    : Electron Density
Multiplicity       :   1
Irrep              :   0
Energy             :  -307.0778453688701006 Eh
Relativity type    :
Basis              : AO
                                X                 Y                 Z
Electronic contribution:      9.560295662      -1.508626339      -0.195310320
Nuclear contribution   :    -10.710272218       2.738333780       0.270555191
                        -----------------------------------------
Total Dipole Moment    :     -1.149976556       1.229707441       0.075244871
                        -----------------------------------------
Magnitude (a.u.)       :      1.685315478
Magnitude (Debye)      :      4.283731511

Rotational constants in cm-1:             0.265711             0.063327             0.056775
Rotational constants in MHz :          7965.810184          1898.493858          1702.085452

                             ****ORCA TERMINATED NORMALLY****
TOTAL RUN TIME: 0 days 0 hours 0 minutes 7 seconds 350 msec
