                         Program Version 6.0.0  -   RELEASE  -
|  1> ! pbe def2-sv(p) def2/J RI DEFGRID1 loosescf d4 GCP(DFT/SV(P)) printgap
|  2> %output
|  3>     printlevel normal
|  4> end
|  5> * xyz 0 1
|  6> C -1.9342094693 -0.8206518621 0.7407261562
|  7> C -1.2125340059 -0.1938962259 -0.4507033569
|  8> C -2.1818420387 0.691512382 -1.2333176158
|  9> C -1.18943e-05 0.6306902657 4.49043e-05
| 10> C 1.2125238435 -0.1940136046 0.4505504821
| 11> C 1.9344395376 -0.8200809259 -0.7410948592
| 12> C 2.1816335509 0.6910707948 1.2337751553
| 13> H -2.7805615783 -1.4137835836 0.4017339225
| 14> H -1.2705770712 -1.4702023726 1.3053242542
| 15> H -2.304567328 -0.0445373457 1.4074745907
| 16> H -0.8732479013 -0.9968587193 -1.1130128912
| 17> H -1.7015127376 1.0979025351 -2.120420331
| 18> H -3.0528500849 0.1204913089 -1.5466275522
| 19> H -2.5192979083 1.5204596231 -0.6146379505
| 20> H -0.3150057942 1.2778993637 0.8223119336
| 21> H 0.3149687615 1.2781450387 -0.8220333423
| 22> H 0.873216394 -0.9973531945 1.1123892298
| 23> H 2.3051665314 -0.0435760233 -1.4071845179
| 24> H 2.7805650007 -1.4136280741 -0.4022616552
| 25> H 1.2708376016 -1.4690905774 -1.3063485474
| 26> H 2.5189552028 1.5204869631 0.6156512416
| 27> H 1.7011790864 1.0967852877 2.1211181436
| 28> H 3.0527375006 0.12001204 1.5467514883
| 29> *
| 30>
| 31>                          ****END OF INPUT****

CARTESIAN COORDINATES (ANGSTROEM)
---------------------------------
  C     -1.934209   -0.820652    0.740726
  C     -1.212534   -0.193896   -0.450703
  C     -2.181842    0.691512   -1.233318
  C     -0.000012    0.630690    0.000045
  C      1.212524   -0.194014    0.450550
  C      1.934440   -0.820081   -0.741095
  C      2.181634    0.691071    1.233775
  H     -2.780562   -1.413784    0.401734
  H     -1.270577   -1.470202    1.305324
  H     -2.304567   -0.044537    1.407475
  H     -0.873248   -0.996859   -1.113013
  H     -1.701513    1.097903   -2.120420
  H     -3.052850    0.120491   -1.546628
  H     -2.519298    1.520460   -0.614638
  H     -0.315006    1.277899    0.822312
  H      0.314969    1.278145   -0.822033
  H      0.873216   -0.997353    1.112389
  H      2.305167   -0.043576   -1.407185
  H      2.780565   -1.413628   -0.402262
  H      1.270838   -1.469091   -1.306349
  H      2.518955    1.520487    0.615651
  H      1.701179    1.096785    2.121118
  H      3.052738    0.120012    1.546751

 Total Charge           Charge          ....    0
 Multiplicity           Mult            ....    1
 Number of Electrons    NEL             ....   58
 Basis Dimension        Dim             ....  130

ORBITAL ENERGIES
----------------

  NO   OCC          E(Eh)            E(eV)
   0   2.0000      -9.889660      -269.1113
   1   2.0000      -9.889637      -269.1107
   2   2.0000      -9.875125      -268.7158
   3   2.0000      -9.868716      -268.5414
   4   2.0000      -9.868713      -268.5413
   5   2.0000      -9.867982      -268.5214
   6   2.0000      -9.867970      -268.5211
   7   2.0000      -0.739191       -20.1144
   8   2.0000      -0.698095       -18.9961
   9   2.0000      -0.607055       -16.5188
  10   2.0000      -0.606874       -16.5139
  11   2.0000      -0.600059       -16.3284
  12   2.0000      -0.506800       -13.7907
  13   2.0000      -0.488384       -13.2896
  14   2.0000      -0.425588       -11.5808
  15   2.0000      -0.400487       -10.8978
  16   2.0000      -0.391944       -10.6653
  17   2.0000      -0.374386       -10.1876
  18   2.0000      -0.364708        -9.9242
  19   2.0000      -0.349714        -9.5162
  20   2.0000      -0.336956        -9.1690
  21   2.0000      -0.335506        -9.1296
  22   2.0000      -0.314246        -8.5511
  23   2.0000      -0.306834        -8.3494
  24   2.0000      -0.296677        -8.0730
  25   2.0000      -0.290773        -7.9123
  26   2.0000      -0.274204        -7.4615
  27   2.0000      -0.268206        -7.2982
  28   2.0000      -0.261797        -7.1238
  29   0.0000       0.032714         0.8902
  30   0.0000       0.055836         1.5194
  31   0.0000       0.064028         1.7423
  32   0.0000       0.065203         1.7743
  33   0.0000       0.093156         2.5349

MULLIKEN ATOMIC CHARGES
-----------------------
   0 C :   -0.252529
   1 C :   -0.176302
   2 C :   -0.234827
   3 C :   -0.107670
   4 C :   -0.176293
   5 C :   -0.252528
   6 C :   -0.234834
   7 H :    0.096952
   8 H :    0.104285
   9 H :    0.091156
  10 H :    0.073616
  11 H :    0.096943
  12 H :    0.095130
  13 H :    0.090930
  14 H :    0.068479
  15 H :    0.068481
  16 H :    0.073618
  17 H :    0.091159
  18 H :    0.096952
  19 H :    0.104276
  20 H :    0.090933
  21 H :    0.096945
  22 H :    0.095127
Sum of atomic charges:    0.0000000

LOEWDIN ATOMIC CHARGES
----------------------
   0 C :   -0.329488
   1 C :   -0.158368
   2 C :   -0.327620
   3 C :   -0.207220
   4 C :   -0.158370
   5 C :   -0.329486
   6 C :   -0.327620
   7 H :    0.117060
   8 H :    0.115026
   9 H :    0.115618
  10 H :    0.112862
  11 H :    0.115566
  12 H :    0.115348
  13 H :    0.115648
  14 H :    0.111959
  15 H :    0.111961
  16 H :    0.112863
  17 H :    0.115617
  18 H :    0.117060
  19 H :    0.115024
  20 H :    0.115648
  21 H :    0.115566
  22 H :    0.115347

  Mayer bond orders larger than 0.100000
B(  0-C ,  1-C ) :   1.1109 B(  0-C ,  7-H ) :   0.9498 B(  0-C ,  8-H ) :   0.9451
B(  0-C ,  9-H ) :   0.9483 B(  1-C ,  2-C ) :   1.1112 B(  1-C ,  3-C ) :   1.0795
B(  1-C , 10-H ) :   0.8964 B(  2-C , 11-H ) :   0.9492 B(  2-C , 12-H ) :   0.9516
B(  2-C , 13-H ) :   0.9495 B(  3-C ,  4-C ) :   1.0795 B(  3-C , 14-H ) :   0.9146
B(  3-C , 15-H ) :   0.9146 B(  4-C ,  5-C ) :   1.1109 B(  4-C ,  6-C ) :   1.1112
B(  4-C , 16-H ) :   0.8964 B(  5-C , 17-H ) :   0.9483 B(  5-C , 18-H ) :   0.9498
B(  5-C , 19-H ) :   0.9451 B(  6-C , 20-H ) :   0.9495 B(  6-C , 21-H ) :   0.9492
B(  6-C , 22-H ) :   0.9516

Dispersion correction           -0.018303670
FINAL SINGLE POINT ENERGY      -275.662785221828

DIPOLE MOMENT
-------------

Method             : SCF
Type of density    : Electron Density
Multiplicity       :   1
Irrep              :   0
Energy             :  -275.7405160077044570 Eh
Relativity type    :
Basis              : AO
                                X                 Y                 Z
Electronic contribution:     -0.000019331      -0.224333374      -0.000231630
Nuclear contribution   :      0.000005324       0.171826397       0.000213916
                        -----------------------------------------
Total Dipole Moment    :     -0.000014007      -0.052506978      -0.000017714
                        -----------------------------------------
Magnitude (a.u.)       :      0.052506983
Magnitude (Debye)      :      0.133462144

Rotational constants in cm-1:             0.136553             0.045081             0.043321
Rotational constants in MHz :          4093.753257          1351.487837          1298.725441

                             ****ORCA TERMINATED NORMALLY****
TOTAL RUN TIME: 0 days 0 hours 0 minutes 10 seconds 234 msec
