                         Program Version 6.0.0  -   RELEASE  -
|  1> ! pbe def2-sv(p) def2/J RI DEFGRID1 loosescf d4 GCP(DFT/SV(P)) printgap
|  2> %output
|  3>     printlevel normal
|  4> end
|  5> * xyz 0 1
|  6> C -2.5482011206 0.3187760114 -0.6183339908
|  7> C -1.8429375065 -0.4113295938 0.5196260058
|  8> C -0.4008050003 0.0500139121 0.7301815368
|  9> C 0.5016854293 -0.3053501238 -0.4609131876
| 10> C 1.8673111849 0.0364999409 -0.1880514597
| 11> N 2.954446972 0.3139511046 0.0461993646
| 12> H -2.4944018123 1.3952827879 -0.4713799728
| 13> H -2.1036063845 0.0771129392 -1.5801948501
| 14> H -3.5960080907 0.0312918019 -0.6529814849
| 15> H -2.3921975473 -0.2351002421 1.4465597186
| 16> H -1.8564257433 -1.4862646585 0.3276433941
| 17> H -0.0012564153 -0.4242682335 1.6293893785
| 18> H -0.3808819667 1.1304880373 0.8875067674
| 19> H 0.4514374678 -1.3781392031 -0.6645963491
| 20> H 0.1894048687 0.2373772265 -1.3555235343
| 21> *
| 22>
| 23>                          ****END OF INPUT****

CARTESIAN COORDINATES (ANGSTROEM)
---------------------------------
  C     -2.548201    0.318776   -0.618334
  C     -1.842938   -0.411330    0.519626
  C     -0.400805    0.050014    0.730182
  C      0.501685   -0.305350   -0.460913
  C      1.867311    0.036500   -0.188051
  N      2.954447    0.313951    0.046199
  H     -2.494402    1.395283   -0.471380
  H     -2.103606    0.077113   -1.580195
  H     -3.596008    0.031292   -0.652981
  H     -2.392198   -0.235100    1.446560
  H     -1.856426   -1.486265    0.327643
  H     -0.001256   -0.424268    1.629389
  H     -0.380882    1.130488    0.887507
  H      0.451437   -1.378139   -0.664596
  H      0.189405    0.237377   -1.355524

 Total Charge           Charge          ....    0
 Multiplicity           Mult            ....    1
 Number of Electrons    NEL             ....   46
 Basis Dimension        Dim             ....  102

ORBITAL ENERGIES
----------------

  NO   OCC          E(Eh)            E(eV)
   0   2.0000     -13.972861      -380.2209
   1   2.0000      -9.936398      -270.3831
   2   2.0000      -9.923684      -270.0372
   3   2.0000      -9.911620      -269.7089
   4   2.0000      -9.902747      -269.4674
   5   2.0000      -9.889342      -269.1027
   6   2.0000      -0.811700       -22.0875
   7   2.0000      -0.750582       -20.4244
   8   2.0000      -0.689868       -18.7723
   9   2.0000      -0.610727       -16.6187
  10   2.0000      -0.532188       -14.4816
  11   2.0000      -0.472852       -12.8670
  12   2.0000      -0.449467       -12.2306
  13   2.0000      -0.414245       -11.2722
  14   2.0000      -0.387653       -10.5486
  15   2.0000      -0.379297       -10.3212
  16   2.0000      -0.354482        -9.6459
  17   2.0000      -0.319744        -8.7007
  18   2.0000      -0.310947        -8.4613
  19   2.0000      -0.309305        -8.4166
  20   2.0000      -0.291364        -7.9284
  21   2.0000      -0.284915        -7.7529
  22   2.0000      -0.279717        -7.6115
  23   0.0000       0.003459         0.0941
  24   0.0000       0.008658         0.2356
  25   0.0000       0.027194         0.7400
  26   0.0000       0.053064         1.4439
  27   0.0000       0.057097         1.5537

MULLIKEN ATOMIC CHARGES
-----------------------
   0 C :   -0.306184
   1 C :   -0.145875
   2 C :   -0.214100
   3 C :   -0.154965
   4 C :   -0.239860
   5 N :    0.072805
   6 H :    0.105830
   7 H :    0.112818
   8 H :    0.112237
   9 H :    0.097665
  10 H :    0.086999
  11 H :    0.111808
  12 H :    0.108210
  13 H :    0.122650
  14 H :    0.129962
Sum of atomic charges:    0.0000000

LOEWDIN ATOMIC CHARGES
----------------------
   0 C :   -0.344271
   1 C :   -0.233820
   2 C :   -0.213521
   3 C :   -0.243111
   4 C :   -0.055908
   5 N :   -0.070746
   6 H :    0.120505
   7 H :    0.116981
   8 H :    0.124809
   9 H :    0.122951
  10 H :    0.117093
  11 H :    0.127776
  12 H :    0.125780
  13 H :    0.152589
  14 H :    0.152894

  Mayer bond orders larger than 0.100000
B(  0-C ,  1-C ) :   1.1462 B(  0-C ,  6-H ) :   0.9544 B(  0-C ,  7-H ) :   0.9517
B(  0-C ,  8-H ) :   0.9504 B(  1-C ,  2-C ) :   1.1307 B(  1-C ,  9-H ) :   0.9258
B(  1-C , 10-H ) :   0.9226 B(  2-C ,  3-C ) :   1.1333 B(  2-C , 11-H ) :   0.9232
B(  2-C , 12-H ) :   0.9203 B(  3-C ,  4-C ) :   1.2242 B(  3-C , 13-H ) :   0.8742
B(  3-C , 14-H ) :   0.8667 B(  4-C ,  5-N ) :   3.0587

Dispersion correction           -0.010316246
FINAL SINGLE POINT ENERGY      -250.094937185246

DIPOLE MOMENT
-------------

Method             : SCF
Type of density    : Electron Density
Multiplicity       :   1
Irrep              :   0
Energy             :  -250.1428241197338309 Eh
Relativity type    :
Basis              : AO
                                X                 Y                 Z
Electronic contribution:      9.890054930       0.287322986       0.221236053
Nuclear contribution   :    -11.414362658      -0.610165359      -0.406515562
                        -----------------------------------------
Total Dipole Moment    :     -1.524307729      -0.322842373      -0.185279509
                        -----------------------------------------
Magnitude (a.u.)       :      1.569098386
Magnitude (Debye)      :      3.988331140

Rotational constants in cm-1:             0.405319             0.050467             0.048066
Rotational constants in MHz :         12151.157137          1512.957393          1440.974993

                             ****ORCA TERMINATED NORMALLY****
TOTAL RUN TIME: 0 days 0 hours 0 minutes 6 seconds 583 msec
