                         Program Version 6.0.0  -   RELEASE  -
|  1> ! r2scan-3c def2/J RI DEFGRID2 scfconv6 printgap
|  2> %output
|  3>     printlevel normal
|  4> end
|  5> * xyz 0 1
|  6> C 1.8573740606 -1.2012938886 -0.019285871
|  7> C 1.2015608926 0.1297951229 0.3572298291
|  8> C 2.127374051 1.2964280331 0.0117726737
|  9> O -0.0159118275 0.3448310802 -0.3466359609
| 10> C -1.2332608221 -0.0325702245 0.2836764085
| 11> C -2.3022788447 0.9478339746 -0.1981595537
| 12> C -1.6374708739 -1.4714569767 -0.0482460059
| 13> H 2.8354836887 -1.2710293294 0.4475238224
| 14> H 1.255246769 -2.0436582475 0.3086716623
| 15> H 1.9722798456 -1.2548180559 -1.0985814242
| 16> H 0.994457273 0.1397070483 1.4399865806
| 17> H 3.0668701054 1.2006279694 0.5469423393
| 18> H 1.6558828479 2.2377363832 0.280642418
| 19> H 2.3193588595 1.2999637955 -1.0574395529
| 20> H -1.1154863493 0.0677462313 1.3756560137
| 21> H -3.2508034354 0.7342480943 0.2844959282
| 22> H -2.0030407936 1.9663105036 0.0336234576
| 23> H -2.4161056536 0.85833636 -1.2747222077
| 24> H -0.9438486836 -2.1850528399 0.3874942593
| 25> H -1.6455192062 -1.6053701843 -1.1267105397
| 26> H -2.6306668743 -1.6709695476 0.3432404999
| 27> *
| 28>
| 29>                          ****END OF INPUT****

CARTESIAN COORDINATES (ANGSTROEM)
---------------------------------
  C      1.857374   -1.201294   -0.019286
  C      1.201561    0.129795    0.357230
  C      2.127374    1.296428    0.011773
  O     -0.015912    0.344831   -0.346636
  C     -1.233261   -0.032570    0.283676
  C     -2.302279    0.947834   -0.198160
  C     -1.637471   -1.471457   -0.048246
  H      2.835484   -1.271029    0.447524
  H      1.255247   -2.043658    0.308672
  H      1.972280   -1.254818   -1.098581
  H      0.994457    0.139707    1.439987
  H      3.066870    1.200628    0.546942
  H      1.655883    2.237736    0.280642
  H      2.319359    1.299964   -1.057440
  H     -1.115486    0.067746    1.375656
  H     -3.250803    0.734248    0.284496
  H     -2.003041    1.966311    0.033623
  H     -2.416106    0.858336   -1.274722
  H     -0.943849   -2.185053    0.387494
  H     -1.645519   -1.605370   -1.126711
  H     -2.630667   -1.670970    0.343240

 Total Charge           Charge          ....    0
 Multiplicity           Mult            ....    1
 Number of Electrons    NEL             ....   58
 Basis Dimension        Dim             ....  208

ORBITAL ENERGIES
----------------

  NO   OCC          E(Eh)            E(eV)
   0   2.0000     -18.939629      -515.3735
   1   2.0000     -10.080299      -274.2989
   2   2.0000     -10.080207      -274.2964
   3   2.0000     -10.014482      -272.5079
   4   2.0000     -10.014162      -272.4992
   5   2.0000     -10.013250      -272.4744
   6   2.0000     -10.013189      -272.4727
   7   2.0000      -0.986983       -26.8572
   8   2.0000      -0.761800       -20.7296
   9   2.0000      -0.713786       -19.4231
  10   2.0000      -0.654923       -17.8214
  11   2.0000      -0.648079       -17.6351
  12   2.0000      -0.565781       -15.3957
  13   2.0000      -0.535375       -14.5683
  14   2.0000      -0.463469       -12.6116
  15   2.0000      -0.433623       -11.7995
  16   2.0000      -0.409064       -11.1312
  17   2.0000      -0.400636       -10.9019
  18   2.0000      -0.378937       -10.3114
  19   2.0000      -0.364263        -9.9121
  20   2.0000      -0.355848        -9.6831
  21   2.0000      -0.351940        -9.5768
  22   2.0000      -0.346203        -9.4207
  23   2.0000      -0.337441        -9.1822
  24   2.0000      -0.327182        -8.9031
  25   2.0000      -0.305312        -8.3080
  26   2.0000      -0.292085        -7.9481
  27   2.0000      -0.269251        -7.3267
  28   2.0000      -0.212531        -5.7833
  29   0.0000       0.077387         2.1058
  30   0.0000       0.102949         2.8014
  31   0.0000       0.116122         3.1598
  32   0.0000       0.122123         3.3231
  33   0.0000       0.131583         3.5805

MULLIKEN ATOMIC CHARGES
-----------------------
   0 C :   -0.456284
   1 C :    0.010745
   2 C :   -0.458477
   3 O :   -0.190512
   4 C :    0.007969
   5 C :   -0.459328
   6 C :   -0.459984
   7 H :    0.140178
   8 H :    0.136286
   9 H :    0.160292
  10 H :    0.121463
  11 H :    0.138270
  12 H :    0.151100
  13 H :    0.152657
  14 H :    0.124123
  15 H :    0.138554
  16 H :    0.151866
  17 H :    0.152161
  18 H :    0.137626
  19 H :    0.161430
  20 H :    0.139865
Sum of atomic charges:   -0.0000000

LOEWDIN ATOMIC CHARGES
----------------------
   0 C :   -0.397397
   1 C :    0.056879
   2 C :   -0.384983
   3 O :   -0.766835
   4 C :    0.056552
   5 C :   -0.384390
   6 C :   -0.398358
   7 H :    0.155523
   8 H :    0.152245
   9 H :    0.162262
  10 H :    0.163877
  11 H :    0.154328
  12 H :    0.159633
  13 H :    0.161394
  14 H :    0.163236
  15 H :    0.154442
  16 H :    0.160161
  17 H :    0.161238
  18 H :    0.151901
  19 H :    0.162524
  20 H :    0.155769

  Mayer bond orders larger than 0.100000
B(  0-C ,  1-C ) :   0.9268 B(  0-C ,  7-H ) :   0.9721 B(  0-C ,  8-H ) :   0.9644
B(  0-C ,  9-H ) :   0.9814 B(  1-C ,  2-C ) :   0.9527 B(  1-C ,  3-O ) :   0.8125
B(  1-C , 10-H ) :   0.9560 B(  2-C , 11-H ) :   0.9742 B(  2-C , 12-H ) :   0.9720
B(  2-C , 13-H ) :   0.9789 B(  3-O ,  4-C ) :   0.8282 B(  4-C ,  5-C ) :   0.9512
B(  4-C ,  6-C ) :   0.9131 B(  4-C , 14-H ) :   0.9622 B(  5-C , 15-H ) :   0.9738
B(  5-C , 16-H ) :   0.9719 B(  5-C , 17-H ) :   0.9792 B(  6-C , 18-H ) :   0.9680
B(  6-C , 19-H ) :   0.9801 B(  6-C , 20-H ) :   0.9700

Dispersion correction           -0.005349493
FINAL SINGLE POINT ENERGY      -312.193119979533

DIPOLE MOMENT
-------------

Method             : SCF
Type of density    : Electron Density
Multiplicity       :   1
Irrep              :   0
Energy             :  -312.1999450432355729 Eh
Relativity type    :
Basis              : AO
                                X                 Y                 Z
Electronic contribution:     -0.091809090       1.262341471      -0.416593499
Nuclear contribution   :      0.088052920      -1.426728115       0.830593561
                        -----------------------------------------
Total Dipole Moment    :     -0.003756171      -0.164386645       0.414000062
                        -----------------------------------------
Magnitude (a.u.)       :      0.445458336
Magnitude (Debye)      :      1.132265108

Rotational constants in cm-1:             0.138868             0.054708             0.042157
Rotational constants in MHz :          4163.148018          1640.094594          1263.826562

                             ****ORCA TERMINATED NORMALLY****
TOTAL RUN TIME: 0 days 0 hours 0 minutes 23 seconds 186 msec
