                         Program Version 6.0.0  -   RELEASE  -
|  1> ! pbe def2-sv(p) def2/J RI DEFGRID1 loosescf d4 GCP(DFT/SV(P)) printgap
|  2> %output
|  3>     printlevel normal
|  4> end
|  5> * xyz 0 1
|  6> C -2.4598448364 0.2713723161 0.9717111605
|  7> C -1.7690566613 0.6330538789 -0.3466192056
|  8> C -0.5192698424 -0.1948979217 -0.49534381
|  9> O -0.4391911866 -1.2244257666 -1.1350556778
| 10> O 0.491762394 0.3214696671 0.185976121
| 11> C 1.7494613708 -0.3748458859 0.1779645816
| 12> C 2.8373931834 0.6014165089 0.5831803124
| 13> H -3.3711375726 0.851806088 1.0786094413
| 14> H -2.7141337947 -0.7858540025 0.986781211
| 15> H -1.803960652 0.4866071359 1.8111740136
| 16> H -1.4941700256 1.6868054478 -0.3415905137
| 17> H -2.4273241599 0.4182756347 -1.1874454108
| 18> H 1.6789100068 -1.2108233587 0.8811834079
| 19> H 1.9146191687 -0.7810708794 -0.8253173601
| 20> H 3.7920112367 0.0862776428 0.6048184582
| 21> H 2.8888238646 1.4210686573 -0.1276184252
| 22> H 2.6242358652 1.005072108 1.5684449365
| 23> *
| 24>
| 25>                          ****END OF INPUT****

CARTESIAN COORDINATES (ANGSTROEM)
---------------------------------
  C     -2.459845    0.271372    0.971711
  C     -1.769057    0.633054   -0.346619
  C     -0.519270   -0.194898   -0.495344
  O     -0.439191   -1.224426   -1.135056
  O      0.491762    0.321470    0.185976
  C      1.749461   -0.374846    0.177965
  C      2.837393    0.601417    0.583180
  H     -3.371138    0.851806    1.078609
  H     -2.714134   -0.785854    0.986781
  H     -1.803961    0.486607    1.811174
  H     -1.494170    1.686805   -0.341591
  H     -2.427324    0.418276   -1.187445
  H      1.678910   -1.210823    0.881183
  H      1.914619   -0.781071   -0.825317
  H      3.792011    0.086278    0.604818
  H      2.888824    1.421069   -0.127618
  H      2.624236    1.005072    1.568445

 Total Charge           Charge          ....    0
 Multiplicity           Mult            ....    1
 Number of Electrons    NEL             ....   56
 Basis Dimension        Dim             ....  118

ORBITAL ENERGIES
----------------

  NO   OCC          E(Eh)            E(eV)
   0   2.0000     -18.797051      -511.4938
   1   2.0000     -18.728233      -509.6211
   2   2.0000     -10.002649      -272.1859
   3   2.0000      -9.946514      -270.6584
   4   2.0000      -9.898033      -269.3392
   5   2.0000      -9.889563      -269.1087
   6   2.0000      -9.887952      -269.0649
   7   2.0000      -1.003782       -27.3143
   8   2.0000      -0.905427       -24.6379
   9   2.0000      -0.722820       -19.6689
  10   2.0000      -0.689443       -18.7607
  11   2.0000      -0.602127       -16.3847
  12   2.0000      -0.559368       -15.2212
  13   2.0000      -0.506903       -13.7935
  14   2.0000      -0.452369       -12.3096
  15   2.0000      -0.431382       -11.7385
  16   2.0000      -0.416665       -11.3380
  17   2.0000      -0.391661       -10.6576
  18   2.0000      -0.386576       -10.5193
  19   2.0000      -0.358859        -9.7651
  20   2.0000      -0.356568        -9.7027
  21   2.0000      -0.343379        -9.3438
  22   2.0000      -0.326506        -8.8847
  23   2.0000      -0.314684        -8.5630
  24   2.0000      -0.308764        -8.4019
  25   2.0000      -0.294145        -8.0041
  26   2.0000      -0.254646        -6.9293
  27   2.0000      -0.212382        -5.7792
  28   0.0000      -0.017796        -0.4842
  29   0.0000       0.040402         1.0994
  30   0.0000       0.056147         1.5278
  31   0.0000       0.081212         2.2099
  32   0.0000       0.087265         2.3746

MULLIKEN ATOMIC CHARGES
-----------------------
   0 C :   -0.304283
   1 C :   -0.128499
   2 C :    0.094174
   3 O :   -0.213902
   4 O :   -0.245451
   5 C :   -0.027416
   6 C :   -0.276540
   7 H :    0.116139
   8 H :    0.116465
   9 H :    0.112282
  10 H :    0.100732
  11 H :    0.104029
  12 H :    0.102335
  13 H :    0.111102
  14 H :    0.111079
  15 H :    0.114474
  16 H :    0.113279
Sum of atomic charges:   -0.0000000

LOEWDIN ATOMIC CHARGES
----------------------
   0 C :   -0.331161
   1 C :   -0.249264
   2 C :    0.033886
   3 O :   -0.172696
   4 O :   -0.072040
   5 C :   -0.109322
   6 C :   -0.350868
   7 H :    0.123886
   8 H :    0.125158
   9 H :    0.122031
  10 H :    0.131202
  11 H :    0.134166
  12 H :    0.114986
  13 H :    0.118130
  14 H :    0.129991
  15 H :    0.126261
  16 H :    0.125655

  Mayer bond orders larger than 0.100000
B(  0-C ,  1-C ) :   1.1415 B(  0-C ,  7-H ) :   0.9525 B(  0-C ,  8-H ) :   0.9534
B(  0-C ,  9-H ) :   0.9539 B(  1-C ,  2-C ) :   1.0305 B(  1-C , 10-H ) :   0.9060
B(  1-C , 11-H ) :   0.9113 B(  2-C ,  3-O ) :   2.0582 B(  2-C ,  4-O ) :   1.1980
B(  4-O ,  5-C ) :   0.9121 B(  5-C ,  6-C ) :   1.1536 B(  5-C , 12-H ) :   0.9356
B(  5-C , 13-H ) :   0.9222 B(  6-C , 14-H ) :   0.9447 B(  6-C , 15-H ) :   0.9519
B(  6-C , 16-H ) :   0.9486

Dispersion correction           -0.011668537
FINAL SINGLE POINT ENERGY      -346.243750925269

DIPOLE MOMENT
-------------

Method             : SCF
Type of density    : Electron Density
Multiplicity       :   1
Irrep              :   0
Energy             :  -346.3083055857102295 Eh
Relativity type    :
Basis              : AO
                                X                 Y                 Z
Electronic contribution:     -0.740518681      -2.418910387      -3.643355712
Nuclear contribution   :      1.021387076       2.968262302       4.159871977
                        -----------------------------------------
Total Dipole Moment    :      0.280868395       0.549351915       0.516516265
                        -----------------------------------------
Magnitude (a.u.)       :      0.804651250
Magnitude (Debye)      :      2.045260938

Rotational constants in cm-1:             0.169455             0.049289             0.042098
Rotational constants in MHz :          5080.140898          1477.660508          1262.063301

                             ****ORCA TERMINATED NORMALLY****
TOTAL RUN TIME: 0 days 0 hours 0 minutes 9 seconds 143 msec
