                         Program Version 6.0.0  -   RELEASE  -
|  1> ! pbe def2-sv(p) def2/J RI DEFGRID1 loosescf d4 GCP(DFT/SV(P)) printgap
|  2> %output
|  3>     printlevel normal
|  4> end
|  5> * xyz 0 1
|  6> C -1.8161522803 0.573572076 -0.3091907369
|  7> O -0.9969565153 -0.1378979932 0.6099825059
|  8> C -2.65275e-05 -0.9028899039 3.63866e-05
|  9> O 0.9969882057 -0.1380275257 -0.60994656
| 10> C 1.8161599436 0.5736213368 0.3091140809
| 11> H -1.2106015294 1.2263780792 -0.9424933465
| 12> H -2.4992870866 1.1631335991 0.29546196
| 13> H -2.3740327966 -0.1265536436 -0.9379207163
| 14> H 0.4155863078 -1.5287115082 0.802171995
| 15> H -0.4156754878 -1.5288509475 -0.8019895729
| 16> H 2.3735758954 -0.1263806015 0.9384809734
| 17> H 1.2105661231 1.2269453048 0.9418234168
| 18> H 2.4995903296 1.1627561886 -0.295625437
| 19> *
| 20>
| 21>                          ****END OF INPUT****

CARTESIAN COORDINATES (ANGSTROEM)
---------------------------------
  C     -1.816152    0.573572   -0.309191
  O     -0.996957   -0.137898    0.609983
  C     -0.000027   -0.902890    0.000036
  O      0.996988   -0.138028   -0.609947
  C      1.816160    0.573621    0.309114
  H     -1.210602    1.226378   -0.942493
  H     -2.499287    1.163134    0.295462
  H     -2.374033   -0.126554   -0.937921
  H      0.415586   -1.528712    0.802172
  H     -0.415675   -1.528851   -0.801990
  H      2.373576   -0.126381    0.938481
  H      1.210566    1.226945    0.941823
  H      2.499590    1.162756   -0.295625

 Total Charge           Charge          ....    0
 Multiplicity           Mult            ....    1
 Number of Electrons    NEL             ....   42
 Basis Dimension        Dim             ....   86

ORBITAL ENERGIES
----------------

  NO   OCC          E(Eh)            E(eV)
   0   2.0000     -18.757346      -510.4133
   1   2.0000     -18.757325      -510.4128
   2   2.0000      -9.970128      -271.3010
   3   2.0000      -9.924025      -270.0465
   4   2.0000      -9.923997      -270.0457
   5   2.0000      -0.966807       -26.3082
   6   2.0000      -0.906999       -24.6807
   7   2.0000      -0.658791       -17.9266
   8   2.0000      -0.617727       -16.8092
   9   2.0000      -0.539142       -14.6708
  10   2.0000      -0.455707       -12.4004
  11   2.0000      -0.445983       -12.1358
  12   2.0000      -0.443993       -12.0817
  13   2.0000      -0.388968       -10.5844
  14   2.0000      -0.380493       -10.3537
  15   2.0000      -0.366963        -9.9856
  16   2.0000      -0.334604        -9.1050
  17   2.0000      -0.303237        -8.2515
  18   2.0000      -0.251877        -6.8539
  19   2.0000      -0.224460        -6.1079
  20   2.0000      -0.218892        -5.9564
  21   0.0000       0.044525         1.2116
  22   0.0000       0.068010         1.8506
  23   0.0000       0.086700         2.3592
  24   0.0000       0.088249         2.4014
  25   0.0000       0.098497         2.6802

MULLIKEN ATOMIC CHARGES
-----------------------
   0 C :   -0.113286
   1 O :   -0.337783
   2 C :    0.153773
   3 O :   -0.337784
   4 C :   -0.113271
   5 H :    0.101891
   6 H :    0.116069
   7 H :    0.088365
   8 H :    0.067847
   9 H :    0.067861
  10 H :    0.088367
  11 H :    0.101877
  12 H :    0.116074
Sum of atomic charges:   -0.0000000

LOEWDIN ATOMIC CHARGES
----------------------
   0 C :   -0.210943
   1 O :   -0.178065
   2 C :   -0.044759
   3 O :   -0.178071
   4 C :   -0.210930
   5 H :    0.103636
   6 H :    0.116498
   7 H :    0.100486
   8 H :    0.090764
   9 H :    0.090768
  10 H :    0.100484
  11 H :    0.103631
  12 H :    0.116500

  Mayer bond orders larger than 0.100000
B(  0-C ,  1-O ) :   0.9951 B(  0-C ,  5-H ) :   0.9438 B(  0-C ,  6-H ) :   0.9650
B(  0-C ,  7-H ) :   0.9465 B(  1-O ,  2-C ) :   1.0709 B(  2-C ,  3-O ) :   1.0709
B(  2-C ,  8-H ) :   0.9197 B(  2-C ,  9-H ) :   0.9196 B(  3-O ,  4-C ) :   0.9951
B(  4-C , 10-H ) :   0.9465 B(  4-C , 11-H ) :   0.9438 B(  4-C , 12-H ) :   0.9650

Dispersion correction           -0.007524830
FINAL SINGLE POINT ENERGY      -268.942346435459

DIPOLE MOMENT
-------------

Method             : SCF
Type of density    : Electron Density
Multiplicity       :   1
Irrep              :   0
Energy             :  -269.0022894163249703 Eh
Relativity type    :
Basis              : AO
                                X                 Y                 Z
Electronic contribution:      0.000204721      -1.260105903       0.000044737
Nuclear contribution   :     -0.000260570       1.373808341      -0.000084584
                        -----------------------------------------
Total Dipole Moment    :     -0.000055849       0.113702438      -0.000039847
                        -----------------------------------------
Magnitude (a.u.)       :      0.113702459
Magnitude (Debye)      :      0.289008683

Rotational constants in cm-1:             0.350864             0.107009             0.100881
Rotational constants in MHz :         10518.627210          3208.056502          3024.332877

                             ****ORCA TERMINATED NORMALLY****
TOTAL RUN TIME: 0 days 0 hours 0 minutes 5 seconds 227 msec
