                         Program Version 6.0.0  -   RELEASE  -
|  1> ! pbe def2-sv(p) def2/J RI DEFGRID1 loosescf d4 GCP(DFT/SV(P)) printgap
|  2> %output
|  3>     printlevel normal
|  4> end
|  5> * xyz 0 1
|  6> C 2.7042524045 -0.3325506201 0.2726496794
|  7> C 1.3406621508 -0.7198982061 -0.2904804755
|  8> C 0.2380416168 0.2268388579 0.2022513893
|  9> H 0.2258014788 0.2261142227 1.298685233
| 10> C -1.1647265623 -0.1571164148 -0.3154356186
| 11> C -1.5526562153 -1.5884473992 0.0489684777
| 12> C -2.199509346 0.817214722 0.2491454497
| 13> O 0.5434064236 1.5682330638 -0.1421811986
| 14> H 3.4844057615 -0.9542954592 -0.1586154244
| 15> H 2.7152509334 -0.4596283116 1.3526991695
| 16> H 2.9237195477 0.7095772841 0.0534277506
| 17> H 1.3698158809 -0.6887223604 -1.3827887168
| 18> H 1.1045887958 -1.7375387965 0.0156046336
| 19> H -1.1548570834 -0.0619987615 -1.4082657647
| 20> H -2.5996731139 -1.7544435464 -0.1928577499
| 21> H -0.9616162915 -2.3156461655 -0.499967991
| 22> H -1.4163974158 -1.7575134028 1.1146985238
| 23> H -2.3148384735 0.6590060622 1.3192201579
| 24> H -3.1639618165 0.6699431833 -0.2300398897
| 25> H -1.8813534313 1.8446068148 0.0902931846
| 26> H 0.5976081124 1.6280937476 -1.1064031107
| 27> *
| 28>
| 29>                          ****END OF INPUT****

CARTESIAN COORDINATES (ANGSTROEM)
---------------------------------
  C      2.704252   -0.332551    0.272650
  C      1.340662   -0.719898   -0.290480
  C      0.238042    0.226839    0.202251
  H      0.225801    0.226114    1.298685
  C     -1.164727   -0.157116   -0.315436
  C     -1.552656   -1.588447    0.048968
  C     -2.199509    0.817215    0.249145
  O      0.543406    1.568233   -0.142181
  H      3.484406   -0.954295   -0.158615
  H      2.715251   -0.459628    1.352699
  H      2.923720    0.709577    0.053428
  H      1.369816   -0.688722   -1.382789
  H      1.104589   -1.737539    0.015605
  H     -1.154857   -0.061999   -1.408266
  H     -2.599673   -1.754444   -0.192858
  H     -0.961616   -2.315646   -0.499968
  H     -1.416397   -1.757513    1.114699
  H     -2.314838    0.659006    1.319220
  H     -3.163962    0.669943   -0.230040
  H     -1.881353    1.844607    0.090293
  H      0.597608    1.628094   -1.106403

 Total Charge           Charge          ....    0
 Multiplicity           Mult            ....    1
 Number of Electrons    NEL             ....   58
 Basis Dimension        Dim             ....  126

ORBITAL ENERGIES
----------------

  NO   OCC          E(Eh)            E(eV)
   0   2.0000     -18.740571      -509.9569
   1   2.0000      -9.932376      -270.2737
   2   2.0000      -9.893328      -269.2111
   3   2.0000      -9.883411      -268.9413
   4   2.0000      -9.875308      -268.7208
   5   2.0000      -9.869213      -268.5549
   6   2.0000      -9.865896      -268.4647
   7   2.0000      -0.919796       -25.0289
   8   2.0000      -0.724533       -19.7156
   9   2.0000      -0.685704       -18.6590
  10   2.0000      -0.608254       -16.5514
  11   2.0000      -0.597944       -16.2709
  12   2.0000      -0.533467       -14.5164
  13   2.0000      -0.514259       -13.9937
  14   2.0000      -0.438925       -11.9438
  15   2.0000      -0.410750       -11.1771
  16   2.0000      -0.405139       -11.0244
  17   2.0000      -0.397642       -10.8204
  18   2.0000      -0.358765        -9.7625
  19   2.0000      -0.351764        -9.5720
  20   2.0000      -0.343727        -9.3533
  21   2.0000      -0.338207        -9.2031
  22   2.0000      -0.318218        -8.6591
  23   2.0000      -0.301925        -8.2158
  24   2.0000      -0.296332        -8.0636
  25   2.0000      -0.290055        -7.8928
  26   2.0000      -0.285422        -7.7667
  27   2.0000      -0.259629        -7.0649
  28   2.0000      -0.212677        -5.7872
  29   0.0000       0.025809         0.7023
  30   0.0000       0.045880         1.2485
  31   0.0000       0.058227         1.5844
  32   0.0000       0.071667         1.9502
  33   0.0000       0.089755         2.4424

MULLIKEN ATOMIC CHARGES
-----------------------
   0 C :   -0.245061
   1 C :   -0.173872
   2 C :    0.040740
   3 H :    0.058116
   4 C :   -0.159544
   5 C :   -0.258626
   6 C :   -0.224366
   7 O :   -0.421445
   8 H :    0.099031
   9 H :    0.094328
  10 H :    0.099379
  11 H :    0.066430
  12 H :    0.089809
  13 H :    0.050461
  14 H :    0.099744
  15 H :    0.110298
  16 H :    0.097174
  17 H :    0.088236
  18 H :    0.095367
  19 H :    0.102000
  20 H :    0.291801
Sum of atomic charges:   -0.0000000

LOEWDIN ATOMIC CHARGES
----------------------
   0 C :   -0.342115
   1 C :   -0.247216
   2 C :   -0.047290
   3 H :    0.110629
   4 C :   -0.169521
   5 C :   -0.331166
   6 C :   -0.333468
   7 O :   -0.317760
   8 H :    0.117129
   9 H :    0.118130
  10 H :    0.117513
  11 H :    0.110112
  12 H :    0.120881
  13 H :    0.107462
  14 H :    0.120372
  15 H :    0.117266
  16 H :    0.118665
  17 H :    0.116292
  18 H :    0.115204
  19 H :    0.118618
  20 H :    0.280260

  Mayer bond orders larger than 0.100000
B(  0-C ,  1-C ) :   1.1568 B(  0-C ,  8-H ) :   0.9525 B(  0-C ,  9-H ) :   0.9534
B(  0-C , 10-H ) :   0.9447 B(  1-C ,  2-C ) :   1.0815 B(  1-C , 11-H ) :   0.9117
B(  1-C , 12-H ) :   0.9048 B(  2-C ,  3-H ) :   0.8918 B(  2-C ,  4-C ) :   1.0300
B(  2-C ,  7-O ) :   1.0154 B(  4-C ,  5-C ) :   1.0975 B(  4-C ,  6-C ) :   1.1171
B(  4-C , 13-H ) :   0.8860 B(  5-C , 14-H ) :   0.9466 B(  5-C , 15-H ) :   0.9424
B(  5-C , 16-H ) :   0.9488 B(  6-C , 17-H ) :   0.9497 B(  6-C , 18-H ) :   0.9498
B(  6-C , 19-H ) :   0.9376 B(  7-O , 20-H ) :   0.8501

Dispersion correction           -0.016432667
FINAL SINGLE POINT ENERGY      -311.518851643925

DIPOLE MOMENT
-------------

Method             : SCF
Type of density    : Electron Density
Multiplicity       :   1
Irrep              :   0
Energy             :  -311.5991876125502245 Eh
Relativity type    :
Basis              : AO
                                X                 Y                 Z
Electronic contribution:      0.935154952       3.328548058      -0.683877185
Nuclear contribution   :     -0.997184344      -3.722293029       0.247150599
                        -----------------------------------------
Total Dipole Moment    :     -0.062029392      -0.393744971      -0.436726585
                        -----------------------------------------
Magnitude (a.u.)       :      0.591280693
Magnitude (Debye)      :      1.502916084

Rotational constants in cm-1:             0.132997             0.056768             0.043209
Rotational constants in MHz :          3987.148976          1701.856333          1295.358432

                             ****ORCA TERMINATED NORMALLY****
TOTAL RUN TIME: 0 days 0 hours 0 minutes 8 seconds 988 msec
