                         Program Version 6.0.0  -   RELEASE  -
|  1> ! r2scan-3c def2/J RI DEFGRID2 scfconv6 printgap
|  2> %output
|  3>     printlevel normal
|  4> end
|  5> * xyz 0 1
|  6> C -2.4219972881 0.7582351063 0.6168272571
|  7> C -1.2847838884 -0.1709334277 0.1918822964
|  8> C -1.6757961506 -0.9138493111 -1.0839906018
|  9> C -0.0001620705 0.6450925662 0.0028398933
| 10> C 1.2836355763 -0.1711920632 -0.1908718445
| 11> C 2.4200465162 0.7570710496 -0.6197622182
| 12> C 1.6789138201 -0.9144780934 1.083433675
| 13> H -3.3420892395 0.1959151679 0.7585421486
| 14> H -2.1803992114 1.2604115199 1.5508060438
| 15> H -2.5964416537 1.5151270845 -0.1450921939
| 16> H -1.130237313 -0.9044133454 0.9894691838
| 17> H -1.8072765675 -0.2113620811 -1.9044455035
| 18> H -0.9158683346 -1.6368022779 -1.3676801501
| 19> H -2.611551501 -1.4484812754 -0.93721658
| 20> H 0.1358341178 1.2901980422 0.8748125956
| 21> H -0.1357209981 1.294941633 -0.8657005655
| 22> H 1.125792499 -0.9043994191 -0.9879786488
| 23> H 2.6002419085 1.5115776343 0.1431559988
| 24> H 3.3382619668 0.1934952745 -0.7683466568
| 25> H 2.173968085 1.2622881956 -1.5509176773
| 26> H 2.6080366526 -1.458707369 0.9296820591
| 27> H 1.8247885793 -0.2109637012 1.9005710904
| 28> H 0.9143709002 -1.6290109378 1.3760671716
| 29> *
| 30>
| 31>                          ****END OF INPUT****

CARTESIAN COORDINATES (ANGSTROEM)
---------------------------------
  C     -2.421997    0.758235    0.616827
  C     -1.284784   -0.170933    0.191882
  C     -1.675796   -0.913849   -1.083991
  C     -0.000162    0.645093    0.002840
  C      1.283636   -0.171192   -0.190872
  C      2.420047    0.757071   -0.619762
  C      1.678914   -0.914478    1.083434
  H     -3.342089    0.195915    0.758542
  H     -2.180399    1.260412    1.550806
  H     -2.596442    1.515127   -0.145092
  H     -1.130237   -0.904413    0.989469
  H     -1.807277   -0.211362   -1.904446
  H     -0.915868   -1.636802   -1.367680
  H     -2.611552   -1.448481   -0.937217
  H      0.135834    1.290198    0.874813
  H     -0.135721    1.294942   -0.865701
  H      1.125792   -0.904399   -0.987979
  H      2.600242    1.511578    0.143156
  H      3.338262    0.193495   -0.768347
  H      2.173968    1.262288   -1.550918
  H      2.608037   -1.458707    0.929682
  H      1.824789   -0.210964    1.900571
  H      0.914371   -1.629011    1.376067

 Total Charge           Charge          ....    0
 Multiplicity           Mult            ....    1
 Number of Electrons    NEL             ....   58
 Basis Dimension        Dim             ....  213

ORBITAL ENERGIES
----------------

  NO   OCC          E(Eh)            E(eV)
   0   2.0000     -10.029487      -272.9162
   1   2.0000     -10.029442      -272.9150
   2   2.0000     -10.017308      -272.5848
   3   2.0000     -10.012497      -272.4539
   4   2.0000     -10.012492      -272.4538
   5   2.0000     -10.012100      -272.4431
   6   2.0000     -10.012084      -272.4426
   7   2.0000      -0.786266       -21.3954
   8   2.0000      -0.743480       -20.2311
   9   2.0000      -0.648022       -17.6336
  10   2.0000      -0.646719       -17.5981
  11   2.0000      -0.639429       -17.3998
  12   2.0000      -0.540569       -14.7096
  13   2.0000      -0.513930       -13.9848
  14   2.0000      -0.444561       -12.0971
  15   2.0000      -0.417180       -11.3520
  16   2.0000      -0.407847       -11.0981
  17   2.0000      -0.392419       -10.6783
  18   2.0000      -0.375893       -10.2286
  19   2.0000      -0.364743        -9.9252
  20   2.0000      -0.350751        -9.5444
  21   2.0000      -0.350119        -9.5272
  22   2.0000      -0.328882        -8.9493
  23   2.0000      -0.318272        -8.6606
  24   2.0000      -0.309014        -8.4087
  25   2.0000      -0.301537        -8.2052
  26   2.0000      -0.285068        -7.7571
  27   2.0000      -0.277977        -7.5642
  28   2.0000      -0.271501        -7.3879
  29   0.0000       0.082349         2.2408
  30   0.0000       0.100434         2.7330
  31   0.0000       0.118598         3.2272
  32   0.0000       0.122565         3.3352
  33   0.0000       0.130285         3.5452

MULLIKEN ATOMIC CHARGES
-----------------------
   0 C :   -0.482372
   1 C :   -0.018810
   2 C :   -0.506447
   3 C :   -0.315852
   4 C :   -0.018373
   5 C :   -0.482421
   6 C :   -0.506103
   7 H :    0.145657
   8 H :    0.145903
   9 H :    0.146305
  10 H :    0.140049
  11 H :    0.149425
  12 H :    0.147552
  13 H :    0.145994
  14 H :    0.144338
  15 H :    0.144475
  16 H :    0.140081
  17 H :    0.146354
  18 H :    0.145699
  19 H :    0.145853
  20 H :    0.146178
  21 H :    0.149197
  22 H :    0.147317
Sum of atomic charges:   -0.0000000

LOEWDIN ATOMIC CHARGES
----------------------
   0 C :   -0.416656
   1 C :   -0.246296
   2 C :   -0.417732
   3 C :   -0.299814
   4 C :   -0.246268
   5 C :   -0.416632
   6 C :   -0.417607
   7 H :    0.151530
   8 H :    0.152260
   9 H :    0.153722
  10 H :    0.154624
  11 H :    0.153806
  12 H :    0.151263
  13 H :    0.152950
  14 H :    0.160377
  15 H :    0.160314
  16 H :    0.154693
  17 H :    0.153695
  18 H :    0.151572
  19 H :    0.152222
  20 H :    0.152954
  21 H :    0.153755
  22 H :    0.151269

  Mayer bond orders larger than 0.100000
B(  0-C ,  1-C ) :   0.9045 B(  0-C ,  7-H ) :   0.9772 B(  0-C ,  8-H ) :   0.9804
B(  0-C ,  9-H ) :   0.9859 B(  1-C ,  2-C ) :   0.9006 B(  1-C ,  3-C ) :   0.8987
B(  1-C , 10-H ) :   0.9652 B(  2-C , 11-H ) :   0.9844 B(  2-C , 12-H ) :   0.9758
B(  2-C , 13-H ) :   0.9740 B(  3-C ,  4-C ) :   0.8984 B(  3-C , 14-H ) :   0.9830
B(  3-C , 15-H ) :   0.9833 B(  4-C ,  5-C ) :   0.9042 B(  4-C ,  6-C ) :   0.9009
B(  4-C , 16-H ) :   0.9651 B(  5-C , 17-H ) :   0.9859 B(  5-C , 18-H ) :   0.9772
B(  5-C , 19-H ) :   0.9805 B(  6-C , 20-H ) :   0.9741 B(  6-C , 21-H ) :   0.9843
B(  6-C , 22-H ) :   0.9759

Dispersion correction           -0.006295904
FINAL SINGLE POINT ENERGY      -276.289007948198

DIPOLE MOMENT
-------------

Method             : SCF
Type of density    : Electron Density
Multiplicity       :   1
Irrep              :   0
Energy             :  -276.2937406067081838 Eh
Relativity type    :
Basis              : AO
                                X                 Y                 Z
Electronic contribution:     -0.001796255      -0.150936396       0.003997290
Nuclear contribution   :      0.001604153       0.112405010      -0.004007529
                        -----------------------------------------
Total Dipole Moment    :     -0.000192102      -0.038531386      -0.000010239
                        -----------------------------------------
Magnitude (a.u.)       :      0.038531866
Magnitude (Debye)      :      0.097940220

Rotational constants in cm-1:             0.137209             0.044477             0.044295
Rotational constants in MHz :          4113.432417          1333.381012          1327.924284

                             ****ORCA TERMINATED NORMALLY****
TOTAL RUN TIME: 0 days 0 hours 0 minutes 23 seconds 855 msec
