                         Program Version 6.0.0  -   RELEASE  -
|  1> ! pbe def2-sv(p) def2/J RI DEFGRID1 loosescf d4 GCP(DFT/SV(P)) printgap
|  2> %output
|  3>     printlevel normal
|  4> end
|  5> * xyz 0 1
|  6> C 1.8163924088 -1.2721569169 -0.0126558464
|  7> O 1.1940583931 -0.2606108313 -0.8194304718
|  8> S -0.0280319004 0.4503037549 -0.155829514
|  9> O -0.4552119698 1.4433988311 -1.0893399716
| 10> O 0.2998987126 0.8772834002 1.1743495189
| 11> O -1.0947391222 -0.7007822052 -0.106432354
| 12> C -1.6986887901 -1.0694588319 1.1439832082
| 13> H 1.2134056537 -2.1786265945 -0.0496510822
| 14> H 1.8957552203 -0.9024709311 1.0090631676
| 15> H 2.7990154325 -1.4407244463 -0.4458077575
| 16> H -2.7488403433 -0.7833478493 1.1131530262
| 17> H -1.1852509048 -0.5453035221 1.9477694503
| 18> H -1.5960863431 -2.1481952942 1.2488898133
| 19> *
| 20>
| 21>                          ****END OF INPUT****

CARTESIAN COORDINATES (ANGSTROEM)
---------------------------------
  C      1.816392   -1.272157   -0.012656
  O      1.194058   -0.260611   -0.819430
  S     -0.028032    0.450304   -0.155830
  O     -0.455212    1.443399   -1.089340
  O      0.299899    0.877283    1.174350
  O     -1.094739   -0.700782   -0.106432
  C     -1.698689   -1.069459    1.143983
  H      1.213406   -2.178627   -0.049651
  H      1.895755   -0.902471    1.009063
  H      2.799015   -1.440724   -0.445808
  H     -2.748840   -0.783348    1.113153
  H     -1.185251   -0.545304    1.947769
  H     -1.596086   -2.148195    1.248890

 Total Charge           Charge          ....    0
 Multiplicity           Mult            ....    1
 Number of Electrons    NEL             ....   66
 Basis Dimension        Dim             ....  114

ORBITAL ENERGIES
----------------

  NO   OCC          E(Eh)            E(eV)
   0   2.0000     -88.286012     -2402.3845
   1   2.0000     -18.821702      -512.1645
   2   2.0000     -18.820845      -512.1412
   3   2.0000     -18.758333      -510.4402
   4   2.0000     -18.745710      -510.0967
   5   2.0000      -9.963089      -271.1094
   6   2.0000      -9.962865      -271.1033
   7   2.0000      -7.896487      -214.8743
   8   2.0000      -5.924282      -161.2079
   9   2.0000      -5.923497      -161.1866
  10   2.0000      -5.920554      -161.1065
  11   2.0000      -1.101625       -29.9767
  12   2.0000      -0.986070       -26.8323
  13   2.0000      -0.956898       -26.0385
  14   2.0000      -0.925457       -25.1830
  15   2.0000      -0.702727       -19.1222
  16   2.0000      -0.667323       -18.1588
  17   2.0000      -0.556075       -15.1316
  18   2.0000      -0.524739       -14.2789
  19   2.0000      -0.467317       -12.7163
  20   2.0000      -0.462308       -12.5800
  21   2.0000      -0.438531       -11.9330
  22   2.0000      -0.437983       -11.9181
  23   2.0000      -0.427023       -11.6199
  24   2.0000      -0.389178       -10.5901
  25   2.0000      -0.354340        -9.6421
  26   2.0000      -0.344598        -9.3770
  27   2.0000      -0.314928        -8.5696
  28   2.0000      -0.312826        -8.5124
  29   2.0000      -0.311116        -8.4659
  30   2.0000      -0.277652        -7.5553
  31   2.0000      -0.266421        -7.2497
  32   2.0000      -0.250979        -6.8295
  33   0.0000       0.012314         0.3351
  34   0.0000       0.027568         0.7502
  35   0.0000       0.053489         1.4555
  36   0.0000       0.062746         1.7074
  37   0.0000       0.066893         1.8202

MULLIKEN ATOMIC CHARGES
-----------------------
   0 C :   -0.133290
   1 O :   -0.353965
   2 S :    0.941499
   3 O :   -0.361855
   4 O :   -0.394145
   5 O :   -0.386690
   6 C :   -0.135700
   7 H :    0.125139
   8 H :    0.135969
   9 H :    0.145079
  10 H :    0.138425
  11 H :    0.151407
  12 H :    0.128129
Sum of atomic charges:   -0.0000000

LOEWDIN ATOMIC CHARGES
----------------------
   0 C :   -0.228149
   1 O :   -0.253814
   2 S :    1.117809
   3 O :   -0.431836
   4 O :   -0.449247
   5 O :   -0.274523
   6 C :   -0.219518
   7 H :    0.115516
   8 H :    0.119194
   9 H :    0.133546
  10 H :    0.125875
  11 H :    0.124634
  12 H :    0.120512

  Mayer bond orders larger than 0.100000
B(  0-C ,  1-O ) :   0.9059 B(  0-C ,  7-H ) :   0.9511 B(  0-C ,  8-H ) :   0.9349
B(  0-C ,  9-H ) :   0.9560 B(  1-O ,  2-S ) :   1.0517 B(  2-S ,  3-O ) :   1.8643
B(  2-S ,  4-O ) :   1.7499 B(  2-S ,  5-O ) :   1.0231 B(  5-O ,  6-C ) :   0.9011
B(  6-C , 10-H ) :   0.9562 B(  6-C , 11-H ) :   0.9279 B(  6-C , 12-H ) :   0.9555

Dispersion correction           -0.011786592
FINAL SINGLE POINT ENERGY      -777.741498108641

DIPOLE MOMENT
-------------

Method             : SCF
Type of density    : Electron Density
Multiplicity       :   1
Irrep              :   0
Energy             :  -777.8007724253347988 Eh
Relativity type    :
Basis              : AO
                                X                 Y                 Z
Electronic contribution:     -0.240659544       5.828815950      -3.741181459
Nuclear contribution   :      0.354603433      -7.496924867       4.517216256
                        -----------------------------------------
Total Dipole Moment    :      0.113943888      -1.668108918       0.776034797
                        -----------------------------------------
Magnitude (a.u.)       :      1.843312393
Magnitude (Debye)      :      4.685327753

Rotational constants in cm-1:             0.097857             0.080541             0.060749
Rotational constants in MHz :          2933.684899          2414.544972          1821.203973

                             ****ORCA TERMINATED NORMALLY****
TOTAL RUN TIME: 0 days 0 hours 0 minutes 7 seconds 558 msec
