                         Program Version 6.0.0  -   RELEASE  -
|  1> ! pbe def2-sv(p) def2/J RI DEFGRID1 loosescf d4 GCP(DFT/SV(P)) printgap
|  2> %output
|  3>     printlevel normal
|  4> end
|  5> * xyz 0 1
|  6> C -1.447404783 1.2226875752 -0.4970326666
|  7> C -1.2449512258 0.3420659327 0.7316300674
|  8> C -0.0916091352 -0.6667807878 0.6244282696
|  9> H -0.0826058594 -1.2353419312 1.5622112589
| 10> C -0.2912061734 -1.6550708989 -0.5239797756
| 11> C 1.2883604216 0.0125150652 0.5497004013
| 12> O 1.5821611081 0.671056984 -0.6627273225
| 13> H -0.5258773463 1.7386116966 -0.7520003409
| 14> H -1.7681913433 0.6339464696 -1.352290275
| 15> H -2.2146015284 1.9663730606 -0.2936442574
| 16> H -2.1664616502 -0.2112556415 0.9297936835
| 17> H -1.055034051 0.9828481401 1.5961521136
| 18> H -0.3055912173 -1.1447617303 -1.4830913054
| 19> H -1.238069329 -2.1753936122 -0.403984132
| 20> H 0.5071630299 -2.3942731537 -0.5293221801
| 21> H 2.0630410355 -0.7402553259 0.7551980219
| 22> H 1.3556052262 0.7854766304 1.3197560794
| 23> H 1.6085744531 0.0147602603 -1.3720431168
| 24> *
| 25>
| 26>                          ****END OF INPUT****

CARTESIAN COORDINATES (ANGSTROEM)
---------------------------------
  C     -1.447405    1.222688   -0.497033
  C     -1.244951    0.342066    0.731630
  C     -0.091609   -0.666781    0.624428
  H     -0.082606   -1.235342    1.562211
  C     -0.291206   -1.655071   -0.523980
  C      1.288360    0.012515    0.549700
  O      1.582161    0.671057   -0.662727
  H     -0.525877    1.738612   -0.752000
  H     -1.768191    0.633946   -1.352290
  H     -2.214602    1.966373   -0.293644
  H     -2.166462   -0.211256    0.929794
  H     -1.055034    0.982848    1.596152
  H     -0.305591   -1.144762   -1.483091
  H     -1.238069   -2.175394   -0.403984
  H      0.507163   -2.394273   -0.529322
  H      2.063041   -0.740255    0.755198
  H      1.355605    0.785477    1.319756
  H      1.608574    0.014760   -1.372043

 Total Charge           Charge          ....    0
 Multiplicity           Mult            ....    1
 Number of Electrons    NEL             ....   50
 Basis Dimension        Dim             ....  108

ORBITAL ENERGIES
----------------

  NO   OCC          E(Eh)            E(eV)
   0   2.0000     -18.743730      -510.0428
   1   2.0000      -9.926194      -270.1055
   2   2.0000      -9.893274      -269.2097
   3   2.0000      -9.880208      -268.8541
   4   2.0000      -9.879557      -268.8364
   5   2.0000      -9.861669      -268.3496
   6   2.0000      -0.920137       -25.0382
   7   2.0000      -0.725590       -19.7443
   8   2.0000      -0.650171       -17.6920
   9   2.0000      -0.612521       -16.6675
  10   2.0000      -0.557906       -15.1814
  11   2.0000      -0.495611       -13.4863
  12   2.0000      -0.444780       -12.1031
  13   2.0000      -0.420367       -11.4388
  14   2.0000      -0.407458       -11.0875
  15   2.0000      -0.392011       -10.6672
  16   2.0000      -0.353293        -9.6136
  17   2.0000      -0.340172        -9.2565
  18   2.0000      -0.332806        -9.0561
  19   2.0000      -0.324349        -8.8260
  20   2.0000      -0.296719        -8.0741
  21   2.0000      -0.289904        -7.8887
  22   2.0000      -0.280277        -7.6267
  23   2.0000      -0.264570        -7.1993
  24   2.0000      -0.209215        -5.6930
  25   0.0000       0.018839         0.5126
  26   0.0000       0.046705         1.2709
  27   0.0000       0.072640         1.9766
  28   0.0000       0.083864         2.2821
  29   0.0000       0.088424         2.4061

MULLIKEN ATOMIC CHARGES
-----------------------
   0 C :   -0.300431
   1 C :   -0.153395
   2 C :   -0.159863
   3 H :    0.068062
   4 C :   -0.290926
   5 C :    0.030134
   6 O :   -0.427911
   7 H :    0.122358
   8 H :    0.095986
   9 H :    0.095567
  10 H :    0.080005
  11 H :    0.079425
  12 H :    0.101664
  13 H :    0.107252
  14 H :    0.099225
  15 H :    0.070852
  16 H :    0.083797
  17 H :    0.298200
Sum of atomic charges:   -0.0000000

LOEWDIN ATOMIC CHARGES
----------------------
   0 C :   -0.354589
   1 C :   -0.223307
   2 C :   -0.175486
   3 H :    0.119365
   4 C :   -0.340343
   5 C :   -0.115144
   6 O :   -0.329248
   7 H :    0.123619
   8 H :    0.113195
   9 H :    0.116771
  10 H :    0.111624
  11 H :    0.113170
  12 H :    0.113188
  13 H :    0.124335
  14 H :    0.117096
  15 H :    0.093611
  16 H :    0.111328
  17 H :    0.280815

  Mayer bond orders larger than 0.100000
B(  0-C ,  1-C ) :   1.1562 B(  0-C ,  7-H ) :   0.9372 B(  0-C ,  8-H ) :   0.9504
B(  0-C ,  9-H ) :   0.9479 B(  1-C ,  2-C ) :   1.0858 B(  1-C , 10-H ) :   0.9271
B(  1-C , 11-H ) :   0.9243 B(  2-C ,  3-H ) :   0.8860 B(  2-C ,  4-C ) :   1.0990
B(  2-C ,  5-C ) :   1.0351 B(  4-C , 12-H ) :   0.9354 B(  4-C , 13-H ) :   0.9501
B(  4-C , 14-H ) :   0.9502 B(  5-C ,  6-O ) :   1.0690 B(  5-C , 15-H ) :   0.9258
B(  5-C , 16-H ) :   0.9312 B(  6-O , 17-H ) :   0.8446

Dispersion correction           -0.013630745
FINAL SINGLE POINT ENERGY      -272.299677645829

DIPOLE MOMENT
-------------

Method             : SCF
Type of density    : Electron Density
Multiplicity       :   1
Irrep              :   0
Energy             :  -272.3698806237518397 Eh
Relativity type    :
Basis              : AO
                                X                 Y                 Z
Electronic contribution:      3.495946700       1.057817483       0.032949538
Nuclear contribution   :     -3.562226978      -1.659283048      -0.031661033
                        -----------------------------------------
Total Dipole Moment    :     -0.066280278      -0.601465565       0.001288505
                        -----------------------------------------
Magnitude (a.u.)       :      0.605107892
Magnitude (Debye)      :      1.538062030

Rotational constants in cm-1:             0.130682             0.097022             0.076990
Rotational constants in MHz :          3917.758638          2908.645057          2308.115545

                             ****ORCA TERMINATED NORMALLY****
TOTAL RUN TIME: 0 days 0 hours 0 minutes 7 seconds 944 msec
