                         Program Version 6.0.0  -   RELEASE  -
|  1> ! pbe def2-sv(p) def2/J RI DEFGRID1 loosescf d4 GCP(DFT/SV(P)) printgap
|  2> %output
|  3>     printlevel normal
|  4> end
|  5> * xyz 0 1
|  6> C -2.6798529971 0.3846168799 0.9504708591
|  7> C -2.1529427193 0.4106333505 -0.4794640833
|  8> C -0.8684179115 -0.392583323 -0.6239838759
|  9> O 0.1698207985 0.2710534904 0.1119047693
| 10> C 1.4111686924 -0.1737717842 -0.031990839
| 11> O 1.6991843883 -1.1150536835 -0.7437872548
| 12> C 2.3859075632 0.628707124 0.7760472888
| 13> H -1.9320398622 0.7824031284 1.6313772051
| 14> H -3.5801288911 0.9871466076 1.0306880039
| 15> H -2.9159260917 -0.6334870414 1.2506520761
| 16> H -1.9539116253 1.4396409704 -0.7807283352
| 17> H -2.8924442901 -0.0121215764 -1.1595108921
| 18> H -0.9827744498 -1.4060532722 -0.2247990729
| 19> H -0.5551877302 -0.4714200163 -1.6704852213
| 20> H 3.3745752093 0.1897198223 0.6951764579
| 21> H 2.0618980989 0.652783878 1.8124064131
| 22> H 2.39869228 1.6491195134 0.4019150708
| 23> *
| 24>
| 25>                          ****END OF INPUT****

CARTESIAN COORDINATES (ANGSTROEM)
---------------------------------
  C     -2.679853    0.384617    0.950471
  C     -2.152943    0.410633   -0.479464
  C     -0.868418   -0.392583   -0.623984
  O      0.169821    0.271053    0.111905
  C      1.411169   -0.173772   -0.031991
  O      1.699184   -1.115054   -0.743787
  C      2.385908    0.628707    0.776047
  H     -1.932040    0.782403    1.631377
  H     -3.580129    0.987147    1.030688
  H     -2.915926   -0.633487    1.250652
  H     -1.953912    1.439641   -0.780728
  H     -2.892444   -0.012122   -1.159511
  H     -0.982774   -1.406053   -0.224799
  H     -0.555188   -0.471420   -1.670485
  H      3.374575    0.189720    0.695176
  H      2.061898    0.652784    1.812406
  H      2.398692    1.649120    0.401915

 Total Charge           Charge          ....    0
 Multiplicity           Mult            ....    1
 Number of Electrons    NEL             ....   56
 Basis Dimension        Dim             ....  118

ORBITAL ENERGIES
----------------

  NO   OCC          E(Eh)            E(eV)
   0   2.0000     -18.796937      -511.4907
   1   2.0000     -18.731780      -509.7177
   2   2.0000     -10.004691      -272.2415
   3   2.0000      -9.942510      -270.5495
   4   2.0000      -9.896197      -269.2892
   5   2.0000      -9.891545      -269.1626
   6   2.0000      -9.880090      -268.8509
   7   2.0000      -1.004229       -27.3264
   8   2.0000      -0.906697       -24.6725
   9   2.0000      -0.725615       -19.7450
  10   2.0000      -0.677144       -18.4260
  11   2.0000      -0.620407       -16.8821
  12   2.0000      -0.548881       -14.9358
  13   2.0000      -0.503416       -13.6986
  14   2.0000      -0.445862       -12.1325
  15   2.0000      -0.434014       -11.8101
  16   2.0000      -0.411333       -11.1929
  17   2.0000      -0.400907       -10.9092
  18   2.0000      -0.387700       -10.5498
  19   2.0000      -0.372618       -10.1394
  20   2.0000      -0.359312        -9.7774
  21   2.0000      -0.337528        -9.1846
  22   2.0000      -0.323644        -8.8068
  23   2.0000      -0.311627        -8.4798
  24   2.0000      -0.304935        -8.2977
  25   2.0000      -0.290782        -7.9126
  26   2.0000      -0.255355        -6.9486
  27   2.0000      -0.215669        -5.8687
  28   0.0000      -0.017645        -0.4801
  29   0.0000       0.036674         0.9980
  30   0.0000       0.056493         1.5373
  31   0.0000       0.076343         2.0774
  32   0.0000       0.079301         2.1579

MULLIKEN ATOMIC CHARGES
-----------------------
   0 C :   -0.290359
   1 C :   -0.175313
   2 C :   -0.005151
   3 O :   -0.246549
   4 C :    0.080248
   5 O :   -0.214974
   6 C :   -0.241911
   7 H :    0.111846
   8 H :    0.108018
   9 H :    0.099338
  10 H :    0.097382
  11 H :    0.095167
  12 H :    0.096397
  13 H :    0.106382
  14 H :    0.123840
  15 H :    0.126475
  16 H :    0.129162
Sum of atomic charges:   -0.0000000

LOEWDIN ATOMIC CHARGES
----------------------
   0 C :   -0.343469
   1 C :   -0.245103
   2 C :   -0.101896
   3 O :   -0.074386
   4 C :    0.027681
   5 O :   -0.170868
   6 C :   -0.358992
   7 H :    0.121149
   8 H :    0.121087
   9 H :    0.118124
  10 H :    0.123192
  11 H :    0.125228
  12 H :    0.114073
  13 H :    0.116209
  14 H :    0.139554
  15 H :    0.142910
  16 H :    0.145509

  Mayer bond orders larger than 0.100000
B(  0-C ,  1-C ) :   1.1467 B(  0-C ,  7-H ) :   0.9541 B(  0-C ,  8-H ) :   0.9539
B(  0-C ,  9-H ) :   0.9552 B(  1-C ,  2-C ) :   1.1074 B(  1-C , 10-H ) :   0.9223
B(  1-C , 11-H ) :   0.9204 B(  2-C ,  3-O ) :   0.9148 B(  2-C , 12-H ) :   0.9299
B(  2-C , 13-H ) :   0.9261 B(  3-O ,  4-C ) :   1.1855 B(  4-C ,  5-O ) :   2.0583
B(  4-C ,  6-C ) :   1.0898 B(  6-C , 14-H ) :   0.9421 B(  6-C , 15-H ) :   0.9306
B(  6-C , 16-H ) :   0.9277

Dispersion correction           -0.011643651
FINAL SINGLE POINT ENERGY      -346.244475742126

DIPOLE MOMENT
-------------

Method             : SCF
Type of density    : Electron Density
Multiplicity       :   1
Irrep              :   0
Energy             :  -346.3093850220229797 Eh
Relativity type    :
Basis              : AO
                                X                 Y                 Z
Electronic contribution:      6.011806514      -2.412052517      -2.471190932
Nuclear contribution   :     -6.518114459       2.968730671       2.792647810
                        -----------------------------------------
Total Dipole Moment    :     -0.506307945       0.556678154       0.321456878
                        -----------------------------------------
Magnitude (a.u.)       :      0.818274298
Magnitude (Debye)      :      2.079887974

Rotational constants in cm-1:             0.194921             0.045635             0.039678
Rotational constants in MHz :          5843.577799          1368.093304          1189.505554

                             ****ORCA TERMINATED NORMALLY****
TOTAL RUN TIME: 0 days 0 hours 0 minutes 7 seconds 717 msec
