                         Program Version 6.0.0  -   RELEASE  -
|  1> ! pbe def2-sv(p) def2/J RI DEFGRID1 loosescf d4 GCP(DFT/SV(P)) printgap
|  2> %output
|  3>     printlevel normal
|  4> end
|  5> * xyz 0 1
|  6> C 2.3089810046 -1.0136831281 -0.6063933553
|  7> C 1.5925611289 0.3149456713 -0.3984640106
|  8> C 0.3521706709 0.2064660083 0.501547526
|  9> H 0.6360613431 -0.3366055103 1.4119031229
| 10> C -0.8290734377 -0.5453285221 -0.1517216218
| 11> C -1.8680101136 -0.8887531293 0.9153566661
| 12> C -1.4868569955 0.251175927 -1.2786621134
| 13> O -0.0325091558 1.4862997222 0.9745338606
| 14> H 1.6878116129 -1.7141940087 -1.1579497606
| 15> H 2.5659121169 -1.4607864143 0.35102057
| 16> H 3.2251095471 -0.8562748087 -1.1698217289
| 17> H 2.2769493351 1.0167888713 0.0845586629
| 18> H 1.312967411 0.7365072241 -1.3658973448
| 19> H -0.4328033716 -1.4770971155 -0.5645095446
| 20> H -2.1924583157 0.018596678 1.4205613017
| 21> H -2.7337684911 -1.3684020496 0.465795769
| 22> H -1.4459730501 -1.5608926951 1.6588458398
| 23> H -0.7631500468 0.5474612058 -2.0337639152
| 24> H -1.9759371027 1.1389860818 -0.8839297267
| 25> H -2.2449840986 -0.3600929736 -1.7620068818
| 26> H -0.2311527037 2.0453370458 0.2108227304
| 27> *
| 28>
| 29>                          ****END OF INPUT****

CARTESIAN COORDINATES (ANGSTROEM)
---------------------------------
  C      2.308981   -1.013683   -0.606393
  C      1.592561    0.314946   -0.398464
  C      0.352171    0.206466    0.501548
  H      0.636061   -0.336606    1.411903
  C     -0.829073   -0.545329   -0.151722
  C     -1.868010   -0.888753    0.915357
  C     -1.486857    0.251176   -1.278662
  O     -0.032509    1.486300    0.974534
  H      1.687812   -1.714194   -1.157950
  H      2.565912   -1.460786    0.351021
  H      3.225110   -0.856275   -1.169822
  H      2.276949    1.016789    0.084559
  H      1.312967    0.736507   -1.365897
  H     -0.432803   -1.477097   -0.564510
  H     -2.192458    0.018597    1.420561
  H     -2.733768   -1.368402    0.465796
  H     -1.445973   -1.560893    1.658846
  H     -0.763150    0.547461   -2.033764
  H     -1.975937    1.138986   -0.883930
  H     -2.244984   -0.360093   -1.762007
  H     -0.231153    2.045337    0.210823

 Total Charge           Charge          ....    0
 Multiplicity           Mult            ....    1
 Number of Electrons    NEL             ....   58
 Basis Dimension        Dim             ....  126

ORBITAL ENERGIES
----------------

  NO   OCC          E(Eh)            E(eV)
   0   2.0000     -18.738563      -509.9022
   1   2.0000      -9.930739      -270.2291
   2   2.0000      -9.892682      -269.1936
   3   2.0000      -9.882552      -268.9179
   4   2.0000      -9.878611      -268.8107
   5   2.0000      -9.877469      -268.7796
   6   2.0000      -9.867113      -268.4978
   7   2.0000      -0.916801       -24.9474
   8   2.0000      -0.724605       -19.7175
   9   2.0000      -0.687687       -18.7129
  10   2.0000      -0.613985       -16.7074
  11   2.0000      -0.597618       -16.2620
  12   2.0000      -0.539090       -14.6694
  13   2.0000      -0.507062       -13.7979
  14   2.0000      -0.430431       -11.7126
  15   2.0000      -0.427921       -11.6443
  16   2.0000      -0.406033       -11.0487
  17   2.0000      -0.389962       -10.6114
  18   2.0000      -0.373544       -10.1647
  19   2.0000      -0.350556        -9.5391
  20   2.0000      -0.339058        -9.2262
  21   2.0000      -0.333962        -9.0876
  22   2.0000      -0.324047        -8.8178
  23   2.0000      -0.309852        -8.4315
  24   2.0000      -0.297114        -8.0849
  25   2.0000      -0.291564        -7.9339
  26   2.0000      -0.283514        -7.7148
  27   2.0000      -0.258682        -7.0391
  28   2.0000      -0.210411        -5.7256
  29   0.0000       0.025804         0.7022
  30   0.0000       0.041188         1.1208
  31   0.0000       0.060417         1.6440
  32   0.0000       0.072647         1.9768
  33   0.0000       0.086611         2.3568

MULLIKEN ATOMIC CHARGES
-----------------------
   0 C :   -0.291301
   1 C :   -0.158573
   2 C :    0.051855
   3 H :    0.059424
   4 C :   -0.159439
   5 C :   -0.229970
   6 C :   -0.292074
   7 O :   -0.426772
   8 H :    0.110440
   9 H :    0.102583
  10 H :    0.104847
  11 H :    0.090824
  12 H :    0.074462
  13 H :    0.072919
  14 H :    0.102280
  15 H :    0.094071
  16 H :    0.093517
  17 H :    0.105559
  18 H :    0.093887
  19 H :    0.106421
  20 H :    0.295040
Sum of atomic charges:    0.0000000

LOEWDIN ATOMIC CHARGES
----------------------
   0 C :   -0.340538
   1 C :   -0.249775
   2 C :   -0.046677
   3 H :    0.109611
   4 C :   -0.170273
   5 C :   -0.330122
   6 C :   -0.339668
   7 O :   -0.321336
   8 H :    0.116431
   9 H :    0.119376
  10 H :    0.122186
  11 H :    0.120002
  12 H :    0.110441
  13 H :    0.116430
  14 H :    0.120306
  15 H :    0.114707
  16 H :    0.116370
  17 H :    0.114501
  18 H :    0.114324
  19 H :    0.124431
  20 H :    0.279276

  Mayer bond orders larger than 0.100000
B(  0-C ,  1-C ) :   1.1437 B(  0-C ,  8-H ) :   0.9473 B(  0-C ,  9-H ) :   0.9533
B(  0-C , 10-H ) :   0.9475 B(  1-C ,  2-C ) :   1.0825 B(  1-C , 11-H ) :   0.9152
B(  1-C , 12-H ) :   0.9061 B(  2-C ,  3-H ) :   0.9031 B(  2-C ,  4-C ) :   0.9929
B(  2-C ,  7-O ) :   1.0390 B(  4-C ,  5-C ) :   1.1100 B(  4-C ,  6-C ) :   1.0934
B(  4-C , 13-H ) :   0.8904 B(  5-C , 14-H ) :   0.9425 B(  5-C , 15-H ) :   0.9524
B(  5-C , 16-H ) :   0.9491 B(  6-C , 17-H ) :   0.9452 B(  6-C , 18-H ) :   0.9414
B(  6-C , 19-H ) :   0.9470 B(  7-O , 20-H ) :   0.8480

Dispersion correction           -0.016730273
FINAL SINGLE POINT ENERGY      -311.518199537117

DIPOLE MOMENT
-------------

Method             : SCF
Type of density    : Electron Density
Multiplicity       :   1
Irrep              :   0
Energy             :  -311.5980939350186532 Eh
Relativity type    :
Basis              : AO
                                X                 Y                 Z
Electronic contribution:      0.348232688       3.255603648       2.515769415
Nuclear contribution   :     -0.296394080      -3.384102971      -3.113722400
                        -----------------------------------------
Total Dipole Moment    :      0.051838608      -0.128499323      -0.597952985
                        -----------------------------------------
Magnitude (a.u.)       :      0.613797270
Magnitude (Debye)      :      1.560148674

Rotational constants in cm-1:             0.109417             0.058211             0.052483
Rotational constants in MHz :          3280.224772          1745.128204          1573.410243

                             ****ORCA TERMINATED NORMALLY****
TOTAL RUN TIME: 0 days 0 hours 0 minutes 9 seconds 398 msec
