                         Program Version 6.0.0  -   RELEASE  -
|  1> ! pbe def2-sv(p) def2/J RI DEFGRID1 loosescf d4 GCP(DFT/SV(P)) printgap
|  2> %output
|  3>     printlevel normal
|  4> end
|  5> * xyz 0 1
|  6> C -0.3254179424 -2.7332650303 -0.182314799
|  7> C 0.4865473108 -1.4843702011 -0.0553779268
|  8> C 1.8522697985 -1.4246518586 -0.3759729061
|  9> N 2.5572069071 -0.3158503119 -0.246167933
| 10> C 1.9401043821 0.7886784662 0.2029541245
| 11> N 0.627136668 0.8427437129 0.5011317813
| 12> C -0.0535232285 -0.2747058516 0.3606102106
| 13> O -1.3986795609 -0.176012631 0.7080860531
| 14> C -2.2793284295 -0.0800589163 -0.329967322
| 15> O -1.9211434163 -0.1357137858 -1.4976013477
| 16> N -3.5408533889 0.0680548166 0.0762244632
| 17> C -4.605753694 0.1748850999 -0.8986331767
| 18> C -3.946832762 0.1406761312 1.4631829793
| 19> N 2.6670501559 1.8989524859 0.3602507688
| 20> C 2.0869391793 3.1381026964 0.8160202178
| 21> C 4.0746402617 1.9379305504 0.0450345562
| 22> C 2.5810894854 -2.6244038986 -0.8850641763
| 23> H -0.5992453978 -2.8966016525 -1.2253531747
| 24> H 0.2384115596 -3.5940311426 0.1680442136
| 25> H -1.2405354803 -2.6478171568 0.3998756497
| 26> H -5.1090062795 1.135905341 -0.791391112
| 27> H -5.3250177184 -0.6299904786 -0.7467692541
| 28> H -4.1742302363 0.0983307717 -1.8936148447
| 29> H -3.0717889494 0.1307590645 2.104889229
| 30> H -4.5854808225 -0.7108030506 1.7023668513
| 31> H -4.5057699348 1.0625275189 1.6250932616
| 32> H 2.5888356728 3.4660227063 1.7277950533
| 33> H 1.0317192085 2.9808744871 1.0146407045
| 34> H 2.2046566527 3.9066610603 0.0498715717
| 35> H 4.2552255453 2.6562485245 -0.7565755256
| 36> H 4.3903627418 0.9493348371 -0.2718344459
| 37> H 4.6391752413 2.2420942418 0.9276108693
| 38> H 3.5967244468 -2.3448868188 -1.14437274
| 39> H 2.6042700259 -3.3976222297 -0.1197943384
| 40> H 2.0729050735 -3.0249607733 -1.7589087253
| 41> *
| 42>
| 43>                          ****END OF INPUT****

CARTESIAN COORDINATES (ANGSTROEM)
---------------------------------
  C     -0.325418   -2.733265   -0.182315
  C      0.486547   -1.484370   -0.055378
  C      1.852270   -1.424652   -0.375973
  N      2.557207   -0.315850   -0.246168
  C      1.940104    0.788678    0.202954
  N      0.627137    0.842744    0.501132
  C     -0.053523   -0.274706    0.360610
  O     -1.398680   -0.176013    0.708086
  C     -2.279328   -0.080059   -0.329967
  O     -1.921143   -0.135714   -1.497601
  N     -3.540853    0.068055    0.076224
  C     -4.605754    0.174885   -0.898633
  C     -3.946833    0.140676    1.463183
  N      2.667050    1.898952    0.360251
  C      2.086939    3.138103    0.816020
  C      4.074640    1.937931    0.045035
  C      2.581089   -2.624404   -0.885064
  H     -0.599245   -2.896602   -1.225353
  H      0.238412   -3.594031    0.168044
  H     -1.240535   -2.647817    0.399876
  H     -5.109006    1.135905   -0.791391
  H     -5.325018   -0.629990   -0.746769
  H     -4.174230    0.098331   -1.893615
  H     -3.071789    0.130759    2.104889
  H     -4.585481   -0.710803    1.702367
  H     -4.505770    1.062528    1.625093
  H      2.588836    3.466023    1.727795
  H      1.031719    2.980874    1.014641
  H      2.204657    3.906661    0.049872
  H      4.255226    2.656249   -0.756576
  H      4.390363    0.949335   -0.271834
  H      4.639175    2.242094    0.927611
  H      3.596724   -2.344887   -1.144373
  H      2.604270   -3.397622   -0.119794
  H      2.072905   -3.024961   -1.758909

 Total Charge           Charge          ....    0
 Multiplicity           Mult            ....    1
 Number of Electrons    NEL             ....  128
 Basis Dimension        Dim             ....  274

ORBITAL ENERGIES
----------------

  NO   OCC          E(Eh)            E(eV)
   0   2.0000     -18.793620      -511.4004
   1   2.0000     -18.711311      -509.1607
   2   2.0000     -14.028729      -381.7411
   3   2.0000     -14.018189      -381.4543
   4   2.0000     -13.969922      -380.1409
   5   2.0000     -13.965327      -380.0159
   6   2.0000     -10.017818      -272.5987
   7   2.0000      -9.975279      -271.4411
   8   2.0000      -9.972912      -271.3767
   9   2.0000      -9.930783      -270.2303
  10   2.0000      -9.920672      -269.9552
  11   2.0000      -9.917216      -269.8612
  12   2.0000      -9.906958      -269.5820
  13   2.0000      -9.906270      -269.5633
  14   2.0000      -9.889198      -269.0988
  15   2.0000      -9.880055      -268.8500
  16   2.0000      -9.877782      -268.7881
  17   2.0000      -1.006991       -27.4016
  18   2.0000      -0.915179       -24.9033
  19   2.0000      -0.900849       -24.5134
  20   2.0000      -0.857157       -23.3244
  21   2.0000      -0.840248       -22.8643
  22   2.0000      -0.789997       -21.4969
  23   2.0000      -0.721336       -19.6285
  24   2.0000      -0.666696       -18.1417
  25   2.0000      -0.658363       -17.9150
  26   2.0000      -0.652112       -17.7449
  27   2.0000      -0.643218       -17.5029
  28   2.0000      -0.634882       -17.2760
  29   2.0000      -0.586537       -15.9605
  30   2.0000      -0.568810       -15.4781
  31   2.0000      -0.522407       -14.2154
  32   2.0000      -0.502243       -13.6667
  33   2.0000      -0.482783       -13.1372
  34   2.0000      -0.480363       -13.0713
  35   2.0000      -0.453201       -12.3322
  36   2.0000      -0.437623       -11.9083
  37   2.0000      -0.431116       -11.7313
  38   2.0000      -0.425849       -11.5879
  39   2.0000      -0.404424       -11.0049
  40   2.0000      -0.398812       -10.8522
  41   2.0000      -0.390981       -10.6391
  42   2.0000      -0.375072       -10.2062
  43   2.0000      -0.371360       -10.1052
  44   2.0000      -0.366092        -9.9619
  45   2.0000      -0.363981        -9.9044
  46   2.0000      -0.357815        -9.7366
  47   2.0000      -0.357491        -9.7278
  48   2.0000      -0.353264        -9.6128
  49   2.0000      -0.352824        -9.6008
  50   2.0000      -0.347334        -9.4515
  51   2.0000      -0.342830        -9.3289
  52   2.0000      -0.337518        -9.1843
  53   2.0000      -0.336939        -9.1686
  54   2.0000      -0.330263        -8.9869
  55   2.0000      -0.322158        -8.7664
  56   2.0000      -0.259539        -7.0624
  57   2.0000      -0.254471        -6.9245
  58   2.0000      -0.250454        -6.8152
  59   2.0000      -0.247446        -6.7334
  60   2.0000      -0.213819        -5.8183
  61   2.0000      -0.205277        -5.5859
  62   2.0000      -0.189904        -5.1675
  63   2.0000      -0.170313        -4.6345
  64   0.0000      -0.041912        -1.1405
  65   0.0000      -0.013768        -0.3746
  66   0.0000       0.025356         0.6900
  67   0.0000       0.032761         0.8915
  68   0.0000       0.045203         1.2300

MULLIKEN ATOMIC CHARGES
-----------------------
   0 C :   -0.188271
   1 C :   -0.106818
   2 C :   -0.125251
   3 N :   -0.102895
   4 C :    0.053129
   5 N :   -0.087276
   6 C :    0.090367
   7 O :   -0.255608
   8 C :    0.224176
   9 O :   -0.252951
  10 N :   -0.243214
  11 C :   -0.169572
  12 C :   -0.173503
  13 N :   -0.206456
  14 C :   -0.167414
  15 C :   -0.167445
  16 C :   -0.194953
  17 H :    0.118787
  18 H :    0.099393
  19 H :    0.105249
  20 H :    0.109206
  21 H :    0.106888
  22 H :    0.145348
  23 H :    0.148472
  24 H :    0.107245
  25 H :    0.107651
  26 H :    0.101162
  27 H :    0.142251
  28 H :    0.102854
  29 H :    0.102137
  30 H :    0.140167
  31 H :    0.100461
  32 H :    0.105773
  33 H :    0.116520
  34 H :    0.114390
Sum of atomic charges:    0.0000000

LOEWDIN ATOMIC CHARGES
----------------------
   0 C :   -0.323875
   1 C :   -0.123015
   2 C :    0.009089
   3 N :   -0.119939
   4 C :    0.030913
   5 N :   -0.118945
   6 C :    0.067940
   7 O :   -0.059519
   8 C :    0.042827
   9 O :   -0.217316
  10 N :   -0.059151
  11 C :   -0.246570
  12 C :   -0.250984
  13 N :   -0.037874
  14 C :   -0.253295
  15 C :   -0.254253
  16 C :   -0.331290
  17 H :    0.135893
  18 H :    0.124122
  19 H :    0.126337
  20 H :    0.116155
  21 H :    0.115238
  22 H :    0.138777
  23 H :    0.135187
  24 H :    0.114597
  25 H :    0.116203
  26 H :    0.112804
  27 H :    0.135072
  28 H :    0.113713
  29 H :    0.113194
  30 H :    0.133651
  31 H :    0.112589
  32 H :    0.131111
  33 H :    0.135370
  34 H :    0.135244

  Mayer bond orders larger than 0.100000
B(  0-C ,  1-C ) :   1.1678 B(  0-C , 17-H ) :   0.9165 B(  0-C , 18-H ) :   0.9214
B(  0-C , 19-H ) :   0.9249 B(  1-C ,  2-C ) :   1.3045 B(  1-C ,  6-C ) :   1.3687
B(  2-C ,  3-N ) :   1.6068 B(  2-C , 16-C ) :   1.1557 B(  3-N ,  4-C ) :   1.4180
B(  4-C ,  5-N ) :   1.3983 B(  4-C , 13-N ) :   1.2110 B(  5-N ,  6-C ) :   1.5873
B(  6-C ,  7-O ) :   1.0110 B(  7-O ,  8-C ) :   1.0501 B(  8-C ,  9-O ) :   1.9770
B(  8-C , 10-N ) :   1.2016 B( 10-N , 11-C ) :   1.0124 B( 10-N , 12-C ) :   1.0070
B( 11-C , 20-H ) :   0.9524 B( 11-C , 21-H ) :   0.9522 B( 11-C , 22-H ) :   0.9328
B( 12-C , 23-H ) :   0.9391 B( 12-C , 24-H ) :   0.9501 B( 12-C , 25-H ) :   0.9493
B( 13-N , 14-C ) :   1.0184 B( 13-N , 15-C ) :   1.0180 B( 14-C , 26-H ) :   0.9500
B( 14-C , 27-H ) :   0.9247 B( 14-C , 28-H ) :   0.9493 B( 15-C , 29-H ) :   0.9495
B( 15-C , 30-H ) :   0.9228 B( 15-C , 31-H ) :   0.9499 B( 16-C , 32-H ) :   0.9277
B( 16-C , 33-H ) :   0.9232 B( 16-C , 34-H ) :   0.9230

Dispersion correction           -0.039672771
FINAL SINGLE POINT ENERGY      -797.789195770614

DIPOLE MOMENT
-------------

Method             : SCF
Type of density    : Electron Density
Multiplicity       :   1
Irrep              :   0
Energy             :  -797.9086555225712800 Eh
Relativity type    :
Basis              : AO
                                X                 Y                 Z
Electronic contribution:      0.485878382       0.636066917      -0.248765378
Nuclear contribution   :     -0.964169338      -0.570685394       0.941120914
                        -----------------------------------------
Total Dipole Moment    :     -0.478290956       0.065381522       0.692355536
                        -----------------------------------------
Magnitude (a.u.)       :      0.844033868
Magnitude (Debye)      :      2.145363596

Rotational constants in cm-1:             0.024912             0.009672             0.007643
Rotational constants in MHz :           746.835832           289.963296           229.129476

                             ****ORCA TERMINATED NORMALLY****
TOTAL RUN TIME: 0 days 0 hours 0 minutes 24 seconds 579 msec
