                         Program Version 6.0.0  -   RELEASE  -
|  1> ! r2scan-3c def2/J RI DEFGRID2 scfconv6 printgap
|  2> %output
|  3>     printlevel normal
|  4> end
|  5> * xyz 0 1
|  6> C -0.3444280209 2.4286184622 0.1096295104
|  7> N -0.1165258933 1.1668396939 -0.5719954234
|  8> C -1.2847678025 0.4786162089 -1.0296386561
|  9> C -1.9817164563 -0.3657396619 0.0629742124
| 10> F -3.2631987049 0.0087384282 0.2611036491
| 11> F -2.0340629674 -1.678417666 -0.2373612987
| 12> F -1.3840689025 -0.2776883944 1.2592275021
| 13> C 1.0472880939 0.4568671977 -0.2960141212
| 14> C 1.2010294278 -0.8873319259 -0.6526161522
| 15> C 2.3881469846 -1.5550096404 -0.4176232101
| 16> C 3.4572694102 -0.9151928018 0.1831838414
| 17> C 3.316470557 0.4123166888 0.5477934673
| 18> C 2.1353812268 1.0896350491 0.3159924701
| 19> H 0.3853398484 3.1650119869 -0.2246377906
| 20> H -0.2788458777 2.3225384317 1.1965639257
| 21> H -1.33456685 2.7979011313 -0.1425645598
| 22> H -2.0166854302 1.2076350387 -1.3851592515
| 23> H -1.0408192022 -0.1898174268 -1.8587785367
| 24> H 0.3985063313 -1.4450929434 -1.1076729544
| 25> H 2.4699609303 -2.5935130739 -0.7033640202
| 26> H 4.379560764 -1.4432784251 0.369053405
| 27> H 4.1358847523 0.9310819191 1.0230397128
| 28> H 2.0706016993 2.1206062747 0.6171861191
| 29> *
| 30>
| 31>                          ****END OF INPUT****

CARTESIAN COORDINATES (ANGSTROEM)
---------------------------------
  C     -0.344428    2.428618    0.109630
  N     -0.116526    1.166840   -0.571995
  C     -1.284768    0.478616   -1.029639
  C     -1.981716   -0.365740    0.062974
  F     -3.263199    0.008738    0.261104
  F     -2.034063   -1.678418   -0.237361
  F     -1.384069   -0.277688    1.259228
  C      1.047288    0.456867   -0.296014
  C      1.201029   -0.887332   -0.652616
  C      2.388147   -1.555010   -0.417623
  C      3.457269   -0.915193    0.183184
  C      3.316471    0.412317    0.547793
  C      2.135381    1.089635    0.315992
  H      0.385340    3.165012   -0.224638
  H     -0.278846    2.322538    1.196564
  H     -1.334567    2.797901   -0.142565
  H     -2.016685    1.207635   -1.385159
  H     -1.040819   -0.189817   -1.858779
  H      0.398506   -1.445093   -1.107673
  H      2.469961   -2.593513   -0.703364
  H      4.379561   -1.443278    0.369053
  H      4.135885    0.931082    1.023040
  H      2.070602    2.120606    0.617186

 Total Charge           Charge          ....    0
 Multiplicity           Mult            ....    1
 Number of Electrons    NEL             ....   98
 Basis Dimension        Dim             ....  317

ORBITAL ENERGIES
----------------

  NO   OCC          E(Eh)            E(eV)
   0   2.0000     -24.518758      -667.1893
   1   2.0000     -24.517296      -667.1496
   2   2.0000     -24.517069      -667.1434
   3   2.0000     -14.198245      -386.3539
   4   2.0000     -10.280436      -279.7449
   5   2.0000     -10.101325      -274.8710
   6   2.0000     -10.079470      -274.2763
   7   2.0000     -10.072165      -274.0775
   8   2.0000     -10.032476      -272.9976
   9   2.0000     -10.032391      -272.9952
  10   2.0000     -10.030481      -272.9433
  11   2.0000     -10.029474      -272.9159
  12   2.0000     -10.022544      -272.7273
  13   2.0000      -1.275885       -34.7186
  14   2.0000      -1.186435       -32.2845
  15   2.0000      -1.183929       -32.2164
  16   2.0000      -0.937899       -25.5215
  17   2.0000      -0.819416       -22.2974
  18   2.0000      -0.752193       -20.4682
  19   2.0000      -0.722326       -19.6555
  20   2.0000      -0.710695       -19.3390
  21   2.0000      -0.663588       -18.0571
  22   2.0000      -0.632297       -17.2057
  23   2.0000      -0.577288       -15.7088
  24   2.0000      -0.565714       -15.3939
  25   2.0000      -0.555859       -15.1257
  26   2.0000      -0.553460       -15.0604
  27   2.0000      -0.527422       -14.3519
  28   2.0000      -0.502330       -13.6691
  29   2.0000      -0.465460       -12.6658
  30   2.0000      -0.452679       -12.3180
  31   2.0000      -0.433419       -11.7939
  32   2.0000      -0.429177       -11.6785
  33   2.0000      -0.423779       -11.5316
  34   2.0000      -0.421149       -11.4601
  35   2.0000      -0.400997       -10.9117
  36   2.0000      -0.396719       -10.7953
  37   2.0000      -0.388498       -10.5716
  38   2.0000      -0.383245       -10.4286
  39   2.0000      -0.373201       -10.1553
  40   2.0000      -0.367837       -10.0093
  41   2.0000      -0.365802        -9.9540
  42   2.0000      -0.359205        -9.7745
  43   2.0000      -0.346742        -9.4353
  44   2.0000      -0.326521        -8.8851
  45   2.0000      -0.307552        -8.3689
  46   2.0000      -0.272822        -7.4239
  47   2.0000      -0.235233        -6.4010
  48   2.0000      -0.186299        -5.0695
  49   0.0000      -0.030544        -0.8311
  50   0.0000      -0.015701        -0.4272
  51   0.0000       0.046315         1.2603
  52   0.0000       0.066359         1.8057
  53   0.0000       0.073389         1.9970

MULLIKEN ATOMIC CHARGES
-----------------------
   0 C :   -0.428508
   1 N :    0.146980
   2 C :   -0.469458
   3 C :    0.646233
   4 F :   -0.222879
   5 F :   -0.221996
   6 F :   -0.202910
   7 C :    0.306989
   8 C :   -0.313826
   9 C :   -0.163797
  10 C :   -0.186801
  11 C :   -0.145761
  12 C :   -0.310652
  13 H :    0.159084
  14 H :    0.180394
  15 H :    0.144310
  16 H :    0.175708
  17 H :    0.188978
  18 H :    0.147430
  19 H :    0.144932
  20 H :    0.145468
  21 H :    0.144286
  22 H :    0.135797
Sum of atomic charges:    0.0000000

LOEWDIN ATOMIC CHARGES
----------------------
   0 C :   -0.120155
   1 N :   -0.887170
   2 C :   -0.001787
   3 C :    0.526772
   4 F :   -0.224534
   5 F :   -0.222734
   6 F :   -0.190627
   7 C :    0.152277
   8 C :   -0.161042
   9 C :   -0.151027
  10 C :   -0.195814
  11 C :   -0.152084
  12 C :   -0.159449
  13 H :    0.174920
  14 H :    0.175323
  15 H :    0.180703
  16 H :    0.205356
  17 H :    0.203753
  18 H :    0.174152
  19 H :    0.167738
  20 H :    0.165841
  21 H :    0.167094
  22 H :    0.172495

  Mayer bond orders larger than 0.100000
B(  0-C ,  1-N ) :   0.8698 B(  0-C , 13-H ) :   0.9667 B(  0-C , 14-H ) :   0.9424
B(  0-C , 15-H ) :   0.9536 B(  1-N ,  2-C ) :   0.9692 B(  1-N ,  7-C ) :   1.1949
B(  2-C ,  3-C ) :   0.8840 B(  2-C , 16-H ) :   0.9523 B(  2-C , 17-H ) :   0.9555
B(  3-C ,  4-F ) :   1.0056 B(  3-C ,  5-F ) :   1.0152 B(  3-C ,  6-F ) :   1.0405
B(  7-C ,  8-C ) :   1.2895 B(  7-C , 12-C ) :   1.3019 B(  8-C ,  9-C ) :   1.4339
B(  8-C , 18-H ) :   0.9296 B(  9-C , 10-C ) :   1.4073 B(  9-C , 19-H ) :   0.9474
B( 10-C , 11-C ) :   1.4140 B( 10-C , 20-H ) :   0.9489 B( 11-C , 12-C ) :   1.4176
B( 11-C , 21-H ) :   0.9501 B( 12-C , 22-H ) :   0.9417

Dispersion correction           -0.008672579
FINAL SINGLE POINT ENERGY      -703.150064859977

DIPOLE MOMENT
-------------

Method             : SCF
Type of density    : Electron Density
Multiplicity       :   1
Irrep              :   0
Energy             :  -703.1602017615027762 Eh
Relativity type    :
Basis              : AO
                                X                 Y                 Z
Electronic contribution:    -14.805389799      -7.489838858       2.827213067
Nuclear contribution   :     14.791793063       8.258818745      -3.271145268
                        -----------------------------------------
Total Dipole Moment    :     -0.013596736       0.768979887      -0.443932201
                        -----------------------------------------
Magnitude (a.u.)       :      0.888026316
Magnitude (Debye)      :      2.257183513

Rotational constants in cm-1:             0.050837             0.017882             0.014938
Rotational constants in MHz :          1524.039989           536.083676           447.819354

                             ****ORCA TERMINATED NORMALLY****
TOTAL RUN TIME: 0 days 0 hours 0 minutes 46 seconds 501 msec
