                         Program Version 6.0.0  -   RELEASE  -
|  1> ! r2scan-3c def2/J RI DEFGRID2 scfconv6 printgap
|  2> %output
|  3>     printlevel normal
|  4> end
|  5> %cpcm
|  6>     smd true
|  7>     smdsolvent "water"
|  8> end
|  9> * xyz 0 1
| 10> C -0.3444280209 2.4286184622 0.1096295104
| 11> N -0.1165258933 1.1668396939 -0.5719954234
| 12> C -1.2847678025 0.4786162089 -1.0296386561
| 13> C -1.9817164563 -0.3657396619 0.0629742124
| 14> F -3.2631987049 0.0087384282 0.2611036491
| 15> F -2.0340629674 -1.678417666 -0.2373612987
| 16> F -1.3840689025 -0.2776883944 1.2592275021
| 17> C 1.0472880939 0.4568671977 -0.2960141212
| 18> C 1.2010294278 -0.8873319259 -0.6526161522
| 19> C 2.3881469846 -1.5550096404 -0.4176232101
| 20> C 3.4572694102 -0.9151928018 0.1831838414
| 21> C 3.316470557 0.4123166888 0.5477934673
| 22> C 2.1353812268 1.0896350491 0.3159924701
| 23> H 0.3853398484 3.1650119869 -0.2246377906
| 24> H -0.2788458777 2.3225384317 1.1965639257
| 25> H -1.33456685 2.7979011313 -0.1425645598
| 26> H -2.0166854302 1.2076350387 -1.3851592515
| 27> H -1.0408192022 -0.1898174268 -1.8587785367
| 28> H 0.3985063313 -1.4450929434 -1.1076729544
| 29> H 2.4699609303 -2.5935130739 -0.7033640202
| 30> H 4.379560764 -1.4432784251 0.369053405
| 31> H 4.1358847523 0.9310819191 1.0230397128
| 32> H 2.0706016993 2.1206062747 0.6171861191
| 33> *
| 34>
| 35>                          ****END OF INPUT****

CARTESIAN COORDINATES (ANGSTROEM)
---------------------------------
  C     -0.344428    2.428618    0.109630
  N     -0.116526    1.166840   -0.571995
  C     -1.284768    0.478616   -1.029639
  C     -1.981716   -0.365740    0.062974
  F     -3.263199    0.008738    0.261104
  F     -2.034063   -1.678418   -0.237361
  F     -1.384069   -0.277688    1.259228
  C      1.047288    0.456867   -0.296014
  C      1.201029   -0.887332   -0.652616
  C      2.388147   -1.555010   -0.417623
  C      3.457269   -0.915193    0.183184
  C      3.316471    0.412317    0.547793
  C      2.135381    1.089635    0.315992
  H      0.385340    3.165012   -0.224638
  H     -0.278846    2.322538    1.196564
  H     -1.334567    2.797901   -0.142565
  H     -2.016685    1.207635   -1.385159
  H     -1.040819   -0.189817   -1.858779
  H      0.398506   -1.445093   -1.107673
  H      2.469961   -2.593513   -0.703364
  H      4.379561   -1.443278    0.369053
  H      4.135885    0.931082    1.023040
  H      2.070602    2.120606    0.617186

 Total Charge           Charge          ....    0
 Multiplicity           Mult            ....    1
 Number of Electrons    NEL             ....   98
 Basis Dimension        Dim             ....  317

ORBITAL ENERGIES
----------------

  NO   OCC          E(Eh)            E(eV)
   0   2.0000     -24.520660      -667.2411
   1   2.0000     -24.517476      -667.1544
   2   2.0000     -24.516294      -667.1223
   3   2.0000     -14.188738      -386.0952
   4   2.0000     -10.278579      -279.6944
   5   2.0000     -10.083407      -274.3834
   6   2.0000     -10.077212      -274.2149
   7   2.0000     -10.050894      -273.4987
   8   2.0000     -10.031306      -272.9657
   9   2.0000     -10.031120      -272.9606
  10   2.0000     -10.027997      -272.8757
  11   2.0000     -10.026327      -272.8302
  12   2.0000     -10.021041      -272.6864
  13   2.0000      -1.276988       -34.7486
  14   2.0000      -1.188584       -32.3430
  15   2.0000      -1.184281       -32.2259
  16   2.0000      -0.927612       -25.2416
  17   2.0000      -0.818662       -22.2769
  18   2.0000      -0.742625       -20.2078
  19   2.0000      -0.718069       -19.5396
  20   2.0000      -0.706528       -19.2256
  21   2.0000      -0.656397       -17.8615
  22   2.0000      -0.626296       -17.0424
  23   2.0000      -0.573908       -15.6168
  24   2.0000      -0.562180       -15.2977
  25   2.0000      -0.556041       -15.1306
  26   2.0000      -0.552500       -15.0343
  27   2.0000      -0.521587       -14.1931
  28   2.0000      -0.492152       -13.3921
  29   2.0000      -0.454704       -12.3731
  30   2.0000      -0.445856       -12.1324
  31   2.0000      -0.432041       -11.7564
  32   2.0000      -0.429030       -11.6745
  33   2.0000      -0.417027       -11.3479
  34   2.0000      -0.413031       -11.2391
  35   2.0000      -0.395822       -10.7709
  36   2.0000      -0.390077       -10.6145
  37   2.0000      -0.384512       -10.4631
  38   2.0000      -0.381907       -10.3922
  39   2.0000      -0.369251       -10.0478
  40   2.0000      -0.361401        -9.8342
  41   2.0000      -0.357972        -9.7409
  42   2.0000      -0.348027        -9.4703
  43   2.0000      -0.342838        -9.3291
  44   2.0000      -0.322841        -8.7849
  45   2.0000      -0.302188        -8.2230
  46   2.0000      -0.270258        -7.3541
  47   2.0000      -0.238176        -6.4811
  48   2.0000      -0.182706        -4.9717
  49   0.0000      -0.032100        -0.8735
  50   0.0000      -0.016512        -0.4493
  51   0.0000       0.059571         1.6210
  52   0.0000       0.079952         2.1756
  53   0.0000       0.086585         2.3561

MULLIKEN ATOMIC CHARGES
-----------------------
   0 C :   -0.446576
   1 N :    0.139885
   2 C :   -0.458353
   3 C :    0.626455
   4 F :   -0.228704
   5 F :   -0.227634
   6 F :   -0.214377
   7 C :    0.255090
   8 C :   -0.334555
   9 C :   -0.203896
  10 C :   -0.233513
  11 C :   -0.190735
  12 C :   -0.328390
  13 H :    0.175034
  14 H :    0.182796
  15 H :    0.176886
  16 H :    0.210224
  17 H :    0.219643
  18 H :    0.179013
  19 H :    0.176526
  20 H :    0.175634
  21 H :    0.176198
  22 H :    0.173349
Sum of atomic charges:    0.0000000

LOEWDIN ATOMIC CHARGES
----------------------
   0 C :   -0.118562
   1 N :   -0.887051
   2 C :    0.005786
   3 C :    0.526738
   4 F :   -0.228649
   5 F :   -0.228539
   6 F :   -0.200866
   7 C :    0.140218
   8 C :   -0.173568
   9 C :   -0.167086
  10 C :   -0.218428
  11 C :   -0.167103
  12 C :   -0.169820
  13 H :    0.181803
  14 H :    0.176833
  15 H :    0.192529
  16 H :    0.220970
  17 H :    0.215000
  18 H :    0.184886
  19 H :    0.177657
  20 H :    0.174459
  21 H :    0.177364
  22 H :    0.185429

  Mayer bond orders larger than 0.100000
B(  0-C ,  1-N ) :   0.8710 B(  0-C , 13-H ) :   0.9596 B(  0-C , 14-H ) :   0.9400
B(  0-C , 15-H ) :   0.9473 B(  1-N ,  2-C ) :   0.9652 B(  1-N ,  7-C ) :   1.1962
B(  2-C ,  3-C ) :   0.8847 B(  2-C , 16-H ) :   0.9346 B(  2-C , 17-H ) :   0.9482
B(  3-C ,  4-F ) :   1.0093 B(  3-C ,  5-F ) :   1.0141 B(  3-C ,  6-F ) :   1.0311
B(  7-C ,  8-C ) :   1.2619 B(  7-C , 12-C ) :   1.2708 B(  8-C ,  9-C ) :   1.3971
B(  8-C , 18-H ) :   0.9375 B(  9-C , 10-C ) :   1.3606 B(  9-C , 19-H ) :   0.9612
B( 10-C , 11-C ) :   1.3651 B( 10-C , 20-H ) :   0.9605 B( 11-C , 12-C ) :   1.3867
B( 11-C , 21-H ) :   0.9632 B( 12-C , 22-H ) :   0.9524

Dispersion correction           -0.008672579
FINAL SINGLE POINT ENERGY      -703.156725735433

DIPOLE MOMENT
-------------

Method             : SCF
Type of density    : Electron Density
Multiplicity       :   1
Irrep              :   0
Energy             :  -703.1668626369581716 Eh
Relativity type    :
Basis              : AO
                                X                 Y                 Z
Electronic contribution:    -15.043663646      -7.175173984       2.607793176
Nuclear contribution   :     14.791793063       8.258818745      -3.271145268
                        -----------------------------------------
Total Dipole Moment    :     -0.251870583       1.083644761      -0.663352092
                        -----------------------------------------
Magnitude (a.u.)       :      1.295284045
Magnitude (Debye)      :      3.292350396

Rotational constants in cm-1:             0.050837             0.017882             0.014938
Rotational constants in MHz :          1524.039989           536.083676           447.819354

                             ****ORCA TERMINATED NORMALLY****
TOTAL RUN TIME: 0 days 0 hours 1 minutes 2 seconds 582 msec
