                         Program Version 6.0.0  -   RELEASE  -
|  1> ! r2scan-3c def2/J RI DEFGRID2 scfconv6 printgap
|  2> %output
|  3>     printlevel normal
|  4> end
|  5> * xyz 0 1
|  6> C -2.6951018148 -1.1343085002 -0.0234684007
|  7> C -2.4090276799 0.3616145764 -0.0786976214
|  8> C -0.9649612575 0.7057379288 -0.450344802
|  9> C 0.0684125952 0.2481113376 0.5912823566
| 10> C 0.6927532378 -1.1197334999 0.2512981137
| 11> C 2.0677626261 -0.834403046 -0.3848090204
| 12> C 2.1609421667 0.6885545573 -0.5034906089
| 13> C 1.2824773288 1.1835811433 0.6394863652
| 14> H -2.4680471918 -1.6021793182 -0.9789398039
| 15> H -2.1005816799 -1.614685184 0.748848661
| 16> H -3.7459768195 -1.306338467 0.1985879913
| 17> H -3.0723819108 0.8197277348 -0.8166501989
| 18> H -2.6416501969 0.8072067287 0.89165267
| 19> H -0.7299510905 0.2691632835 -1.4224460933
| 20> H -0.9041602253 1.7914589973 -0.5573988489
| 21> H -0.4225348323 0.2194723263 1.5678622591
| 22> H 0.8131171362 -1.7162309936 1.1560616133
| 23> H 0.0566241943 -1.6811251156 -0.4294663459
| 24> H 2.8641821682 -1.2040829285 0.2617865478
| 25> H 2.1756859657 -1.3208907541 -1.3532732177
| 26> H 3.1867568047 1.0470464658 -0.4299041209
| 27> H 1.7491045306 1.0231307171 -1.456126141
| 28> H 1.8082234882 1.0535246368 1.5873392859
| 29> H 1.0094026776 2.2331919245 0.5404193418
| 30> *
| 31>
| 32>                          ****END OF INPUT****

CARTESIAN COORDINATES (ANGSTROEM)
---------------------------------
  C     -2.695102   -1.134309   -0.023468
  C     -2.409028    0.361615   -0.078698
  C     -0.964961    0.705738   -0.450345
  C      0.068413    0.248111    0.591282
  C      0.692753   -1.119733    0.251298
  C      2.067763   -0.834403   -0.384809
  C      2.160942    0.688555   -0.503491
  C      1.282477    1.183581    0.639486
  H     -2.468047   -1.602179   -0.978940
  H     -2.100582   -1.614685    0.748849
  H     -3.745977   -1.306338    0.198588
  H     -3.072382    0.819728   -0.816650
  H     -2.641650    0.807207    0.891653
  H     -0.729951    0.269163   -1.422446
  H     -0.904160    1.791459   -0.557399
  H     -0.422535    0.219472    1.567862
  H      0.813117   -1.716231    1.156062
  H      0.056624   -1.681125   -0.429466
  H      2.864182   -1.204083    0.261787
  H      2.175686   -1.320891   -1.353273
  H      3.186757    1.047046   -0.429904
  H      1.749105    1.023131   -1.456126
  H      1.808223    1.053525    1.587339
  H      1.009403    2.233192    0.540419

 Total Charge           Charge          ....    0
 Multiplicity           Mult            ....    1
 Number of Electrons    NEL             ....   64
 Basis Dimension        Dim             ....  232

ORBITAL ENERGIES
----------------

  NO   OCC          E(Eh)            E(eV)
   0   2.0000     -10.024412      -272.7781
   1   2.0000     -10.021793      -272.7068
   2   2.0000     -10.017674      -272.5948
   3   2.0000     -10.017508      -272.5903
   4   2.0000     -10.017362      -272.5863
   5   2.0000     -10.016424      -272.5607
   6   2.0000     -10.016116      -272.5524
   7   2.0000     -10.012810      -272.4624
   8   2.0000      -0.805607       -21.9217
   9   2.0000      -0.747782       -20.3482
  10   2.0000      -0.682980       -18.5848
  11   2.0000      -0.670309       -18.2400
  12   2.0000      -0.628050       -17.0901
  13   2.0000      -0.551581       -15.0093
  14   2.0000      -0.527209       -14.3461
  15   2.0000      -0.508308       -13.8318
  16   2.0000      -0.451595       -12.2885
  17   2.0000      -0.439199       -11.9512
  18   2.0000      -0.414446       -11.2776
  19   2.0000      -0.406596       -11.0640
  20   2.0000      -0.376491       -10.2448
  21   2.0000      -0.371869       -10.1191
  22   2.0000      -0.355194        -9.6653
  23   2.0000      -0.327378        -8.9084
  24   2.0000      -0.314795        -8.5660
  25   2.0000      -0.304477        -8.2852
  26   2.0000      -0.301187        -8.1957
  27   2.0000      -0.299576        -8.1519
  28   2.0000      -0.289612        -7.8808
  29   2.0000      -0.278915        -7.5897
  30   2.0000      -0.272243        -7.4081
  31   2.0000      -0.266611        -7.2549
  32   0.0000       0.080231         2.1832
  33   0.0000       0.088985         2.4214
  34   0.0000       0.100363         2.7310
  35   0.0000       0.113840         3.0977
  36   0.0000       0.123833         3.3697

MULLIKEN ATOMIC CHARGES
-----------------------
   0 C :   -0.498792
   1 C :   -0.243885
   2 C :   -0.337734
   3 C :    0.031174
   4 C :   -0.421549
   5 C :   -0.322806
   6 C :   -0.287549
   7 C :   -0.359054
   8 H :    0.146236
   9 H :    0.156800
  10 H :    0.143748
  11 H :    0.140110
  12 H :    0.143312
  13 H :    0.153333
  14 H :    0.146575
  15 H :    0.162153
  16 H :    0.157965
  17 H :    0.166178
  18 H :    0.150587
  19 H :    0.153855
  20 H :    0.152480
  21 H :    0.156515
  22 H :    0.157722
  23 H :    0.152625
Sum of atomic charges:   -0.0000000

LOEWDIN ATOMIC CHARGES
----------------------
   0 C :   -0.427952
   1 C :   -0.312151
   2 C :   -0.299662
   3 C :   -0.229609
   4 C :   -0.304322
   5 C :   -0.306133
   6 C :   -0.303458
   7 C :   -0.297032
   8 H :    0.148889
   9 H :    0.152728
  10 H :    0.149229
  11 H :    0.150661
  12 H :    0.150619
  13 H :    0.156107
  14 H :    0.157641
  15 H :    0.160809
  16 H :    0.157953
  17 H :    0.160060
  18 H :    0.155744
  19 H :    0.155532
  20 H :    0.154935
  21 H :    0.155041
  22 H :    0.157285
  23 H :    0.157087

  Mayer bond orders larger than 0.100000
B(  0-C ,  1-C ) :   0.8707 B(  0-C ,  8-H ) :   0.9809 B(  0-C ,  9-H ) :   0.9790
B(  0-C , 10-H ) :   0.9679 B(  1-C ,  2-C ) :   0.8964 B(  1-C , 11-H ) :   0.9726
B(  1-C , 12-H ) :   0.9980 B(  2-C ,  3-C ) :   0.8545 B(  2-C , 13-H ) :   0.9827
B(  2-C , 14-H ) :   0.9793 B(  3-C ,  4-C ) :   0.8856 B(  3-C ,  7-C ) :   0.8783
B(  3-C , 15-H ) :   0.9558 B(  4-C ,  5-C ) :   0.9259 B(  4-C , 16-H ) :   0.9713
B(  4-C , 17-H ) :   0.9851 B(  5-C ,  6-C ) :   0.9173 B(  5-C , 18-H ) :   0.9854
B(  5-C , 19-H ) :   0.9749 B(  6-C ,  7-C ) :   0.8745 B(  6-C , 20-H ) :   0.9505
B(  6-C , 21-H ) :   0.9940 B(  7-C , 22-H ) :   0.9951 B(  7-C , 23-H ) :   0.9720

Dispersion correction           -0.007203384
FINAL SINGLE POINT ENERGY      -314.378418727280

DIPOLE MOMENT
-------------

Method             : SCF
Type of density    : Electron Density
Multiplicity       :   1
Irrep              :   0
Energy             :  -314.3815167445994234 Eh
Relativity type    :
Basis              : AO
                                X                 Y                 Z
Electronic contribution:      2.253440674       1.127743386       0.479000478
Nuclear contribution   :     -2.272406301      -1.108542779      -0.461244481
                        -----------------------------------------
Total Dipole Moment    :     -0.018965627       0.019200607       0.017755997
                        -----------------------------------------
Magnitude (a.u.)       :      0.032305321
Magnitude (Debye)      :      0.082113600

Rotational constants in cm-1:             0.130899             0.040884             0.035547
Rotational constants in MHz :          3924.253811          1225.673903          1065.662815

                             ****ORCA TERMINATED NORMALLY****
TOTAL RUN TIME: 0 days 0 hours 0 minutes 25 seconds 427 msec
