                         Program Version 6.0.0  -   RELEASE  -
|  1> ! r2scan-3c def2/J RI DEFGRID2 scfconv6 printgap
|  2> %output
|  3>     printlevel normal
|  4> end
|  5> %cpcm
|  6>     smd true
|  7>     smdsolvent "water"
|  8> end
|  9> * xyz 0 1
| 10> C -2.6951018148 -1.1343085002 -0.0234684007
| 11> C -2.4090276799 0.3616145764 -0.0786976214
| 12> C -0.9649612575 0.7057379288 -0.450344802
| 13> C 0.0684125952 0.2481113376 0.5912823566
| 14> C 0.6927532378 -1.1197334999 0.2512981137
| 15> C 2.0677626261 -0.834403046 -0.3848090204
| 16> C 2.1609421667 0.6885545573 -0.5034906089
| 17> C 1.2824773288 1.1835811433 0.6394863652
| 18> H -2.4680471918 -1.6021793182 -0.9789398039
| 19> H -2.1005816799 -1.614685184 0.748848661
| 20> H -3.7459768195 -1.306338467 0.1985879913
| 21> H -3.0723819108 0.8197277348 -0.8166501989
| 22> H -2.6416501969 0.8072067287 0.89165267
| 23> H -0.7299510905 0.2691632835 -1.4224460933
| 24> H -0.9041602253 1.7914589973 -0.5573988489
| 25> H -0.4225348323 0.2194723263 1.5678622591
| 26> H 0.8131171362 -1.7162309936 1.1560616133
| 27> H 0.0566241943 -1.6811251156 -0.4294663459
| 28> H 2.8641821682 -1.2040829285 0.2617865478
| 29> H 2.1756859657 -1.3208907541 -1.3532732177
| 30> H 3.1867568047 1.0470464658 -0.4299041209
| 31> H 1.7491045306 1.0231307171 -1.456126141
| 32> H 1.8082234882 1.0535246368 1.5873392859
| 33> H 1.0094026776 2.2331919245 0.5404193418
| 34> *
| 35>
| 36>                          ****END OF INPUT****

CARTESIAN COORDINATES (ANGSTROEM)
---------------------------------
  C     -2.695102   -1.134309   -0.023468
  C     -2.409028    0.361615   -0.078698
  C     -0.964961    0.705738   -0.450345
  C      0.068413    0.248111    0.591282
  C      0.692753   -1.119733    0.251298
  C      2.067763   -0.834403   -0.384809
  C      2.160942    0.688555   -0.503491
  C      1.282477    1.183581    0.639486
  H     -2.468047   -1.602179   -0.978940
  H     -2.100582   -1.614685    0.748849
  H     -3.745977   -1.306338    0.198588
  H     -3.072382    0.819728   -0.816650
  H     -2.641650    0.807207    0.891653
  H     -0.729951    0.269163   -1.422446
  H     -0.904160    1.791459   -0.557399
  H     -0.422535    0.219472    1.567862
  H      0.813117   -1.716231    1.156062
  H      0.056624   -1.681125   -0.429466
  H      2.864182   -1.204083    0.261787
  H      2.175686   -1.320891   -1.353273
  H      3.186757    1.047046   -0.429904
  H      1.749105    1.023131   -1.456126
  H      1.808223    1.053525    1.587339
  H      1.009403    2.233192    0.540419

 Total Charge           Charge          ....    0
 Multiplicity           Mult            ....    1
 Number of Electrons    NEL             ....   64
 Basis Dimension        Dim             ....  232

ORBITAL ENERGIES
----------------

  NO   OCC          E(Eh)            E(eV)
   0   2.0000     -10.017166      -272.5809
   1   2.0000     -10.014604      -272.5112
   2   2.0000     -10.011165      -272.4176
   3   2.0000     -10.011037      -272.4142
   4   2.0000     -10.009613      -272.3754
   5   2.0000     -10.009541      -272.3735
   6   2.0000     -10.008999      -272.3587
   7   2.0000     -10.005832      -272.2725
   8   2.0000      -0.798786       -21.7361
   9   2.0000      -0.740862       -20.1599
  10   2.0000      -0.676367       -18.4049
  11   2.0000      -0.663877       -18.0650
  12   2.0000      -0.621378       -16.9085
  13   2.0000      -0.544847       -14.8260
  14   2.0000      -0.521004       -14.1772
  15   2.0000      -0.501302       -13.6411
  16   2.0000      -0.444999       -12.1090
  17   2.0000      -0.432333       -11.7644
  18   2.0000      -0.407242       -11.0816
  19   2.0000      -0.399745       -10.8776
  20   2.0000      -0.369543       -10.0558
  21   2.0000      -0.365002        -9.9322
  22   2.0000      -0.347993        -9.4694
  23   2.0000      -0.320630        -8.7248
  24   2.0000      -0.308121        -8.3844
  25   2.0000      -0.297266        -8.0890
  26   2.0000      -0.295004        -8.0275
  27   2.0000      -0.293119        -7.9762
  28   2.0000      -0.282601        -7.6900
  29   2.0000      -0.271658        -7.3922
  30   2.0000      -0.265143        -7.2149
  31   2.0000      -0.259415        -7.0591
  32   0.0000       0.088292         2.4025
  33   0.0000       0.096822         2.6347
  34   0.0000       0.107384         2.9221
  35   0.0000       0.119468         3.2509
  36   0.0000       0.129269         3.5176

MULLIKEN ATOMIC CHARGES
-----------------------
   0 C :   -0.530031
   1 C :   -0.259566
   2 C :   -0.347578
   3 C :    0.027730
   4 C :   -0.433230
   5 C :   -0.340615
   6 C :   -0.307641
   7 C :   -0.378533
   8 H :    0.157424
   9 H :    0.162954
  10 H :    0.152863
  11 H :    0.147263
  12 H :    0.151006
  13 H :    0.162149
  14 H :    0.154326
  15 H :    0.170292
  16 H :    0.165684
  17 H :    0.172330
  18 H :    0.159320
  19 H :    0.161513
  20 H :    0.160166
  21 H :    0.164069
  22 H :    0.166194
  23 H :    0.161913
Sum of atomic charges:    0.0000000

LOEWDIN ATOMIC CHARGES
----------------------
   0 C :   -0.435443
   1 C :   -0.315035
   2 C :   -0.302243
   3 C :   -0.229096
   4 C :   -0.307400
   5 C :   -0.310682
   6 C :   -0.307938
   7 C :   -0.301666
   8 H :    0.151922
   9 H :    0.153907
  10 H :    0.150836
  11 H :    0.152154
  12 H :    0.152359
  13 H :    0.158694
  14 H :    0.159217
  15 H :    0.162869
  16 H :    0.159545
  17 H :    0.161722
  18 H :    0.157701
  19 H :    0.157150
  20 H :    0.156446
  21 H :    0.156555
  22 H :    0.159197
  23 H :    0.159227

  Mayer bond orders larger than 0.100000
B(  0-C ,  1-C ) :   0.8672 B(  0-C ,  8-H ) :   0.9772 B(  0-C ,  9-H ) :   0.9772
B(  0-C , 10-H ) :   0.9665 B(  1-C ,  2-C ) :   0.8925 B(  1-C , 11-H ) :   0.9726
B(  1-C , 12-H ) :   0.9974 B(  2-C ,  3-C ) :   0.8521 B(  2-C , 13-H ) :   0.9798
B(  2-C , 14-H ) :   0.9793 B(  3-C ,  4-C ) :   0.8858 B(  3-C ,  7-C ) :   0.8760
B(  3-C , 15-H ) :   0.9576 B(  4-C ,  5-C ) :   0.9221 B(  4-C , 16-H ) :   0.9712
B(  4-C , 17-H ) :   0.9834 B(  5-C ,  6-C ) :   0.9128 B(  5-C , 18-H ) :   0.9839
B(  5-C , 19-H ) :   0.9733 B(  6-C ,  7-C ) :   0.8747 B(  6-C , 20-H ) :   0.9493
B(  6-C , 21-H ) :   0.9930 B(  7-C , 22-H ) :   0.9934 B(  7-C , 23-H ) :   0.9699

Dispersion correction           -0.007203384
FINAL SINGLE POINT ENERGY      -314.375804388317

DIPOLE MOMENT
-------------

Method             : SCF
Type of density    : Electron Density
Multiplicity       :   1
Irrep              :   0
Energy             :  -314.3789024056356993 Eh
Relativity type    :
Basis              : AO
                                X                 Y                 Z
Electronic contribution:      2.244494102       1.131847236       0.481395617
Nuclear contribution   :     -2.272406301      -1.108542779      -0.461244481
                        -----------------------------------------
Total Dipole Moment    :     -0.027912199       0.023304456       0.020151135
                        -----------------------------------------
Magnitude (a.u.)       :      0.041572308
Magnitude (Debye)      :      0.105668410

Rotational constants in cm-1:             0.130899             0.040884             0.035547
Rotational constants in MHz :          3924.253811          1225.673903          1065.662815

                             ****ORCA TERMINATED NORMALLY****
TOTAL RUN TIME: 0 days 0 hours 0 minutes 30 seconds 875 msec
