                         Program Version 6.0.0  -   RELEASE  -
|  1> ! r2scan-3c def2/J RI DEFGRID2 scfconv6 printgap
|  2> %output
|  3>     printlevel normal
|  4> end
|  5> * xyz 0 1
|  6> C -2.9058667077 0.5592663753 -0.6226042546
|  7> C -1.8442853798 -0.5234935428 -0.4551529455
|  8> C -1.1849856312 -0.4906228044 0.9344169517
|  9> C 0.3171847066 -0.1883586193 0.9270153116
| 10> C 1.1538384674 -1.2053151114 0.116890743
| 11> C 1.968449352 -0.3846415664 -0.8901042084
| 12> C 2.0623490059 0.9980708214 -0.2506632729
| 13> C 0.6691803249 1.1876362392 0.3406818531
| 14> H -2.4745031223 1.5477918201 -0.4808602061
| 15> H -3.3422522412 0.5145724459 -1.6182424241
| 16> H -3.70290451 0.4274059252 0.1060114051
| 17> H -2.3121309497 -1.4962635777 -0.6187674584
| 18> H -1.0872027241 -0.3980949541 -1.2298742656
| 19> H -1.6782616226 0.2666236477 1.5475825696
| 20> H -1.330779067 -1.4508094991 1.4336600575
| 21> H 0.6525196701 -0.212687083 1.969293492
| 22> H 1.8222998267 -1.7516990172 0.7827173318
| 23> H 0.5199688729 -1.9355928687 -0.3834051125
| 24> H 2.9459012856 -0.8231799651 -1.0863520296
| 25> H 1.4340032814 -0.3108115272 -1.838919769
| 26> H 2.8090580341 0.9905151612 0.5452458371
| 27> H 2.326381423 1.7759096669 -0.9659941036
| 28> H 0.635049345 1.9724471543 1.0953264879
| 29> H -0.0279066671 1.4494253463 -0.4548297068
| 30> *
| 31>
| 32>                          ****END OF INPUT****

CARTESIAN COORDINATES (ANGSTROEM)
---------------------------------
  C     -2.905867    0.559266   -0.622604
  C     -1.844285   -0.523494   -0.455153
  C     -1.184986   -0.490623    0.934417
  C      0.317185   -0.188359    0.927015
  C      1.153838   -1.205315    0.116891
  C      1.968449   -0.384642   -0.890104
  C      2.062349    0.998071   -0.250663
  C      0.669180    1.187636    0.340682
  H     -2.474503    1.547792   -0.480860
  H     -3.342252    0.514572   -1.618242
  H     -3.702905    0.427406    0.106011
  H     -2.312131   -1.496264   -0.618767
  H     -1.087203   -0.398095   -1.229874
  H     -1.678262    0.266624    1.547583
  H     -1.330779   -1.450809    1.433660
  H      0.652520   -0.212687    1.969293
  H      1.822300   -1.751699    0.782717
  H      0.519969   -1.935593   -0.383405
  H      2.945901   -0.823180   -1.086352
  H      1.434003   -0.310812   -1.838920
  H      2.809058    0.990515    0.545246
  H      2.326381    1.775910   -0.965994
  H      0.635049    1.972447    1.095326
  H     -0.027907    1.449425   -0.454830

 Total Charge           Charge          ....    0
 Multiplicity           Mult            ....    1
 Number of Electrons    NEL             ....   64
 Basis Dimension        Dim             ....  232

ORBITAL ENERGIES
----------------

  NO   OCC          E(Eh)            E(eV)
   0   2.0000     -10.024599      -272.7832
   1   2.0000     -10.021098      -272.6879
   2   2.0000     -10.018328      -272.6126
   3   2.0000     -10.018194      -272.6089
   4   2.0000     -10.017627      -272.5935
   5   2.0000     -10.016102      -272.5520
   6   2.0000     -10.015704      -272.5412
   7   2.0000     -10.014078      -272.4969
   8   2.0000      -0.805103       -21.9080
   9   2.0000      -0.747312       -20.3354
  10   2.0000      -0.687559       -18.7094
  11   2.0000      -0.671276       -18.2664
  12   2.0000      -0.618379       -16.8269
  13   2.0000      -0.558959       -15.2100
  14   2.0000      -0.533923       -14.5288
  15   2.0000      -0.499733       -13.5984
  16   2.0000      -0.452863       -12.3230
  17   2.0000      -0.436652       -11.8819
  18   2.0000      -0.422546       -11.4981
  19   2.0000      -0.389966       -10.6115
  20   2.0000      -0.381582       -10.3834
  21   2.0000      -0.374603       -10.1935
  22   2.0000      -0.364183        -9.9099
  23   2.0000      -0.317489        -8.6393
  24   2.0000      -0.314779        -8.5656
  25   2.0000      -0.310721        -8.4551
  26   2.0000      -0.301750        -8.2110
  27   2.0000      -0.299652        -8.1540
  28   2.0000      -0.288948        -7.8627
  29   2.0000      -0.278126        -7.5682
  30   2.0000      -0.272680        -7.4200
  31   2.0000      -0.265608        -7.2276
  32   0.0000       0.082120         2.2346
  33   0.0000       0.093926         2.5559
  34   0.0000       0.096556         2.6274
  35   0.0000       0.103257         2.8098
  36   0.0000       0.120959         3.2915

MULLIKEN ATOMIC CHARGES
-----------------------
   0 C :   -0.493786
   1 C :   -0.259551
   2 C :   -0.339348
   3 C :    0.002247
   4 C :   -0.393474
   5 C :   -0.300404
   6 C :   -0.242125
   7 C :   -0.394385
   8 H :    0.143326
   9 H :    0.144363
  10 H :    0.148674
  11 H :    0.145154
  12 H :    0.154640
  13 H :    0.153551
  14 H :    0.152923
  15 H :    0.155579
  16 H :    0.153620
  17 H :    0.162557
  18 H :    0.148981
  19 H :    0.151327
  20 H :    0.146052
  21 H :    0.149315
  22 H :    0.153032
  23 H :    0.157733
Sum of atomic charges:   -0.0000000

LOEWDIN ATOMIC CHARGES
----------------------
   0 C :   -0.426779
   1 C :   -0.325298
   2 C :   -0.299203
   3 C :   -0.223692
   4 C :   -0.303218
   5 C :   -0.305472
   6 C :   -0.301437
   7 C :   -0.298867
   8 H :    0.148103
   9 H :    0.148839
  10 H :    0.149538
  11 H :    0.152440
  12 H :    0.154612
  13 H :    0.158898
  14 H :    0.157600
  15 H :    0.159604
  16 H :    0.157617
  17 H :    0.161057
  18 H :    0.154892
  19 H :    0.153100
  20 H :    0.155254
  21 H :    0.154892
  22 H :    0.157845
  23 H :    0.159675

  Mayer bond orders larger than 0.100000
B(  0-C ,  1-C ) :   0.8948 B(  0-C ,  8-H ) :   0.9798 B(  0-C ,  9-H ) :   0.9763
B(  0-C , 10-H ) :   0.9842 B(  1-C ,  2-C ) :   0.8010 B(  1-C , 11-H ) :   0.9621
B(  1-C , 12-H ) :   0.9940 B(  2-C ,  3-C ) :   0.8815 B(  2-C , 13-H ) :   1.0003
B(  2-C , 14-H ) :   0.9822 B(  3-C ,  4-C ) :   0.9442 B(  3-C ,  7-C ) :   0.9294
B(  3-C , 15-H ) :   0.9597 B(  4-C ,  5-C ) :   0.9198 B(  4-C , 16-H ) :   0.9684
B(  4-C , 17-H ) :   0.9818 B(  5-C ,  6-C ) :   0.9044 B(  5-C , 18-H ) :   0.9502
B(  5-C , 19-H ) :   0.9990 B(  6-C ,  7-C ) :   0.8786 B(  6-C , 20-H ) :   0.9837
B(  6-C , 21-H ) :   0.9571 B(  7-C , 22-H ) :   0.9509 B(  7-C , 23-H ) :   0.9969

Dispersion correction           -0.007227877
FINAL SINGLE POINT ENERGY      -314.377486494027

DIPOLE MOMENT
-------------

Method             : SCF
Type of density    : Electron Density
Multiplicity       :   1
Irrep              :   0
Energy             :  -314.3805697871111420 Eh
Relativity type    :
Basis              : AO
                                X                 Y                 Z
Electronic contribution:      2.649865901      -0.553211608       1.155337586
Nuclear contribution   :     -2.636950362       0.530580617      -1.123363830
                        -----------------------------------------
Total Dipole Moment    :      0.012915539      -0.022630990       0.031973756
                        -----------------------------------------
Magnitude (a.u.)       :      0.041246744
Magnitude (Debye)      :      0.104840892

Rotational constants in cm-1:             0.116471             0.041089             0.038690
Rotational constants in MHz :          3491.706611          1231.828893          1159.883996

                             ****ORCA TERMINATED NORMALLY****
TOTAL RUN TIME: 0 days 0 hours 0 minutes 23 seconds 645 msec
