                         Program Version 6.0.0  -   RELEASE  -
|  1> ! r2scan-3c def2/J RI DEFGRID2 scfconv6 printgap
|  2> %output
|  3>     printlevel normal
|  4> end
|  5> * xyz 0 1
|  6> C 3.0839069824 -0.4311004608 0.1710696407
|  7> C 1.8895760085 0.3168866218 -0.4092249671
|  8> C 0.5699858817 -0.2209432716 0.1426389106
|  9> C -0.6163304051 0.5195875622 -0.4508078843
| 10> S -2.2128695573 -0.0385983223 0.2514964733
| 11> H 3.1068298172 -0.3301397704 1.2536124844
| 12> H 4.0123838547 -0.0344835678 -0.2313955437
| 13> H 3.0268036477 -1.4891999854 -0.0733920882
| 14> H 1.8915857783 0.2187620113 -1.4969857192
| 15> H 1.9740356017 1.3794344857 -0.1715870449
| 16> H 0.5541423091 -0.1126282318 1.2294161387
| 17> H 0.4879391594 -1.2855855022 -0.0882003744
| 18> H -0.5730244096 1.5830021515 -0.2154483612
| 19> H -0.6694623617 0.3973132191 -1.5320933818
| 20> H -2.1273789175 -1.2962723391 -0.1645137909
| 21> *
| 22>
| 23>                          ****END OF INPUT****

CARTESIAN COORDINATES (ANGSTROEM)
---------------------------------
  C      3.083907   -0.431100    0.171070
  C      1.889576    0.316887   -0.409225
  C      0.569986   -0.220943    0.142639
  C     -0.616330    0.519588   -0.450808
  S     -2.212870   -0.038598    0.251496
  H      3.106830   -0.330140    1.253612
  H      4.012384   -0.034484   -0.231396
  H      3.026804   -1.489200   -0.073392
  H      1.891586    0.218762   -1.496986
  H      1.974036    1.379434   -0.171587
  H      0.554142   -0.112628    1.229416
  H      0.487939   -1.285586   -0.088200
  H     -0.573024    1.583002   -0.215448
  H     -0.669462    0.397313   -1.532093
  H     -2.127379   -1.296272   -0.164514

 Total Charge           Charge          ....    0
 Multiplicity           Mult            ....    1
 Number of Electrons    NEL             ....   50
 Basis Dimension        Dim             ....  153

ORBITAL ENERGIES
----------------

  NO   OCC          E(Eh)            E(eV)
   0   2.0000     -88.548470     -2409.5264
   1   2.0000     -10.065134      -273.8862
   2   2.0000     -10.034241      -273.0456
   3   2.0000     -10.032568      -273.0001
   4   2.0000     -10.021757      -272.7059
   5   2.0000      -7.843667      -213.4370
   6   2.0000      -5.790867      -157.5775
   7   2.0000      -5.787110      -157.4753
   8   2.0000      -5.780693      -157.3007
   9   2.0000      -0.784933       -21.3591
  10   2.0000      -0.732539       -19.9334
  11   2.0000      -0.658758       -17.9257
  12   2.0000      -0.583579       -15.8800
  13   2.0000      -0.554850       -15.0982
  14   2.0000      -0.458113       -12.4659
  15   2.0000      -0.413620       -11.2552
  16   2.0000      -0.407550       -11.0900
  17   2.0000      -0.390011       -10.6127
  18   2.0000      -0.352901        -9.6029
  19   2.0000      -0.342805        -9.3282
  20   2.0000      -0.329351        -8.9621
  21   2.0000      -0.314354        -8.5540
  22   2.0000      -0.304195        -8.2776
  23   2.0000      -0.285833        -7.7779
  24   2.0000      -0.207521        -5.6469
  25   0.0000       0.015102         0.4109
  26   0.0000       0.055999         1.5238
  27   0.0000       0.095461         2.5976
  28   0.0000       0.111731         3.0404
  29   0.0000       0.133946         3.6448

MULLIKEN ATOMIC CHARGES
-----------------------
   0 C :   -0.462630
   1 C :   -0.231157
   2 C :   -0.259829
   3 C :   -0.230772
   4 S :   -0.256793
   5 H :    0.143389
   6 H :    0.148068
   7 H :    0.141849
   8 H :    0.135453
   9 H :    0.136357
  10 H :    0.155001
  11 H :    0.134735
  12 H :    0.150173
  13 H :    0.166237
  14 H :    0.129919
Sum of atomic charges:   -0.0000000

LOEWDIN ATOMIC CHARGES
----------------------
   0 C :   -0.422519
   1 C :   -0.318049
   2 C :   -0.323442
   3 C :   -0.364151
   4 S :   -0.098576
   5 H :    0.151014
   6 H :    0.151131
   7 H :    0.150252
   8 H :    0.151479
   9 H :    0.152061
  10 H :    0.161120
  11 H :    0.154000
  12 H :    0.168804
  13 H :    0.161034
  14 H :    0.125843

  Mayer bond orders larger than 0.100000
B(  0-C ,  1-C ) :   0.8984 B(  0-C ,  5-H ) :   0.9820 B(  0-C ,  6-H ) :   0.9745
B(  0-C ,  7-H ) :   0.9831 B(  1-C ,  2-C ) :   0.9112 B(  1-C ,  8-H ) :   0.9690
B(  1-C ,  9-H ) :   0.9702 B(  2-C ,  3-C ) :   0.9117 B(  2-C , 10-H ) :   0.9717
B(  2-C , 11-H ) :   0.9716 B(  3-C ,  4-S ) :   0.9723 B(  3-C , 12-H ) :   0.9588
B(  3-C , 13-H ) :   0.9651 B(  4-S , 14-H ) :   0.9621

Dispersion correction           -0.003498656
FINAL SINGLE POINT ENERGY      -556.556279750915

DIPOLE MOMENT
-------------

Method             : SCF
Type of density    : Electron Density
Multiplicity       :   1
Irrep              :   0
Energy             :  -556.5630363590015577 Eh
Relativity type    :
Basis              : AO
                                X                 Y                 Z
Electronic contribution:    -10.344859266       0.807428828       1.100906432
Nuclear contribution   :     11.024272249      -0.908742033      -1.405565858
                        -----------------------------------------
Total Dipole Moment    :      0.679412983      -0.101313205      -0.304659426
                        -----------------------------------------
Magnitude (a.u.)       :      0.751454411
Magnitude (Debye)      :      1.910045320

Rotational constants in cm-1:             0.533502             0.044383             0.042538
Rotational constants in MHz :         15993.992720          1330.559979          1275.266065

                             ****ORCA TERMINATED NORMALLY****
TOTAL RUN TIME: 0 days 0 hours 0 minutes 13 seconds 646 msec
