                         Program Version 6.0.0  -   RELEASE  -
|  1> ! r2scan-3c def2/J RI DEFGRID2 scfconv6 printgap
|  2> %output
|  3>     printlevel normal
|  4> end
|  5> %cpcm
|  6>     smd true
|  7>     smdsolvent "water"
|  8> end
|  9> * xyz 0 1
| 10> C 3.0839069824 -0.4311004608 0.1710696407
| 11> C 1.8895760085 0.3168866218 -0.4092249671
| 12> C 0.5699858817 -0.2209432716 0.1426389106
| 13> C -0.6163304051 0.5195875622 -0.4508078843
| 14> S -2.2128695573 -0.0385983223 0.2514964733
| 15> H 3.1068298172 -0.3301397704 1.2536124844
| 16> H 4.0123838547 -0.0344835678 -0.2313955437
| 17> H 3.0268036477 -1.4891999854 -0.0733920882
| 18> H 1.8915857783 0.2187620113 -1.4969857192
| 19> H 1.9740356017 1.3794344857 -0.1715870449
| 20> H 0.5541423091 -0.1126282318 1.2294161387
| 21> H 0.4879391594 -1.2855855022 -0.0882003744
| 22> H -0.5730244096 1.5830021515 -0.2154483612
| 23> H -0.6694623617 0.3973132191 -1.5320933818
| 24> H -2.1273789175 -1.2962723391 -0.1645137909
| 25> *
| 26>
| 27>                          ****END OF INPUT****

CARTESIAN COORDINATES (ANGSTROEM)
---------------------------------
  C      3.083907   -0.431100    0.171070
  C      1.889576    0.316887   -0.409225
  C      0.569986   -0.220943    0.142639
  C     -0.616330    0.519588   -0.450808
  S     -2.212870   -0.038598    0.251496
  H      3.106830   -0.330140    1.253612
  H      4.012384   -0.034484   -0.231396
  H      3.026804   -1.489200   -0.073392
  H      1.891586    0.218762   -1.496986
  H      1.974036    1.379434   -0.171587
  H      0.554142   -0.112628    1.229416
  H      0.487939   -1.285586   -0.088200
  H     -0.573024    1.583002   -0.215448
  H     -0.669462    0.397313   -1.532093
  H     -2.127379   -1.296272   -0.164514

 Total Charge           Charge          ....    0
 Multiplicity           Mult            ....    1
 Number of Electrons    NEL             ....   50
 Basis Dimension        Dim             ....  153

ORBITAL ENERGIES
----------------

  NO   OCC          E(Eh)            E(eV)
   0   2.0000     -88.547507     -2409.5002
   1   2.0000     -10.054156      -273.5875
   2   2.0000     -10.021462      -272.6978
   3   2.0000     -10.018491      -272.6170
   4   2.0000     -10.008860      -272.3549
   5   2.0000      -7.842832      -213.4143
   6   2.0000      -5.789772      -157.5477
   7   2.0000      -5.786124      -157.4484
   8   2.0000      -5.780311      -157.2903
   9   2.0000      -0.773916       -21.0593
  10   2.0000      -0.723134       -19.6775
  11   2.0000      -0.650144       -17.6913
  12   2.0000      -0.573553       -15.6072
  13   2.0000      -0.541931       -14.7467
  14   2.0000      -0.445052       -12.1105
  15   2.0000      -0.403040       -10.9673
  16   2.0000      -0.395554       -10.7636
  17   2.0000      -0.379191       -10.3183
  18   2.0000      -0.342647        -9.3239
  19   2.0000      -0.333246        -9.0681
  20   2.0000      -0.317870        -8.6497
  21   2.0000      -0.301848        -8.2137
  22   2.0000      -0.289735        -7.8841
  23   2.0000      -0.279759        -7.6126
  24   2.0000      -0.208880        -5.6839
  25   0.0000       0.018368         0.4998
  26   0.0000       0.061893         1.6842
  27   0.0000       0.108533         2.9533
  28   0.0000       0.123551         3.3620
  29   0.0000       0.146193         3.9781

MULLIKEN ATOMIC CHARGES
-----------------------
   0 C :   -0.507133
   1 C :   -0.242894
   2 C :   -0.272887
   3 C :   -0.229365
   4 S :   -0.341221
   5 H :    0.153669
   6 H :    0.157208
   7 H :    0.153939
   8 H :    0.147489
   9 H :    0.148008
  10 H :    0.156758
  11 H :    0.152696
  12 H :    0.172158
  13 H :    0.182718
  14 H :    0.168857
Sum of atomic charges:    0.0000000

LOEWDIN ATOMIC CHARGES
----------------------
   0 C :   -0.431530
   1 C :   -0.317426
   2 C :   -0.323780
   3 C :   -0.359223
   4 S :   -0.138690
   5 H :    0.152816
   6 H :    0.153020
   7 H :    0.152804
   8 H :    0.154984
   9 H :    0.155162
  10 H :    0.160125
  11 H :    0.158844
  12 H :    0.175893
  13 H :    0.168088
  14 H :    0.138913

  Mayer bond orders larger than 0.100000
B(  0-C ,  1-C ) :   0.8861 B(  0-C ,  5-H ) :   0.9805 B(  0-C ,  6-H ) :   0.9722
B(  0-C ,  7-H ) :   0.9809 B(  1-C ,  2-C ) :   0.9135 B(  1-C ,  8-H ) :   0.9694
B(  1-C ,  9-H ) :   0.9704 B(  2-C ,  3-C ) :   0.9102 B(  2-C , 10-H ) :   0.9723
B(  2-C , 11-H ) :   0.9687 B(  3-C ,  4-S ) :   0.9519 B(  3-C , 12-H ) :   0.9525
B(  3-C , 13-H ) :   0.9587 B(  4-S , 14-H ) :   0.9555

Dispersion correction           -0.003498656
FINAL SINGLE POINT ENERGY      -556.558314268108

DIPOLE MOMENT
-------------

Method             : SCF
Type of density    : Electron Density
Multiplicity       :   1
Irrep              :   0
Energy             :  -556.5650708761943406 Eh
Relativity type    :
Basis              : AO
                                X                 Y                 Z
Electronic contribution:    -10.159051741       0.787465852       0.962087335
Nuclear contribution   :     11.024272249      -0.908742033      -1.405565858
                        -----------------------------------------
Total Dipole Moment    :      0.865220508      -0.121276181      -0.443478523
                        -----------------------------------------
Magnitude (a.u.)       :      0.979789590
Magnitude (Debye)      :      2.490427219

Rotational constants in cm-1:             0.533502             0.044383             0.042538
Rotational constants in MHz :         15993.992720          1330.559979          1275.266065

                             ****ORCA TERMINATED NORMALLY****
TOTAL RUN TIME: 0 days 0 hours 0 minutes 16 seconds 63 msec
