                         Program Version 6.0.0  -   RELEASE  -
|  1> ! pbe def2-sv(p) def2/J RI DEFGRID1 loosescf d4 GCP(DFT/SV(P)) printgap
|  2> %output
|  3>     printlevel normal
|  4> end
|  5> * xyz 0 1
|  6> C -2.1578774375 -0.051955822 -1.2478014383
|  7> C -2.1606687222 0.3446776782 0.2237922282
|  8> C -1.2165469092 -0.451651353 1.1314150577
|  9> C 0.3039548071 -0.3277744882 0.9306043005
| 10> C 0.8654003377 -1.2012892014 -0.2067764655
| 11> C 2.0873549428 -0.4379175628 -0.7091513373
| 12> C 1.6255367883 1.0148375235 -0.6513793947
| 13> C 0.8394732305 1.0966054291 0.6608242283
| 14> H -2.2971523193 -1.1256000179 -1.3565764056
| 15> H -2.9729153159 0.4504114499 -1.7654518054
| 16> H -1.228925224 0.2350845642 -1.7313272184
| 17> H -1.947330142 1.4116627722 0.3055949688
| 18> H -3.1703868529 0.1944185622 0.6161101993
| 19> H -1.437934127 -0.142887781 2.1570590503
| 20> H -1.4720551255 -1.511651527 1.0528056888
| 21> H 0.7530303113 -0.6844528943 1.8642185108
| 22> H 1.1170519805 -2.2015238285 0.145434759
| 23> H 0.1395777529 -1.3021342937 -1.0099753262
| 24> H 2.9285110693 -0.5866650323 -0.0296409183
| 25> H 2.3923193437 -0.7444903413 -1.7088940793
| 26> H 2.4541851063 1.7212837146 -0.6806550233
| 27> H 0.9709889481 1.2251658834 -1.4986513327
| 28> H 1.5038163902 1.399459477 1.4709957291
| 29> H 0.0432105181 1.8343299542 0.6015626417
| 30> *
| 31>
| 32>                          ****END OF INPUT****

CARTESIAN COORDINATES (ANGSTROEM)
---------------------------------
  C     -2.157877   -0.051956   -1.247801
  C     -2.160669    0.344678    0.223792
  C     -1.216547   -0.451651    1.131415
  C      0.303955   -0.327774    0.930604
  C      0.865400   -1.201289   -0.206776
  C      2.087355   -0.437918   -0.709151
  C      1.625537    1.014838   -0.651379
  C      0.839473    1.096605    0.660824
  H     -2.297152   -1.125600   -1.356576
  H     -2.972915    0.450411   -1.765452
  H     -1.228925    0.235085   -1.731327
  H     -1.947330    1.411663    0.305595
  H     -3.170387    0.194419    0.616110
  H     -1.437934   -0.142888    2.157059
  H     -1.472055   -1.511652    1.052806
  H      0.753030   -0.684453    1.864219
  H      1.117052   -2.201524    0.145435
  H      0.139578   -1.302134   -1.009975
  H      2.928511   -0.586665   -0.029641
  H      2.392319   -0.744490   -1.708894
  H      2.454185    1.721284   -0.680655
  H      0.970989    1.225166   -1.498651
  H      1.503816    1.399459    1.470996
  H      0.043211    1.834330    0.601563

 Total Charge           Charge          ....    0
 Multiplicity           Mult            ....    1
 Number of Electrons    NEL             ....   64
 Basis Dimension        Dim             ....  144

ORBITAL ENERGIES
----------------

  NO   OCC          E(Eh)            E(eV)
   0   2.0000      -9.883476      -268.9431
   1   2.0000      -9.880140      -268.8523
   2   2.0000      -9.877377      -268.7771
   3   2.0000      -9.875480      -268.7255
   4   2.0000      -9.874989      -268.7121
   5   2.0000      -9.872725      -268.6505
   6   2.0000      -9.871298      -268.6117
   7   2.0000      -9.870831      -268.5990
   8   2.0000      -0.756915       -20.5967
   9   2.0000      -0.701761       -19.0959
  10   2.0000      -0.644872       -17.5479
  11   2.0000      -0.629588       -17.1320
  12   2.0000      -0.586423       -15.9574
  13   2.0000      -0.522968       -14.2307
  14   2.0000      -0.502852       -13.6833
  15   2.0000      -0.469088       -12.7645
  16   2.0000      -0.436878       -11.8881
  17   2.0000      -0.422402       -11.4941
  18   2.0000      -0.393418       -10.7054
  19   2.0000      -0.387197       -10.5362
  20   2.0000      -0.365599        -9.9485
  21   2.0000      -0.357175        -9.7192
  22   2.0000      -0.348535        -9.4841
  23   2.0000      -0.314394        -8.5551
  24   2.0000      -0.306768        -8.3476
  25   2.0000      -0.298136        -8.1127
  26   2.0000      -0.289190        -7.8693
  27   2.0000      -0.288206        -7.8425
  28   2.0000      -0.275955        -7.5091
  29   2.0000      -0.266717        -7.2577
  30   2.0000      -0.261395        -7.1129
  31   2.0000      -0.253841        -6.9074
  32   0.0000       0.027003         0.7348
  33   0.0000       0.042432         1.1546
  34   0.0000       0.054665         1.4875
  35   0.0000       0.068332         1.8594
  36   0.0000       0.091752         2.4967

MULLIKEN ATOMIC CHARGES
-----------------------
   0 C :   -0.294431
   1 C :   -0.187554
   2 C :   -0.123404
   3 C :   -0.163574
   4 C :   -0.143329
   5 C :   -0.154832
   6 C :   -0.184943
   7 C :   -0.112051
   8 H :    0.101405
   9 H :    0.099079
  10 H :    0.119240
  11 H :    0.089729
  12 H :    0.083947
  13 H :    0.076274
  14 H :    0.076242
  15 H :    0.060180
  16 H :    0.079809
  17 H :    0.084066
  18 H :    0.078321
  19 H :    0.085773
  20 H :    0.084135
  21 H :    0.090200
  22 H :    0.073571
  23 H :    0.082145
Sum of atomic charges:   -0.0000000

LOEWDIN ATOMIC CHARGES
----------------------
   0 C :   -0.346698
   1 C :   -0.235309
   2 C :   -0.219065
   3 C :   -0.144994
   4 C :   -0.226542
   5 C :   -0.226793
   6 C :   -0.228423
   7 C :   -0.224829
   8 H :    0.116802
   9 H :    0.119006
  10 H :    0.115095
  11 H :    0.113577
  12 H :    0.117445
  13 H :    0.115521
  14 H :    0.114776
  15 H :    0.117263
  16 H :    0.115318
  17 H :    0.117356
  18 H :    0.114006
  19 H :    0.114862
  20 H :    0.115132
  21 H :    0.113790
  22 H :    0.117618
  23 H :    0.115087

  Mayer bond orders larger than 0.100000
B(  0-C ,  1-C ) :   1.1661 B(  0-C ,  8-H ) :   0.9475 B(  0-C ,  9-H ) :   0.9455
B(  0-C , 10-H ) :   0.9364 B(  1-C ,  2-C ) :   1.1415 B(  1-C , 11-H ) :   0.9135
B(  1-C , 12-H ) :   0.9217 B(  2-C ,  3-C ) :   1.0867 B(  2-C , 13-H ) :   0.9153
B(  2-C , 14-H ) :   0.9177 B(  3-C ,  4-C ) :   1.1288 B(  3-C ,  7-C ) :   1.1121
B(  3-C , 15-H ) :   0.8912 B(  4-C ,  5-C ) :   1.1269 B(  4-C , 16-H ) :   0.9170
B(  4-C , 17-H ) :   0.9066 B(  5-C ,  6-C ) :   1.1287 B(  5-C , 18-H ) :   0.9221
B(  5-C , 19-H ) :   0.9282 B(  6-C ,  7-C ) :   1.1608 B(  6-C , 20-H ) :   0.9238
B(  6-C , 21-H ) :   0.9124 B(  7-C , 22-H ) :   0.9117 B(  7-C , 23-H ) :   0.9137

Dispersion correction           -0.021926356
FINAL SINGLE POINT ENERGY      -313.688437461586

DIPOLE MOMENT
-------------

Method             : SCF
Type of density    : Electron Density
Multiplicity       :   1
Irrep              :   0
Energy             :  -313.7689606814495846 Eh
Relativity type    :
Basis              : AO
                                X                 Y                 Z
Electronic contribution:      2.057081160      -0.151809941       1.500101351
Nuclear contribution   :     -2.086481811       0.161749310      -1.470467893
                        -----------------------------------------
Total Dipole Moment    :     -0.029400651       0.009939369       0.029633458
                        -----------------------------------------
Magnitude (a.u.)       :      0.042910735
Magnitude (Debye)      :      0.109070421

Rotational constants in cm-1:             0.103137             0.045787             0.044224
Rotational constants in MHz :          3091.955139          1372.670817          1325.812725

                             ****ORCA TERMINATED NORMALLY****
TOTAL RUN TIME: 0 days 0 hours 0 minutes 9 seconds 930 msec
