                         Program Version 6.0.0  -   RELEASE  -
|  1> ! pbe def2-sv(p) def2/J RI DEFGRID1 loosescf d4 GCP(DFT/SV(P)) printgap
|  2> %output
|  3>     printlevel normal
|  4> end
|  5> * xyz 0 1
|  6> C -4.2703768607 -1.9512481085 -1.3474121107
|  7> C -3.2981877985 -0.7905545935 -1.1763434504
|  8> C -2.4835139097 -0.9109228513 0.1155300183
|  9> H -2.0583147556 -1.9189544178 0.1713082802
| 10> C -3.3006663195 -0.6418264298 1.3739103308
| 11> N -1.3082395 -0.0192866263 0.0683221798
| 12> C -0.0513887101 -0.6205033997 0.121359675
| 13> O 0.0717527009 -1.8312088695 0.2018594937
| 14> C 1.0677297889 0.2952151478 0.0739500184
| 15> C 0.9105525093 1.639787696 -0.0166897277
| 16> N -0.3688508927 2.1078921359 -0.0628665478
| 17> C -1.5052184527 1.3372595802 -0.0262331633
| 18> O -2.5996073268 1.8665290786 -0.0765387302
| 19> C 1.9908540237 2.6544416274 -0.0700696686
| 20> Br 2.7763405467 -0.5360476041 0.1491911715
| 21> H -5.0251415874 -1.9452975273 -0.5669195664
| 22> H -4.7725248293 -1.8708882748 -2.3074318387
| 23> H -3.7402141196 -2.900249508 -1.3131258553
| 24> H -2.6024976211 -0.7813851785 -2.0197948394
| 25> H -3.8415152066 0.1547904418 -1.1753216808
| 26> H -2.6632026347 -0.6995197808 2.2535491165
| 27> H -3.7575559682 0.3428875173 1.3278496032
| 28> H -4.0793913978 -1.3914568316 1.464423222
| 29> H -0.5271221462 3.1087408755 -0.1315450202
| 30> H 1.8985748168 3.3350503757 0.7739135586
| 31> H 1.9048027534 3.2368905448 -0.9850191175
| 32> H 2.968711672 2.1844990674 -0.0397525875
| 33> *
| 34>
| 35>                          ****END OF INPUT****

CARTESIAN COORDINATES (ANGSTROEM)
---------------------------------
  C     -4.270377   -1.951248   -1.347412
  C     -3.298188   -0.790555   -1.176343
  C     -2.483514   -0.910923    0.115530
  H     -2.058315   -1.918954    0.171308
  C     -3.300666   -0.641826    1.373910
  N     -1.308239   -0.019287    0.068322
  C     -0.051389   -0.620503    0.121360
  O      0.071753   -1.831209    0.201859
  C      1.067730    0.295215    0.073950
  C      0.910553    1.639788   -0.016690
  N     -0.368851    2.107892   -0.062867
  C     -1.505218    1.337260   -0.026233
  O     -2.599607    1.866529   -0.076539
  C      1.990854    2.654442   -0.070070
  Br     2.776341   -0.536048    0.149191
  H     -5.025142   -1.945298   -0.566920
  H     -4.772525   -1.870888   -2.307432
  H     -3.740214   -2.900250   -1.313126
  H     -2.602498   -0.781385   -2.019795
  H     -3.841515    0.154790   -1.175322
  H     -2.663203   -0.699520    2.253549
  H     -3.757556    0.342888    1.327850
  H     -4.079391   -1.391457    1.464423
  H     -0.527122    3.108741   -0.131545
  H      1.898575    3.335050    0.773914
  H      1.904803    3.236891   -0.985019
  H      2.968712    2.184499   -0.039753

 Total Charge           Charge          ....    0
 Multiplicity           Mult            ....    1
 Number of Electrons    NEL             ....  132
 Basis Dimension        Dim             ....  240

ORBITAL ENERGIES
----------------

  NO   OCC          E(Eh)            E(eV)
   0   2.0000    -480.941747    -13087.0903
   1   2.0000     -61.783463     -1681.2135
   2   2.0000     -55.714166     -1516.0595
   3   2.0000     -55.711034     -1515.9743
   4   2.0000     -55.710805     -1515.9681
   5   2.0000     -18.732541      -509.7383
   6   2.0000     -18.730054      -509.6707
   7   2.0000     -14.061109      -382.6222
   8   2.0000     -14.056793      -382.5048
   9   2.0000     -10.030180      -272.9351
  10   2.0000     -10.001730      -272.1609
  11   2.0000      -9.979343      -271.5517
  12   2.0000      -9.952407      -270.8188
  13   2.0000      -9.931138      -270.2400
  14   2.0000      -9.918250      -269.8893
  15   2.0000      -9.882466      -268.9156
  16   2.0000      -9.874129      -268.6887
  17   2.0000      -9.873594      -268.6741
  18   2.0000      -8.408822      -228.8157
  19   2.0000      -6.291285      -171.1946
  20   2.0000      -6.276340      -170.7879
  21   2.0000      -6.275798      -170.7732
  22   2.0000      -2.492301       -67.8190
  23   2.0000      -2.488649       -67.7196
  24   2.0000      -2.488289       -67.7098
  25   2.0000      -2.477043       -67.4038
  26   2.0000      -2.477018       -67.4031
  27   2.0000      -0.986170       -26.8351
  28   2.0000      -0.946813       -25.7641
  29   2.0000      -0.895862       -24.3776
  30   2.0000      -0.859225       -23.3807
  31   2.0000      -0.766663       -20.8620
  32   2.0000      -0.729086       -19.8394
  33   2.0000      -0.707729       -19.2583
  34   2.0000      -0.669079       -18.2066
  35   2.0000      -0.648510       -17.6469
  36   2.0000      -0.612505       -16.6671
  37   2.0000      -0.596910       -16.2427
  38   2.0000      -0.568087       -15.4584
  39   2.0000      -0.538440       -14.6517
  40   2.0000      -0.522544       -14.2192
  41   2.0000      -0.491403       -13.3718
  42   2.0000      -0.450649       -12.2628
  43   2.0000      -0.438441       -11.9306
  44   2.0000      -0.415356       -11.3024
  45   2.0000      -0.412377       -11.2213
  46   2.0000      -0.409107       -11.1324
  47   2.0000      -0.387883       -10.5548
  48   2.0000      -0.384275       -10.4567
  49   2.0000      -0.382508       -10.4086
  50   2.0000      -0.373552       -10.1649
  51   2.0000      -0.366019        -9.9599
  52   2.0000      -0.358830        -9.7643
  53   2.0000      -0.351911        -9.5760
  54   2.0000      -0.343755        -9.3541
  55   2.0000      -0.324467        -8.8292
  56   2.0000      -0.321182        -8.7398
  57   2.0000      -0.311946        -8.4885
  58   2.0000      -0.292995        -7.9728
  59   2.0000      -0.288761        -7.8576
  60   2.0000      -0.274018        -7.4564
  61   2.0000      -0.253256        -6.8914
  62   2.0000      -0.237505        -6.4628
  63   2.0000      -0.233762        -6.3610
  64   2.0000      -0.215387        -5.8610
  65   2.0000      -0.205977        -5.6049
  66   0.0000      -0.072854        -1.9825
  67   0.0000      -0.032417        -0.8821
  68   0.0000      -0.023543        -0.6406
  69   0.0000       0.017350         0.4721
  70   0.0000       0.043159         1.1744

MULLIKEN ATOMIC CHARGES
-----------------------
   0 C :   -0.271995
   1 C :   -0.160586
   2 C :   -0.081834
   3 H :    0.109665
   4 C :   -0.249835
   5 N :   -0.239385
   6 C :    0.183888
   7 O :   -0.174811
   8 C :   -0.197174
   9 C :    0.021106
  10 N :   -0.200938
  11 C :    0.169782
  12 O :   -0.201612
  13 C :   -0.215291
  14 Br:    0.009414
  15 H :    0.106258
  16 H :    0.106221
  17 H :    0.102350
  18 H :    0.083869
  19 H :    0.114128
  20 H :    0.103787
  21 H :    0.128760
  22 H :    0.109332
  23 H :    0.246198
  24 H :    0.132195
  25 H :    0.131212
  26 H :    0.135294
Sum of atomic charges:   -0.0000000

LOEWDIN ATOMIC CHARGES
----------------------
   0 C :   -0.339155
   1 C :   -0.235236
   2 C :   -0.077597
   3 H :    0.134323
   4 C :   -0.340652
   5 N :   -0.002243
   6 C :    0.019276
   7 O :   -0.169174
   8 C :   -0.216503
   9 C :   -0.004299
  10 N :   -0.087917
  11 C :    0.041916
  12 O :   -0.192321
  13 C :   -0.334620
  14 Br:    0.138491
  15 H :    0.117934
  16 H :    0.123327
  17 H :    0.119751
  18 H :    0.117574
  19 H :    0.126034
  20 H :    0.122985
  21 H :    0.129425
  22 H :    0.125528
  23 H :    0.254330
  24 H :    0.144449
  25 H :    0.143884
  26 H :    0.140488

  Mayer bond orders larger than 0.100000
B(  0-C ,  1-C ) :   1.1643 B(  0-C , 15-H ) :   0.9500 B(  0-C , 16-H ) :   0.9494
B(  0-C , 17-H ) :   0.9496 B(  1-C ,  2-C ) :   1.0869 B(  1-C , 18-H ) :   0.9202
B(  1-C , 19-H ) :   0.9047 B(  2-C ,  3-H ) :   0.8721 B(  2-C ,  4-C ) :   1.1167
B(  2-C ,  5-N ) :   0.9118 B(  4-C , 20-H ) :   0.9449 B(  4-C , 21-H ) :   0.9297
B(  4-C , 22-H ) :   0.9426 B(  5-N ,  6-C ) :   1.0341 B(  5-N , 11-C ) :   1.0778
B(  6-C ,  7-O ) :   2.0975 B(  6-C ,  8-C ) :   1.0335 B(  8-C ,  9-C ) :   1.6333
B(  8-C , 14-Br) :   1.0553 B(  9-C , 10-N ) :   1.1830 B(  9-C , 13-C ) :   1.1594
B( 10-N , 11-C ) :   1.0894 B( 10-N , 23-H ) :   0.8389 B( 11-C , 12-O ) :   2.0334
B( 13-C , 24-H ) :   0.9191 B( 13-C , 25-H ) :   0.9193 B( 13-C , 26-H ) :   0.9086

Dispersion correction           -0.033400038
FINAL SINGLE POINT ENERGY     -3182.942808682795

DIPOLE MOMENT
-------------

Method             : SCF
Type of density    : Electron Density
Multiplicity       :   1
Irrep              :   0
Energy             : -3183.0348880262986313 Eh
Relativity type    :
Basis              : AO
                                X                 Y                 Z
Electronic contribution:     50.867888880      -4.307994536       3.659253090
Nuclear contribution   :    -50.494520718       5.791437324      -3.773695534
                        -----------------------------------------
Total Dipole Moment    :      0.373368161       1.483442788      -0.114442444
                        -----------------------------------------
Magnitude (a.u.)       :      1.533982843
Magnitude (Debye)      :      3.899074522

Rotational constants in cm-1:             0.031338             0.010265             0.008347
Rotational constants in MHz :           939.481248           307.746740           250.228754

                             ****ORCA TERMINATED NORMALLY****
TOTAL RUN TIME: 0 days 0 hours 0 minutes 18 seconds 671 msec
