                         Program Version 6.0.0  -   RELEASE  -
|  1> ! r2scan-3c def2/J RI DEFGRID2 scfconv6 printgap
|  2> %output
|  3>     printlevel normal
|  4> end
|  5> * xyz 0 1
|  6> C 2.5479941014 -0.1685220421 0.6933321394
|  7> C 1.1278955092 -0.63369585 0.3920153589
|  8> C 0.2332934554 0.5360397666 -0.0253915267
|  9> H 0.3838661867 1.3596739046 0.6933746933
| 10> C -1.2739694555 0.1992369839 -0.0508125705
| 11> C -1.5676413443 -1.0249586199 -0.9154105922
| 12> C -1.8418046044 0.0274714991 1.355707416
| 13> O 0.6776804794 0.9553096542 -1.3073866234
| 14> H 3.1816040208 -1.0182880217 0.9334666049
| 15> H 2.5544144885 0.519235772 1.5362978776
| 16> H 2.9609101799 0.3413727439 -0.1734560017
| 17> H 1.1522362263 -1.352496425 -0.4269857635
| 18> H 0.7054651732 -1.1152778964 1.272972979
| 19> H -1.7733555338 1.063231414 -0.5088979217
| 20> H -2.636448536 -1.1090747924 -1.0962648723
| 21> H -1.057786525 -0.9370823077 -1.8720831553
| 22> H -1.2303702391 -1.933180169 -0.4232545044
| 23> H -2.9206913143 -0.0955686621 1.3050872929
| 24> H -1.6219790349 0.8983799573 1.9689644567
| 25> H -1.4235608436 -0.8506244455 1.8405226619
| 26> H 0.1946148433 1.7497570441 -1.5690667008
| 27> *
| 28>
| 29>                          ****END OF INPUT****

CARTESIAN COORDINATES (ANGSTROEM)
---------------------------------
  C      2.547994   -0.168522    0.693332
  C      1.127896   -0.633696    0.392015
  C      0.233293    0.536040   -0.025392
  H      0.383866    1.359674    0.693375
  C     -1.273969    0.199237   -0.050813
  C     -1.567641   -1.024959   -0.915411
  C     -1.841805    0.027471    1.355707
  O      0.677680    0.955310   -1.307387
  H      3.181604   -1.018288    0.933467
  H      2.554414    0.519236    1.536298
  H      2.960910    0.341373   -0.173456
  H      1.152236   -1.352496   -0.426986
  H      0.705465   -1.115278    1.272973
  H     -1.773356    1.063231   -0.508898
  H     -2.636449   -1.109075   -1.096265
  H     -1.057787   -0.937082   -1.872083
  H     -1.230370   -1.933180   -0.423255
  H     -2.920691   -0.095569    1.305087
  H     -1.621979    0.898380    1.968964
  H     -1.423561   -0.850624    1.840523
  H      0.194615    1.749757   -1.569067

 Total Charge           Charge          ....    0
 Multiplicity           Mult            ....    1
 Number of Electrons    NEL             ....   58
 Basis Dimension        Dim             ....  208

ORBITAL ENERGIES
----------------

  NO   OCC          E(Eh)            E(eV)
   0   2.0000     -18.944705      -515.5116
   1   2.0000     -10.076022      -274.1825
   2   2.0000     -10.033923      -273.0369
   3   2.0000     -10.021627      -272.7023
   4   2.0000     -10.018925      -272.6288
   5   2.0000     -10.011744      -272.4334
   6   2.0000     -10.010171      -272.3906
   7   2.0000      -0.982864       -26.7451
   8   2.0000      -0.772598       -21.0235
   9   2.0000      -0.727997       -19.8098
  10   2.0000      -0.650804       -17.7093
  11   2.0000      -0.633812       -17.2469
  12   2.0000      -0.568978       -15.4827
  13   2.0000      -0.523398       -14.2424
  14   2.0000      -0.477758       -13.0005
  15   2.0000      -0.435665       -11.8550
  16   2.0000      -0.416947       -11.3457
  17   2.0000      -0.394333       -10.7303
  18   2.0000      -0.385808       -10.4984
  19   2.0000      -0.371073       -10.0974
  20   2.0000      -0.354861        -9.6563
  21   2.0000      -0.340908        -9.2766
  22   2.0000      -0.333508        -9.0752
  23   2.0000      -0.316378        -8.6091
  24   2.0000      -0.306525        -8.3410
  25   2.0000      -0.305261        -8.3066
  26   2.0000      -0.295478        -8.0404
  27   2.0000      -0.272601        -7.4179
  28   2.0000      -0.231160        -6.2902
  29   0.0000       0.062539         1.7018
  30   0.0000       0.089557         2.4370
  31   0.0000       0.110613         3.0099
  32   0.0000       0.120949         3.2912
  33   0.0000       0.126784         3.4500

MULLIKEN ATOMIC CHARGES
-----------------------
   0 C :   -0.519432
   1 C :   -0.261676
   2 C :    0.024587
   3 H :    0.130934
   4 C :    0.004159
   5 C :   -0.524030
   6 C :   -0.520186
   7 O :   -0.437310
   8 H :    0.144811
   9 H :    0.140969
  10 H :    0.171755
  11 H :    0.156404
  12 H :    0.143381
  13 H :    0.132359
  14 H :    0.147749
  15 H :    0.175339
  16 H :    0.153733
  17 H :    0.150298
  18 H :    0.147193
  19 H :    0.153196
  20 H :    0.285767
Sum of atomic charges:   -0.0000000

LOEWDIN ATOMIC CHARGES
----------------------
   0 C :   -0.417133
   1 C :   -0.277241
   2 C :    0.059251
   3 H :    0.164948
   4 C :   -0.226835
   5 C :   -0.413092
   6 C :   -0.414771
   7 O :   -0.621949
   8 H :    0.148986
   9 H :    0.149279
  10 H :    0.162851
  11 H :    0.168353
  12 H :    0.158435
  13 H :    0.156491
  14 H :    0.152320
  15 H :    0.165619
  16 H :    0.154765
  17 H :    0.155725
  18 H :    0.153863
  19 H :    0.152826
  20 H :    0.267308

  Mayer bond orders larger than 0.100000
B(  0-C ,  1-C ) :   0.9018 B(  0-C ,  8-H ) :   0.9754 B(  0-C ,  9-H ) :   0.9843
B(  0-C , 10-H ) :   0.9815 B(  1-C ,  2-C ) :   0.9070 B(  1-C , 11-H ) :   0.9623
B(  1-C , 12-H ) :   0.9727 B(  2-C ,  3-H ) :   0.9860 B(  2-C ,  4-C ) :   0.8946
B(  2-C ,  7-O ) :   0.8695 B(  4-C ,  5-C ) :   0.8899 B(  4-C ,  6-C ) :   0.9095
B(  4-C , 13-H ) :   0.9784 B(  5-C , 14-H ) :   0.9712 B(  5-C , 15-H ) :   0.9728
B(  5-C , 16-H ) :   0.9768 B(  6-C , 17-H ) :   0.9695 B(  6-C , 18-H ) :   0.9751
B(  6-C , 19-H ) :   0.9837 B(  7-O , 20-H ) :   0.8999

Dispersion correction           -0.005660098
FINAL SINGLE POINT ENERGY      -312.203259893993

DIPOLE MOMENT
-------------

Method             : SCF
Type of density    : Electron Density
Multiplicity       :   1
Irrep              :   0
Energy             :  -312.2087616879018697 Eh
Relativity type    :
Basis              : AO
                                X                 Y                 Z
Electronic contribution:      1.001797512       2.574463334      -2.994916270
Nuclear contribution   :     -1.426346993      -2.312413539       3.246042258
                        -----------------------------------------
Total Dipole Moment    :     -0.424549480       0.262049795       0.251125988
                        -----------------------------------------
Magnitude (a.u.)       :      0.558548671
Magnitude (Debye)      :      1.419717895

Rotational constants in cm-1:             0.118322             0.057106             0.049647
Rotational constants in MHz :          3547.198437          1711.999715          1488.381610

                             ****ORCA TERMINATED NORMALLY****
TOTAL RUN TIME: 0 days 0 hours 0 minutes 28 seconds 126 msec
