                         Program Version 6.0.0  -   RELEASE  -
|  1> ! r2scan-3c def2/J RI DEFGRID2 scfconv6 printgap
|  2> %output
|  3>     printlevel normal
|  4> end
|  5> %cpcm
|  6>     smd true
|  7>     smdsolvent "water"
|  8> end
|  9> * xyz 0 1
| 10> C 2.5479941014 -0.1685220421 0.6933321394
| 11> C 1.1278955092 -0.63369585 0.3920153589
| 12> C 0.2332934554 0.5360397666 -0.0253915267
| 13> H 0.3838661867 1.3596739046 0.6933746933
| 14> C -1.2739694555 0.1992369839 -0.0508125705
| 15> C -1.5676413443 -1.0249586199 -0.9154105922
| 16> C -1.8418046044 0.0274714991 1.355707416
| 17> O 0.6776804794 0.9553096542 -1.3073866234
| 18> H 3.1816040208 -1.0182880217 0.9334666049
| 19> H 2.5544144885 0.519235772 1.5362978776
| 20> H 2.9609101799 0.3413727439 -0.1734560017
| 21> H 1.1522362263 -1.352496425 -0.4269857635
| 22> H 0.7054651732 -1.1152778964 1.272972979
| 23> H -1.7733555338 1.063231414 -0.5088979217
| 24> H -2.636448536 -1.1090747924 -1.0962648723
| 25> H -1.057786525 -0.9370823077 -1.8720831553
| 26> H -1.2303702391 -1.933180169 -0.4232545044
| 27> H -2.9206913143 -0.0955686621 1.3050872929
| 28> H -1.6219790349 0.8983799573 1.9689644567
| 29> H -1.4235608436 -0.8506244455 1.8405226619
| 30> H 0.1946148433 1.7497570441 -1.5690667008
| 31> *
| 32>
| 33>                          ****END OF INPUT****

CARTESIAN COORDINATES (ANGSTROEM)
---------------------------------
  C      2.547994   -0.168522    0.693332
  C      1.127896   -0.633696    0.392015
  C      0.233293    0.536040   -0.025392
  H      0.383866    1.359674    0.693375
  C     -1.273969    0.199237   -0.050813
  C     -1.567641   -1.024959   -0.915411
  C     -1.841805    0.027471    1.355707
  O      0.677680    0.955310   -1.307387
  H      3.181604   -1.018288    0.933467
  H      2.554414    0.519236    1.536298
  H      2.960910    0.341373   -0.173456
  H      1.152236   -1.352496   -0.426986
  H      0.705465   -1.115278    1.272973
  H     -1.773356    1.063231   -0.508898
  H     -2.636449   -1.109075   -1.096265
  H     -1.057787   -0.937082   -1.872083
  H     -1.230370   -1.933180   -0.423255
  H     -2.920691   -0.095569    1.305087
  H     -1.621979    0.898380    1.968964
  H     -1.423561   -0.850624    1.840523
  H      0.194615    1.749757   -1.569067

 Total Charge           Charge          ....    0
 Multiplicity           Mult            ....    1
 Number of Electrons    NEL             ....   58
 Basis Dimension        Dim             ....  208

ORBITAL ENERGIES
----------------

  NO   OCC          E(Eh)            E(eV)
   0   2.0000     -18.946862      -515.5703
   1   2.0000     -10.070427      -274.0302
   2   2.0000     -10.024745      -272.7872
   3   2.0000     -10.016541      -272.5639
   4   2.0000     -10.008158      -272.3358
   5   2.0000     -10.008026      -272.3322
   6   2.0000     -10.005927      -272.2751
   7   2.0000      -0.983891       -26.7730
   8   2.0000      -0.765559       -20.8319
   9   2.0000      -0.723462       -19.6864
  10   2.0000      -0.643254       -17.5038
  11   2.0000      -0.629751       -17.1364
  12   2.0000      -0.563208       -15.3257
  13   2.0000      -0.518386       -14.1060
  14   2.0000      -0.473113       -12.8741
  15   2.0000      -0.428388       -11.6570
  16   2.0000      -0.411472       -11.1967
  17   2.0000      -0.391476       -10.6526
  18   2.0000      -0.382840       -10.4176
  19   2.0000      -0.365014        -9.9325
  20   2.0000      -0.346406        -9.4262
  21   2.0000      -0.336476        -9.1560
  22   2.0000      -0.331035        -9.0079
  23   2.0000      -0.312439        -8.5019
  24   2.0000      -0.301983        -8.2174
  25   2.0000      -0.300967        -8.1897
  26   2.0000      -0.290069        -7.8932
  27   2.0000      -0.267691        -7.2842
  28   2.0000      -0.232819        -6.3353
  29   0.0000       0.079298         2.1578
  30   0.0000       0.099465         2.7066
  31   0.0000       0.116980         3.1832
  32   0.0000       0.127766         3.4767
  33   0.0000       0.137197         3.7333

MULLIKEN ATOMIC CHARGES
-----------------------
   0 C :   -0.550033
   1 C :   -0.272231
   2 C :    0.032389
   3 H :    0.145900
   4 C :    0.009091
   5 C :   -0.563293
   6 C :   -0.562974
   7 O :   -0.522295
   8 H :    0.158741
   9 H :    0.158894
  10 H :    0.161473
  11 H :    0.160544
  12 H :    0.164250
  13 H :    0.156249
  14 H :    0.162337
  15 H :    0.165879
  16 H :    0.165832
  17 H :    0.161675
  18 H :    0.159776
  19 H :    0.166810
  20 H :    0.340986
Sum of atomic charges:    0.0000000

LOEWDIN ATOMIC CHARGES
----------------------
   0 C :   -0.425817
   1 C :   -0.280795
   2 C :    0.060991
   3 H :    0.172648
   4 C :   -0.222751
   5 C :   -0.421109
   6 C :   -0.421161
   7 O :   -0.656415
   8 H :    0.152969
   9 H :    0.154428
  10 H :    0.156935
  11 H :    0.167171
  12 H :    0.166238
  13 H :    0.164724
  14 H :    0.156383
  15 H :    0.160392
  16 H :    0.157477
  17 H :    0.158340
  18 H :    0.157597
  19 H :    0.156251
  20 H :    0.285503

  Mayer bond orders larger than 0.100000
B(  0-C ,  1-C ) :   0.8912 B(  0-C ,  8-H ) :   0.9723 B(  0-C ,  9-H ) :   0.9814
B(  0-C , 10-H ) :   0.9826 B(  1-C ,  2-C ) :   0.9057 B(  1-C , 11-H ) :   0.9631
B(  1-C , 12-H ) :   0.9662 B(  2-C ,  3-H ) :   0.9788 B(  2-C ,  4-C ) :   0.9026
B(  2-C ,  7-O ) :   0.8528 B(  4-C ,  5-C ) :   0.8762 B(  4-C ,  6-C ) :   0.9021
B(  4-C , 13-H ) :   0.9780 B(  5-C , 14-H ) :   0.9686 B(  5-C , 15-H ) :   0.9750
B(  5-C , 16-H ) :   0.9754 B(  6-C , 17-H ) :   0.9677 B(  6-C , 18-H ) :   0.9722
B(  6-C , 19-H ) :   0.9798 B(  7-O , 20-H ) :   0.8740

Dispersion correction           -0.005660098
FINAL SINGLE POINT ENERGY      -312.208164287443

DIPOLE MOMENT
-------------

Method             : SCF
Type of density    : Electron Density
Multiplicity       :   1
Irrep              :   0
Energy             :  -312.2136660813514482 Eh
Relativity type    :
Basis              : AO
                                X                 Y                 Z
Electronic contribution:      0.782688940       2.698433178      -2.791662371
Nuclear contribution   :     -1.426346993      -2.312413539       3.246042258
                        -----------------------------------------
Total Dipole Moment    :     -0.643658053       0.386019639       0.454379887
                        -----------------------------------------
Magnitude (a.u.)       :      0.877364196
Magnitude (Debye)      :      2.230082559

Rotational constants in cm-1:             0.118322             0.057106             0.049647
Rotational constants in MHz :          3547.198437          1711.999715          1488.381610

                             ****ORCA TERMINATED NORMALLY****
TOTAL RUN TIME: 0 days 0 hours 0 minutes 33 seconds 307 msec
