                         Program Version 6.0.0  -   RELEASE  -
|  1> ! r2scan-3c def2/J RI DEFGRID2 scfconv6 printgap
|  2> %output
|  3>     printlevel normal
|  4> end
|  5> * xyz 0 1
|  6> C 1.5858454376 -1.1863903033 -0.6526774489
|  7> C 1.0601357673 -0.2747544128 0.455487878
|  8> C 1.2382451383 1.192118425 0.074420132
|  9> C -0.3937040901 -0.6009618203 0.8288453012
| 10> C -1.4412159102 -0.3384803527 -0.2536776124
| 11> O -1.7688738031 1.0388675266 -0.2848769868
| 12> H 2.6511243944 -1.021604427 -0.7951953948
| 13> H 1.0865322434 -0.9827523938 -1.5965146768
| 14> H 1.4303917796 -2.2317278128 -0.3961180263
| 15> H 1.6575901251 -0.4663408169 1.3552886688
| 16> H 0.6808497939 1.4244090868 -0.8284850189
| 17> H 2.2891022149 1.4126486605 -0.0994959102
| 18> H 0.8725105898 1.8384268705 0.868383849
| 19> H -0.676336852 -0.0063975195 1.699961147
| 20> H -0.4511970435 -1.655637511 1.1042284233
| 21> H -1.0715101656 -0.663692411 -1.2337119211
| 22> H -2.3406893412 -0.9233686193 -0.0155501035
| 23> H -2.4705633542 1.186204189 -0.9318202221
| 24> *
| 25>
| 26>                          ****END OF INPUT****

CARTESIAN COORDINATES (ANGSTROEM)
---------------------------------
  C      1.585845   -1.186390   -0.652677
  C      1.060136   -0.274754    0.455488
  C      1.238245    1.192118    0.074420
  C     -0.393704   -0.600962    0.828845
  C     -1.441216   -0.338480   -0.253678
  O     -1.768874    1.038868   -0.284877
  H      2.651124   -1.021604   -0.795195
  H      1.086532   -0.982752   -1.596515
  H      1.430392   -2.231728   -0.396118
  H      1.657590   -0.466341    1.355289
  H      0.680850    1.424409   -0.828485
  H      2.289102    1.412649   -0.099496
  H      0.872511    1.838427    0.868384
  H     -0.676337   -0.006398    1.699961
  H     -0.451197   -1.655638    1.104228
  H     -1.071510   -0.663692   -1.233712
  H     -2.340689   -0.923369   -0.015550
  H     -2.470563    1.186204   -0.931820

 Total Charge           Charge          ....    0
 Multiplicity           Mult            ....    1
 Number of Electrons    NEL             ....   50
 Basis Dimension        Dim             ....  179

ORBITAL ENERGIES
----------------

  NO   OCC          E(Eh)            E(eV)
   0   2.0000     -18.945973      -515.5461
   1   2.0000     -10.073704      -274.1194
   2   2.0000     -10.029018      -272.9035
   3   2.0000     -10.022049      -272.7138
   4   2.0000     -10.012129      -272.4439
   5   2.0000     -10.002760      -272.1889
   6   2.0000      -0.982413       -26.7328
   7   2.0000      -0.771614       -20.9967
   8   2.0000      -0.689602       -18.7650
   9   2.0000      -0.643192       -17.5021
  10   2.0000      -0.592000       -16.1091
  11   2.0000      -0.508418       -13.8347
  12   2.0000      -0.484901       -13.1948
  13   2.0000      -0.446410       -12.1474
  14   2.0000      -0.403672       -10.9845
  15   2.0000      -0.390970       -10.6388
  16   2.0000      -0.377375       -10.2689
  17   2.0000      -0.361300        -9.8315
  18   2.0000      -0.344760        -9.3814
  19   2.0000      -0.328692        -8.9442
  20   2.0000      -0.313428        -8.5288
  21   2.0000      -0.291424        -7.9301
  22   2.0000      -0.288218        -7.8428
  23   2.0000      -0.271770        -7.3952
  24   2.0000      -0.232412        -6.3242
  25   0.0000       0.059623         1.6224
  26   0.0000       0.091499         2.4898
  27   0.0000       0.117552         3.1987
  28   0.0000       0.123373         3.3571
  29   0.0000       0.132863         3.6154

MULLIKEN ATOMIC CHARGES
-----------------------
   0 C :   -0.508129
   1 C :   -0.044191
   2 C :   -0.481916
   3 C :   -0.257075
   4 C :   -0.171431
   5 O :   -0.413897
   6 H :    0.147117
   7 H :    0.147119
   8 H :    0.144891
   9 H :    0.146619
  10 H :    0.169376
  11 H :    0.136431
  12 H :    0.149687
  13 H :    0.154542
  14 H :    0.141700
  15 H :    0.127373
  16 H :    0.120639
  17 H :    0.291146
Sum of atomic charges:    0.0000000

LOEWDIN ATOMIC CHARGES
----------------------
   0 C :   -0.420643
   1 C :   -0.245675
   2 C :   -0.413187
   3 C :   -0.282355
   4 C :    0.004619
   5 O :   -0.633110
   6 H :    0.154113
   7 H :    0.149913
   8 H :    0.152190
   9 H :    0.154775
  10 H :    0.163129
  11 H :    0.147883
  12 H :    0.157768
  13 H :    0.171085
  14 H :    0.161768
  15 H :    0.156072
  16 H :    0.156743
  17 H :    0.264909

  Mayer bond orders larger than 0.100000
B(  0-C ,  1-C ) :   0.9203 B(  0-C ,  6-H ) :   0.9700 B(  0-C ,  7-H ) :   0.9831
B(  0-C ,  8-H ) :   0.9755 B(  1-C ,  2-C ) :   0.9204 B(  1-C ,  3-C ) :   0.9153
B(  1-C ,  9-H ) :   0.9674 B(  2-C , 10-H ) :   0.9747 B(  2-C , 11-H ) :   0.9695
B(  2-C , 12-H ) :   0.9714 B(  3-C ,  4-C ) :   0.9301 B(  3-C , 13-H ) :   0.9683
B(  3-C , 14-H ) :   0.9727 B(  4-C ,  5-O ) :   0.9113 B(  4-C , 15-H ) :   0.9820
B(  4-C , 16-H ) :   0.9542 B(  5-O , 17-H ) :   0.9006

Dispersion correction           -0.004470958
FINAL SINGLE POINT ENERGY      -272.895758460693

DIPOLE MOMENT
-------------

Method             : SCF
Type of density    : Electron Density
Multiplicity       :   1
Irrep              :   0
Energy             :  -272.9012318201997118 Eh
Relativity type    :
Basis              : AO
                                X                 Y                 Z
Electronic contribution:     -3.682311029       1.576756750       0.544187728
Nuclear contribution   :      3.405368147      -1.945187769      -0.819519277
                        -----------------------------------------
Total Dipole Moment    :     -0.276942882      -0.368431019      -0.275331548
                        -----------------------------------------
Magnitude (a.u.)       :      0.536885684
Magnitude (Debye)      :      1.364654958

Rotational constants in cm-1:             0.168024             0.079423             0.067362
Rotational constants in MHz :          5037.241434          2381.048692          2019.465172

                             ****ORCA TERMINATED NORMALLY****
TOTAL RUN TIME: 0 days 0 hours 0 minutes 24 seconds 902 msec
