                         Program Version 6.0.0  -   RELEASE  -
|  1> ! r2scan-3c def2/J RI DEFGRID2 scfconv6 printgap
|  2> %output
|  3>     printlevel normal
|  4> end
|  5> %cpcm
|  6>     smd true
|  7>     smdsolvent "water"
|  8> end
|  9> * xyz 0 1
| 10> C 1.5858454376 -1.1863903033 -0.6526774489
| 11> C 1.0601357673 -0.2747544128 0.455487878
| 12> C 1.2382451383 1.192118425 0.074420132
| 13> C -0.3937040901 -0.6009618203 0.8288453012
| 14> C -1.4412159102 -0.3384803527 -0.2536776124
| 15> O -1.7688738031 1.0388675266 -0.2848769868
| 16> H 2.6511243944 -1.021604427 -0.7951953948
| 17> H 1.0865322434 -0.9827523938 -1.5965146768
| 18> H 1.4303917796 -2.2317278128 -0.3961180263
| 19> H 1.6575901251 -0.4663408169 1.3552886688
| 20> H 0.6808497939 1.4244090868 -0.8284850189
| 21> H 2.2891022149 1.4126486605 -0.0994959102
| 22> H 0.8725105898 1.8384268705 0.868383849
| 23> H -0.676336852 -0.0063975195 1.699961147
| 24> H -0.4511970435 -1.655637511 1.1042284233
| 25> H -1.0715101656 -0.663692411 -1.2337119211
| 26> H -2.3406893412 -0.9233686193 -0.0155501035
| 27> H -2.4705633542 1.186204189 -0.9318202221
| 28> *
| 29>
| 30>                          ****END OF INPUT****

CARTESIAN COORDINATES (ANGSTROEM)
---------------------------------
  C      1.585845   -1.186390   -0.652677
  C      1.060136   -0.274754    0.455488
  C      1.238245    1.192118    0.074420
  C     -0.393704   -0.600962    0.828845
  C     -1.441216   -0.338480   -0.253678
  O     -1.768874    1.038868   -0.284877
  H      2.651124   -1.021604   -0.795195
  H      1.086532   -0.982752   -1.596515
  H      1.430392   -2.231728   -0.396118
  H      1.657590   -0.466341    1.355289
  H      0.680850    1.424409   -0.828485
  H      2.289102    1.412649   -0.099496
  H      0.872511    1.838427    0.868384
  H     -0.676337   -0.006398    1.699961
  H     -0.451197   -1.655638    1.104228
  H     -1.071510   -0.663692   -1.233712
  H     -2.340689   -0.923369   -0.015550
  H     -2.470563    1.186204   -0.931820

 Total Charge           Charge          ....    0
 Multiplicity           Mult            ....    1
 Number of Electrons    NEL             ....   50
 Basis Dimension        Dim             ....  179

ORBITAL ENERGIES
----------------

  NO   OCC          E(Eh)            E(eV)
   0   2.0000     -18.946948      -515.5727
   1   2.0000     -10.066310      -273.9182
   2   2.0000     -10.024789      -272.7884
   3   2.0000     -10.015946      -272.5478
   4   2.0000     -10.005367      -272.2599
   5   2.0000     -10.003621      -272.2124
   6   2.0000      -0.982344       -26.7309
   7   2.0000      -0.767338       -20.8803
   8   2.0000      -0.684768       -18.6335
   9   2.0000      -0.640897       -17.4397
  10   2.0000      -0.587107       -15.9760
  11   2.0000      -0.504598       -13.7308
  12   2.0000      -0.480459       -13.0740
  13   2.0000      -0.441717       -12.0197
  14   2.0000      -0.400104       -10.8874
  15   2.0000      -0.387151       -10.5349
  16   2.0000      -0.372674       -10.1410
  17   2.0000      -0.360550        -9.8111
  18   2.0000      -0.342884        -9.3304
  19   2.0000      -0.325090        -8.8461
  20   2.0000      -0.312845        -8.5129
  21   2.0000      -0.288255        -7.8438
  22   2.0000      -0.284920        -7.7531
  23   2.0000      -0.268425        -7.3042
  24   2.0000      -0.233740        -6.3604
  25   0.0000       0.075313         2.0494
  26   0.0000       0.099392         2.7046
  27   0.0000       0.126535         3.4432
  28   0.0000       0.132292         3.5998
  29   0.0000       0.137710         3.7473

MULLIKEN ATOMIC CHARGES
-----------------------
   0 C :   -0.549742
   1 C :   -0.012653
   2 C :   -0.539277
   3 C :   -0.280168
   4 C :   -0.180178
   5 O :   -0.494475
   6 H :    0.157340
   7 H :    0.161855
   8 H :    0.157902
   9 H :    0.155032
  10 H :    0.168889
  11 H :    0.152096
  12 H :    0.159148
  13 H :    0.155881
  14 H :    0.160199
  15 H :    0.145987
  16 H :    0.138297
  17 H :    0.343868
Sum of atomic charges:    0.0000000

LOEWDIN ATOMIC CHARGES
----------------------
   0 C :   -0.427630
   1 C :   -0.243547
   2 C :   -0.424667
   3 C :   -0.286355
   4 C :    0.006815
   5 O :   -0.667111
   6 H :    0.155937
   7 H :    0.154115
   8 H :    0.156287
   9 H :    0.157650
  10 H :    0.160338
  11 H :    0.152421
  12 H :    0.156528
  13 H :    0.169073
  14 H :    0.168459
  15 H :    0.164400
  16 H :    0.164383
  17 H :    0.282906

  Mayer bond orders larger than 0.100000
B(  0-C ,  1-C ) :   0.9154 B(  0-C ,  6-H ) :   0.9684 B(  0-C ,  7-H ) :   0.9792
B(  0-C ,  8-H ) :   0.9721 B(  1-C ,  2-C ) :   0.8962 B(  1-C ,  3-C ) :   0.9078
B(  1-C ,  9-H ) :   0.9684 B(  2-C , 10-H ) :   0.9755 B(  2-C , 11-H ) :   0.9669
B(  2-C , 12-H ) :   0.9749 B(  3-C ,  4-C ) :   0.9156 B(  3-C , 13-H ) :   0.9718
B(  3-C , 14-H ) :   0.9690 B(  4-C ,  5-O ) :   0.8977 B(  4-C , 15-H ) :   0.9819
B(  4-C , 16-H ) :   0.9542 B(  5-O , 17-H ) :   0.8744

Dispersion correction           -0.004470958
FINAL SINGLE POINT ENERGY      -272.901218030460

DIPOLE MOMENT
-------------

Method             : SCF
Type of density    : Electron Density
Multiplicity       :   1
Irrep              :   0
Energy             :  -272.9066913899665678 Eh
Relativity type    :
Basis              : AO
                                X                 Y                 Z
Electronic contribution:     -3.748611390       1.337774970       0.413164450
Nuclear contribution   :      3.405368147      -1.945187769      -0.819519277
                        -----------------------------------------
Total Dipole Moment    :     -0.343243244      -0.607412800      -0.406354827
                        -----------------------------------------
Magnitude (a.u.)       :      0.807397348
Magnitude (Debye)      :      2.052240966

Rotational constants in cm-1:             0.168024             0.079423             0.067362
Rotational constants in MHz :          5037.241434          2381.048692          2019.465172

                             ****ORCA TERMINATED NORMALLY****
TOTAL RUN TIME: 0 days 0 hours 0 minutes 27 seconds 847 msec
