                         Program Version 6.0.0  -   RELEASE  -
|  1> ! r2scan-3c def2/J RI DEFGRID2 scfconv6 printgap
|  2> %output
|  3>     printlevel normal
|  4> end
|  5> * xyz 0 1
|  6> C -1.0181307248 -0.4205072961 -0.3491566239
|  7> C 0.1491047977 0.3456544166 0.2827059722
|  8> C 1.4815184391 -0.1037900517 -0.3305218939
|  9> O 1.6990900814 -1.4506199019 0.020008251
| 10> O -0.0895832081 1.7198482804 0.0583681502
| 11> O -2.2384580356 -0.15610826 0.2963243557
| 12> H -0.8367842686 -1.4917900848 -0.2540930511
| 13> H -1.0797285926 -0.1509463772 -1.4120858908
| 14> H 0.1638768458 0.1235040827 1.3594767443
| 15> H 2.2878895448 0.5317028586 0.0606747164
| 16> H 1.4291321264 0.0204862392 -1.419894672
| 17> H 2.5289250767 -1.7548107191 -0.3736637037
| 18> H 0.5656852804 2.2517036162 0.5297581373
| 19> H -2.373958705 0.8032835425 0.2924379782
| 20> *
| 21>
| 22>                          ****END OF INPUT****

CARTESIAN COORDINATES (ANGSTROEM)
---------------------------------
  C     -1.018131   -0.420507   -0.349157
  C      0.149105    0.345654    0.282706
  C      1.481518   -0.103790   -0.330522
  O      1.699090   -1.450620    0.020008
  O     -0.089583    1.719848    0.058368
  O     -2.238458   -0.156108    0.296324
  H     -0.836784   -1.491790   -0.254093
  H     -1.079729   -0.150946   -1.412086
  H      0.163877    0.123504    1.359477
  H      2.287890    0.531703    0.060675
  H      1.429132    0.020486   -1.419895
  H      2.528925   -1.754811   -0.373664
  H      0.565685    2.251704    0.529758
  H     -2.373959    0.803284    0.292438

 Total Charge           Charge          ....    0
 Multiplicity           Mult            ....    1
 Number of Electrons    NEL             ....   50
 Basis Dimension        Dim             ....  169

ORBITAL ENERGIES
----------------

  NO   OCC          E(Eh)            E(eV)
   0   2.0000     -18.965144      -516.0678
   1   2.0000     -18.961828      -515.9776
   2   2.0000     -18.940730      -515.4035
   3   2.0000     -10.086038      -274.4551
   4   2.0000     -10.085913      -274.4516
   5   2.0000     -10.069332      -274.0004
   6   2.0000      -1.008887       -27.4532
   7   2.0000      -0.995988       -27.1022
   8   2.0000      -0.975294       -26.5391
   9   2.0000      -0.728734       -19.8299
  10   2.0000      -0.640600       -17.4316
  11   2.0000      -0.569651       -15.5010
  12   2.0000      -0.513684       -13.9781
  13   2.0000      -0.486672       -13.2430
  14   2.0000      -0.459183       -12.4950
  15   2.0000      -0.422776       -11.5043
  16   2.0000      -0.419423       -11.4131
  17   2.0000      -0.379649       -10.3308
  18   2.0000      -0.372356       -10.1323
  19   2.0000      -0.329047        -8.9538
  20   2.0000      -0.322973        -8.7885
  21   2.0000      -0.289156        -7.8683
  22   2.0000      -0.253286        -6.8923
  23   2.0000      -0.248888        -6.7726
  24   2.0000      -0.230265        -6.2658
  25   0.0000       0.033398         0.9088
  26   0.0000       0.060472         1.6455
  27   0.0000       0.087677         2.3858
  28   0.0000       0.125241         3.4080
  29   0.0000       0.133475         3.6320

MULLIKEN ATOMIC CHARGES
-----------------------
   0 C :   -0.218492
   1 C :    0.065460
   2 C :   -0.136333
   3 O :   -0.437096
   4 O :   -0.439724
   5 O :   -0.421186
   6 H :    0.160674
   7 H :    0.134164
   8 H :    0.138977
   9 H :    0.113580
  10 H :    0.133868
  11 H :    0.299415
  12 H :    0.294821
  13 H :    0.311872
Sum of atomic charges:    0.0000000

LOEWDIN ATOMIC CHARGES
----------------------
   0 C :    0.033275
   1 C :    0.084154
   2 C :    0.026786
   3 O :   -0.623530
   4 O :   -0.600143
   5 O :   -0.594977
   6 H :    0.193797
   7 H :    0.165276
   8 H :    0.176566
   9 H :    0.157365
  10 H :    0.164707
  11 H :    0.270589
  12 H :    0.272314
  13 H :    0.273820

  Mayer bond orders larger than 0.100000
B(  0-C ,  1-C ) :   0.9547 B(  0-C ,  5-O ) :   0.9794 B(  0-C ,  6-H ) :   0.9600
B(  0-C ,  7-H ) :   0.9757 B(  1-C ,  2-C ) :   0.9446 B(  1-C ,  4-O ) :   0.8855
B(  1-C ,  8-H ) :   0.9474 B(  2-C ,  3-O ) :   0.9356 B(  2-C ,  9-H ) :   0.9568
B(  2-C , 10-H ) :   0.9625 B(  3-O , 11-H ) :   0.8968 B(  4-O , 12-H ) :   0.8965
B(  5-O , 13-H ) :   0.8790

Dispersion correction           -0.002978951
FINAL SINGLE POINT ENERGY      -344.723240041981

DIPOLE MOMENT
-------------

Method             : SCF
Type of density    : Electron Density
Multiplicity       :   1
Irrep              :   0
Energy             :  -344.7306058742103119 Eh
Relativity type    :
Basis              : AO
                                X                 Y                 Z
Electronic contribution:     -1.247474885       0.196024766       0.927576809
Nuclear contribution   :      2.509689752       0.314216644      -1.136557838
                        -----------------------------------------
Total Dipole Moment    :      1.262214868       0.510241410      -0.208981029
                        -----------------------------------------
Magnitude (a.u.)       :      1.377390917
Magnitude (Debye)      :      3.501049479

Rotational constants in cm-1:             0.176827             0.080013             0.059178
Rotational constants in MHz :          5301.139821          2398.736532          1774.112808

                             ****ORCA TERMINATED NORMALLY****
TOTAL RUN TIME: 0 days 0 hours 0 minutes 20 seconds 415 msec
