                         Program Version 6.0.0  -   RELEASE  -
|  1> ! r2scan-3c def2/J RI DEFGRID2 scfconv6 printgap
|  2> %output
|  3>     printlevel normal
|  4> end
|  5> %cpcm
|  6>     smd true
|  7>     smdsolvent "water"
|  8> end
|  9> * xyz 0 1
| 10> C -1.0181307248 -0.4205072961 -0.3491566239
| 11> C 0.1491047977 0.3456544166 0.2827059722
| 12> C 1.4815184391 -0.1037900517 -0.3305218939
| 13> O 1.6990900814 -1.4506199019 0.020008251
| 14> O -0.0895832081 1.7198482804 0.0583681502
| 15> O -2.2384580356 -0.15610826 0.2963243557
| 16> H -0.8367842686 -1.4917900848 -0.2540930511
| 17> H -1.0797285926 -0.1509463772 -1.4120858908
| 18> H 0.1638768458 0.1235040827 1.3594767443
| 19> H 2.2878895448 0.5317028586 0.0606747164
| 20> H 1.4291321264 0.0204862392 -1.419894672
| 21> H 2.5289250767 -1.7548107191 -0.3736637037
| 22> H 0.5656852804 2.2517036162 0.5297581373
| 23> H -2.373958705 0.8032835425 0.2924379782
| 24> *
| 25>
| 26>                          ****END OF INPUT****

CARTESIAN COORDINATES (ANGSTROEM)
---------------------------------
  C     -1.018131   -0.420507   -0.349157
  C      0.149105    0.345654    0.282706
  C      1.481518   -0.103790   -0.330522
  O      1.699090   -1.450620    0.020008
  O     -0.089583    1.719848    0.058368
  O     -2.238458   -0.156108    0.296324
  H     -0.836784   -1.491790   -0.254093
  H     -1.079729   -0.150946   -1.412086
  H      0.163877    0.123504    1.359477
  H      2.287890    0.531703    0.060675
  H      1.429132    0.020486   -1.419895
  H      2.528925   -1.754811   -0.373664
  H      0.565685    2.251704    0.529758
  H     -2.373959    0.803284    0.292438

 Total Charge           Charge          ....    0
 Multiplicity           Mult            ....    1
 Number of Electrons    NEL             ....   50
 Basis Dimension        Dim             ....  169

ORBITAL ENERGIES
----------------

  NO   OCC          E(Eh)            E(eV)
   0   2.0000     -18.959054      -515.9021
   1   2.0000     -18.955229      -515.7980
   2   2.0000     -18.953829      -515.7599
   3   2.0000     -10.080695      -274.3097
   4   2.0000     -10.072878      -274.0969
   5   2.0000     -10.070850      -274.0418
   6   2.0000      -1.005411       -27.3586
   7   2.0000      -0.990385       -26.9497
   8   2.0000      -0.982121       -26.7249
   9   2.0000      -0.723483       -19.6870
  10   2.0000      -0.636272       -17.3138
  11   2.0000      -0.566016       -15.4021
  12   2.0000      -0.506204       -13.7745
  13   2.0000      -0.481773       -13.1097
  14   2.0000      -0.455753       -12.4017
  15   2.0000      -0.418865       -11.3979
  16   2.0000      -0.417272       -11.3545
  17   2.0000      -0.382400       -10.4056
  18   2.0000      -0.370831       -10.0908
  19   2.0000      -0.327591        -8.9142
  20   2.0000      -0.325056        -8.8452
  21   2.0000      -0.295377        -8.0376
  22   2.0000      -0.250270        -6.8102
  23   2.0000      -0.245111        -6.6698
  24   2.0000      -0.239540        -6.5182
  25   0.0000       0.050331         1.3696
  26   0.0000       0.087335         2.3765
  27   0.0000       0.094158         2.5622
  28   0.0000       0.135342         3.6828
  29   0.0000       0.145120         3.9489

MULLIKEN ATOMIC CHARGES
-----------------------
   0 C :   -0.215501
   1 C :    0.068500
   2 C :   -0.159177
   3 O :   -0.513090
   4 O :   -0.502693
   5 O :   -0.497436
   6 H :    0.164470
   7 H :    0.152528
   8 H :    0.150890
   9 H :    0.147316
  10 H :    0.148736
  11 H :    0.351457
  12 H :    0.349438
  13 H :    0.354563
Sum of atomic charges:   -0.0000000

LOEWDIN ATOMIC CHARGES
----------------------
   0 C :    0.027329
   1 C :    0.084647
   2 C :    0.032546
   3 O :   -0.652751
   4 O :   -0.617595
   5 O :   -0.632704
   6 H :    0.193724
   7 H :    0.173326
   8 H :    0.179480
   9 H :    0.171766
  10 H :    0.171343
  11 H :    0.289379
  12 H :    0.291996
  13 H :    0.287513

  Mayer bond orders larger than 0.100000
B(  0-C ,  1-C ) :   0.9521 B(  0-C ,  5-O ) :   0.9566 B(  0-C ,  6-H ) :   0.9602
B(  0-C ,  7-H ) :   0.9661 B(  1-C ,  2-C ) :   0.9420 B(  1-C ,  4-O ) :   0.8817
B(  1-C ,  8-H ) :   0.9449 B(  2-C ,  3-O ) :   0.9254 B(  2-C ,  9-H ) :   0.9570
B(  2-C , 10-H ) :   0.9607 B(  3-O , 11-H ) :   0.8699 B(  4-O , 12-H ) :   0.8693
B(  5-O , 13-H ) :   0.8570

Dispersion correction           -0.002978951
FINAL SINGLE POINT ENERGY      -344.744294731507

DIPOLE MOMENT
-------------

Method             : SCF
Type of density    : Electron Density
Multiplicity       :   1
Irrep              :   0
Energy             :  -344.7516605637363796 Eh
Relativity type    :
Basis              : AO
                                X                 Y                 Z
Electronic contribution:     -0.789216200       0.440769873       0.832503595
Nuclear contribution   :      2.509689752       0.314216644      -1.136557838
                        -----------------------------------------
Total Dipole Moment    :      1.720473552       0.754986517      -0.304054243
                        -----------------------------------------
Magnitude (a.u.)       :      1.903282130
Magnitude (Debye)      :      4.837758713

Rotational constants in cm-1:             0.176827             0.080013             0.059178
Rotational constants in MHz :          5301.139821          2398.736532          1774.112808

                             ****ORCA TERMINATED NORMALLY****
TOTAL RUN TIME: 0 days 0 hours 0 minutes 23 seconds 476 msec
