                         Program Version 6.0.0  -   RELEASE  -
|  1> ! pbe def2-sv(p) def2/J RI DEFGRID1 loosescf d4 GCP(DFT/SV(P)) printgap
|  2> %output
|  3>     printlevel normal
|  4> end
|  5> * xyz 0 1
|  6> C -2.7444817102 -0.1235186416 0.6393978467
|  7> C -1.7064063701 0.7130181908 -0.1009143237
|  8> C -0.4129334678 -0.0390173917 -0.287347535
|  9> O -0.3203393913 -1.2354174386 -0.4621582979
| 10> O 0.6304983393 0.783737683 -0.2642396286
| 11> C 1.9448643264 0.2290106226 -0.4436028727
| 12> C 2.5196241181 -0.2558296516 0.8785774119
| 13> H -2.4255270762 -0.3091121163 1.6617459168
| 14> H -3.6984651899 0.3939914773 0.657863357
| 15> H -2.8687602651 -1.0824169024 0.1425687496
| 16> H -1.4920560155 1.6464898774 0.4179980365
| 17> H -2.0742099355 0.9552741826 -1.1009550592
| 18> H 1.8810960117 -0.5949367916 -1.1606943889
| 19> H 2.5340309656 1.0479289878 -0.8571087941
| 20> H 1.9194161414 -1.0758760706 1.2665056702
| 21> H 3.5349575249 -0.6053269662 0.7230583415
| 22> H 2.5248515354 0.5535281713 1.6035746178
| 23> *
| 24>
| 25>                          ****END OF INPUT****

CARTESIAN COORDINATES (ANGSTROEM)
---------------------------------
  C     -2.744482   -0.123519    0.639398
  C     -1.706406    0.713018   -0.100914
  C     -0.412933   -0.039017   -0.287348
  O     -0.320339   -1.235417   -0.462158
  O      0.630498    0.783738   -0.264240
  C      1.944864    0.229011   -0.443603
  C      2.519624   -0.255830    0.878577
  H     -2.425527   -0.309112    1.661746
  H     -3.698465    0.393991    0.657863
  H     -2.868760   -1.082417    0.142569
  H     -1.492056    1.646490    0.417998
  H     -2.074210    0.955274   -1.100955
  H      1.881096   -0.594937   -1.160694
  H      2.534031    1.047929   -0.857109
  H      1.919416   -1.075876    1.266506
  H      3.534958   -0.605327    0.723058
  H      2.524852    0.553528    1.603575

 Total Charge           Charge          ....    0
 Multiplicity           Mult            ....    1
 Number of Electrons    NEL             ....   56
 Basis Dimension        Dim             ....  118

ORBITAL ENERGIES
----------------

  NO   OCC          E(Eh)            E(eV)
   0   2.0000     -18.796717      -511.4847
   1   2.0000     -18.732246      -509.7303
   2   2.0000     -10.005174      -272.2546
   3   2.0000      -9.946023      -270.6450
   4   2.0000      -9.899139      -269.3693
   5   2.0000      -9.886431      -269.0235
   6   2.0000      -9.879824      -268.8437
   7   2.0000      -1.003374       -27.3032
   8   2.0000      -0.909214       -24.7410
   9   2.0000      -0.718167       -19.5423
  10   2.0000      -0.686337       -18.6762
  11   2.0000      -0.608391       -16.5552
  12   2.0000      -0.558647       -15.2016
  13   2.0000      -0.492433       -13.3998
  14   2.0000      -0.451214       -12.2782
  15   2.0000      -0.431466       -11.7408
  16   2.0000      -0.423635       -11.5277
  17   2.0000      -0.392604       -10.6833
  18   2.0000      -0.385916       -10.5013
  19   2.0000      -0.361096        -9.8259
  20   2.0000      -0.349545        -9.5116
  21   2.0000      -0.339947        -9.2504
  22   2.0000      -0.322790        -8.7836
  23   2.0000      -0.316684        -8.6174
  24   2.0000      -0.305104        -8.3023
  25   2.0000      -0.288941        -7.8625
  26   2.0000      -0.255773        -6.9599
  27   2.0000      -0.218903        -5.9567
  28   0.0000      -0.019341        -0.5263
  29   0.0000       0.042222         1.1489
  30   0.0000       0.060005         1.6328
  31   0.0000       0.079565         2.1651
  32   0.0000       0.089285         2.4296

MULLIKEN ATOMIC CHARGES
-----------------------
   0 C :   -0.282425
   1 C :   -0.172347
   2 C :    0.106636
   3 O :   -0.210139
   4 O :   -0.237360
   5 C :   -0.013142
   6 C :   -0.303707
   7 H :    0.106920
   8 H :    0.104373
   9 H :    0.122115
  10 H :    0.102701
  11 H :    0.118565
  12 H :    0.106585
  13 H :    0.100937
  14 H :    0.126580
  15 H :    0.111586
  16 H :    0.112123
Sum of atomic charges:   -0.0000000

LOEWDIN ATOMIC CHARGES
----------------------
   0 C :   -0.336205
   1 C :   -0.256966
   2 C :    0.038078
   3 O :   -0.171048
   4 O :   -0.069527
   5 C :   -0.113166
   6 C :   -0.356199
   7 H :    0.121961
   8 H :    0.120921
   9 H :    0.127995
  10 H :    0.130436
  11 H :    0.144431
  12 H :    0.118697
  13 H :    0.116600
  14 H :    0.130278
  15 H :    0.129870
  16 H :    0.123845

  Mayer bond orders larger than 0.100000
B(  0-C ,  1-C ) :   1.1475 B(  0-C ,  7-H ) :   0.9605 B(  0-C ,  8-H ) :   0.9515
B(  0-C ,  9-H ) :   0.9460 B(  1-C ,  2-C ) :   1.0209 B(  1-C , 10-H ) :   0.9154
B(  1-C , 11-H ) :   0.8939 B(  2-C ,  3-O ) :   2.0393 B(  2-C ,  4-O ) :   1.2190
B(  4-O ,  5-C ) :   0.9229 B(  5-C ,  6-C ) :   1.1726 B(  5-C , 12-H ) :   0.9141
B(  5-C , 13-H ) :   0.9375 B(  6-C , 14-H ) :   0.9465 B(  6-C , 15-H ) :   0.9446
B(  6-C , 16-H ) :   0.9492

Dispersion correction           -0.011925589
FINAL SINGLE POINT ENERGY      -346.245684726988

DIPOLE MOMENT
-------------

Method             : SCF
Type of density    : Electron Density
Multiplicity       :   1
Irrep              :   0
Energy             :  -346.3104846700583721 Eh
Relativity type    :
Basis              : AO
                                X                 Y                 Z
Electronic contribution:      0.432051094      -0.260315933      -3.037473150
Nuclear contribution   :     -0.149886059       0.865370877       3.136365145
                        -----------------------------------------
Total Dipole Moment    :      0.282165034       0.605054944       0.098891995
                        -----------------------------------------
Magnitude (a.u.)       :      0.674898672
Magnitude (Debye)      :      1.715456096

Rotational constants in cm-1:             0.200681             0.047081             0.044942
Rotational constants in MHz :          6016.264099          1411.463880          1347.326401

                             ****ORCA TERMINATED NORMALLY****
TOTAL RUN TIME: 0 days 0 hours 0 minutes 9 seconds 228 msec
