                         Program Version 6.0.0  -   RELEASE  -
|  1> ! pbe def2-sv(p) def2/J RI DEFGRID1 loosescf d4 GCP(DFT/SV(P)) printgap
|  2> %output
|  3>     printlevel normal
|  4> end
|  5> * xyz 0 1
|  6> C -2.5436724771 0.6159115592 0.6544825742
|  7> C -1.7421632367 0.3545153528 -0.6228443098
|  8> C -0.4299050901 -0.308257786 -0.2899977302
|  9> O -0.1496571499 -1.459533492 -0.5541863697
| 10> O 0.3822497233 0.5175398343 0.3556004278
| 11> C 1.6755598026 0.0372266835 0.756708959
| 12> C 2.703111149 0.257354173 -0.3429989747
| 13> H -3.4834257415 1.0988006587 0.4041310895
| 14> H -2.757719399 -0.3194552894 1.1660312665
| 15> H -1.9817625197 1.2612226639 1.3242075205
| 16> H -1.5315866381 1.3008269418 -1.120992249
| 17> H -2.2944045597 -0.3016550094 -1.2947245232
| 18> H 1.9205855912 0.613849384 1.6492772724
| 19> H 1.5935099683 -1.0262587411 1.0008405088
| 20> H 2.7379549547 1.3082401344 -0.6171189156
| 21> H 3.6806478583 -0.0543297849 0.0099976012
| 22> H 2.4408402095 -0.3294904996 -1.2205871225
| 23> *
| 24>
| 25>                          ****END OF INPUT****

CARTESIAN COORDINATES (ANGSTROEM)
---------------------------------
  C     -2.543672    0.615912    0.654483
  C     -1.742163    0.354515   -0.622844
  C     -0.429905   -0.308258   -0.289998
  O     -0.149657   -1.459533   -0.554186
  O      0.382250    0.517540    0.355600
  C      1.675560    0.037227    0.756709
  C      2.703111    0.257354   -0.342999
  H     -3.483426    1.098801    0.404131
  H     -2.757719   -0.319455    1.166031
  H     -1.981763    1.261223    1.324208
  H     -1.531587    1.300827   -1.120992
  H     -2.294405   -0.301655   -1.294725
  H      1.920586    0.613849    1.649277
  H      1.593510   -1.026259    1.000841
  H      2.737955    1.308240   -0.617119
  H      3.680648   -0.054330    0.009998
  H      2.440840   -0.329490   -1.220587

 Total Charge           Charge          ....    0
 Multiplicity           Mult            ....    1
 Number of Electrons    NEL             ....   56
 Basis Dimension        Dim             ....  118

ORBITAL ENERGIES
----------------

  NO   OCC          E(Eh)            E(eV)
   0   2.0000     -18.797045      -511.4936
   1   2.0000     -18.729872      -509.6657
   2   2.0000     -10.004069      -272.2246
   3   2.0000      -9.946317      -270.6530
   4   2.0000      -9.898408      -269.3494
   5   2.0000      -9.886874      -269.0355
   6   2.0000      -9.886774      -269.0328
   7   2.0000      -1.003938       -27.3185
   8   2.0000      -0.907058       -24.6823
   9   2.0000      -0.721920       -19.6444
  10   2.0000      -0.685614       -18.6565
  11   2.0000      -0.605473       -16.4758
  12   2.0000      -0.564759       -15.3679
  13   2.0000      -0.497148       -13.5281
  14   2.0000      -0.452677       -12.3180
  15   2.0000      -0.426133       -11.5957
  16   2.0000      -0.416942       -11.3456
  17   2.0000      -0.396593       -10.7918
  18   2.0000      -0.383469       -10.4347
  19   2.0000      -0.370100       -10.0709
  20   2.0000      -0.348581        -9.4854
  21   2.0000      -0.341399        -9.2900
  22   2.0000      -0.325788        -8.8651
  23   2.0000      -0.315837        -8.5944
  24   2.0000      -0.311731        -8.4826
  25   2.0000      -0.289808        -7.8861
  26   2.0000      -0.254638        -6.9291
  27   2.0000      -0.214042        -5.8244
  28   0.0000      -0.019056        -0.5185
  29   0.0000       0.045123         1.2278
  30   0.0000       0.056346         1.5333
  31   0.0000       0.079814         2.1719
  32   0.0000       0.088216         2.4005

MULLIKEN ATOMIC CHARGES
-----------------------
   0 C :   -0.304735
   1 C :   -0.132590
   2 C :    0.097365
   3 O :   -0.209237
   4 O :   -0.244137
   5 C :   -0.012967
   6 C :   -0.302226
   7 H :    0.113763
   8 H :    0.113194
   9 H :    0.116465
  10 H :    0.104932
  11 H :    0.102816
  12 H :    0.100163
  13 H :    0.107519
  14 H :    0.112336
  15 H :    0.111771
  16 H :    0.125569
Sum of atomic charges:    0.0000000

LOEWDIN ATOMIC CHARGES
----------------------
   0 C :   -0.333333
   1 C :   -0.249332
   2 C :    0.035868
   3 O :   -0.172167
   4 O :   -0.069363
   5 C :   -0.113234
   6 C :   -0.355623
   7 H :    0.123258
   8 H :    0.123928
   9 H :    0.123038
  10 H :    0.134545
  11 H :    0.133091
  12 H :    0.116095
  13 H :    0.119175
  14 H :    0.123868
  15 H :    0.129907
  16 H :    0.130277

  Mayer bond orders larger than 0.100000
B(  0-C ,  1-C ) :   1.1373 B(  0-C ,  7-H ) :   0.9520 B(  0-C ,  8-H ) :   0.9546
B(  0-C ,  9-H ) :   0.9530 B(  1-C ,  2-C ) :   1.0305 B(  1-C , 10-H ) :   0.9039
B(  1-C , 11-H ) :   0.9146 B(  2-C ,  3-O ) :   2.0531 B(  2-C ,  4-O ) :   1.1929
B(  4-O ,  5-C ) :   0.9224 B(  5-C ,  6-C ) :   1.1745 B(  5-C , 12-H ) :   0.9367
B(  5-C , 13-H ) :   0.9119 B(  6-C , 14-H ) :   0.9494 B(  6-C , 15-H ) :   0.9446
B(  6-C , 16-H ) :   0.9469

Dispersion correction           -0.012028906
FINAL SINGLE POINT ENERGY      -346.244333889265

DIPOLE MOMENT
-------------

Method             : SCF
Type of density    : Electron Density
Multiplicity       :   1
Irrep              :   0
Energy             :  -346.3089402354681283 Eh
Relativity type    :
Basis              : AO
                                X                 Y                 Z
Electronic contribution:     -0.148806157      -2.638861761      -0.939583153
Nuclear contribution   :      0.308014795       3.318169642       1.217669850
                        -----------------------------------------
Total Dipole Moment    :      0.159208638       0.679307881       0.278086697
                        -----------------------------------------
Magnitude (a.u.)       :      0.751091738
Magnitude (Debye)      :      1.909123478

Rotational constants in cm-1:             0.184056             0.050793             0.045274
Rotational constants in MHz :          5517.846698          1522.728027          1357.276025

                             ****ORCA TERMINATED NORMALLY****
TOTAL RUN TIME: 0 days 0 hours 0 minutes 9 seconds 33 msec
