                         Program Version 6.0.0  -   RELEASE  -
|  1> ! r2scan-3c def2/J RI DEFGRID2 scfconv6 printgap
|  2> %output
|  3>     printlevel normal
|  4> end
|  5> * xyz 0 1
|  6> C -2.8973737878 -0.1412228606 0.1948704651
|  7> C -1.652692285 0.73521846 0.2169699365
|  8> C -0.4042599423 -0.0397504805 -0.1184550909
|  9> O -0.3391112177 -1.2421822991 -0.2562354603
| 10> O 0.6402409394 0.7743628079 -0.2517348355
| 11> C 1.9251292614 0.1968923092 -0.5384116786
| 12> C 2.640771001 -0.2132180588 0.7396454168
| 13> H -3.7702794574 0.4412537035 0.4725802595
| 14> H -3.0502357726 -0.5571515289 -0.7977313036
| 15> H -2.7862291169 -0.9692300349 0.8903384088
| 16> H -1.5047152982 1.170105642 1.2076453448
| 17> H -1.734550791 1.5604283476 -0.4916337228
| 18> H 1.7807474512 -0.6676962385 -1.1935342105
| 19> H 2.4684316402 0.9835555668 -1.0627633761
| 20> H 2.0854710555 -1.0032400698 1.2404760382
| 21> H 3.632002947 -0.5804416064 0.4947135211
| 22> H 2.7280395988 0.638272576 1.4091228033
| 23> *
| 24>
| 25>                          ****END OF INPUT****

CARTESIAN COORDINATES (ANGSTROEM)
---------------------------------
  C     -2.897374   -0.141223    0.194870
  C     -1.652692    0.735218    0.216970
  C     -0.404260   -0.039750   -0.118455
  O     -0.339111   -1.242182   -0.256235
  O      0.640241    0.774363   -0.251735
  C      1.925129    0.196892   -0.538412
  C      2.640771   -0.213218    0.739645
  H     -3.770279    0.441254    0.472580
  H     -3.050236   -0.557152   -0.797731
  H     -2.786229   -0.969230    0.890338
  H     -1.504715    1.170106    1.207645
  H     -1.734551    1.560428   -0.491634
  H      1.780747   -0.667696   -1.193534
  H      2.468432    0.983556   -1.062763
  H      2.085471   -1.003240    1.240476
  H      3.632003   -0.580442    0.494714
  H      2.728040    0.638273    1.409123

 Total Charge           Charge          ....    0
 Multiplicity           Mult            ....    1
 Number of Electrons    NEL             ....   56
 Basis Dimension        Dim             ....  193

ORBITAL ENERGIES
----------------

  NO   OCC          E(Eh)            E(eV)
   0   2.0000     -18.994447      -516.8652
   1   2.0000     -18.929725      -515.1040
   2   2.0000     -10.152118      -276.2532
   3   2.0000     -10.090442      -274.5749
   4   2.0000     -10.044564      -273.3265
   5   2.0000     -10.028367      -272.8857
   6   2.0000     -10.021425      -272.6968
   7   2.0000      -1.069742       -29.1092
   8   2.0000      -0.976452       -26.5706
   9   2.0000      -0.762478       -20.7481
  10   2.0000      -0.729676       -19.8555
  11   2.0000      -0.644811       -17.5462
  12   2.0000      -0.591497       -16.0955
  13   2.0000      -0.518713       -14.1149
  14   2.0000      -0.473339       -12.8802
  15   2.0000      -0.456202       -12.4139
  16   2.0000      -0.441099       -12.0029
  17   2.0000      -0.411987       -11.2107
  18   2.0000      -0.409591       -11.1455
  19   2.0000      -0.372764       -10.1434
  20   2.0000      -0.361995        -9.8504
  21   2.0000      -0.350838        -9.5468
  22   2.0000      -0.340148        -9.2559
  23   2.0000      -0.330393        -8.9904
  24   2.0000      -0.317566        -8.6414
  25   2.0000      -0.305658        -8.3174
  26   2.0000      -0.270683        -7.3657
  27   2.0000      -0.237564        -6.4644
  28   0.0000      -0.012799        -0.3483
  29   0.0000       0.076518         2.0822
  30   0.0000       0.089570         2.4373
  31   0.0000       0.112709         3.0670
  32   0.0000       0.124066         3.3760

MULLIKEN ATOMIC CHARGES
-----------------------
   0 C :   -0.459888
   1 C :   -0.254676
   2 C :    0.368263
   3 O :   -0.431068
   4 O :   -0.175637
   5 C :   -0.136370
   6 C :   -0.468268
   7 H :    0.144650
   8 H :    0.151966
   9 H :    0.157933
  10 H :    0.159597
  11 H :    0.159325
  12 H :    0.167295
  13 H :    0.147675
  14 H :    0.171050
  15 H :    0.146536
  16 H :    0.151616
Sum of atomic charges:    0.0000000

LOEWDIN ATOMIC CHARGES
----------------------
   0 C :   -0.402590
   1 C :   -0.240107
   2 C :    0.362946
   3 O :   -0.435341
   4 O :   -0.598246
   5 C :    0.026458
   6 C :   -0.390966
   7 H :    0.150233
   8 H :    0.159784
   9 H :    0.163042
  10 H :    0.179905
  11 H :    0.178939
  12 H :    0.187965
  13 H :    0.177409
  14 H :    0.164643
  15 H :    0.159037
  16 H :    0.156888

  Mayer bond orders larger than 0.100000
B(  0-C ,  1-C ) :   0.9376 B(  0-C ,  7-H ) :   0.9718 B(  0-C ,  8-H ) :   0.9754
B(  0-C ,  9-H ) :   0.9713 B(  1-C ,  2-C ) :   0.9957 B(  1-C , 10-H ) :   0.9307
B(  1-C , 11-H ) :   0.9499 B(  2-C ,  3-O ) :   1.8462 B(  2-C ,  4-O ) :   1.0752
B(  4-O ,  5-C ) :   0.8159 B(  5-C ,  6-C ) :   0.9372 B(  5-C , 12-H ) :   0.9678
B(  5-C , 13-H ) :   0.9619 B(  6-C , 14-H ) :   0.9719 B(  6-C , 15-H ) :   0.9650
B(  6-C , 16-H ) :   0.9740

Dispersion correction           -0.003940888
FINAL SINGLE POINT ENERGY      -346.937902379832

DIPOLE MOMENT
-------------

Method             : SCF
Type of density    : Electron Density
Multiplicity       :   1
Irrep              :   0
Energy             :  -346.9443897873445053 Eh
Relativity type    :
Basis              : AO
                                X                 Y                 Z
Electronic contribution:      0.418429181      -0.271957496      -1.927400027
Nuclear contribution   :     -0.137496747       0.946107151       2.027553958
                        -----------------------------------------
Total Dipole Moment    :      0.280932434       0.674149654       0.100153932
                        -----------------------------------------
Magnitude (a.u.)       :      0.737178132
Magnitude (Debye)      :      1.873757902

Rotational constants in cm-1:             0.229097             0.045971             0.042768
Rotational constants in MHz :          6868.142912          1378.179457          1282.156931

                             ****ORCA TERMINATED NORMALLY****
TOTAL RUN TIME: 0 days 0 hours 0 minutes 21 seconds 153 msec
