                         Program Version 6.0.0  -   RELEASE  -
|  1> ! r2scan-3c def2/J RI DEFGRID2 scfconv6 printgap
|  2> %output
|  3>     printlevel normal
|  4> end
|  5> %cpcm
|  6>     smd true
|  7>     smdsolvent "water"
|  8> end
|  9> * xyz 0 1
| 10> C -2.8973737878 -0.1412228606 0.1948704651
| 11> C -1.652692285 0.73521846 0.2169699365
| 12> C -0.4042599423 -0.0397504805 -0.1184550909
| 13> O -0.3391112177 -1.2421822991 -0.2562354603
| 14> O 0.6402409394 0.7743628079 -0.2517348355
| 15> C 1.9251292614 0.1968923092 -0.5384116786
| 16> C 2.640771001 -0.2132180588 0.7396454168
| 17> H -3.7702794574 0.4412537035 0.4725802595
| 18> H -3.0502357726 -0.5571515289 -0.7977313036
| 19> H -2.7862291169 -0.9692300349 0.8903384088
| 20> H -1.5047152982 1.170105642 1.2076453448
| 21> H -1.734550791 1.5604283476 -0.4916337228
| 22> H 1.7807474512 -0.6676962385 -1.1935342105
| 23> H 2.4684316402 0.9835555668 -1.0627633761
| 24> H 2.0854710555 -1.0032400698 1.2404760382
| 25> H 3.632002947 -0.5804416064 0.4947135211
| 26> H 2.7280395988 0.638272576 1.4091228033
| 27> *
| 28>
| 29>                          ****END OF INPUT****

CARTESIAN COORDINATES (ANGSTROEM)
---------------------------------
  C     -2.897374   -0.141223    0.194870
  C     -1.652692    0.735218    0.216970
  C     -0.404260   -0.039750   -0.118455
  O     -0.339111   -1.242182   -0.256235
  O      0.640241    0.774363   -0.251735
  C      1.925129    0.196892   -0.538412
  C      2.640771   -0.213218    0.739645
  H     -3.770279    0.441254    0.472580
  H     -3.050236   -0.557152   -0.797731
  H     -2.786229   -0.969230    0.890338
  H     -1.504715    1.170106    1.207645
  H     -1.734551    1.560428   -0.491634
  H      1.780747   -0.667696   -1.193534
  H      2.468432    0.983556   -1.062763
  H      2.085471   -1.003240    1.240476
  H      3.632003   -0.580442    0.494714
  H      2.728040    0.638273    1.409123

 Total Charge           Charge          ....    0
 Multiplicity           Mult            ....    1
 Number of Electrons    NEL             ....   56
 Basis Dimension        Dim             ....  193

ORBITAL ENERGIES
----------------

  NO   OCC          E(Eh)            E(eV)
   0   2.0000     -19.000125      -517.0197
   1   2.0000     -18.944673      -515.5108
   2   2.0000     -10.162170      -276.5267
   3   2.0000     -10.082817      -274.3674
   4   2.0000     -10.038074      -273.1499
   5   2.0000     -10.017961      -272.6026
   6   2.0000     -10.016312      -272.5577
   7   2.0000      -1.077105       -29.3095
   8   2.0000      -0.989227       -26.9182
   9   2.0000      -0.758763       -20.6470
  10   2.0000      -0.723048       -19.6751
  11   2.0000      -0.640699       -17.4343
  12   2.0000      -0.586050       -15.9472
  13   2.0000      -0.517567       -14.0837
  14   2.0000      -0.473924       -12.8961
  15   2.0000      -0.460112       -12.5203
  16   2.0000      -0.445505       -12.1228
  17   2.0000      -0.413224       -11.2444
  18   2.0000      -0.404165       -10.9979
  19   2.0000      -0.369259       -10.0480
  20   2.0000      -0.356095        -9.6898
  21   2.0000      -0.350086        -9.5263
  22   2.0000      -0.335023        -9.1164
  23   2.0000      -0.326805        -8.8928
  24   2.0000      -0.314481        -8.5575
  25   2.0000      -0.303910        -8.2698
  26   2.0000      -0.276618        -7.5272
  27   2.0000      -0.253040        -6.8856
  28   0.0000      -0.020356        -0.5539
  29   0.0000       0.079468         2.1624
  30   0.0000       0.095765         2.6059
  31   0.0000       0.123136         3.3507
  32   0.0000       0.133199         3.6245

MULLIKEN ATOMIC CHARGES
-----------------------
   0 C :   -0.519151
   1 C :   -0.251730
   2 C :    0.405593
   3 O :   -0.512471
   4 O :   -0.197305
   5 C :   -0.142361
   6 C :   -0.493175
   7 H :    0.165523
   8 H :    0.164091
   9 H :    0.162279
  10 H :    0.188980
  11 H :    0.183004
  12 H :    0.170924
  13 H :    0.173136
  14 H :    0.167678
  15 H :    0.169666
  16 H :    0.165320
Sum of atomic charges:    0.0000000

LOEWDIN ATOMIC CHARGES
----------------------
   0 C :   -0.409723
   1 C :   -0.235873
   2 C :    0.374535
   3 O :   -0.493628
   4 O :   -0.602366
   5 C :    0.030833
   6 C :   -0.393884
   7 H :    0.158879
   8 H :    0.160042
   9 H :    0.161006
  10 H :    0.191863
  11 H :    0.189249
  12 H :    0.189176
  13 H :    0.188502
  14 H :    0.162104
  15 H :    0.167528
  16 H :    0.161757

  Mayer bond orders larger than 0.100000
B(  0-C ,  1-C ) :   0.9010 B(  0-C ,  7-H ) :   0.9646 B(  0-C ,  8-H ) :   0.9785
B(  0-C ,  9-H ) :   0.9744 B(  1-C ,  2-C ) :   1.0053 B(  1-C , 10-H ) :   0.9190
B(  1-C , 11-H ) :   0.9382 B(  2-C ,  3-O ) :   1.7830 B(  2-C ,  4-O ) :   1.0976
B(  4-O ,  5-C ) :   0.7978 B(  5-C ,  6-C ) :   0.9370 B(  5-C , 12-H ) :   0.9638
B(  5-C , 13-H ) :   0.9526 B(  6-C , 14-H ) :   0.9695 B(  6-C , 15-H ) :   0.9601
B(  6-C , 16-H ) :   0.9700

Dispersion correction           -0.003940888
FINAL SINGLE POINT ENERGY      -346.942920710695

DIPOLE MOMENT
-------------

Method             : SCF
Type of density    : Electron Density
Multiplicity       :   1
Irrep              :   0
Energy             :  -346.9494081182071454 Eh
Relativity type    :
Basis              : AO
                                X                 Y                 Z
Electronic contribution:      0.508086338       0.090642893      -1.894720933
Nuclear contribution   :     -0.137496747       0.946107151       2.027553958
                        -----------------------------------------
Total Dipole Moment    :      0.370589591       1.036750044       0.132833026
                        -----------------------------------------
Magnitude (a.u.)       :      1.108977868
Magnitude (Debye)      :      2.818797726

Rotational constants in cm-1:             0.229097             0.045971             0.042768
Rotational constants in MHz :          6868.142912          1378.179457          1282.156931

                             ****ORCA TERMINATED NORMALLY****
TOTAL RUN TIME: 0 days 0 hours 0 minutes 24 seconds 781 msec
