                         Program Version 6.0.0  -   RELEASE  -
|  1> ! r2scan-3c def2/J RI DEFGRID2 scfconv6 printgap
|  2> %output
|  3>     printlevel normal
|  4> end
|  5> * xyz 0 1
|  6> C -1.215416127 0.2087268848 -0.3004809785
|  7> C 0.1312321764 0.6494076268 0.2932771113
|  8> C 1.2878108016 -0.1865630826 -0.2786099755
|  9> O 1.0770420581 -1.5432910083 0.0481759028
| 10> O 0.2993847465 2.0137936293 -0.0163516459
| 11> O -1.6837556778 -0.9977291951 0.2443673087
| 12> H -1.1232135247 0.1370831137 -1.393258121
| 13> H -1.9629860366 0.9707119721 -0.0675355983
| 14> H 0.0821442349 0.4929764804 1.3812781827
| 15> H 2.2350759198 0.1690967781 0.1484006602
| 16> H 1.314052515 -0.0422724361 -1.3666151135
| 17> H 1.7917513784 -2.0788161591 -0.3232118714
| 18> H 1.0754977571 2.3630713952 0.4445313981
| 19> H -0.9604214182 -1.6455157467 0.1981127685
| 20> *
| 21>
| 22>                          ****END OF INPUT****

CARTESIAN COORDINATES (ANGSTROEM)
---------------------------------
  C     -1.215416    0.208727   -0.300481
  C      0.131232    0.649408    0.293277
  C      1.287811   -0.186563   -0.278610
  O      1.077042   -1.543291    0.048176
  O      0.299385    2.013794   -0.016352
  O     -1.683756   -0.997729    0.244367
  H     -1.123214    0.137083   -1.393258
  H     -1.962986    0.970712   -0.067536
  H      0.082144    0.492976    1.381278
  H      2.235076    0.169097    0.148401
  H      1.314053   -0.042272   -1.366615
  H      1.791751   -2.078816   -0.323212
  H      1.075498    2.363071    0.444531
  H     -0.960421   -1.645516    0.198113

 Total Charge           Charge          ....    0
 Multiplicity           Mult            ....    1
 Number of Electrons    NEL             ....   50
 Basis Dimension        Dim             ....  169

ORBITAL ENERGIES
----------------

  NO   OCC          E(Eh)            E(eV)
   0   2.0000     -18.977087      -516.3928
   1   2.0000     -18.962374      -515.9924
   2   2.0000     -18.933343      -515.2024
   3   2.0000     -10.090961      -274.5890
   4   2.0000     -10.087632      -274.4984
   5   2.0000     -10.068075      -273.9662
   6   2.0000      -1.015800       -27.6413
   7   2.0000      -0.998639       -27.1744
   8   2.0000      -0.971897       -26.4467
   9   2.0000      -0.726828       -19.7780
  10   2.0000      -0.646850       -17.6017
  11   2.0000      -0.566025       -15.4023
  12   2.0000      -0.515334       -14.0230
  13   2.0000      -0.493863       -13.4387
  14   2.0000      -0.463719       -12.6184
  15   2.0000      -0.421872       -11.4797
  16   2.0000      -0.420249       -11.4356
  17   2.0000      -0.379187       -10.3182
  18   2.0000      -0.374404       -10.1880
  19   2.0000      -0.342251        -9.3131
  20   2.0000      -0.321300        -8.7430
  21   2.0000      -0.283857        -7.7241
  22   2.0000      -0.257908        -7.0180
  23   2.0000      -0.249879        -6.7996
  24   2.0000      -0.225930        -6.1479
  25   0.0000       0.022981         0.6253
  26   0.0000       0.058234         1.5846
  27   0.0000       0.106083         2.8867
  28   0.0000       0.124048         3.3755
  29   0.0000       0.129475         3.5232

MULLIKEN ATOMIC CHARGES
-----------------------
   0 C :   -0.190577
   1 C :    0.045283
   2 C :   -0.156200
   3 O :   -0.432125
   4 O :   -0.424508
   5 O :   -0.423006
   6 H :    0.130083
   7 H :    0.148013
   8 H :    0.137537
   9 H :    0.114703
  10 H :    0.138875
  11 H :    0.303406
  12 H :    0.294967
  13 H :    0.313550
Sum of atomic charges:   -0.0000000

LOEWDIN ATOMIC CHARGES
----------------------
   0 C :    0.038617
   1 C :    0.089874
   2 C :    0.027263
   3 O :   -0.629335
   4 O :   -0.594968
   5 O :   -0.604347
   6 H :    0.161287
   7 H :    0.187205
   8 H :    0.174653
   9 H :    0.158540
  10 H :    0.167071
  11 H :    0.273747
  12 H :    0.271844
  13 H :    0.278548

  Mayer bond orders larger than 0.100000
B(  0-C ,  1-C ) :   0.9460 B(  0-C ,  5-O ) :   0.9756 B(  0-C ,  6-H ) :   0.9732
B(  0-C ,  7-H ) :   0.9663 B(  1-C ,  2-C ) :   0.9486 B(  1-C ,  4-O ) :   0.8967
B(  1-C ,  8-H ) :   0.9475 B(  2-C ,  3-O ) :   0.9399 B(  2-C ,  9-H ) :   0.9525
B(  2-C , 10-H ) :   0.9641 B(  3-O , 11-H ) :   0.8938 B(  4-O , 12-H ) :   0.8956
B(  5-O , 13-H ) :   0.8531

Dispersion correction           -0.003051299
FINAL SINGLE POINT ENERGY      -344.721767805135

DIPOLE MOMENT
-------------

Method             : SCF
Type of density    : Electron Density
Multiplicity       :   1
Irrep              :   0
Energy             :  -344.7295736301320517 Eh
Relativity type    :
Basis              : AO
                                X                 Y                 Z
Electronic contribution:     -0.744621516      -0.405051948       0.765895373
Nuclear contribution   :      2.295743832       0.335856099      -0.913711038
                        -----------------------------------------
Total Dipole Moment    :      1.551122316      -0.069195849      -0.147815665
                        -----------------------------------------
Magnitude (a.u.)       :      1.559685217
Magnitude (Debye)      :      3.964404764

Rotational constants in cm-1:             0.129773             0.112710             0.064929
Rotational constants in MHz :          3890.485741          3378.964922          1946.518772

                             ****ORCA TERMINATED NORMALLY****
TOTAL RUN TIME: 0 days 0 hours 0 minutes 20 seconds 503 msec
