                         Program Version 6.0.0  -   RELEASE  -
|  1> ! r2scan-3c def2/J RI DEFGRID2 scfconv6 printgap
|  2> %output
|  3>     printlevel normal
|  4> end
|  5> %cpcm
|  6>     smd true
|  7>     smdsolvent "water"
|  8> end
|  9> * xyz 0 1
| 10> C -1.215416127 0.2087268848 -0.3004809785
| 11> C 0.1312321764 0.6494076268 0.2932771113
| 12> C 1.2878108016 -0.1865630826 -0.2786099755
| 13> O 1.0770420581 -1.5432910083 0.0481759028
| 14> O 0.2993847465 2.0137936293 -0.0163516459
| 15> O -1.6837556778 -0.9977291951 0.2443673087
| 16> H -1.1232135247 0.1370831137 -1.393258121
| 17> H -1.9629860366 0.9707119721 -0.0675355983
| 18> H 0.0821442349 0.4929764804 1.3812781827
| 19> H 2.2350759198 0.1690967781 0.1484006602
| 20> H 1.314052515 -0.0422724361 -1.3666151135
| 21> H 1.7917513784 -2.0788161591 -0.3232118714
| 22> H 1.0754977571 2.3630713952 0.4445313981
| 23> H -0.9604214182 -1.6455157467 0.1981127685
| 24> *
| 25>
| 26>                          ****END OF INPUT****

CARTESIAN COORDINATES (ANGSTROEM)
---------------------------------
  C     -1.215416    0.208727   -0.300481
  C      0.131232    0.649408    0.293277
  C      1.287811   -0.186563   -0.278610
  O      1.077042   -1.543291    0.048176
  O      0.299385    2.013794   -0.016352
  O     -1.683756   -0.997729    0.244367
  H     -1.123214    0.137083   -1.393258
  H     -1.962986    0.970712   -0.067536
  H      0.082144    0.492976    1.381278
  H      2.235076    0.169097    0.148401
  H      1.314053   -0.042272   -1.366615
  H      1.791751   -2.078816   -0.323212
  H      1.075498    2.363071    0.444531
  H     -0.960421   -1.645516    0.198113

 Total Charge           Charge          ....    0
 Multiplicity           Mult            ....    1
 Number of Electrons    NEL             ....   50
 Basis Dimension        Dim             ....  169

ORBITAL ENERGIES
----------------

  NO   OCC          E(Eh)            E(eV)
   0   2.0000     -18.961299      -515.9632
   1   2.0000     -18.959500      -515.9142
   2   2.0000     -18.950601      -515.6721
   3   2.0000     -10.082004      -274.3453
   4   2.0000     -10.073452      -274.1126
   5   2.0000     -10.071159      -274.0502
   6   2.0000      -1.005679       -27.3659
   7   2.0000      -0.991073       -26.9685
   8   2.0000      -0.984918       -26.8010
   9   2.0000      -0.720182       -19.5971
  10   2.0000      -0.641350       -17.4520
  11   2.0000      -0.563353       -15.3296
  12   2.0000      -0.502520       -13.6743
  13   2.0000      -0.489184       -13.3114
  14   2.0000      -0.457999       -12.4628
  15   2.0000      -0.419856       -11.4249
  16   2.0000      -0.414427       -11.2771
  17   2.0000      -0.380786       -10.3617
  18   2.0000      -0.374130       -10.1806
  19   2.0000      -0.339808        -9.2466
  20   2.0000      -0.324275        -8.8240
  21   2.0000      -0.286539        -7.7971
  22   2.0000      -0.249141        -6.7795
  23   2.0000      -0.246825        -6.7165
  24   2.0000      -0.239653        -6.5213
  25   0.0000       0.041024         1.1163
  26   0.0000       0.088058         2.3962
  27   0.0000       0.108840         2.9617
  28   0.0000       0.135836         3.6963
  29   0.0000       0.143383         3.9016

MULLIKEN ATOMIC CHARGES
-----------------------
   0 C :   -0.196447
   1 C :    0.044813
   2 C :   -0.166172
   3 O :   -0.493653
   4 O :   -0.501024
   5 O :   -0.501236
   6 H :    0.150639
   7 H :    0.157066
   8 H :    0.154132
   9 H :    0.146935
  10 H :    0.149498
  11 H :    0.352871
  12 H :    0.352500
  13 H :    0.350078
Sum of atomic charges:   -0.0000000

LOEWDIN ATOMIC CHARGES
----------------------
   0 C :    0.030804
   1 C :    0.090331
   2 C :    0.033506
   3 O :   -0.643070
   4 O :   -0.620512
   5 O :   -0.643794
   6 H :    0.169901
   7 H :    0.188387
   8 H :    0.178836
   9 H :    0.171616
  10 H :    0.172152
  11 H :    0.292241
  12 H :    0.292931
  13 H :    0.286671

  Mayer bond orders larger than 0.100000
B(  0-C ,  1-C ) :   0.9341 B(  0-C ,  5-O ) :   0.9568 B(  0-C ,  6-H ) :   0.9636
B(  0-C ,  7-H ) :   0.9637 B(  1-C ,  2-C ) :   0.9410 B(  1-C ,  4-O ) :   0.8908
B(  1-C ,  8-H ) :   0.9515 B(  2-C ,  3-O ) :   0.9332 B(  2-C ,  9-H ) :   0.9539
B(  2-C , 10-H ) :   0.9612 B(  3-O , 11-H ) :   0.8672 B(  4-O , 12-H ) :   0.8667
B(  5-O , 13-H ) :   0.8331

Dispersion correction           -0.003051299
FINAL SINGLE POINT ENERGY      -344.742033801109

DIPOLE MOMENT
-------------

Method             : SCF
Type of density    : Electron Density
Multiplicity       :   1
Irrep              :   0
Energy             :  -344.7498396261063363 Eh
Relativity type    :
Basis              : AO
                                X                 Y                 Z
Electronic contribution:     -0.201362181      -0.407659387       0.701116139
Nuclear contribution   :      2.295743832       0.335856099      -0.913711038
                        -----------------------------------------
Total Dipole Moment    :      2.094381650      -0.071803288      -0.212594899
                        -----------------------------------------
Magnitude (a.u.)       :      2.106368154
Magnitude (Debye)      :      5.353962362

Rotational constants in cm-1:             0.129773             0.112710             0.064929
Rotational constants in MHz :          3890.485741          3378.964922          1946.518772

                             ****ORCA TERMINATED NORMALLY****
TOTAL RUN TIME: 0 days 0 hours 0 minutes 23 seconds 510 msec
