                         Program Version 6.0.0  -   RELEASE  -
|  1> ! r2scan-3c def2/J RI DEFGRID2 scfconv6 printgap
|  2> %output
|  3>     printlevel normal
|  4> end
|  5> * xyz 0 1
|  6> C -1.4980913073 1.0555839467 0.5942188434
|  7> C -1.1531367953 -0.3224157201 0.0340982223
|  8> C -2.3334396109 -0.8393151071 -0.7922532024
|  9> C 0.1012904802 -0.3262052784 -0.8511675847
| 10> C 1.4755051309 -0.095502245 -0.1946270949
| 11> C 1.7936375833 1.3764449226 0.066621034
| 12> C 1.6608878711 -0.9170677683 1.0793339533
| 13> H -2.4862190551 1.0353241797 1.0498262057
| 14> H -0.7890470209 1.3645420757 1.355857647
| 15> H -1.5028219721 1.7995179304 -0.1992458381
| 16> H -1.0019135278 -1.0131636129 0.8689433884
| 17> H -2.5180804103 -0.1825834314 -1.639895931
| 18> H -2.133417806 -1.839354366 -1.1705262874
| 19> H -3.2357843999 -0.8784562247 -0.1862769564
| 20> H -0.0304960591 0.4160696302 -1.6426779592
| 21> H 0.1418778408 -1.3062637992 -1.3350914403
| 22> H 2.213309526 -0.4502085594 -0.9262805373
| 23> H 1.1956294655 1.7775954181 0.8784098534
| 24> H 2.8419125938 1.4836486167 0.338544529
| 25> H 1.6104713277 1.9724255199 -0.8242578511
| 26> H 1.415734686 -1.9615247474 0.9008539067
| 27> H 2.6948599102 -0.8600116348 1.4124180993
| 28> H 1.0280235852 -0.5415234137 1.8794065945
| 29> *
| 30>
| 31>                          ****END OF INPUT****

CARTESIAN COORDINATES (ANGSTROEM)
---------------------------------
  C     -1.498091    1.055584    0.594219
  C     -1.153137   -0.322416    0.034098
  C     -2.333440   -0.839315   -0.792253
  C      0.101290   -0.326205   -0.851168
  C      1.475505   -0.095502   -0.194627
  C      1.793638    1.376445    0.066621
  C      1.660888   -0.917068    1.079334
  H     -2.486219    1.035324    1.049826
  H     -0.789047    1.364542    1.355858
  H     -1.502822    1.799518   -0.199246
  H     -1.001914   -1.013164    0.868943
  H     -2.518080   -0.182583   -1.639896
  H     -2.133418   -1.839354   -1.170526
  H     -3.235784   -0.878456   -0.186277
  H     -0.030496    0.416070   -1.642678
  H      0.141878   -1.306264   -1.335091
  H      2.213310   -0.450209   -0.926281
  H      1.195629    1.777595    0.878410
  H      2.841913    1.483649    0.338545
  H      1.610471    1.972426   -0.824258
  H      1.415735   -1.961525    0.900854
  H      2.694860   -0.860012    1.412418
  H      1.028024   -0.541523    1.879407

 Total Charge           Charge          ....    0
 Multiplicity           Mult            ....    1
 Number of Electrons    NEL             ....   58
 Basis Dimension        Dim             ....  213

ORBITAL ENERGIES
----------------

  NO   OCC          E(Eh)            E(eV)
   0   2.0000     -10.030403      -272.9412
   1   2.0000     -10.029396      -272.9137
   2   2.0000     -10.017573      -272.5920
   3   2.0000     -10.013070      -272.4695
   4   2.0000     -10.011818      -272.4354
   5   2.0000     -10.011803      -272.4350
   6   2.0000     -10.010592      -272.4020
   7   2.0000      -0.784577       -21.3494
   8   2.0000      -0.741615       -20.1804
   9   2.0000      -0.650915       -17.7123
  10   2.0000      -0.646160       -17.5829
  11   2.0000      -0.639579       -17.4038
  12   2.0000      -0.546288       -14.8653
  13   2.0000      -0.503301       -13.6955
  14   2.0000      -0.434974       -11.8362
  15   2.0000      -0.429229       -11.6799
  16   2.0000      -0.407693       -11.0939
  17   2.0000      -0.386235       -10.5100
  18   2.0000      -0.383198       -10.4274
  19   2.0000      -0.362698        -9.8695
  20   2.0000      -0.353030        -9.6064
  21   2.0000      -0.346621        -9.4320
  22   2.0000      -0.328494        -8.9388
  23   2.0000      -0.323804        -8.8112
  24   2.0000      -0.305229        -8.3057
  25   2.0000      -0.300501        -8.1770
  26   2.0000      -0.283719        -7.7204
  27   2.0000      -0.277131        -7.5411
  28   2.0000      -0.266591        -7.2543
  29   0.0000       0.074907         2.0383
  30   0.0000       0.106791         2.9059
  31   0.0000       0.117830         3.2063
  32   0.0000       0.123363         3.3569
  33   0.0000       0.131198         3.5701

MULLIKEN ATOMIC CHARGES
-----------------------
   0 C :   -0.502444
   1 C :   -0.031536
   2 C :   -0.481321
   3 C :   -0.318461
   4 C :   -0.016444
   5 C :   -0.492518
   6 C :   -0.505260
   7 H :    0.140089
   8 H :    0.141688
   9 H :    0.158071
  10 H :    0.152988
  11 H :    0.145867
  12 H :    0.143719
  13 H :    0.145778
  14 H :    0.148264
  15 H :    0.142385
  16 H :    0.145028
  17 H :    0.142226
  18 H :    0.144081
  19 H :    0.146663
  20 H :    0.151192
  21 H :    0.146609
  22 H :    0.153336
Sum of atomic charges:   -0.0000000

LOEWDIN ATOMIC CHARGES
----------------------
   0 C :   -0.416298
   1 C :   -0.244795
   2 C :   -0.418086
   3 C :   -0.300693
   4 C :   -0.244386
   5 C :   -0.417798
   6 C :   -0.418372
   7 H :    0.152349
   8 H :    0.149433
   9 H :    0.154612
  10 H :    0.156819
  11 H :    0.154121
  12 H :    0.151676
  13 H :    0.151039
  14 H :    0.159667
  15 H :    0.160178
  16 H :    0.155461
  17 H :    0.150830
  18 H :    0.151916
  19 H :    0.153020
  20 H :    0.154254
  21 H :    0.153187
  22 H :    0.151866

  Mayer bond orders larger than 0.100000
B(  0-C ,  1-C ) :   0.8872 B(  0-C ,  7-H ) :   0.9712 B(  0-C ,  8-H ) :   0.9707
B(  0-C ,  9-H ) :   0.9888 B(  1-C ,  2-C ) :   0.9074 B(  1-C ,  3-C ) :   0.8909
B(  1-C , 10-H ) :   0.9567 B(  2-C , 11-H ) :   0.9852 B(  2-C , 12-H ) :   0.9774
B(  2-C , 13-H ) :   0.9771 B(  3-C ,  4-C ) :   0.9025 B(  3-C , 14-H ) :   0.9940
B(  3-C , 15-H ) :   0.9719 B(  4-C ,  5-C ) :   0.9346 B(  4-C ,  6-C ) :   0.8812
B(  4-C , 16-H ) :   0.9744 B(  5-C , 17-H ) :   0.9760 B(  5-C , 18-H ) :   0.9727
B(  5-C , 19-H ) :   0.9785 B(  6-C , 20-H ) :   0.9773 B(  6-C , 21-H ) :   0.9702
B(  6-C , 22-H ) :   0.9791

Dispersion correction           -0.006524516
FINAL SINGLE POINT ENERGY      -276.284533983581

DIPOLE MOMENT
-------------

Method             : SCF
Type of density    : Electron Density
Multiplicity       :   1
Irrep              :   0
Energy             :  -276.2891981240575774 Eh
Relativity type    :
Basis              : AO
                                X                 Y                 Z
Electronic contribution:      0.560972220      -0.814012245      -0.724474026
Nuclear contribution   :     -0.521581467       0.765571236       0.713009656
                        -----------------------------------------
Total Dipole Moment    :      0.039390753      -0.048441009      -0.011464370
                        -----------------------------------------
Magnitude (a.u.)       :      0.063479087
Magnitude (Debye)      :      0.161351017

Rotational constants in cm-1:             0.128121             0.052061             0.047004
Rotational constants in MHz :          3840.957194          1560.741213          1409.154585

                             ****ORCA TERMINATED NORMALLY****
TOTAL RUN TIME: 0 days 0 hours 0 minutes 24 seconds 771 msec
