                         Program Version 6.0.0  -   RELEASE  -
|  1> ! r2scan-3c def2/J RI DEFGRID2 scfconv6 printgap
|  2> %output
|  3>     printlevel normal
|  4> end
|  5> %cpcm
|  6>     smd true
|  7>     smdsolvent "water"
|  8> end
|  9> * xyz 0 1
| 10> C -1.4980913073 1.0555839467 0.5942188434
| 11> C -1.1531367953 -0.3224157201 0.0340982223
| 12> C -2.3334396109 -0.8393151071 -0.7922532024
| 13> C 0.1012904802 -0.3262052784 -0.8511675847
| 14> C 1.4755051309 -0.095502245 -0.1946270949
| 15> C 1.7936375833 1.3764449226 0.066621034
| 16> C 1.6608878711 -0.9170677683 1.0793339533
| 17> H -2.4862190551 1.0353241797 1.0498262057
| 18> H -0.7890470209 1.3645420757 1.355857647
| 19> H -1.5028219721 1.7995179304 -0.1992458381
| 20> H -1.0019135278 -1.0131636129 0.8689433884
| 21> H -2.5180804103 -0.1825834314 -1.639895931
| 22> H -2.133417806 -1.839354366 -1.1705262874
| 23> H -3.2357843999 -0.8784562247 -0.1862769564
| 24> H -0.0304960591 0.4160696302 -1.6426779592
| 25> H 0.1418778408 -1.3062637992 -1.3350914403
| 26> H 2.213309526 -0.4502085594 -0.9262805373
| 27> H 1.1956294655 1.7775954181 0.8784098534
| 28> H 2.8419125938 1.4836486167 0.338544529
| 29> H 1.6104713277 1.9724255199 -0.8242578511
| 30> H 1.415734686 -1.9615247474 0.9008539067
| 31> H 2.6948599102 -0.8600116348 1.4124180993
| 32> H 1.0280235852 -0.5415234137 1.8794065945
| 33> *
| 34>
| 35>                          ****END OF INPUT****

CARTESIAN COORDINATES (ANGSTROEM)
---------------------------------
  C     -1.498091    1.055584    0.594219
  C     -1.153137   -0.322416    0.034098
  C     -2.333440   -0.839315   -0.792253
  C      0.101290   -0.326205   -0.851168
  C      1.475505   -0.095502   -0.194627
  C      1.793638    1.376445    0.066621
  C      1.660888   -0.917068    1.079334
  H     -2.486219    1.035324    1.049826
  H     -0.789047    1.364542    1.355858
  H     -1.502822    1.799518   -0.199246
  H     -1.001914   -1.013164    0.868943
  H     -2.518080   -0.182583   -1.639896
  H     -2.133418   -1.839354   -1.170526
  H     -3.235784   -0.878456   -0.186277
  H     -0.030496    0.416070   -1.642678
  H      0.141878   -1.306264   -1.335091
  H      2.213310   -0.450209   -0.926281
  H      1.195629    1.777595    0.878410
  H      2.841913    1.483649    0.338545
  H      1.610471    1.972426   -0.824258
  H      1.415735   -1.961525    0.900854
  H      2.694860   -0.860012    1.412418
  H      1.028024   -0.541523    1.879407

 Total Charge           Charge          ....    0
 Multiplicity           Mult            ....    1
 Number of Electrons    NEL             ....   58
 Basis Dimension        Dim             ....  213

ORBITAL ENERGIES
----------------

  NO   OCC          E(Eh)            E(eV)
   0   2.0000     -10.022815      -272.7347
   1   2.0000     -10.021844      -272.7082
   2   2.0000     -10.009303      -272.3670
   3   2.0000     -10.004886      -272.2468
   4   2.0000     -10.004565      -272.2380
   5   2.0000     -10.003786      -272.2169
   6   2.0000     -10.003084      -272.1977
   7   2.0000      -0.776856       -21.1393
   8   2.0000      -0.734170       -19.9778
   9   2.0000      -0.643741       -17.5171
  10   2.0000      -0.638850       -17.3840
  11   2.0000      -0.632516       -17.2116
  12   2.0000      -0.539058       -14.6685
  13   2.0000      -0.495836       -13.4924
  14   2.0000      -0.427187       -11.6244
  15   2.0000      -0.421591       -11.4721
  16   2.0000      -0.400190       -10.8897
  17   2.0000      -0.378669       -10.3041
  18   2.0000      -0.375678       -10.2227
  19   2.0000      -0.355318        -9.6687
  20   2.0000      -0.345714        -9.4074
  21   2.0000      -0.339361        -9.2345
  22   2.0000      -0.320769        -8.7286
  23   2.0000      -0.315976        -8.5981
  24   2.0000      -0.297830        -8.1044
  25   2.0000      -0.293098        -7.9756
  26   2.0000      -0.275810        -7.5052
  27   2.0000      -0.269578        -7.3356
  28   2.0000      -0.258790        -7.0420
  29   0.0000       0.083562         2.2738
  30   0.0000       0.114365         3.1120
  31   0.0000       0.126050         3.4300
  32   0.0000       0.129305         3.5186
  33   0.0000       0.137227         3.7341

MULLIKEN ATOMIC CHARGES
-----------------------
   0 C :   -0.553669
   1 C :   -0.005139
   2 C :   -0.527950
   3 C :   -0.338934
   4 C :    0.000396
   5 C :   -0.541843
   6 C :   -0.545711
   7 H :    0.150414
   8 H :    0.158601
   9 H :    0.167978
  10 H :    0.157852
  11 H :    0.156214
  12 H :    0.155371
  13 H :    0.157113
  14 H :    0.157592
  15 H :    0.150484
  16 H :    0.150908
  17 H :    0.156234
  18 H :    0.154350
  19 H :    0.157613
  20 H :    0.160342
  21 H :    0.156751
  22 H :    0.165036
Sum of atomic charges:   -0.0000000

LOEWDIN ATOMIC CHARGES
----------------------
   0 C :   -0.425466
   1 C :   -0.242468
   2 C :   -0.427529
   3 C :   -0.303766
   4 C :   -0.242540
   5 C :   -0.427390
   6 C :   -0.426458
   7 H :    0.154192
   8 H :    0.153581
   9 H :    0.156363
  10 H :    0.158412
  11 H :    0.155923
  12 H :    0.153991
  13 H :    0.153470
  14 H :    0.161806
  15 H :    0.161895
  16 H :    0.157044
  17 H :    0.153845
  18 H :    0.153854
  19 H :    0.155049
  20 H :    0.156378
  21 H :    0.154920
  22 H :    0.154895

  Mayer bond orders larger than 0.100000
B(  0-C ,  1-C ) :   0.8742 B(  0-C ,  7-H ) :   0.9700 B(  0-C ,  8-H ) :   0.9689
B(  0-C ,  9-H ) :   0.9866 B(  1-C ,  2-C ) :   0.8945 B(  1-C ,  3-C ) :   0.8882
B(  1-C , 10-H ) :   0.9579 B(  2-C , 11-H ) :   0.9842 B(  2-C , 12-H ) :   0.9754
B(  2-C , 13-H ) :   0.9747 B(  3-C ,  4-C ) :   0.9024 B(  3-C , 14-H ) :   0.9929
B(  3-C , 15-H ) :   0.9713 B(  4-C ,  5-C ) :   0.9207 B(  4-C ,  6-C ) :   0.8756
B(  4-C , 16-H ) :   0.9762 B(  5-C , 17-H ) :   0.9755 B(  5-C , 18-H ) :   0.9712
B(  5-C , 19-H ) :   0.9760 B(  6-C , 20-H ) :   0.9744 B(  6-C , 21-H ) :   0.9692
B(  6-C , 22-H ) :   0.9767

Dispersion correction           -0.006524516
FINAL SINGLE POINT ENERGY      -276.280908479002

DIPOLE MOMENT
-------------

Method             : SCF
Type of density    : Electron Density
Multiplicity       :   1
Irrep              :   0
Energy             :  -276.2855726194783870 Eh
Relativity type    :
Basis              : AO
                                X                 Y                 Z
Electronic contribution:      0.570970612      -0.828025973      -0.715795761
Nuclear contribution   :     -0.521581467       0.765571236       0.713009656
                        -----------------------------------------
Total Dipole Moment    :      0.049389145      -0.062454737      -0.002786106
                        -----------------------------------------
Magnitude (a.u.)       :      0.079672105
Magnitude (Debye)      :      0.202510396

Rotational constants in cm-1:             0.128121             0.052061             0.047004
Rotational constants in MHz :          3840.957194          1560.741213          1409.154585

                             ****ORCA TERMINATED NORMALLY****
TOTAL RUN TIME: 0 days 0 hours 0 minutes 30 seconds 580 msec
