                         Program Version 6.0.0  -   RELEASE  -
|  1> ! r2scan-3c def2/J RI DEFGRID2 scfconv6 printgap
|  2> %output
|  3>     printlevel normal
|  4> end
|  5> * xyz 0 1
|  6> C -1.9758215147 1.4465077851 0.0761770383
|  7> C -1.4845287154 0.0832729865 -0.3995606412
|  8> C -0.1599713028 -0.3511028013 0.2382655187
|  9> H -0.2102348465 -0.153906282 1.3158478811
| 10> C 0.0739324893 -1.846474532 0.0273362451
| 11> C 1.0223287919 0.4397350623 -0.3380796586
| 12> O 2.2450559649 0.164973994 0.3139747637
| 13> H -2.942356105 1.6701864557 -0.3682871709
| 14> H -2.0868618033 1.4544596834 1.1580960828
| 15> H -1.2847847586 2.2366816774 -0.2052667156
| 16> H -1.3704490031 0.0931691096 -1.4856524999
| 17> H -2.241753411 -0.6640625457 -0.1537503113
| 18> H -0.664159775 -2.4324438048 0.5689843236
| 19> H 1.0662635709 -2.1223296011 0.3764731101
| 20> H 0.0043722377 -2.0908209632 -1.0304206963
| 21> H 0.8167479697 1.5168396066 -0.300781939
| 22> H 1.1823451956 0.156864952 -1.3817898941
| 23> H 2.1717272399 0.4343415225 1.2399386569
| 24> *
| 25>
| 26>                          ****END OF INPUT****

CARTESIAN COORDINATES (ANGSTROEM)
---------------------------------
  C     -1.975822    1.446508    0.076177
  C     -1.484529    0.083273   -0.399561
  C     -0.159971   -0.351103    0.238266
  H     -0.210235   -0.153906    1.315848
  C      0.073932   -1.846475    0.027336
  C      1.022329    0.439735   -0.338080
  O      2.245056    0.164974    0.313975
  H     -2.942356    1.670186   -0.368287
  H     -2.086862    1.454460    1.158096
  H     -1.284785    2.236682   -0.205267
  H     -1.370449    0.093169   -1.485652
  H     -2.241753   -0.664063   -0.153750
  H     -0.664160   -2.432444    0.568984
  H      1.066264   -2.122330    0.376473
  H      0.004372   -2.090821   -1.030421
  H      0.816748    1.516840   -0.300782
  H      1.182345    0.156865   -1.381790
  H      2.171727    0.434342    1.239939

 Total Charge           Charge          ....    0
 Multiplicity           Mult            ....    1
 Number of Electrons    NEL             ....   50
 Basis Dimension        Dim             ....  179

ORBITAL ENERGIES
----------------

  NO   OCC          E(Eh)            E(eV)
   0   2.0000     -18.946390      -515.5575
   1   2.0000     -10.071062      -274.0475
   2   2.0000     -10.033505      -273.0256
   3   2.0000     -10.028387      -272.8863
   4   2.0000     -10.019768      -272.6517
   5   2.0000     -10.011834      -272.4359
   6   2.0000      -0.983428       -26.7604
   7   2.0000      -0.776312       -21.1245
   8   2.0000      -0.699662       -19.0388
   9   2.0000      -0.640728       -17.4351
  10   2.0000      -0.592960       -16.1353
  11   2.0000      -0.539541       -14.6817
  12   2.0000      -0.468043       -12.7361
  13   2.0000      -0.439334       -11.9549
  14   2.0000      -0.412519       -11.2252
  15   2.0000      -0.400427       -10.8962
  16   2.0000      -0.383369       -10.4320
  17   2.0000      -0.373192       -10.1551
  18   2.0000      -0.337610        -9.1868
  19   2.0000      -0.331198        -9.0124
  20   2.0000      -0.317651        -8.6437
  21   2.0000      -0.304394        -8.2830
  22   2.0000      -0.296614        -8.0713
  23   2.0000      -0.280113        -7.6223
  24   2.0000      -0.231729        -6.3057
  25   0.0000       0.060869         1.6563
  26   0.0000       0.085373         2.3231
  27   0.0000       0.108057         2.9404
  28   0.0000       0.121836         3.3153
  29   0.0000       0.128561         3.4983

MULLIKEN ATOMIC CHARGES
-----------------------
   0 C :   -0.492456
   1 C :   -0.253376
   2 C :    0.000407
   3 H :    0.132618
   4 C :   -0.499028
   5 C :   -0.221607
   6 O :   -0.418950
   7 H :    0.148599
   8 H :    0.146058
   9 H :    0.141359
  10 H :    0.139593
  11 H :    0.144574
  12 H :    0.147197
  13 H :    0.172936
  14 H :    0.144299
  15 H :    0.128429
  16 H :    0.145882
  17 H :    0.293466
Sum of atomic charges:   -0.0000000

LOEWDIN ATOMIC CHARGES
----------------------
   0 C :   -0.424735
   1 C :   -0.308065
   2 C :   -0.233165
   3 H :    0.155276
   4 C :   -0.413139
   5 C :    0.006573
   6 O :   -0.620084
   7 H :    0.151748
   8 H :    0.150144
   9 H :    0.147864
  10 H :    0.157175
  11 H :    0.157049
  12 H :    0.151660
  13 H :    0.165046
  14 H :    0.155257
  15 H :    0.158557
  16 H :    0.178571
  17 H :    0.264267

  Mayer bond orders larger than 0.100000
B(  0-C ,  1-C ) :   0.9039 B(  0-C ,  7-H ) :   0.9728 B(  0-C ,  8-H ) :   0.9916
B(  0-C ,  9-H ) :   0.9785 B(  1-C ,  2-C ) :   0.8798 B(  1-C , 10-H ) :   0.9643
B(  1-C , 11-H ) :   0.9702 B(  2-C ,  3-H ) :   0.9642 B(  2-C ,  4-C ) :   0.8969
B(  2-C ,  5-C ) :   0.8953 B(  4-C , 12-H ) :   0.9786 B(  4-C , 13-H ) :   0.9727
B(  4-C , 14-H ) :   0.9803 B(  5-C ,  6-O ) :   0.9556 B(  5-C , 15-H ) :   0.9806
B(  5-C , 16-H ) :   0.9817 B(  6-O , 17-H ) :   0.8953

Dispersion correction           -0.004346829
FINAL SINGLE POINT ENERGY      -272.897927337551

DIPOLE MOMENT
-------------

Method             : SCF
Type of density    : Electron Density
Multiplicity       :   1
Irrep              :   0
Energy             :  -272.9034640491403820 Eh
Relativity type    :
Basis              : AO
                                X                 Y                 Z
Electronic contribution:      4.646790508       0.116239424       0.538991911
Nuclear contribution   :     -5.182068581       0.095307546      -0.245463502
                        -----------------------------------------
Total Dipole Moment    :     -0.535278073       0.211546971       0.293528409
                        -----------------------------------------
Magnitude (a.u.)       :      0.646091064
Magnitude (Debye)      :      1.642232975

Rotational constants in cm-1:             0.162943             0.075449             0.056851
Rotational constants in MHz :          4884.923086          2261.890139          1704.336515

                             ****ORCA TERMINATED NORMALLY****
TOTAL RUN TIME: 0 days 0 hours 0 minutes 23 seconds 929 msec
