                         Program Version 6.0.0  -   RELEASE  -
|  1> ! r2scan-3c def2/J RI DEFGRID2 scfconv6 printgap
|  2> %output
|  3>     printlevel normal
|  4> end
|  5> %cpcm
|  6>     smd true
|  7>     smdsolvent "water"
|  8> end
|  9> * xyz 0 1
| 10> C -1.9758215147 1.4465077851 0.0761770383
| 11> C -1.4845287154 0.0832729865 -0.3995606412
| 12> C -0.1599713028 -0.3511028013 0.2382655187
| 13> H -0.2102348465 -0.153906282 1.3158478811
| 14> C 0.0739324893 -1.846474532 0.0273362451
| 15> C 1.0223287919 0.4397350623 -0.3380796586
| 16> O 2.2450559649 0.164973994 0.3139747637
| 17> H -2.942356105 1.6701864557 -0.3682871709
| 18> H -2.0868618033 1.4544596834 1.1580960828
| 19> H -1.2847847586 2.2366816774 -0.2052667156
| 20> H -1.3704490031 0.0931691096 -1.4856524999
| 21> H -2.241753411 -0.6640625457 -0.1537503113
| 22> H -0.664159775 -2.4324438048 0.5689843236
| 23> H 1.0662635709 -2.1223296011 0.3764731101
| 24> H 0.0043722377 -2.0908209632 -1.0304206963
| 25> H 0.8167479697 1.5168396066 -0.300781939
| 26> H 1.1823451956 0.156864952 -1.3817898941
| 27> H 2.1717272399 0.4343415225 1.2399386569
| 28> *
| 29>
| 30>                          ****END OF INPUT****

CARTESIAN COORDINATES (ANGSTROEM)
---------------------------------
  C     -1.975822    1.446508    0.076177
  C     -1.484529    0.083273   -0.399561
  C     -0.159971   -0.351103    0.238266
  H     -0.210235   -0.153906    1.315848
  C      0.073932   -1.846475    0.027336
  C      1.022329    0.439735   -0.338080
  O      2.245056    0.164974    0.313975
  H     -2.942356    1.670186   -0.368287
  H     -2.086862    1.454460    1.158096
  H     -1.284785    2.236682   -0.205267
  H     -1.370449    0.093169   -1.485652
  H     -2.241753   -0.664063   -0.153750
  H     -0.664160   -2.432444    0.568984
  H      1.066264   -2.122330    0.376473
  H      0.004372   -2.090821   -1.030421
  H      0.816748    1.516840   -0.300782
  H      1.182345    0.156865   -1.381790
  H      2.171727    0.434342    1.239939

 Total Charge           Charge          ....    0
 Multiplicity           Mult            ....    1
 Number of Electrons    NEL             ....   50
 Basis Dimension        Dim             ....  179

ORBITAL ENERGIES
----------------

  NO   OCC          E(Eh)            E(eV)
   0   2.0000     -18.948959      -515.6274
   1   2.0000     -10.064099      -273.8581
   2   2.0000     -10.023637      -272.7570
   3   2.0000     -10.017080      -272.5786
   4   2.0000     -10.007621      -272.3212
   5   2.0000     -10.005991      -272.2769
   6   2.0000      -0.984775       -26.7971
   7   2.0000      -0.766738       -20.8640
   8   2.0000      -0.690312       -18.7844
   9   2.0000      -0.635113       -17.2823
  10   2.0000      -0.583922       -15.8893
  11   2.0000      -0.530650       -14.4397
  12   2.0000      -0.462417       -12.5830
  13   2.0000      -0.432177       -11.7601
  14   2.0000      -0.406708       -11.0671
  15   2.0000      -0.390301       -10.6206
  16   2.0000      -0.375578       -10.2200
  17   2.0000      -0.368984       -10.0406
  18   2.0000      -0.329239        -8.9591
  19   2.0000      -0.326770        -8.8919
  20   2.0000      -0.308493        -8.3945
  21   2.0000      -0.298397        -8.1198
  22   2.0000      -0.285765        -7.7760
  23   2.0000      -0.275535        -7.4977
  24   2.0000      -0.233513        -6.3542
  25   0.0000       0.076271         2.0754
  26   0.0000       0.097853         2.6627
  27   0.0000       0.117088         3.1861
  28   0.0000       0.131969         3.5910
  29   0.0000       0.136993         3.7278

MULLIKEN ATOMIC CHARGES
-----------------------
   0 C :   -0.532906
   1 C :   -0.269660
   2 C :    0.016812
   3 H :    0.154243
   4 C :   -0.545539
   5 C :   -0.221643
   6 O :   -0.508191
   7 H :    0.157086
   8 H :    0.157842
   9 H :    0.154764
  10 H :    0.150601
  11 H :    0.152621
  12 H :    0.161968
  13 H :    0.162245
  14 H :    0.159295
  15 H :    0.142969
  16 H :    0.157781
  17 H :    0.349712
Sum of atomic charges:   -0.0000000

LOEWDIN ATOMIC CHARGES
----------------------
   0 C :   -0.432181
   1 C :   -0.308769
   2 C :   -0.228501
   3 H :    0.163097
   4 C :   -0.422221
   5 C :    0.005725
   6 O :   -0.658110
   7 H :    0.153144
   8 H :    0.153195
   9 H :    0.151542
  10 H :    0.159819
  11 H :    0.159079
  12 H :    0.156080
  13 H :    0.159147
  14 H :    0.158061
  15 H :    0.166694
  16 H :    0.181058
  17 H :    0.283139

  Mayer bond orders larger than 0.100000
B(  0-C ,  1-C ) :   0.8989 B(  0-C ,  7-H ) :   0.9713 B(  0-C ,  8-H ) :   0.9878
B(  0-C ,  9-H ) :   0.9756 B(  1-C ,  2-C ) :   0.8747 B(  1-C , 10-H ) :   0.9649
B(  1-C , 11-H ) :   0.9703 B(  2-C ,  3-H ) :   0.9626 B(  2-C ,  4-C ) :   0.8802
B(  2-C ,  5-C ) :   0.8999 B(  4-C , 12-H ) :   0.9746 B(  4-C , 13-H ) :   0.9761
B(  4-C , 14-H ) :   0.9800 B(  5-C ,  6-O ) :   0.9404 B(  5-C , 15-H ) :   0.9701
B(  5-C , 16-H ) :   0.9808 B(  6-O , 17-H ) :   0.8672

Dispersion correction           -0.004346829
FINAL SINGLE POINT ENERGY      -272.903841668017

DIPOLE MOMENT
-------------

Method             : SCF
Type of density    : Electron Density
Multiplicity       :   1
Irrep              :   0
Energy             :  -272.9093783796059256 Eh
Relativity type    :
Basis              : AO
                                X                 Y                 Z
Electronic contribution:      4.431724230       0.239350969       0.665624697
Nuclear contribution   :     -5.182068581       0.095307546      -0.245463502
                        -----------------------------------------
Total Dipole Moment    :     -0.750344350       0.334658515       0.420161196
                        -----------------------------------------
Magnitude (a.u.)       :      0.922793799
Magnitude (Debye)      :      2.345555433

Rotational constants in cm-1:             0.162943             0.075449             0.056851
Rotational constants in MHz :          4884.923086          2261.890139          1704.336515

                             ****ORCA TERMINATED NORMALLY****
TOTAL RUN TIME: 0 days 0 hours 0 minutes 27 seconds 292 msec
