                         Program Version 6.0.0  -   RELEASE  -
|  1> ! r2scan-3c def2/J RI DEFGRID2 scfconv6 printgap
|  2> %output
|  3>     printlevel normal
|  4> end
|  5> * xyz 0 1
|  6> C -2.6838792443 0.4786271248 -0.4990407618
|  7> C -1.7086466605 0.3334458144 0.6730433987
|  8> C -0.4187011509 -0.2610748951 0.1699413579
|  9> O -0.2195570984 -1.4478452752 0.0119376103
| 10> O 0.4676006414 0.6803919072 -0.1258997703
| 11> C 1.7448540127 0.2813665837 -0.6510421354
| 12> C 2.7224108313 -0.0371110711 0.4699038436
| 13> H -2.2789475479 1.1562986911 -1.2463785068
| 14> H -2.8592720855 -0.4893108963 -0.9626615019
| 15> H -3.6300127081 0.8738131022 -0.1420865496
| 16> H -2.1292133532 -0.3375768275 1.4213169511
| 17> H -1.5012029016 1.3078835007 1.1119558364
| 18> H 1.6002764663 -0.5913715251 -1.2950894677
| 19> H 2.079504347 1.1364815866 -1.2390168466
| 20> H 3.6934273678 -0.2699697707 0.0453622128
| 21> H 2.8166768633 0.8148762195 1.1377207035
| 22> H 2.3702699148 -0.8954955994 1.0377797203
| 23> *
| 24>
| 25>                          ****END OF INPUT****

CARTESIAN COORDINATES (ANGSTROEM)
---------------------------------
  C     -2.683879    0.478627   -0.499041
  C     -1.708647    0.333446    0.673043
  C     -0.418701   -0.261075    0.169941
  O     -0.219557   -1.447845    0.011938
  O      0.467601    0.680392   -0.125900
  C      1.744854    0.281367   -0.651042
  C      2.722411   -0.037111    0.469904
  H     -2.278948    1.156299   -1.246379
  H     -2.859272   -0.489311   -0.962662
  H     -3.630013    0.873813   -0.142087
  H     -2.129213   -0.337577    1.421317
  H     -1.501203    1.307884    1.111956
  H      1.600276   -0.591372   -1.295089
  H      2.079504    1.136482   -1.239017
  H      3.693427   -0.269970    0.045362
  H      2.816677    0.814876    1.137721
  H      2.370270   -0.895496    1.037780

 Total Charge           Charge          ....    0
 Multiplicity           Mult            ....    1
 Number of Electrons    NEL             ....   56
 Basis Dimension        Dim             ....  193

ORBITAL ENERGIES
----------------

  NO   OCC          E(Eh)            E(eV)
   0   2.0000     -18.996415      -516.9187
   1   2.0000     -18.926716      -515.0221
   2   2.0000     -10.150841      -276.2184
   3   2.0000     -10.090969      -274.5892
   4   2.0000     -10.042843      -273.2797
   5   2.0000     -10.031266      -272.9646
   6   2.0000     -10.028382      -272.8861
   7   2.0000      -1.071088       -29.1458
   8   2.0000      -0.974522       -26.5181
   9   2.0000      -0.765201       -20.8222
  10   2.0000      -0.730007       -19.8645
  11   2.0000      -0.642898       -17.4942
  12   2.0000      -0.597351       -16.2548
  13   2.0000      -0.523106       -14.2344
  14   2.0000      -0.472681       -12.8623
  15   2.0000      -0.451577       -12.2880
  16   2.0000      -0.435099       -11.8396
  17   2.0000      -0.415326       -11.3016
  18   2.0000      -0.408129       -11.1058
  19   2.0000      -0.383934       -10.4474
  20   2.0000      -0.363346        -9.8871
  21   2.0000      -0.355762        -9.6808
  22   2.0000      -0.336485        -9.1562
  23   2.0000      -0.330210        -8.9855
  24   2.0000      -0.323817        -8.8115
  25   2.0000      -0.305314        -8.3080
  26   2.0000      -0.270350        -7.3566
  27   2.0000      -0.233778        -6.3614
  28   0.0000      -0.014332        -0.3900
  29   0.0000       0.075093         2.0434
  30   0.0000       0.092921         2.5285
  31   0.0000       0.121796         3.3142
  32   0.0000       0.122038         3.3208

MULLIKEN ATOMIC CHARGES
-----------------------
   0 C :   -0.470209
   1 C :   -0.298565
   2 C :    0.419454
   3 O :   -0.434939
   4 O :   -0.180057
   5 C :   -0.137395
   6 C :   -0.467728
   7 H :    0.151704
   8 H :    0.164365
   9 H :    0.153710
  10 H :    0.159420
  11 H :    0.155261
  12 H :    0.167171
  13 H :    0.147368
  14 H :    0.146556
  15 H :    0.151005
  16 H :    0.172879
Sum of atomic charges:   -0.0000000

LOEWDIN ATOMIC CHARGES
----------------------
   0 C :   -0.391797
   1 C :   -0.236685
   2 C :    0.356226
   3 O :   -0.434200
   4 O :   -0.596071
   5 C :    0.027031
   6 C :   -0.390141
   7 H :    0.156247
   8 H :    0.161083
   9 H :    0.152926
  10 H :    0.174790
  11 H :    0.173659
  12 H :    0.187895
  13 H :    0.177422
  14 H :    0.159047
  15 H :    0.156948
  16 H :    0.165618

  Mayer bond orders larger than 0.100000
B(  0-C ,  1-C ) :   0.8992 B(  0-C ,  7-H ) :   0.9763 B(  0-C ,  8-H ) :   0.9753
B(  0-C ,  9-H ) :   0.9710 B(  1-C ,  2-C ) :   0.9429 B(  1-C , 10-H ) :   0.9699
B(  1-C , 11-H ) :   0.9796 B(  2-C ,  3-O ) :   1.8287 B(  2-C ,  4-O ) :   1.0519
B(  4-O ,  5-C ) :   0.8232 B(  5-C ,  6-C ) :   0.9378 B(  5-C , 12-H ) :   0.9663
B(  5-C , 13-H ) :   0.9609 B(  6-C , 14-H ) :   0.9655 B(  6-C , 15-H ) :   0.9732
B(  6-C , 16-H ) :   0.9712

Dispersion correction           -0.003986280
FINAL SINGLE POINT ENERGY      -346.936117215116

DIPOLE MOMENT
-------------

Method             : SCF
Type of density    : Electron Density
Multiplicity       :   1
Irrep              :   0
Energy             :  -346.9425186669027994 Eh
Relativity type    :
Basis              : AO
                                X                 Y                 Z
Electronic contribution:      0.008216179      -1.763212585       0.104079018
Nuclear contribution   :      0.155197505       2.526953516      -0.124680947
                        -----------------------------------------
Total Dipole Moment    :      0.163413684       0.763740931      -0.020601929
                        -----------------------------------------
Magnitude (a.u.)       :      0.781299355
Magnitude (Debye)      :      1.985905137

Rotational constants in cm-1:             0.205886             0.048288             0.044730
Rotational constants in MHz :          6172.296208          1447.627947          1340.986182

                             ****ORCA TERMINATED NORMALLY****
TOTAL RUN TIME: 0 days 0 hours 0 minutes 22 seconds 212 msec
