                         Program Version 6.0.0  -   RELEASE  -
|  1> ! r2scan-3c def2/J RI DEFGRID2 scfconv6 printgap
|  2> %output
|  3>     printlevel normal
|  4> end
|  5> %cpcm
|  6>     smd true
|  7>     smdsolvent "water"
|  8> end
|  9> * xyz 0 1
| 10> C -2.6838792443 0.4786271248 -0.4990407618
| 11> C -1.7086466605 0.3334458144 0.6730433987
| 12> C -0.4187011509 -0.2610748951 0.1699413579
| 13> O -0.2195570984 -1.4478452752 0.0119376103
| 14> O 0.4676006414 0.6803919072 -0.1258997703
| 15> C 1.7448540127 0.2813665837 -0.6510421354
| 16> C 2.7224108313 -0.0371110711 0.4699038436
| 17> H -2.2789475479 1.1562986911 -1.2463785068
| 18> H -2.8592720855 -0.4893108963 -0.9626615019
| 19> H -3.6300127081 0.8738131022 -0.1420865496
| 20> H -2.1292133532 -0.3375768275 1.4213169511
| 21> H -1.5012029016 1.3078835007 1.1119558364
| 22> H 1.6002764663 -0.5913715251 -1.2950894677
| 23> H 2.079504347 1.1364815866 -1.2390168466
| 24> H 3.6934273678 -0.2699697707 0.0453622128
| 25> H 2.8166768633 0.8148762195 1.1377207035
| 26> H 2.3702699148 -0.8954955994 1.0377797203
| 27> *
| 28>
| 29>                          ****END OF INPUT****

CARTESIAN COORDINATES (ANGSTROEM)
---------------------------------
  C     -2.683879    0.478627   -0.499041
  C     -1.708647    0.333446    0.673043
  C     -0.418701   -0.261075    0.169941
  O     -0.219557   -1.447845    0.011938
  O      0.467601    0.680392   -0.125900
  C      1.744854    0.281367   -0.651042
  C      2.722411   -0.037111    0.469904
  H     -2.278948    1.156299   -1.246379
  H     -2.859272   -0.489311   -0.962662
  H     -3.630013    0.873813   -0.142087
  H     -2.129213   -0.337577    1.421317
  H     -1.501203    1.307884    1.111956
  H      1.600276   -0.591372   -1.295089
  H      2.079504    1.136482   -1.239017
  H      3.693427   -0.269970    0.045362
  H      2.816677    0.814876    1.137721
  H      2.370270   -0.895496    1.037780

 Total Charge           Charge          ....    0
 Multiplicity           Mult            ....    1
 Number of Electrons    NEL             ....   56
 Basis Dimension        Dim             ....  193

ORBITAL ENERGIES
----------------

  NO   OCC          E(Eh)            E(eV)
   0   2.0000     -19.002364      -517.0806
   1   2.0000     -18.943033      -515.4661
   2   2.0000     -10.161795      -276.5165
   3   2.0000     -10.083214      -274.3782
   4   2.0000     -10.037195      -273.1260
   5   2.0000     -10.022392      -272.7231
   6   2.0000     -10.018252      -272.6105
   7   2.0000      -1.078710       -29.3532
   8   2.0000      -0.988654       -26.9027
   9   2.0000      -0.761307       -20.7162
  10   2.0000      -0.722764       -19.6674
  11   2.0000      -0.637995       -17.3607
  12   2.0000      -0.591261       -16.0890
  13   2.0000      -0.521211       -14.1829
  14   2.0000      -0.471918       -12.8415
  15   2.0000      -0.460915       -12.5421
  16   2.0000      -0.436076       -11.8662
  17   2.0000      -0.412109       -11.2140
  18   2.0000      -0.407357       -11.0847
  19   2.0000      -0.380777       -10.3615
  20   2.0000      -0.356048        -9.6886
  21   2.0000      -0.349899        -9.5212
  22   2.0000      -0.333306        -9.0697
  23   2.0000      -0.328818        -8.9476
  24   2.0000      -0.316286        -8.6066
  25   2.0000      -0.303560        -8.2603
  26   2.0000      -0.277839        -7.5604
  27   2.0000      -0.250087        -6.8052
  28   0.0000      -0.022757        -0.6193
  29   0.0000       0.077937         2.1208
  30   0.0000       0.100182         2.7261
  31   0.0000       0.130038         3.5385
  32   0.0000       0.133285         3.6269

MULLIKEN ATOMIC CHARGES
-----------------------
   0 C :   -0.492945
   1 C :   -0.313403
   2 C :    0.456062
   3 O :   -0.518604
   4 O :   -0.197722
   5 C :   -0.143483
   6 C :   -0.492636
   7 H :    0.164789
   8 H :    0.165992
   9 H :    0.173366
  10 H :    0.176200
  11 H :    0.174000
  12 H :    0.171099
  13 H :    0.173846
  14 H :    0.170080
  15 H :    0.165334
  16 H :    0.168025
Sum of atomic charges:   -0.0000000

LOEWDIN ATOMIC CHARGES
----------------------
   0 C :   -0.393738
   1 C :   -0.233602
   2 C :    0.365488
   3 O :   -0.494458
   4 O :   -0.597499
   5 C :    0.031825
   6 C :   -0.393024
   7 H :    0.160357
   8 H :    0.160718
   9 H :    0.160520
  10 H :    0.180998
  11 H :    0.182158
  12 H :    0.189169
  13 H :    0.188985
  14 H :    0.167737
  15 H :    0.161929
  16 H :    0.162437

  Mayer bond orders larger than 0.100000
B(  0-C ,  1-C ) :   0.8880 B(  0-C ,  7-H ) :   0.9721 B(  0-C ,  8-H ) :   0.9736
B(  0-C ,  9-H ) :   0.9655 B(  1-C ,  2-C ) :   0.9445 B(  1-C , 10-H ) :   0.9649
B(  1-C , 11-H ) :   0.9706 B(  2-C ,  3-O ) :   1.7581 B(  2-C ,  4-O ) :   1.0762
B(  4-O ,  5-C ) :   0.8046 B(  5-C ,  6-C ) :   0.9362 B(  5-C , 12-H ) :   0.9628
B(  5-C , 13-H ) :   0.9515 B(  6-C , 14-H ) :   0.9605 B(  6-C , 15-H ) :   0.9694
B(  6-C , 16-H ) :   0.9691

Dispersion correction           -0.003986280
FINAL SINGLE POINT ENERGY      -346.941204723047

DIPOLE MOMENT
-------------

Method             : SCF
Type of density    : Electron Density
Multiplicity       :   1
Irrep              :   0
Energy             :  -346.9476061748334814 Eh
Relativity type    :
Basis              : AO
                                X                 Y                 Z
Electronic contribution:      0.053816611      -1.409734940       0.095501998
Nuclear contribution   :      0.155197505       2.526953516      -0.124680947
                        -----------------------------------------
Total Dipole Moment    :      0.209014116       1.117218576      -0.029178949
                        -----------------------------------------
Magnitude (a.u.)       :      1.136976543
Magnitude (Debye)      :      2.889964702

Rotational constants in cm-1:             0.205886             0.048288             0.044730
Rotational constants in MHz :          6172.296208          1447.627947          1340.986182

                             ****ORCA TERMINATED NORMALLY****
TOTAL RUN TIME: 0 days 0 hours 0 minutes 26 seconds 0 msec
