                         Program Version 6.0.0  -   RELEASE  -
|  1> ! r2scan-3c def2/J RI DEFGRID2 scfconv6 printgap
|  2> %output
|  3>     printlevel normal
|  4> end
|  5> * xyz 0 1
|  6> C -4.0804480573 0.5176588194 0.9488236535
|  7> C -3.4473408529 0.5193109275 -0.4347785942
|  8> O -2.0206651697 0.6427548284 -0.352862235
|  9> C -1.3024089806 -0.4711599995 -0.1977084979
| 10> O -1.804425523 -1.5826505302 -0.1504088029
| 11> C 0.142284236 -0.2152340996 -0.1034357865
| 12> C 0.668322426 1.0775962443 -0.1569878809
| 13> C 2.0263517093 1.2766454932 -0.0635360411
| 14> C 2.8907962003 0.1886483229 0.0857430687
| 15> C 2.3679459135 -1.1035774581 0.1397494688
| 16> C 1.0075475435 -1.2992895979 0.0460472584
| 17> O 4.2105368398 0.4401155388 0.1724931891
| 18> H -3.7542627846 -0.358395356 1.5051795544
| 19> H -3.7897788343 1.4115049701 1.4941729183
| 20> H -5.1606996433 0.4910858534 0.8500917201
| 21> H -3.7647019017 1.3864254736 -1.0151940478
| 22> H -3.6891566359 -0.404980196 -0.9689562417
| 23> H 0.0006982036 1.9159070204 -0.2721068899
| 24> H 2.4504934597 2.2669119055 -0.1028169031
| 25> H 3.0269879876 -1.9508065658 0.2549817897
| 26> H 0.5857207831 -2.2921691414 0.0859913888
| 27> H 4.7222295881 -0.3783698365 0.2743658527
| 28> *
| 29>
| 30>                          ****END OF INPUT****

CARTESIAN COORDINATES (ANGSTROEM)
---------------------------------
  C     -4.080448    0.517659    0.948824
  C     -3.447341    0.519311   -0.434779
  O     -2.020665    0.642755   -0.352862
  C     -1.302409   -0.471160   -0.197708
  O     -1.804426   -1.582651   -0.150409
  C      0.142284   -0.215234   -0.103436
  C      0.668322    1.077596   -0.156988
  C      2.026352    1.276645   -0.063536
  C      2.890796    0.188648    0.085743
  C      2.367946   -1.103577    0.139749
  C      1.007548   -1.299290    0.046047
  O      4.210537    0.440116    0.172493
  H     -3.754263   -0.358395    1.505180
  H     -3.789779    1.411505    1.494173
  H     -5.160700    0.491086    0.850092
  H     -3.764702    1.386425   -1.015194
  H     -3.689157   -0.404980   -0.968956
  H      0.000698    1.915907   -0.272107
  H      2.450493    2.266912   -0.102817
  H      3.026988   -1.950807    0.254982
  H      0.585721   -2.292169    0.085991
  H      4.722230   -0.378370    0.274366

 Total Charge           Charge          ....    0
 Multiplicity           Mult            ....    1
 Number of Electrons    NEL             ....   88
 Basis Dimension        Dim             ....  293

ORBITAL ENERGIES
----------------

  NO   OCC          E(Eh)            E(eV)
   0   2.0000     -19.002236      -517.0771
   1   2.0000     -18.992767      -516.8195
   2   2.0000     -18.922973      -514.9203
   3   2.0000     -10.150599      -276.2118
   4   2.0000     -10.113724      -275.2084
   5   2.0000     -10.088459      -274.5209
   6   2.0000     -10.048407      -273.4310
   7   2.0000     -10.048369      -273.4300
   8   2.0000     -10.046336      -273.3747
   9   2.0000     -10.046231      -273.3718
  10   2.0000     -10.041119      -273.2328
  11   2.0000     -10.025550      -272.8091
  12   2.0000      -1.066496       -29.0208
  13   2.0000      -1.049083       -28.5470
  14   2.0000      -0.969665       -26.3859
  15   2.0000      -0.836025       -22.7494
  16   2.0000      -0.751641       -20.4532
  17   2.0000      -0.732151       -19.9229
  18   2.0000      -0.720370       -19.6023
  19   2.0000      -0.639560       -17.4033
  20   2.0000      -0.612021       -16.6539
  21   2.0000      -0.583552       -15.8793
  22   2.0000      -0.531897       -14.4736
  23   2.0000      -0.529001       -14.3948
  24   2.0000      -0.502334       -13.6692
  25   2.0000      -0.458136       -12.4665
  26   2.0000      -0.442758       -12.0481
  27   2.0000      -0.428428       -11.6581
  28   2.0000      -0.420720       -11.4484
  29   2.0000      -0.412511       -11.2250
  30   2.0000      -0.403211       -10.9719
  31   2.0000      -0.398465       -10.8428
  32   2.0000      -0.381939       -10.3931
  33   2.0000      -0.371728       -10.1152
  34   2.0000      -0.357637        -9.7318
  35   2.0000      -0.355932        -9.6854
  36   2.0000      -0.337805        -9.1921
  37   2.0000      -0.318791        -8.6748
  38   2.0000      -0.316345        -8.6082
  39   2.0000      -0.302779        -8.2390
  40   2.0000      -0.268213        -7.2984
  41   2.0000      -0.249835        -6.7983
  42   2.0000      -0.235675        -6.4130
  43   2.0000      -0.218687        -5.9508
  44   0.0000      -0.064431        -1.7532
  45   0.0000      -0.042137        -1.1466
  46   0.0000       0.035768         0.9733
  47   0.0000       0.045881         1.2485
  48   0.0000       0.071006         1.9322

MULLIKEN ATOMIC CHARGES
-----------------------
   0 C :   -0.466902
   1 C :   -0.140610
   2 O :   -0.160141
   3 C :    0.366262
   4 O :   -0.443269
   5 C :    0.062247
   6 C :   -0.171330
   7 C :   -0.304253
   8 C :    0.449578
   9 C :   -0.327500
  10 C :   -0.224116
  11 O :   -0.400501
  12 H :    0.173950
  13 H :    0.151155
  14 H :    0.146178
  15 H :    0.147326
  16 H :    0.169144
  17 H :    0.173557
  18 H :    0.157247
  19 H :    0.140078
  20 H :    0.182491
  21 H :    0.319408
Sum of atomic charges:    0.0000000

LOEWDIN ATOMIC CHARGES
----------------------
   0 C :   -0.390465
   1 C :    0.029580
   2 O :   -0.606640
   3 C :    0.386557
   4 O :   -0.452257
   5 C :   -0.053341
   6 C :   -0.099922
   7 C :   -0.140228
   8 C :    0.197915
   9 C :   -0.168088
  10 C :   -0.092581
  11 O :   -0.480429
  12 H :    0.165681
  13 H :    0.156669
  14 H :    0.158625
  15 H :    0.177063
  16 H :    0.189245
  17 H :    0.189456
  18 H :    0.181636
  19 H :    0.170857
  20 H :    0.191600
  21 H :    0.289068

  Mayer bond orders larger than 0.100000
B(  0-C ,  1-C ) :   0.9340 B(  0-C , 12-H ) :   0.9725 B(  0-C , 13-H ) :   0.9738
B(  0-C , 14-H ) :   0.9651 B(  1-C ,  2-O ) :   0.8070 B(  1-C , 15-H ) :   0.9641
B(  1-C , 16-H ) :   0.9699 B(  2-O ,  3-C ) :   1.1561 B(  2-O ,  5-C ) :  -0.1266
B(  3-C ,  4-O ) :   1.8708 B(  3-C ,  5-C ) :   1.0424 B(  5-C ,  6-C ) :   1.3580
B(  5-C , 10-C ) :   1.4852 B(  6-C ,  7-C ) :   1.3597 B(  6-C , 17-H ) :   0.9499
B(  7-C ,  8-C ) :   1.3831 B(  7-C , 11-O ) :   0.1034 B(  7-C , 18-H ) :   0.9545
B(  8-C ,  9-C ) :   1.3009 B(  8-C , 11-O ) :   0.9417 B(  9-C , 10-C ) :   1.3785
B(  9-C , 19-H ) :   0.9308 B( 10-C , 20-H ) :   0.9333 B( 11-O , 21-H ) :   0.8769

Dispersion correction           -0.007423808
FINAL SINGLE POINT ENERGY      -574.553899458969

DIPOLE MOMENT
-------------

Method             : SCF
Type of density    : Electron Density
Multiplicity       :   1
Irrep              :   0
Energy             :  -574.5572538675263559 Eh
Relativity type    :
Basis              : AO
                                X                 Y                 Z
Electronic contribution:      9.301070539      -1.646464475      -1.880164565
Nuclear contribution   :     -8.787267721       1.950666676       1.970615235
                        -----------------------------------------
Total Dipole Moment    :      0.513802818       0.304202201       0.090450670
                        -----------------------------------------
Magnitude (a.u.)       :      0.603915258
Magnitude (Debye)      :      1.535030595

Rotational constants in cm-1:             0.095976             0.014719             0.013257
Rotational constants in MHz :          2877.278238           441.252386           397.435292

                             ****ORCA TERMINATED NORMALLY****
TOTAL RUN TIME: 0 days 0 hours 0 minutes 43 seconds 37 msec
