                         Program Version 6.0.0  -   RELEASE  -
|  1> ! r2scan-3c def2/J RI DEFGRID2 scfconv6 printgap
|  2> %output
|  3>     printlevel normal
|  4> end
|  5> %cpcm
|  6>     smd true
|  7>     smdsolvent "water"
|  8> end
|  9> * xyz 0 1
| 10> C -4.0804480573 0.5176588194 0.9488236535
| 11> C -3.4473408529 0.5193109275 -0.4347785942
| 12> O -2.0206651697 0.6427548284 -0.352862235
| 13> C -1.3024089806 -0.4711599995 -0.1977084979
| 14> O -1.804425523 -1.5826505302 -0.1504088029
| 15> C 0.142284236 -0.2152340996 -0.1034357865
| 16> C 0.668322426 1.0775962443 -0.1569878809
| 17> C 2.0263517093 1.2766454932 -0.0635360411
| 18> C 2.8907962003 0.1886483229 0.0857430687
| 19> C 2.3679459135 -1.1035774581 0.1397494688
| 20> C 1.0075475435 -1.2992895979 0.0460472584
| 21> O 4.2105368398 0.4401155388 0.1724931891
| 22> H -3.7542627846 -0.358395356 1.5051795544
| 23> H -3.7897788343 1.4115049701 1.4941729183
| 24> H -5.1606996433 0.4910858534 0.8500917201
| 25> H -3.7647019017 1.3864254736 -1.0151940478
| 26> H -3.6891566359 -0.404980196 -0.9689562417
| 27> H 0.0006982036 1.9159070204 -0.2721068899
| 28> H 2.4504934597 2.2669119055 -0.1028169031
| 29> H 3.0269879876 -1.9508065658 0.2549817897
| 30> H 0.5857207831 -2.2921691414 0.0859913888
| 31> H 4.7222295881 -0.3783698365 0.2743658527
| 32> *
| 33>
| 34>                          ****END OF INPUT****

CARTESIAN COORDINATES (ANGSTROEM)
---------------------------------
  C     -4.080448    0.517659    0.948824
  C     -3.447341    0.519311   -0.434779
  O     -2.020665    0.642755   -0.352862
  C     -1.302409   -0.471160   -0.197708
  O     -1.804426   -1.582651   -0.150409
  C      0.142284   -0.215234   -0.103436
  C      0.668322    1.077596   -0.156988
  C      2.026352    1.276645   -0.063536
  C      2.890796    0.188648    0.085743
  C      2.367946   -1.103577    0.139749
  C      1.007548   -1.299290    0.046047
  O      4.210537    0.440116    0.172493
  H     -3.754263   -0.358395    1.505180
  H     -3.789779    1.411505    1.494173
  H     -5.160700    0.491086    0.850092
  H     -3.764702    1.386425   -1.015194
  H     -3.689157   -0.404980   -0.968956
  H      0.000698    1.915907   -0.272107
  H      2.450493    2.266912   -0.102817
  H      3.026988   -1.950807    0.254982
  H      0.585721   -2.292169    0.085991
  H      4.722230   -0.378370    0.274366

 Total Charge           Charge          ....    0
 Multiplicity           Mult            ....    1
 Number of Electrons    NEL             ....   88
 Basis Dimension        Dim             ....  293

ORBITAL ENERGIES
----------------

  NO   OCC          E(Eh)            E(eV)
   0   2.0000     -18.999781      -517.0103
   1   2.0000     -18.993240      -516.8323
   2   2.0000     -18.940248      -515.3903
   3   2.0000     -10.164396      -276.5873
   4   2.0000     -10.111891      -275.1585
   5   2.0000     -10.083590      -274.3884
   6   2.0000     -10.048202      -273.4255
   7   2.0000     -10.047846      -273.4158
   8   2.0000     -10.047595      -273.4090
   9   2.0000     -10.040898      -273.2267
  10   2.0000     -10.038656      -273.1657
  11   2.0000     -10.017796      -272.5981
  12   2.0000      -1.076208       -29.2851
  13   2.0000      -1.039884       -28.2967
  14   2.0000      -0.985441       -26.8152
  15   2.0000      -0.836137       -22.7524
  16   2.0000      -0.750946       -20.4343
  17   2.0000      -0.730324       -19.8731
  18   2.0000      -0.717143       -19.5144
  19   2.0000      -0.637879       -17.3576
  20   2.0000      -0.607771       -16.5383
  21   2.0000      -0.580701       -15.8017
  22   2.0000      -0.529135       -14.3985
  23   2.0000      -0.523778       -14.2527
  24   2.0000      -0.504507       -13.7283
  25   2.0000      -0.461018       -12.5449
  26   2.0000      -0.445253       -12.1160
  27   2.0000      -0.435313       -11.8455
  28   2.0000      -0.425192       -11.5701
  29   2.0000      -0.409621       -11.1464
  30   2.0000      -0.398949       -10.8560
  31   2.0000      -0.395757       -10.7691
  32   2.0000      -0.380180       -10.3452
  33   2.0000      -0.372117       -10.1258
  34   2.0000      -0.355267        -9.6673
  35   2.0000      -0.353581        -9.6214
  36   2.0000      -0.336977        -9.1696
  37   2.0000      -0.319748        -8.7008
  38   2.0000      -0.313263        -8.5243
  39   2.0000      -0.302605        -8.2343
  40   2.0000      -0.277738        -7.5576
  41   2.0000      -0.254644        -6.9292
  42   2.0000      -0.250247        -6.8096
  43   2.0000      -0.219661        -5.9773
  44   0.0000      -0.070562        -1.9201
  45   0.0000      -0.041756        -1.1362
  46   0.0000       0.030267         0.8236
  47   0.0000       0.072281         1.9669
  48   0.0000       0.079738         2.1698

MULLIKEN ATOMIC CHARGES
-----------------------
   0 C :   -0.494810
   1 C :   -0.141841
   2 O :   -0.174678
   3 C :    0.404505
   4 O :   -0.518489
   5 C :    0.059694
   6 C :   -0.197718
   7 C :   -0.340270
   8 C :    0.413353
   9 C :   -0.342386
  10 C :   -0.235130
  11 O :   -0.431958
  12 H :    0.169586
  13 H :    0.165906
  14 H :    0.170327
  15 H :    0.173969
  16 H :    0.171638
  17 H :    0.196580
  18 H :    0.188091
  19 H :    0.188800
  20 H :    0.196074
  21 H :    0.378757
Sum of atomic charges:    0.0000000

LOEWDIN ATOMIC CHARGES
----------------------
   0 C :   -0.393251
   1 C :    0.034229
   2 O :   -0.607793
   3 C :    0.390231
   4 O :   -0.511778
   5 C :   -0.068790
   6 C :   -0.105331
   7 C :   -0.146008
   8 C :    0.195999
   9 C :   -0.155312
  10 C :   -0.105208
  11 O :   -0.483933
  12 H :    0.162339
  13 H :    0.161757
  14 H :    0.167667
  15 H :    0.188844
  16 H :    0.189969
  17 H :    0.197051
  18 H :    0.191772
  19 H :    0.190857
  20 H :    0.194412
  21 H :    0.312276

  Mayer bond orders larger than 0.100000
B(  0-C ,  1-C ) :   0.9320 B(  0-C , 12-H ) :   0.9707 B(  0-C , 13-H ) :   0.9702
B(  0-C , 14-H ) :   0.9596 B(  1-C ,  2-O ) :   0.7906 B(  1-C , 15-H ) :   0.9539
B(  1-C , 16-H ) :   0.9651 B(  2-O ,  3-C ) :   1.1672 B(  2-O ,  5-C ) :  -0.1109
B(  3-C ,  4-O ) :   1.8111 B(  3-C ,  5-C ) :   1.0499 B(  5-C ,  6-C ) :   1.3082
B(  5-C , 10-C ) :   1.3928 B(  6-C ,  7-C ) :   1.3809 B(  6-C , 17-H ) :   0.9582
B(  7-C ,  8-C ) :   1.3286 B(  7-C , 18-H ) :   0.9586 B(  8-C ,  9-C ) :   1.3003
B(  8-C , 11-O ) :   0.9622 B(  9-C , 10-C ) :   1.3694 B(  9-C , 19-H ) :   0.9518
B( 10-C , 20-H ) :   0.9492 B( 11-O , 21-H ) :   0.8440

Dispersion correction           -0.007423808
FINAL SINGLE POINT ENERGY      -574.566991398005

DIPOLE MOMENT
-------------

Method             : SCF
Type of density    : Electron Density
Multiplicity       :   1
Irrep              :   0
Energy             :  -574.5703458065623863 Eh
Relativity type    :
Basis              : AO
                                X                 Y                 Z
Electronic contribution:      9.676207532      -1.473667971      -1.859866994
Nuclear contribution   :     -8.787267721       1.950666676       1.970615235
                        -----------------------------------------
Total Dipole Moment    :      0.888939812       0.476998705       0.110748241
                        -----------------------------------------
Magnitude (a.u.)       :      1.014892569
Magnitude (Debye)      :      2.579651902

Rotational constants in cm-1:             0.095976             0.014719             0.013257
Rotational constants in MHz :          2877.278238           441.252386           397.435292

                             ****ORCA TERMINATED NORMALLY****
TOTAL RUN TIME: 0 days 0 hours 0 minutes 53 seconds 572 msec
