                         Program Version 6.0.0  -   RELEASE  -
|  1> ! r2scan-3c def2/J RI DEFGRID2 scfconv6 printgap
|  2> %output
|  3>     printlevel normal
|  4> end
|  5> * xyz 0 1
|  6> C -2.667267556 -1.2404917792 0.2244014103
|  7> C -2.4948768258 0.2697941316 0.1171394863
|  8> C -1.1876404423 0.7076470673 -0.5470400666
|  9> C 0.0761022408 0.4134892482 0.2664599078
| 10> C 0.6320525128 -1.0201973222 0.110207824
| 11> C 2.1220271044 -0.8777338241 -0.236325906
| 12> C 2.4866389404 0.5324496082 0.2193990295
| 13> C 1.2401916986 1.3271486736 -0.1489472302
| 14> H -1.9177523234 -1.6723722568 0.8806139818
| 15> H -3.6498336952 -1.4762094938 0.627252652
| 16> H -2.5800449204 -1.7050612078 -0.7552478755
| 17> H -3.3248527534 0.6750207362 -0.4672022067
| 18> H -2.5518466756 0.7104889216 1.1152651851
| 19> H -1.104205849 0.2412729249 -1.5313075192
| 20> H -1.2432524925 1.7888076371 -0.700743838
| 21> H -0.1459624755 0.5975062168 1.3223662029
| 22> H 0.5139036776 -1.5774064358 1.0396620153
| 23> H 0.1053952286 -1.5641636709 -0.6720618746
| 24> H 2.731024855 -1.6429487794 0.242942656
| 25> H 2.2655215421 -0.9573036772 -1.3148904729
| 26> H 2.6365454681 0.5524055475 1.3001357084
| 27> H 3.387063176 0.9101878148 -0.2628706899
| 28> H 1.1945471712 2.2984658692 0.3418696575
| 29> H 1.2142475566 1.4853610453 -1.2288768462
| 30> *
| 31>
| 32>                          ****END OF INPUT****

CARTESIAN COORDINATES (ANGSTROEM)
---------------------------------
  C     -2.667268   -1.240492    0.224401
  C     -2.494877    0.269794    0.117139
  C     -1.187640    0.707647   -0.547040
  C      0.076102    0.413489    0.266460
  C      0.632053   -1.020197    0.110208
  C      2.122027   -0.877734   -0.236326
  C      2.486639    0.532450    0.219399
  C      1.240192    1.327149   -0.148947
  H     -1.917752   -1.672372    0.880614
  H     -3.649834   -1.476209    0.627253
  H     -2.580045   -1.705061   -0.755248
  H     -3.324853    0.675021   -0.467202
  H     -2.551847    0.710489    1.115265
  H     -1.104206    0.241273   -1.531308
  H     -1.243252    1.788808   -0.700744
  H     -0.145962    0.597506    1.322366
  H      0.513904   -1.577406    1.039662
  H      0.105395   -1.564164   -0.672062
  H      2.731025   -1.642949    0.242943
  H      2.265522   -0.957304   -1.314890
  H      2.636545    0.552406    1.300136
  H      3.387063    0.910188   -0.262871
  H      1.194547    2.298466    0.341870
  H      1.214248    1.485361   -1.228877

 Total Charge           Charge          ....    0
 Multiplicity           Mult            ....    1
 Number of Electrons    NEL             ....   64
 Basis Dimension        Dim             ....  232

ORBITAL ENERGIES
----------------

  NO   OCC          E(Eh)            E(eV)
   0   2.0000     -10.024513      -272.7809
   1   2.0000     -10.020533      -272.6726
   2   2.0000     -10.017956      -272.6025
   3   2.0000     -10.017807      -272.5984
   4   2.0000     -10.017625      -272.5934
   5   2.0000     -10.016681      -272.5677
   6   2.0000     -10.015900      -272.5465
   7   2.0000     -10.011609      -272.4297
   8   2.0000      -0.804798       -21.8997
   9   2.0000      -0.748783       -20.3754
  10   2.0000      -0.685646       -18.6574
  11   2.0000      -0.670336       -18.2408
  12   2.0000      -0.623702       -16.9718
  13   2.0000      -0.545853       -14.8534
  14   2.0000      -0.534013       -14.5312
  15   2.0000      -0.511936       -13.9305
  16   2.0000      -0.451250       -12.2791
  17   2.0000      -0.438164       -11.9230
  18   2.0000      -0.406772       -11.0688
  19   2.0000      -0.398859       -10.8535
  20   2.0000      -0.384401       -10.4601
  21   2.0000      -0.380317       -10.3490
  22   2.0000      -0.350788        -9.5454
  23   2.0000      -0.330243        -8.9864
  24   2.0000      -0.318409        -8.6643
  25   2.0000      -0.300855        -8.1867
  26   2.0000      -0.299009        -8.1364
  27   2.0000      -0.297860        -8.1052
  28   2.0000      -0.289560        -7.8793
  29   2.0000      -0.278550        -7.5797
  30   2.0000      -0.272190        -7.4067
  31   2.0000      -0.269076        -7.3219
  32   0.0000       0.085921         2.3380
  33   0.0000       0.088365         2.4045
  34   0.0000       0.097505         2.6533
  35   0.0000       0.117474         3.1966
  36   0.0000       0.125388         3.4120

MULLIKEN ATOMIC CHARGES
-----------------------
   0 C :   -0.493184
   1 C :   -0.241296
   2 C :   -0.318973
   3 C :    0.022970
   4 C :   -0.430412
   5 C :   -0.318280
   6 C :   -0.242060
   7 C :   -0.385146
   8 H :    0.152693
   9 H :    0.143557
  10 H :    0.145564
  11 H :    0.139616
  12 H :    0.138427
  13 H :    0.147470
  14 H :    0.144612
  15 H :    0.158338
  16 H :    0.160795
  17 H :    0.167825
  18 H :    0.149690
  19 H :    0.151577
  20 H :    0.145497
  21 H :    0.149797
  22 H :    0.153323
  23 H :    0.157597
Sum of atomic charges:    0.0000000

LOEWDIN ATOMIC CHARGES
----------------------
   0 C :   -0.425793
   1 C :   -0.313913
   2 C :   -0.300967
   3 C :   -0.225943
   4 C :   -0.307249
   5 C :   -0.304017
   6 C :   -0.303223
   7 C :   -0.298193
   8 H :    0.152668
   9 H :    0.148877
  10 H :    0.149214
  11 H :    0.150511
  12 H :    0.150598
  13 H :    0.155433
  14 H :    0.158878
  15 H :    0.160123
  16 H :    0.156546
  17 H :    0.159549
  18 H :    0.155220
  19 H :    0.154629
  20 H :    0.155120
  21 H :    0.155163
  22 H :    0.157583
  23 H :    0.159187

  Mayer bond orders larger than 0.100000
B(  0-C ,  1-C ) :   0.8817 B(  0-C ,  8-H ) :   0.9783 B(  0-C ,  9-H ) :   0.9685
B(  0-C , 10-H ) :   0.9832 B(  1-C ,  2-C ) :   0.9023 B(  1-C , 11-H ) :   0.9666
B(  1-C , 12-H ) :   0.9956 B(  2-C ,  3-C ) :   0.8613 B(  2-C , 13-H ) :   0.9866
B(  2-C , 14-H ) :   0.9779 B(  3-C ,  4-C ) :   0.8867 B(  3-C ,  7-C ) :   0.8972
B(  3-C , 15-H ) :   0.9614 B(  4-C ,  5-C ) :   0.9274 B(  4-C , 16-H ) :   0.9812
B(  4-C , 17-H ) :   0.9921 B(  5-C ,  6-C ) :   0.8988 B(  5-C , 18-H ) :   0.9574
B(  5-C , 19-H ) :   0.9954 B(  6-C ,  7-C ) :   0.8747 B(  6-C , 20-H ) :   0.9826
B(  6-C , 21-H ) :   0.9589 B(  7-C , 22-H ) :   0.9540 B(  7-C , 23-H ) :   1.0118

Dispersion correction           -0.007088320
FINAL SINGLE POINT ENERGY      -314.380366173346

DIPOLE MOMENT
-------------

Method             : SCF
Type of density    : Electron Density
Multiplicity       :   1
Irrep              :   0
Energy             :  -314.3835010241334089 Eh
Relativity type    :
Basis              : AO
                                X                 Y                 Z
Electronic contribution:      2.315071276       1.287351159       0.080771188
Nuclear contribution   :     -2.316795981      -1.253337795      -0.059191768
                        -----------------------------------------
Total Dipole Moment    :     -0.001724704       0.034013364       0.021579420
                        -----------------------------------------
Magnitude (a.u.)       :      0.040318171
Magnitude (Debye)      :      0.102480647

Rotational constants in cm-1:             0.139376             0.038973             0.032922
Rotational constants in MHz :          4178.384412          1168.374926           986.991088

                             ****ORCA TERMINATED NORMALLY****
TOTAL RUN TIME: 0 days 0 hours 0 minutes 25 seconds 411 msec
