                         Program Version 6.0.0  -   RELEASE  -
|  1> ! r2scan-3c def2/J RI DEFGRID2 scfconv6 printgap
|  2> %output
|  3>     printlevel normal
|  4> end
|  5> %cpcm
|  6>     smd true
|  7>     smdsolvent "water"
|  8> end
|  9> * xyz 0 1
| 10> C -2.667267556 -1.2404917792 0.2244014103
| 11> C -2.4948768258 0.2697941316 0.1171394863
| 12> C -1.1876404423 0.7076470673 -0.5470400666
| 13> C 0.0761022408 0.4134892482 0.2664599078
| 14> C 0.6320525128 -1.0201973222 0.110207824
| 15> C 2.1220271044 -0.8777338241 -0.236325906
| 16> C 2.4866389404 0.5324496082 0.2193990295
| 17> C 1.2401916986 1.3271486736 -0.1489472302
| 18> H -1.9177523234 -1.6723722568 0.8806139818
| 19> H -3.6498336952 -1.4762094938 0.627252652
| 20> H -2.5800449204 -1.7050612078 -0.7552478755
| 21> H -3.3248527534 0.6750207362 -0.4672022067
| 22> H -2.5518466756 0.7104889216 1.1152651851
| 23> H -1.104205849 0.2412729249 -1.5313075192
| 24> H -1.2432524925 1.7888076371 -0.700743838
| 25> H -0.1459624755 0.5975062168 1.3223662029
| 26> H 0.5139036776 -1.5774064358 1.0396620153
| 27> H 0.1053952286 -1.5641636709 -0.6720618746
| 28> H 2.731024855 -1.6429487794 0.242942656
| 29> H 2.2655215421 -0.9573036772 -1.3148904729
| 30> H 2.6365454681 0.5524055475 1.3001357084
| 31> H 3.387063176 0.9101878148 -0.2628706899
| 32> H 1.1945471712 2.2984658692 0.3418696575
| 33> H 1.2142475566 1.4853610453 -1.2288768462
| 34> *
| 35>
| 36>                          ****END OF INPUT****

CARTESIAN COORDINATES (ANGSTROEM)
---------------------------------
  C     -2.667268   -1.240492    0.224401
  C     -2.494877    0.269794    0.117139
  C     -1.187640    0.707647   -0.547040
  C      0.076102    0.413489    0.266460
  C      0.632053   -1.020197    0.110208
  C      2.122027   -0.877734   -0.236326
  C      2.486639    0.532450    0.219399
  C      1.240192    1.327149   -0.148947
  H     -1.917752   -1.672372    0.880614
  H     -3.649834   -1.476209    0.627253
  H     -2.580045   -1.705061   -0.755248
  H     -3.324853    0.675021   -0.467202
  H     -2.551847    0.710489    1.115265
  H     -1.104206    0.241273   -1.531308
  H     -1.243252    1.788808   -0.700744
  H     -0.145962    0.597506    1.322366
  H      0.513904   -1.577406    1.039662
  H      0.105395   -1.564164   -0.672062
  H      2.731025   -1.642949    0.242943
  H      2.265522   -0.957304   -1.314890
  H      2.636545    0.552406    1.300136
  H      3.387063    0.910188   -0.262871
  H      1.194547    2.298466    0.341870
  H      1.214248    1.485361   -1.228877

 Total Charge           Charge          ....    0
 Multiplicity           Mult            ....    1
 Number of Electrons    NEL             ....   64
 Basis Dimension        Dim             ....  232

ORBITAL ENERGIES
----------------

  NO   OCC          E(Eh)            E(eV)
   0   2.0000     -10.016991      -272.5762
   1   2.0000     -10.013876      -272.4914
   2   2.0000     -10.011178      -272.4180
   3   2.0000     -10.010896      -272.4103
   4   2.0000     -10.010663      -272.4040
   5   2.0000     -10.009659      -272.3767
   6   2.0000     -10.008400      -272.3424
   7   2.0000     -10.005256      -272.2569
   8   2.0000      -0.797823       -21.7099
   9   2.0000      -0.742247       -20.1976
  10   2.0000      -0.679157       -18.4808
  11   2.0000      -0.663629       -18.0583
  12   2.0000      -0.617341       -16.7987
  13   2.0000      -0.539509       -14.6808
  14   2.0000      -0.527440       -14.3524
  15   2.0000      -0.504844       -13.7375
  16   2.0000      -0.444352       -12.0914
  17   2.0000      -0.431368       -11.7381
  18   2.0000      -0.400163       -10.8890
  19   2.0000      -0.392507       -10.6807
  20   2.0000      -0.377446       -10.2708
  21   2.0000      -0.373156       -10.1541
  22   2.0000      -0.343929        -9.3588
  23   2.0000      -0.323884        -8.8133
  24   2.0000      -0.312049        -8.4913
  25   2.0000      -0.294326        -8.0090
  26   2.0000      -0.292394        -7.9565
  27   2.0000      -0.290880        -7.9153
  28   2.0000      -0.282393        -7.6843
  29   2.0000      -0.271064        -7.3760
  30   2.0000      -0.265065        -7.2128
  31   2.0000      -0.262259        -7.1364
  32   0.0000       0.094027         2.5586
  33   0.0000       0.095767         2.6060
  34   0.0000       0.104895         2.8543
  35   0.0000       0.122640         3.3372
  36   0.0000       0.131033         3.5656

MULLIKEN ATOMIC CHARGES
-----------------------
   0 C :   -0.528970
   1 C :   -0.256920
   2 C :   -0.330083
   3 C :    0.024228
   4 C :   -0.444685
   5 C :   -0.335699
   6 C :   -0.262842
   7 C :   -0.400949
   8 H :    0.161136
   9 H :    0.152866
  10 H :    0.156627
  11 H :    0.146492
  12 H :    0.147263
  13 H :    0.156341
  14 H :    0.149681
  15 H :    0.166550
  16 H :    0.171282
  17 H :    0.173582
  18 H :    0.156889
  19 H :    0.159875
  20 H :    0.154835
  21 H :    0.156999
  22 H :    0.161538
  23 H :    0.163965
Sum of atomic charges:    0.0000000

LOEWDIN ATOMIC CHARGES
----------------------
   0 C :   -0.433880
   1 C :   -0.316797
   2 C :   -0.303717
   3 C :   -0.224903
   4 C :   -0.310233
   5 C :   -0.308880
   6 C :   -0.307908
   7 C :   -0.301937
   8 H :    0.154303
   9 H :    0.150612
  10 H :    0.151975
  11 H :    0.151918
  12 H :    0.152624
  13 H :    0.157969
  14 H :    0.159550
  15 H :    0.162535
  16 H :    0.158899
  17 H :    0.160999
  18 H :    0.156523
  19 H :    0.156555
  20 H :    0.157307
  21 H :    0.156574
  22 H :    0.159235
  23 H :    0.160680

  Mayer bond orders larger than 0.100000
B(  0-C ,  1-C ) :   0.8755 B(  0-C ,  8-H ) :   0.9777 B(  0-C ,  9-H ) :   0.9668
B(  0-C , 10-H ) :   0.9793 B(  1-C ,  2-C ) :   0.8993 B(  1-C , 11-H ) :   0.9662
B(  1-C , 12-H ) :   0.9957 B(  2-C ,  3-C ) :   0.8592 B(  2-C , 13-H ) :   0.9840
B(  2-C , 14-H ) :   0.9783 B(  3-C ,  4-C ) :   0.8848 B(  3-C ,  7-C ) :   0.8954
B(  3-C , 15-H ) :   0.9618 B(  4-C ,  5-C ) :   0.9217 B(  4-C , 16-H ) :   0.9812
B(  4-C , 17-H ) :   0.9903 B(  5-C ,  6-C ) :   0.8957 B(  5-C , 18-H ) :   0.9560
B(  5-C , 19-H ) :   0.9930 B(  6-C ,  7-C ) :   0.8737 B(  6-C , 20-H ) :   0.9812
B(  6-C , 21-H ) :   0.9578 B(  7-C , 22-H ) :   0.9529 B(  7-C , 23-H ) :   1.0093

Dispersion correction           -0.007088320
FINAL SINGLE POINT ENERGY      -314.377735418539

DIPOLE MOMENT
-------------

Method             : SCF
Type of density    : Electron Density
Multiplicity       :   1
Irrep              :   0
Energy             :  -314.3808702693261807 Eh
Relativity type    :
Basis              : AO
                                X                 Y                 Z
Electronic contribution:      2.301490200       1.293878710       0.087584847
Nuclear contribution   :     -2.316795981      -1.253337795      -0.059191768
                        -----------------------------------------
Total Dipole Moment    :     -0.015305781       0.040540915       0.028393079
                        -----------------------------------------
Magnitude (a.u.)       :      0.051807332
Magnitude (Debye)      :      0.131683772

Rotational constants in cm-1:             0.139376             0.038973             0.032922
Rotational constants in MHz :          4178.384412          1168.374926           986.991088

                             ****ORCA TERMINATED NORMALLY****
TOTAL RUN TIME: 0 days 0 hours 0 minutes 30 seconds 263 msec
