                         Program Version 6.0.0  -   RELEASE  -
|  1> ! r2scan-3c def2/J RI DEFGRID2 scfconv6 printgap
|  2> %output
|  3>     printlevel normal
|  4> end
|  5> %cpcm
|  6>     smd true
|  7>     smdsolvent "water"
|  8> end
|  9> * xyz 0 1
| 10> C -1.655945193 1.2057515964 0.7073289004
| 11> C -1.3875299721 0.037589569 -0.2323027025
| 12> C -0.0088829694 -0.6085543982 -0.0409166365
| 13> C 1.1603052545 0.3313251567 -0.3939383035
| 14> C 1.8152613171 0.9666468357 0.8276448546
| 15> O 0.0645373956 -1.8159296251 -0.7876780076
| 16> H -0.9905307742 2.0375590149 0.4944106774
| 17> H -2.6798760685 1.5500028482 0.5848524467
| 18> H -1.5169201307 0.9019964768 1.7420670806
| 19> H -2.1385999501 -0.7390034069 -0.0675430765
| 20> H -1.4781491417 0.375185226 -1.268388837
| 21> H 0.0936242557 -0.9385816025 0.9991578871
| 22> H 1.9132685428 -0.2620359834 -0.9182422741
| 23> H 0.813752518 1.110956338 -1.0753303111
| 24> H 1.1034684698 1.5623573667 1.3913384777
| 25> H 2.2137943715 0.1970298701 1.4846135089
| 26> H 2.6347332869 1.6107190637 0.517621574
| 27> H -0.0779176417 -1.6125360579 -1.7226004255
| 28> *
| 29>
| 30>                          ****END OF INPUT****

CARTESIAN COORDINATES (ANGSTROEM)
---------------------------------
  C     -1.655945    1.205752    0.707329
  C     -1.387530    0.037590   -0.232303
  C     -0.008883   -0.608554   -0.040917
  C      1.160305    0.331325   -0.393938
  C      1.815261    0.966647    0.827645
  O      0.064537   -1.815930   -0.787678
  H     -0.990531    2.037559    0.494411
  H     -2.679876    1.550003    0.584852
  H     -1.516920    0.901996    1.742067
  H     -2.138600   -0.739003   -0.067543
  H     -1.478149    0.375185   -1.268389
  H      0.093624   -0.938582    0.999158
  H      1.913269   -0.262036   -0.918242
  H      0.813753    1.110956   -1.075330
  H      1.103468    1.562357    1.391338
  H      2.213794    0.197030    1.484614
  H      2.634733    1.610719    0.517622
  H     -0.077918   -1.612536   -1.722600

 Total Charge           Charge          ....    0
 Multiplicity           Mult            ....    1
 Number of Electrons    NEL             ....   50
 Basis Dimension        Dim             ....  179

ORBITAL ENERGIES
----------------

  NO   OCC          E(Eh)            E(eV)
   0   2.0000     -18.945586      -515.5356
   1   2.0000     -10.071380      -274.0562
   2   2.0000     -10.017247      -272.5831
   3   2.0000     -10.015811      -272.5441
   4   2.0000     -10.010276      -272.3934
   5   2.0000     -10.009422      -272.3702
   6   2.0000      -0.982746       -26.7419
   7   2.0000      -0.753369       -20.5002
   8   2.0000      -0.710309       -19.3285
   9   2.0000      -0.632547       -17.2125
  10   2.0000      -0.573030       -15.5929
  11   2.0000      -0.547449       -14.8968
  12   2.0000      -0.454572       -12.3695
  13   2.0000      -0.424908       -11.5623
  14   2.0000      -0.410701       -11.1758
  15   2.0000      -0.393590       -10.7101
  16   2.0000      -0.370214       -10.0740
  17   2.0000      -0.351756        -9.5718
  18   2.0000      -0.345219        -9.3939
  19   2.0000      -0.321527        -8.7492
  20   2.0000      -0.314484        -8.5575
  21   2.0000      -0.309499        -8.4219
  22   2.0000      -0.283684        -7.7194
  23   2.0000      -0.275757        -7.5037
  24   2.0000      -0.232801        -6.3348
  25   0.0000       0.076513         2.0820
  26   0.0000       0.098224         2.6728
  27   0.0000       0.119360         3.2480
  28   0.0000       0.126853         3.4518
  29   0.0000       0.133348         3.6286

MULLIKEN ATOMIC CHARGES
-----------------------
   0 C :   -0.537728
   1 C :   -0.273802
   2 C :    0.035548
   3 C :   -0.269222
   4 C :   -0.526678
   5 O :   -0.512499
   6 H :    0.164709
   7 H :    0.158553
   8 H :    0.163258
   9 H :    0.151422
  10 H :    0.158231
  11 H :    0.152701
  12 H :    0.158674
  13 H :    0.155938
  14 H :    0.161151
  15 H :    0.159212
  16 H :    0.156233
  17 H :    0.344298
Sum of atomic charges:    0.0000000

LOEWDIN ATOMIC CHARGES
----------------------
   0 C :   -0.426918
   1 C :   -0.290704
   2 C :    0.050055
   3 C :   -0.295319
   4 C :   -0.426413
   5 O :   -0.654635
   6 H :    0.154979
   7 H :    0.154945
   8 H :    0.155042
   9 H :    0.161170
  10 H :    0.160434
  11 H :    0.183649
  12 H :    0.168474
  13 H :    0.160659
  14 H :    0.153995
  15 H :    0.152900
  16 H :    0.153638
  17 H :    0.284049

  Mayer bond orders larger than 0.100000
B(  0-C ,  1-C ) :   0.8648 B(  0-C ,  6-H ) :   0.9727 B(  0-C ,  7-H ) :   0.9623
B(  0-C ,  8-H ) :   0.9792 B(  1-C ,  2-C ) :   0.9194 B(  1-C ,  9-H ) :   0.9733
B(  1-C , 10-H ) :   0.9799 B(  2-C ,  3-C ) :   0.8559 B(  2-C ,  5-O ) :   0.9239
B(  2-C , 11-H ) :   0.9702 B(  3-C ,  4-C ) :   0.8880 B(  3-C , 12-H ) :   0.9720
B(  3-C , 13-H ) :   0.9597 B(  4-C , 14-H ) :   0.9700 B(  4-C , 15-H ) :   0.9838
B(  4-C , 16-H ) :   0.9691 B(  5-O , 17-H ) :   0.8713

Dispersion correction           -0.004376795
FINAL SINGLE POINT ENERGY      -272.904765802531

DIPOLE MOMENT
-------------

Method             : SCF
Type of density    : Electron Density
Multiplicity       :   1
Irrep              :   0
Energy             :  -272.9100449026713591 Eh
Relativity type    :
Basis              : AO
                                X                 Y                 Z
Electronic contribution:     -0.053951340      -4.556781579      -2.343737096
Nuclear contribution   :     -0.101632551       5.408441695       2.016579671
                        -----------------------------------------
Total Dipole Moment    :     -0.155583891       0.851660116      -0.327157426
                        -----------------------------------------
Magnitude (a.u.)       :      0.925507040
Magnitude (Debye)      :      2.352451943

Rotational constants in cm-1:             0.114207             0.103578             0.060506
Rotational constants in MHz :          3423.848853          3105.177919          1813.926051

                             ****ORCA TERMINATED NORMALLY****
TOTAL RUN TIME: 0 days 0 hours 0 minutes 28 seconds 413 msec
