                         Program Version 6.0.0  -   RELEASE  -
|  1> ! r2scan-3c def2/J RI DEFGRID2 scfconv6 printgap
|  2> %output
|  3>     printlevel normal
|  4> end
|  5> * xyz 0 1
|  6> C -1.7583611423 0.9209228048 -0.3831071152
|  7> C -1.0386529402 0.2339362527 0.77178941
|  8> C 0.1422092268 -0.6382977726 0.3273422122
|  9> C 1.20511997 0.1089864268 -0.4883408946
| 10> C 1.8569984685 1.2503608002 0.2820391125
| 11> O -0.3996231042 -1.721070224 -0.4154405248
| 12> H -2.6737132625 1.385025074 -0.0250045287
| 13> H -1.1377567588 1.6916861268 -0.8319008935
| 14> H -2.0151391332 0.1872969226 -1.1431331069
| 15> H -0.6829130993 0.9716405566 1.4907702719
| 16> H -1.7418259931 -0.4259433464 1.2840064736
| 17> H 0.6213720654 -1.0379173954 1.239127094
| 18> H 1.9779281436 -0.6102807771 -0.77384031
| 19> H 0.7499221085 0.484043555 -1.4056528726
| 20> H 2.2550764106 0.8907273573 1.2283767491
| 21> H 2.6745055535 1.6702822592 -0.2984018405
| 22> H 1.1429849668 2.0427154726 0.4872800549
| 23> H 0.3192766805 -2.2839480881 -0.7312188325
| 24> *
| 25>
| 26>                          ****END OF INPUT****

CARTESIAN COORDINATES (ANGSTROEM)
---------------------------------
  C     -1.758361    0.920923   -0.383107
  C     -1.038653    0.233936    0.771789
  C      0.142209   -0.638298    0.327342
  C      1.205120    0.108986   -0.488341
  C      1.856998    1.250361    0.282039
  O     -0.399623   -1.721070   -0.415441
  H     -2.673713    1.385025   -0.025005
  H     -1.137757    1.691686   -0.831901
  H     -2.015139    0.187297   -1.143133
  H     -0.682913    0.971641    1.490770
  H     -1.741826   -0.425943    1.284006
  H      0.621372   -1.037917    1.239127
  H      1.977928   -0.610281   -0.773840
  H      0.749922    0.484044   -1.405653
  H      2.255076    0.890727    1.228377
  H      2.674506    1.670282   -0.298402
  H      1.142985    2.042715    0.487280
  H      0.319277   -2.283948   -0.731219

 Total Charge           Charge          ....    0
 Multiplicity           Mult            ....    1
 Number of Electrons    NEL             ....   50
 Basis Dimension        Dim             ....  179

ORBITAL ENERGIES
----------------

  NO   OCC          E(Eh)            E(eV)
   0   2.0000     -18.943213      -515.4710
   1   2.0000     -10.077355      -274.2188
   2   2.0000     -10.027086      -272.8509
   3   2.0000     -10.022159      -272.7168
   4   2.0000     -10.022100      -272.7152
   5   2.0000     -10.010616      -272.4027
   6   2.0000      -0.981135       -26.6980
   7   2.0000      -0.761596       -20.7241
   8   2.0000      -0.716344       -19.4927
   9   2.0000      -0.638193       -17.3661
  10   2.0000      -0.590006       -16.0549
  11   2.0000      -0.525844       -14.3089
  12   2.0000      -0.479962       -13.0604
  13   2.0000      -0.443824       -12.0771
  14   2.0000      -0.395502       -10.7621
  15   2.0000      -0.393567       -10.7095
  16   2.0000      -0.379270       -10.3205
  17   2.0000      -0.372406       -10.1337
  18   2.0000      -0.338191        -9.2027
  19   2.0000      -0.329750        -8.9729
  20   2.0000      -0.317576        -8.6417
  21   2.0000      -0.305753        -8.3200
  22   2.0000      -0.299289        -8.1441
  23   2.0000      -0.276893        -7.5347
  24   2.0000      -0.230919        -6.2836
  25   0.0000       0.063815         1.7365
  26   0.0000       0.087488         2.3807
  27   0.0000       0.117857         3.2071
  28   0.0000       0.118237         3.2174
  29   0.0000       0.137146         3.7319

MULLIKEN ATOMIC CHARGES
-----------------------
   0 C :   -0.522592
   1 C :   -0.244920
   2 C :    0.030507
   3 C :   -0.245130
   4 C :   -0.501893
   5 O :   -0.430350
   6 H :    0.146467
   7 H :    0.143979
   8 H :    0.177424
   9 H :    0.144254
  10 H :    0.147927
  11 H :    0.134567
  12 H :    0.124273
  13 H :    0.161270
  14 H :    0.149319
  15 H :    0.148421
  16 H :    0.153812
  17 H :    0.282666
Sum of atomic charges:    0.0000000

LOEWDIN ATOMIC CHARGES
----------------------
   0 C :   -0.420747
   1 C :   -0.282246
   2 C :    0.050654
   3 C :   -0.295389
   4 C :   -0.419744
   5 O :   -0.621082
   6 H :    0.151062
   7 H :    0.147875
   8 H :    0.164625
   9 H :    0.157402
  10 H :    0.166756
  11 H :    0.161779
  12 H :    0.152341
  13 H :    0.162467
  14 H :    0.152207
  15 H :    0.152753
  16 H :    0.151821
  17 H :    0.267465

  Mayer bond orders larger than 0.100000
B(  0-C ,  1-C ) :   0.8817 B(  0-C ,  6-H ) :   0.9701 B(  0-C ,  7-H ) :   0.9777
B(  0-C ,  8-H ) :   0.9804 B(  1-C ,  2-C ) :   0.9283 B(  1-C ,  9-H ) :   0.9734
B(  1-C , 10-H ) :   0.9618 B(  2-C ,  3-C ) :   0.8991 B(  2-C ,  5-O ) :   0.8915
B(  2-C , 11-H ) :   0.9766 B(  3-C ,  4-C ) :   0.8855 B(  3-C , 12-H ) :   0.9577
B(  3-C , 13-H ) :   0.9761 B(  4-C , 14-H ) :   0.9817 B(  4-C , 15-H ) :   0.9656
B(  4-C , 16-H ) :   0.9786 B(  5-O , 17-H ) :   0.9023

Dispersion correction           -0.004432012
FINAL SINGLE POINT ENERGY      -272.902535368326

DIPOLE MOMENT
-------------

Method             : SCF
Type of density    : Electron Density
Multiplicity       :   1
Irrep              :   0
Energy             :  -272.9077345396609644 Eh
Relativity type    :
Basis              : AO
                                X                 Y                 Z
Electronic contribution:     -0.818365446      -4.527881805      -0.408770827
Nuclear contribution   :      1.391668358       4.632748407       0.482062775
                        -----------------------------------------
Total Dipole Moment    :      0.573302912       0.104866602       0.073291948
                        -----------------------------------------
Magnitude (a.u.)       :      0.587405263
Magnitude (Debye)      :      1.493065523

Rotational constants in cm-1:             0.134250             0.093399             0.067131
Rotational constants in MHz :          4024.714890          2800.023281          2012.544848

                             ****ORCA TERMINATED NORMALLY****
TOTAL RUN TIME: 0 days 0 hours 0 minutes 23 seconds 795 msec
