                         Program Version 6.0.0  -   RELEASE  -
|  1> ! r2scan-3c def2/J RI DEFGRID2 scfconv6 printgap
|  2> %output
|  3>     printlevel normal
|  4> end
|  5> %cpcm
|  6>     smd true
|  7>     smdsolvent "water"
|  8> end
|  9> * xyz 0 1
| 10> C -1.7583611423 0.9209228048 -0.3831071152
| 11> C -1.0386529402 0.2339362527 0.77178941
| 12> C 0.1422092268 -0.6382977726 0.3273422122
| 13> C 1.20511997 0.1089864268 -0.4883408946
| 14> C 1.8569984685 1.2503608002 0.2820391125
| 15> O -0.3996231042 -1.721070224 -0.4154405248
| 16> H -2.6737132625 1.385025074 -0.0250045287
| 17> H -1.1377567588 1.6916861268 -0.8319008935
| 18> H -2.0151391332 0.1872969226 -1.1431331069
| 19> H -0.6829130993 0.9716405566 1.4907702719
| 20> H -1.7418259931 -0.4259433464 1.2840064736
| 21> H 0.6213720654 -1.0379173954 1.239127094
| 22> H 1.9779281436 -0.6102807771 -0.77384031
| 23> H 0.7499221085 0.484043555 -1.4056528726
| 24> H 2.2550764106 0.8907273573 1.2283767491
| 25> H 2.6745055535 1.6702822592 -0.2984018405
| 26> H 1.1429849668 2.0427154726 0.4872800549
| 27> H 0.3192766805 -2.2839480881 -0.7312188325
| 28> *
| 29>
| 30>                          ****END OF INPUT****

CARTESIAN COORDINATES (ANGSTROEM)
---------------------------------
  C     -1.758361    0.920923   -0.383107
  C     -1.038653    0.233936    0.771789
  C      0.142209   -0.638298    0.327342
  C      1.205120    0.108986   -0.488341
  C      1.856998    1.250361    0.282039
  O     -0.399623   -1.721070   -0.415441
  H     -2.673713    1.385025   -0.025005
  H     -1.137757    1.691686   -0.831901
  H     -2.015139    0.187297   -1.143133
  H     -0.682913    0.971641    1.490770
  H     -1.741826   -0.425943    1.284006
  H      0.621372   -1.037917    1.239127
  H      1.977928   -0.610281   -0.773840
  H      0.749922    0.484044   -1.405653
  H      2.255076    0.890727    1.228377
  H      2.674506    1.670282   -0.298402
  H      1.142985    2.042715    0.487280
  H      0.319277   -2.283948   -0.731219

 Total Charge           Charge          ....    0
 Multiplicity           Mult            ....    1
 Number of Electrons    NEL             ....   50
 Basis Dimension        Dim             ....  179

ORBITAL ENERGIES
----------------

  NO   OCC          E(Eh)            E(eV)
   0   2.0000     -18.947059      -515.5757
   1   2.0000     -10.072509      -274.0869
   2   2.0000     -10.017615      -272.5932
   3   2.0000     -10.017030      -272.5773
   4   2.0000     -10.010556      -272.4011
   5   2.0000     -10.007995      -272.3314
   6   2.0000      -0.983805       -26.7707
   7   2.0000      -0.755318       -20.5532
   8   2.0000      -0.709742       -19.3131
   9   2.0000      -0.633337       -17.2340
  10   2.0000      -0.582677       -15.8554
  11   2.0000      -0.522036       -14.2053
  12   2.0000      -0.475789       -12.9469
  13   2.0000      -0.436517       -11.8782
  14   2.0000      -0.392274       -10.6743
  15   2.0000      -0.388424       -10.5695
  16   2.0000      -0.374338       -10.1863
  17   2.0000      -0.366819        -9.9817
  18   2.0000      -0.330575        -8.9954
  19   2.0000      -0.326146        -8.8749
  20   2.0000      -0.311237        -8.4692
  21   2.0000      -0.303105        -8.2479
  22   2.0000      -0.294464        -8.0128
  23   2.0000      -0.273407        -7.4398
  24   2.0000      -0.234469        -6.3802
  25   0.0000       0.079085         2.1520
  26   0.0000       0.097622         2.6564
  27   0.0000       0.123525         3.3613
  28   0.0000       0.128292         3.4910
  29   0.0000       0.143925         3.9164

MULLIKEN ATOMIC CHARGES
-----------------------
   0 C :   -0.550229
   1 C :   -0.257238
   2 C :    0.034434
   3 C :   -0.253779
   4 C :   -0.537150
   5 O :   -0.517850
   6 H :    0.159811
   7 H :    0.163042
   8 H :    0.164973
   9 H :    0.161952
  10 H :    0.152656
  11 H :    0.146154
  12 H :    0.150215
  13 H :    0.159872
  14 H :    0.161071
  15 H :    0.159223
  16 H :    0.164441
  17 H :    0.338403
Sum of atomic charges:    0.0000000

LOEWDIN ATOMIC CHARGES
----------------------
   0 C :   -0.428345
   1 C :   -0.286330
   2 C :    0.051848
   3 C :   -0.294244
   4 C :   -0.425284
   5 O :   -0.657389
   6 H :    0.154640
   7 H :    0.154356
   8 H :    0.158299
   9 H :    0.164536
  10 H :    0.165122
  11 H :    0.168648
  12 H :    0.160892
  13 H :    0.161813
  14 H :    0.155614
  15 H :    0.155540
  16 H :    0.154604
  17 H :    0.285682

  Mayer bond orders larger than 0.100000
B(  0-C ,  1-C ) :   0.8712 B(  0-C ,  6-H ) :   0.9676 B(  0-C ,  7-H ) :   0.9738
B(  0-C ,  8-H ) :   0.9818 B(  1-C ,  2-C ) :   0.9203 B(  1-C ,  9-H ) :   0.9681
B(  1-C , 10-H ) :   0.9667 B(  2-C ,  3-C ) :   0.9131 B(  2-C ,  5-O ) :   0.8774
B(  2-C , 11-H ) :   0.9722 B(  3-C ,  4-C ) :   0.8809 B(  3-C , 12-H ) :   0.9578
B(  3-C , 13-H ) :   0.9709 B(  4-C , 14-H ) :   0.9793 B(  4-C , 15-H ) :   0.9635
B(  4-C , 16-H ) :   0.9749 B(  5-O , 17-H ) :   0.8771

Dispersion correction           -0.004432012
FINAL SINGLE POINT ENERGY      -272.908427378403

DIPOLE MOMENT
-------------

Method             : SCF
Type of density    : Electron Density
Multiplicity       :   1
Irrep              :   0
Energy             :  -272.9136265497380691 Eh
Relativity type    :
Basis              : AO
                                X                 Y                 Z
Electronic contribution:     -0.536638202      -4.456565174      -0.337690910
Nuclear contribution   :      1.391668358       4.632748407       0.482062775
                        -----------------------------------------
Total Dipole Moment    :      0.855030156       0.176183233       0.144371865
                        -----------------------------------------
Magnitude (a.u.)       :      0.884850459
Magnitude (Debye)      :      2.249111126

Rotational constants in cm-1:             0.134250             0.093399             0.067131
Rotational constants in MHz :          4024.714890          2800.023281          2012.544848

                             ****ORCA TERMINATED NORMALLY****
TOTAL RUN TIME: 0 days 0 hours 0 minutes 27 seconds 886 msec
