                         Program Version 6.0.0  -   RELEASE  -
|  1> ! pbe def2-sv(p) def2/J RI DEFGRID1 loosescf d4 GCP(DFT/SV(P)) printgap
|  2> %output
|  3>     printlevel normal
|  4> end
|  5> * xyz 0 1
|  6> C 1.878585064 -1.0646057183 0.3387469166
|  7> C 1.274875278 0.2351605312 0.8625829658
|  8> C 0.1806779123 0.8592461278 -0.0225467003
|  9> H -0.0361303614 1.8529480542 0.4127833459
| 10> C -1.1798604175 0.1338039011 -0.0999200474
| 11> C -1.1358030276 -1.1943232051 -0.8523600644
| 12> C -1.8052598729 -0.0435414341 1.2805232395
| 13> O 0.6318717351 1.0394664135 -1.3552692374
| 14> H 2.8513578548 -1.2315492695 0.7955470098
| 15> H 2.0058182979 -1.0124291885 -0.7396466765
| 16> H 1.2491829527 -1.9179593937 0.5694807044
| 17> H 0.8729941024 0.0909204782 1.8647327434
| 18> H 2.0736565403 0.9788606895 0.9404982206
| 19> H -1.8153578114 0.8116758997 -0.683298296
| 20> H -0.5497271575 -1.0866684896 -1.760534675
| 21> H -0.7052701688 -1.9809981117 -0.2413757503
| 22> H -2.1458416509 -1.4915217684 -1.1249410827
| 23> H -1.8178733394 0.8983523482 1.8243527661
| 24> H -1.2537670079 -0.7765663708 1.8634984922
| 25> H -2.8284930239 -0.3948633227 1.1757571111
| 26> H 1.4451266942 1.5611135456 -1.342332998
| 27> *
| 28>
| 29>                          ****END OF INPUT****

CARTESIAN COORDINATES (ANGSTROEM)
---------------------------------
  C      1.878585   -1.064606    0.338747
  C      1.274875    0.235161    0.862583
  C      0.180678    0.859246   -0.022547
  H     -0.036130    1.852948    0.412783
  C     -1.179860    0.133804   -0.099920
  C     -1.135803   -1.194323   -0.852360
  C     -1.805260   -0.043541    1.280523
  O      0.631872    1.039466   -1.355269
  H      2.851358   -1.231549    0.795547
  H      2.005818   -1.012429   -0.739647
  H      1.249183   -1.917959    0.569481
  H      0.872994    0.090920    1.864733
  H      2.073657    0.978861    0.940498
  H     -1.815358    0.811676   -0.683298
  H     -0.549727   -1.086668   -1.760535
  H     -0.705270   -1.980998   -0.241376
  H     -2.145842   -1.491522   -1.124941
  H     -1.817873    0.898352    1.824353
  H     -1.253767   -0.776566    1.863498
  H     -2.828493   -0.394863    1.175757
  H      1.445127    1.561114   -1.342333

 Total Charge           Charge          ....    0
 Multiplicity           Mult            ....    1
 Number of Electrons    NEL             ....   58
 Basis Dimension        Dim             ....  126

ORBITAL ENERGIES
----------------

  NO   OCC          E(Eh)            E(eV)
   0   2.0000     -18.740904      -509.9659
   1   2.0000      -9.932685      -270.2821
   2   2.0000      -9.888843      -269.0891
   3   2.0000      -9.884044      -268.9585
   4   2.0000      -9.872472      -268.6436
   5   2.0000      -9.869571      -268.5647
   6   2.0000      -9.861745      -268.3517
   7   2.0000      -0.918205       -24.9856
   8   2.0000      -0.722752       -19.6671
   9   2.0000      -0.680421       -18.5152
  10   2.0000      -0.608109       -16.5475
  11   2.0000      -0.600754       -16.3473
  12   2.0000      -0.542154       -14.7528
  13   2.0000      -0.480625       -13.0785
  14   2.0000      -0.443269       -12.0620
  15   2.0000      -0.428788       -11.6679
  16   2.0000      -0.407172       -11.0797
  17   2.0000      -0.381647       -10.3851
  18   2.0000      -0.371229       -10.1016
  19   2.0000      -0.344966        -9.3870
  20   2.0000      -0.334666        -9.1067
  21   2.0000      -0.322720        -8.7817
  22   2.0000      -0.319290        -8.6883
  23   2.0000      -0.317534        -8.6405
  24   2.0000      -0.289067        -7.8659
  25   2.0000      -0.285997        -7.7824
  26   2.0000      -0.277600        -7.5539
  27   2.0000      -0.254318        -6.9204
  28   2.0000      -0.212382        -5.7792
  29   0.0000       0.019204         0.5226
  30   0.0000       0.048102         1.3089
  31   0.0000       0.060470         1.6455
  32   0.0000       0.076975         2.0946
  33   0.0000       0.083602         2.2749

MULLIKEN ATOMIC CHARGES
-----------------------
   0 C :   -0.267050
   1 C :   -0.201345
   2 C :    0.054103
   3 H :    0.050970
   4 C :   -0.154279
   5 C :   -0.246431
   6 C :   -0.257588
   7 O :   -0.415326
   8 H :    0.097492
   9 H :    0.099643
  10 H :    0.108084
  11 H :    0.087656
  12 H :    0.071636
  13 H :    0.074266
  14 H :    0.116280
  15 H :    0.092713
  16 H :    0.093283
  17 H :    0.097126
  18 H :    0.102423
  19 H :    0.101233
  20 H :    0.295113
Sum of atomic charges:   -0.0000000

LOEWDIN ATOMIC CHARGES
----------------------
   0 C :   -0.347436
   1 C :   -0.249235
   2 C :   -0.046647
   3 H :    0.094540
   4 C :   -0.158242
   5 C :   -0.334045
   6 C :   -0.329655
   7 O :   -0.325917
   8 H :    0.117990
   9 H :    0.118501
  10 H :    0.117333
  11 H :    0.120796
  12 H :    0.110856
  13 H :    0.120457
  14 H :    0.124917
  15 H :    0.112379
  16 H :    0.117237
  17 H :    0.115814
  18 H :    0.115716
  19 H :    0.121451
  20 H :    0.283189

  Mayer bond orders larger than 0.100000
B(  0-C ,  1-C ) :   1.1605 B(  0-C ,  8-H ) :   0.9483 B(  0-C ,  9-H ) :   0.9402
B(  0-C , 10-H ) :   0.9464 B(  1-C ,  2-C ) :   1.0680 B(  1-C , 11-H ) :   0.9084
B(  1-C , 12-H ) :   0.9182 B(  2-C ,  3-H ) :   0.8971 B(  2-C ,  4-C ) :   1.0428
B(  2-C ,  7-O ) :   1.0519 B(  4-C ,  5-C ) :   1.1288 B(  4-C ,  6-C ) :   1.1052
B(  4-C , 13-H ) :   0.8900 B(  5-C , 14-H ) :   0.9389 B(  5-C , 15-H ) :   0.9398
B(  5-C , 16-H ) :   0.9471 B(  6-C , 17-H ) :   0.9484 B(  6-C , 18-H ) :   0.9409
B(  6-C , 19-H ) :   0.9489 B(  7-O , 20-H ) :   0.8489

Dispersion correction           -0.017375655
FINAL SINGLE POINT ENERGY      -311.515156311117

DIPOLE MOMENT
-------------

Method             : SCF
Type of density    : Electron Density
Multiplicity       :   1
Irrep              :   0
Energy             :  -311.5945573348361677 Eh
Relativity type    :
Basis              : AO
                                X                 Y                 Z
Electronic contribution:      0.906868380       3.721757918      -2.951174046
Nuclear contribution   :     -0.604485533      -3.454544859       3.314608705
                        -----------------------------------------
Total Dipole Moment    :      0.302382847       0.267213059       0.363434660
                        -----------------------------------------
Magnitude (a.u.)       :      0.543068096
Magnitude (Debye)      :      1.380369400

Rotational constants in cm-1:             0.100132             0.065603             0.060166
Rotational constants in MHz :          3001.877780          1966.735022          1803.727025

                             ****ORCA TERMINATED NORMALLY****
TOTAL RUN TIME: 0 days 0 hours 0 minutes 9 seconds 351 msec
