                         Program Version 6.0.0  -   RELEASE  -
|  1> ! r2scan-3c def2/J RI DEFGRID2 scfconv6 printgap
|  2> %output
|  3>     printlevel normal
|  4> end
|  5> * xyz 0 1
|  6> C -1.8288198979 0.9850496264 0.7985128782
|  7> C -1.1496468125 0.3407793023 -0.4051738809
|  8> C 0.0029643155 -0.6055632674 -0.0169386875
|  9> C 1.3885490179 0.0135666858 -0.2270135406
| 10> C 1.6662527474 1.2155872749 0.6641919989
| 11> O -0.0106510146 -1.7930075318 -0.799895275
| 12> H -2.2562578916 0.2255477941 1.4493967474
| 13> H -1.1213099902 1.5712818068 1.3776182421
| 14> H -2.6295290866 1.6413846692 0.4667176289
| 15> H -1.8922279251 -0.2331939793 -0.9645651686
| 16> H -0.7731919566 1.1135223248 -1.0769919023
| 17> H -0.1004669393 -0.8809379985 1.0450782175
| 18> H 2.1248488021 -0.7690214599 -0.0315444488
| 19> H 1.480558624 0.2913181227 -1.278874514
| 20> H 1.5308811808 0.9532294497 1.71093054
| 21> H 2.6912213811 1.5482910911 0.5230494783
| 22> H 1.0042033092 2.0421497111 0.4220449789
| 23> H -0.8346545947 -2.2723326927 -0.6406275554
| 24> *
| 25>
| 26>                          ****END OF INPUT****

CARTESIAN COORDINATES (ANGSTROEM)
---------------------------------
  C     -1.828820    0.985050    0.798513
  C     -1.149647    0.340779   -0.405174
  C      0.002964   -0.605563   -0.016939
  C      1.388549    0.013567   -0.227014
  C      1.666253    1.215587    0.664192
  O     -0.010651   -1.793008   -0.799895
  H     -2.256258    0.225548    1.449397
  H     -1.121310    1.571282    1.377618
  H     -2.629529    1.641385    0.466718
  H     -1.892228   -0.233194   -0.964565
  H     -0.773192    1.113522   -1.076992
  H     -0.100467   -0.880938    1.045078
  H      2.124849   -0.769021   -0.031544
  H      1.480559    0.291318   -1.278875
  H      1.530881    0.953229    1.710931
  H      2.691221    1.548291    0.523049
  H      1.004203    2.042150    0.422045
  H     -0.834655   -2.272333   -0.640628

 Total Charge           Charge          ....    0
 Multiplicity           Mult            ....    1
 Number of Electrons    NEL             ....   50
 Basis Dimension        Dim             ....  179

ORBITAL ENERGIES
----------------

  NO   OCC          E(Eh)            E(eV)
   0   2.0000     -18.941616      -515.4276
   1   2.0000     -10.076996      -274.2090
   2   2.0000     -10.025619      -272.8110
   3   2.0000     -10.021912      -272.7101
   4   2.0000     -10.020875      -272.6819
   5   2.0000     -10.019565      -272.6462
   6   2.0000      -0.979166       -26.6445
   7   2.0000      -0.761841       -20.7307
   8   2.0000      -0.719242       -19.5716
   9   2.0000      -0.640764       -17.4361
  10   2.0000      -0.582968       -15.8634
  11   2.0000      -0.535109       -14.5611
  12   2.0000      -0.475876       -12.9492
  13   2.0000      -0.440104       -11.9758
  14   2.0000      -0.418850       -11.3975
  15   2.0000      -0.382422       -10.4062
  16   2.0000      -0.379146       -10.3171
  17   2.0000      -0.365324        -9.9410
  18   2.0000      -0.341953        -9.3050
  19   2.0000      -0.331302        -9.0152
  20   2.0000      -0.323951        -8.8152
  21   2.0000      -0.309953        -8.4342
  22   2.0000      -0.295344        -8.0367
  23   2.0000      -0.274220        -7.4619
  24   2.0000      -0.231085        -6.2881
  25   0.0000       0.063337         1.7235
  26   0.0000       0.086375         2.3504
  27   0.0000       0.109150         2.9701
  28   0.0000       0.116652         3.1743
  29   0.0000       0.127929         3.4811

MULLIKEN ATOMIC CHARGES
-----------------------
   0 C :   -0.490706
   1 C :   -0.259805
   2 C :    0.049487
   3 C :   -0.275660
   4 C :   -0.504017
   5 O :   -0.429354
   6 H :    0.144590
   7 H :    0.153302
   8 H :    0.146753
   9 H :    0.146388
  10 H :    0.148278
  11 H :    0.132191
  12 H :    0.151804
  13 H :    0.153676
  14 H :    0.151767
  15 H :    0.149022
  16 H :    0.150497
  17 H :    0.281787
Sum of atomic charges:   -0.0000000

LOEWDIN ATOMIC CHARGES
----------------------
   0 C :   -0.423314
   1 C :   -0.295424
   2 C :    0.056973
   3 C :   -0.275210
   4 C :   -0.421577
   5 O :   -0.621328
   6 H :    0.148648
   7 H :    0.151927
   8 H :    0.151152
   9 H :    0.162573
  10 H :    0.158912
  11 H :    0.160383
  12 H :    0.164903
  13 H :    0.161165
  14 H :    0.151308
  15 H :    0.153016
  16 H :    0.150259
  17 H :    0.265633

  Mayer bond orders larger than 0.100000
B(  0-C ,  1-C ) :   0.8838 B(  0-C ,  6-H ) :   0.9859 B(  0-C ,  7-H ) :   0.9715
B(  0-C ,  8-H ) :   0.9717 B(  1-C ,  2-C ) :   0.8381 B(  1-C ,  9-H ) :   0.9769
B(  1-C , 10-H ) :   0.9633 B(  2-C ,  3-C ) :   0.9187 B(  2-C ,  5-O ) :   0.8987
B(  2-C , 11-H ) :   0.9776 B(  3-C ,  4-C ) :   0.8596 B(  3-C , 12-H ) :   0.9736
B(  3-C , 13-H ) :   0.9915 B(  4-C , 14-H ) :   0.9815 B(  4-C , 15-H ) :   0.9659
B(  4-C , 16-H ) :   0.9746 B(  5-O , 17-H ) :   0.9018

Dispersion correction           -0.004366756
FINAL SINGLE POINT ENERGY      -272.898497822824

DIPOLE MOMENT
-------------

Method             : SCF
Type of density    : Electron Density
Multiplicity       :   1
Irrep              :   0
Energy             :  -272.9037799062911063 Eh
Relativity type    :
Basis              : AO
                                X                 Y                 Z
Electronic contribution:      0.312331073      -4.672922414      -2.470831871
Nuclear contribution   :     -0.728102760       4.881148967       2.804714287
                        -----------------------------------------
Total Dipole Moment    :     -0.415771688       0.208226553       0.333882416
                        -----------------------------------------
Magnitude (a.u.)       :      0.572452497
Magnitude (Debye)      :      1.455058613

Rotational constants in cm-1:             0.115478             0.102940             0.060407
Rotational constants in MHz :          3461.949611          3086.065117          1810.944272

                             ****ORCA TERMINATED NORMALLY****
TOTAL RUN TIME: 0 days 0 hours 0 minutes 23 seconds 656 msec
