                         Program Version 6.0.0  -   RELEASE  -
|  1> ! r2scan-3c def2/J RI DEFGRID2 scfconv6 printgap
|  2> %output
|  3>     printlevel normal
|  4> end
|  5> %cpcm
|  6>     smd true
|  7>     smdsolvent "water"
|  8> end
|  9> * xyz 0 1
| 10> C -1.8288198979 0.9850496264 0.7985128782
| 11> C -1.1496468125 0.3407793023 -0.4051738809
| 12> C 0.0029643155 -0.6055632674 -0.0169386875
| 13> C 1.3885490179 0.0135666858 -0.2270135406
| 14> C 1.6662527474 1.2155872749 0.6641919989
| 15> O -0.0106510146 -1.7930075318 -0.799895275
| 16> H -2.2562578916 0.2255477941 1.4493967474
| 17> H -1.1213099902 1.5712818068 1.3776182421
| 18> H -2.6295290866 1.6413846692 0.4667176289
| 19> H -1.8922279251 -0.2331939793 -0.9645651686
| 20> H -0.7731919566 1.1135223248 -1.0769919023
| 21> H -0.1004669393 -0.8809379985 1.0450782175
| 22> H 2.1248488021 -0.7690214599 -0.0315444488
| 23> H 1.480558624 0.2913181227 -1.278874514
| 24> H 1.5308811808 0.9532294497 1.71093054
| 25> H 2.6912213811 1.5482910911 0.5230494783
| 26> H 1.0042033092 2.0421497111 0.4220449789
| 27> H -0.8346545947 -2.2723326927 -0.6406275554
| 28> *
| 29>
| 30>                          ****END OF INPUT****

CARTESIAN COORDINATES (ANGSTROEM)
---------------------------------
  C     -1.828820    0.985050    0.798513
  C     -1.149647    0.340779   -0.405174
  C      0.002964   -0.605563   -0.016939
  C      1.388549    0.013567   -0.227014
  C      1.666253    1.215587    0.664192
  O     -0.010651   -1.793008   -0.799895
  H     -2.256258    0.225548    1.449397
  H     -1.121310    1.571282    1.377618
  H     -2.629529    1.641385    0.466718
  H     -1.892228   -0.233194   -0.964565
  H     -0.773192    1.113522   -1.076992
  H     -0.100467   -0.880938    1.045078
  H      2.124849   -0.769021   -0.031544
  H      1.480559    0.291318   -1.278875
  H      1.530881    0.953229    1.710931
  H      2.691221    1.548291    0.523049
  H      1.004203    2.042150    0.422045
  H     -0.834655   -2.272333   -0.640628

 Total Charge           Charge          ....    0
 Multiplicity           Mult            ....    1
 Number of Electrons    NEL             ....   50
 Basis Dimension        Dim             ....  179

ORBITAL ENERGIES
----------------

  NO   OCC          E(Eh)            E(eV)
   0   2.0000     -18.946257      -515.5539
   1   2.0000     -10.072149      -274.0771
   2   2.0000     -10.017809      -272.5984
   3   2.0000     -10.016210      -272.5549
   4   2.0000     -10.010738      -272.4060
   5   2.0000     -10.009536      -272.3733
   6   2.0000      -0.982471       -26.7344
   7   2.0000      -0.755180       -20.5495
   8   2.0000      -0.710800       -19.3419
   9   2.0000      -0.634277       -17.2596
  10   2.0000      -0.575394       -15.6573
  11   2.0000      -0.529791       -14.4164
  12   2.0000      -0.473352       -12.8806
  13   2.0000      -0.432222       -11.7614
  14   2.0000      -0.412628       -11.2282
  15   2.0000      -0.375028       -10.2050
  16   2.0000      -0.371118       -10.0986
  17   2.0000      -0.361388        -9.8339
  18   2.0000      -0.335399        -9.1267
  19   2.0000      -0.325808        -8.8657
  20   2.0000      -0.315487        -8.5848
  21   2.0000      -0.304601        -8.2886
  22   2.0000      -0.290649        -7.9090
  23   2.0000      -0.270519        -7.3612
  24   2.0000      -0.235677        -6.4131
  25   0.0000       0.078473         2.1354
  26   0.0000       0.097060         2.6411
  27   0.0000       0.116199         3.1619
  28   0.0000       0.127483         3.4690
  29   0.0000       0.136530         3.7152

MULLIKEN ATOMIC CHARGES
-----------------------
   0 C :   -0.531619
   1 C :   -0.268199
   2 C :    0.063828
   3 C :   -0.278829
   4 C :   -0.539269
   5 O :   -0.520222
   6 H :    0.159035
   7 H :    0.162164
   8 H :    0.156352
   9 H :    0.158611
  10 H :    0.157912
  11 H :    0.145084
  12 H :    0.150612
  13 H :    0.158376
  14 H :    0.163752
  15 H :    0.159125
  16 H :    0.165206
  17 H :    0.338081
Sum of atomic charges:   -0.0000000

LOEWDIN ATOMIC CHARGES
----------------------
   0 C :   -0.428182
   1 C :   -0.295530
   2 C :    0.057920
   3 C :   -0.281170
   4 C :   -0.425782
   5 O :   -0.659300
   6 H :    0.152900
   7 H :    0.154095
   8 H :    0.153721
   9 H :    0.167291
  10 H :    0.161092
  11 H :    0.168130
  12 H :    0.162550
  13 H :    0.161405
  14 H :    0.155354
  15 H :    0.155390
  16 H :    0.155515
  17 H :    0.284602

  Mayer bond orders larger than 0.100000
B(  0-C ,  1-C ) :   0.8818 B(  0-C ,  6-H ) :   0.9828 B(  0-C ,  7-H ) :   0.9704
B(  0-C ,  8-H ) :   0.9692 B(  1-C ,  2-C ) :   0.8454 B(  1-C ,  9-H ) :   0.9726
B(  1-C , 10-H ) :   0.9628 B(  2-C ,  3-C ) :   0.9139 B(  2-C ,  5-O ) :   0.8790
B(  2-C , 11-H ) :   0.9711 B(  3-C ,  4-C ) :   0.8697 B(  3-C , 12-H ) :   0.9714
B(  3-C , 13-H ) :   0.9835 B(  4-C , 14-H ) :   0.9789 B(  4-C , 15-H ) :   0.9629
B(  4-C , 16-H ) :   0.9720 B(  5-O , 17-H ) :   0.8755

Dispersion correction           -0.004366756
FINAL SINGLE POINT ENERGY      -272.905078764099

DIPOLE MOMENT
-------------

Method             : SCF
Type of density    : Electron Density
Multiplicity       :   1
Irrep              :   0
Energy             :  -272.9103608475663236 Eh
Relativity type    :
Basis              : AO
                                X                 Y                 Z
Electronic contribution:      0.100611705      -4.577108910      -2.289244201
Nuclear contribution   :     -0.728102760       4.881148967       2.804714287
                        -----------------------------------------
Total Dipole Moment    :     -0.627491055       0.304040057       0.515470087
                        -----------------------------------------
Magnitude (a.u.)       :      0.867118672
Magnitude (Debye)      :      2.204040506

Rotational constants in cm-1:             0.115478             0.102940             0.060407
Rotational constants in MHz :          3461.949611          3086.065117          1810.944272

                             ****ORCA TERMINATED NORMALLY****
TOTAL RUN TIME: 0 days 0 hours 0 minutes 27 seconds 397 msec
