                         Program Version 6.0.0  -   RELEASE  -
|  1> ! r2scan-3c def2/J RI DEFGRID2 scfconv6 printgap
|  2> %output
|  3>     printlevel normal
|  4> end
|  5> * xyz 0 1
|  6> C -2.5157470689 -0.0730198224 0.6464590646
|  7> C -1.6359463074 0.7633364227 -0.2791548389
|  8> C -0.50781814 -0.060229809 -0.9128704779
|  9> C 0.8058307736 -0.1221936586 -0.0983792595
| 10> C 1.5684793403 1.2031012309 -0.2076660235
| 11> C 1.6750872188 -1.2618531552 -0.6384256674
| 12> O 0.5637874235 -0.4325371537 1.2710054615
| 13> H -1.9148648471 -0.590537952 1.3893970603
| 14> H -3.0581056881 -0.8211627135 0.0720924444
| 15> H -3.2407733498 0.5565874144 1.1575026951
| 16> H -2.2603424566 1.1750034772 -1.0748721635
| 17> H -1.2228458399 1.6107669519 0.2716238122
| 18> H -0.869981059 -1.0786956174 -1.0641421023
| 19> H -0.2574735879 0.3513466861 -1.8915429243
| 20> H 1.8818793503 1.3713590234 -1.2336627729
| 21> H 2.4517760454 1.1703418574 0.4263521888
| 22> H 0.9467844685 2.0391419819 0.1051196739
| 23> H 1.1813681089 -2.2127673504 -0.4561435594
| 24> H 2.6325259208 -1.270718304 -0.1244711991
| 25> H 1.8393784341 -1.1408449841 -1.7044403462
| 26> H 0.2117588902 0.3539208548 1.7078123149
| 27> *
| 28>
| 29>                          ****END OF INPUT****

CARTESIAN COORDINATES (ANGSTROEM)
---------------------------------
  C     -2.515747   -0.073020    0.646459
  C     -1.635946    0.763336   -0.279155
  C     -0.507818   -0.060230   -0.912870
  C      0.805831   -0.122194   -0.098379
  C      1.568479    1.203101   -0.207666
  C      1.675087   -1.261853   -0.638426
  O      0.563787   -0.432537    1.271005
  H     -1.914865   -0.590538    1.389397
  H     -3.058106   -0.821163    0.072092
  H     -3.240773    0.556587    1.157503
  H     -2.260342    1.175003   -1.074872
  H     -1.222846    1.610767    0.271624
  H     -0.869981   -1.078696   -1.064142
  H     -0.257474    0.351347   -1.891543
  H      1.881879    1.371359   -1.233663
  H      2.451776    1.170342    0.426352
  H      0.946784    2.039142    0.105120
  H      1.181368   -2.212767   -0.456144
  H      2.632526   -1.270718   -0.124471
  H      1.839378   -1.140845   -1.704440
  H      0.211759    0.353921    1.707812

 Total Charge           Charge          ....    0
 Multiplicity           Mult            ....    1
 Number of Electrons    NEL             ....   58
 Basis Dimension        Dim             ....  208

ORBITAL ENERGIES
----------------

  NO   OCC          E(Eh)            E(eV)
   0   2.0000     -18.943453      -515.4776
   1   2.0000     -10.087775      -274.5023
   2   2.0000     -10.027917      -272.8735
   3   2.0000     -10.021308      -272.6937
   4   2.0000     -10.019426      -272.6424
   5   2.0000     -10.013413      -272.4788
   6   2.0000     -10.012006      -272.4405
   7   2.0000      -0.983530       -26.7632
   8   2.0000      -0.767424       -20.8827
   9   2.0000      -0.728680       -19.8284
  10   2.0000      -0.658588       -17.9211
  11   2.0000      -0.644055       -17.5256
  12   2.0000      -0.564383       -15.3577
  13   2.0000      -0.530811       -14.4441
  14   2.0000      -0.464286       -12.6339
  15   2.0000      -0.434962       -11.8359
  16   2.0000      -0.411831       -11.2065
  17   2.0000      -0.400323       -10.8933
  18   2.0000      -0.389707       -10.6045
  19   2.0000      -0.377830       -10.2813
  20   2.0000      -0.351616        -9.5680
  21   2.0000      -0.345206        -9.3935
  22   2.0000      -0.336096        -9.1456
  23   2.0000      -0.324615        -8.8332
  24   2.0000      -0.310786        -8.4569
  25   2.0000      -0.303559        -8.2603
  26   2.0000      -0.297461        -8.0943
  27   2.0000      -0.277733        -7.5575
  28   2.0000      -0.229789        -6.2529
  29   0.0000       0.053874         1.4660
  30   0.0000       0.092325         2.5123
  31   0.0000       0.109793         2.9876
  32   0.0000       0.112599         3.0640
  33   0.0000       0.126698         3.4476

MULLIKEN ATOMIC CHARGES
-----------------------
   0 C :   -0.523555
   1 C :   -0.236555
   2 C :   -0.204777
   3 C :    0.097010
   4 C :   -0.495524
   5 C :   -0.477873
   6 O :   -0.409747
   7 H :    0.173252
   8 H :    0.143314
   9 H :    0.144527
  10 H :    0.144754
  11 H :    0.127687
  12 H :    0.152762
  13 H :    0.148296
  14 H :    0.152269
  15 H :    0.166696
  16 H :    0.142772
  17 H :    0.159813
  18 H :    0.152440
  19 H :    0.146197
  20 H :    0.296240
Sum of atomic charges:   -0.0000000

LOEWDIN ATOMIC CHARGES
----------------------
   0 C :   -0.428228
   1 C :   -0.313698
   2 C :   -0.279376
   3 C :    0.057837
   4 C :   -0.390681
   5 C :   -0.372701
   6 O :   -0.602957
   7 H :    0.161488
   8 H :    0.150258
   9 H :    0.148076
  10 H :    0.154637
  11 H :    0.147638
  12 H :    0.166767
  13 H :    0.162556
  14 H :    0.161282
  15 H :    0.164483
  16 H :    0.154285
  17 H :    0.165823
  18 H :    0.162400
  19 H :    0.159014
  20 H :    0.271096

  Mayer bond orders larger than 0.100000
B(  0-C ,  1-C ) :   0.9157 B(  0-C ,  7-H ) :   0.9787 B(  0-C ,  8-H ) :   0.9805
B(  0-C ,  9-H ) :   0.9762 B(  1-C ,  2-C ) :   0.8262 B(  1-C , 10-H ) :   0.9609
B(  1-C , 11-H ) :   0.9886 B(  2-C ,  3-C ) :   0.8911 B(  2-C , 12-H ) :   0.9771
B(  2-C , 13-H ) :   0.9645 B(  3-C ,  4-C ) :   0.9729 B(  3-C ,  5-C ) :   0.9326
B(  3-C ,  6-O ) :   0.8816 B(  4-C , 14-H ) :   0.9739 B(  4-C , 15-H ) :   0.9790
B(  4-C , 16-H ) :   0.9565 B(  5-C , 17-H ) :   0.9775 B(  5-C , 18-H ) :   0.9712
B(  5-C , 19-H ) :   0.9775 B(  6-O , 20-H ) :   0.8924

Dispersion correction           -0.005725079
FINAL SINGLE POINT ENERGY      -312.204337350692

DIPOLE MOMENT
-------------

Method             : SCF
Type of density    : Electron Density
Multiplicity       :   1
Irrep              :   0
Energy             :  -312.2097220119854342 Eh
Relativity type    :
Basis              : AO
                                X                 Y                 Z
Electronic contribution:      1.490894341      -0.917305101       1.948491129
Nuclear contribution   :     -1.566730383       1.413717746      -2.250906613
                        -----------------------------------------
Total Dipole Moment    :     -0.075836042       0.496412644      -0.302415483
                        -----------------------------------------
Magnitude (a.u.)       :      0.586201112
Magnitude (Debye)      :      1.490004813

Rotational constants in cm-1:             0.132040             0.055282             0.053339
Rotational constants in MHz :          3958.472435          1657.309255          1599.056510

                             ****ORCA TERMINATED NORMALLY****
TOTAL RUN TIME: 0 days 0 hours 0 minutes 25 seconds 81 msec
