                         Program Version 6.0.0  -   RELEASE  -
|  1> ! r2scan-3c def2/J RI DEFGRID2 scfconv6 printgap
|  2> %output
|  3>     printlevel normal
|  4> end
|  5> %cpcm
|  6>     smd true
|  7>     smdsolvent "water"
|  8> end
|  9> * xyz 0 1
| 10> C -2.5157470689 -0.0730198224 0.6464590646
| 11> C -1.6359463074 0.7633364227 -0.2791548389
| 12> C -0.50781814 -0.060229809 -0.9128704779
| 13> C 0.8058307736 -0.1221936586 -0.0983792595
| 14> C 1.5684793403 1.2031012309 -0.2076660235
| 15> C 1.6750872188 -1.2618531552 -0.6384256674
| 16> O 0.5637874235 -0.4325371537 1.2710054615
| 17> H -1.9148648471 -0.590537952 1.3893970603
| 18> H -3.0581056881 -0.8211627135 0.0720924444
| 19> H -3.2407733498 0.5565874144 1.1575026951
| 20> H -2.2603424566 1.1750034772 -1.0748721635
| 21> H -1.2228458399 1.6107669519 0.2716238122
| 22> H -0.869981059 -1.0786956174 -1.0641421023
| 23> H -0.2574735879 0.3513466861 -1.8915429243
| 24> H 1.8818793503 1.3713590234 -1.2336627729
| 25> H 2.4517760454 1.1703418574 0.4263521888
| 26> H 0.9467844685 2.0391419819 0.1051196739
| 27> H 1.1813681089 -2.2127673504 -0.4561435594
| 28> H 2.6325259208 -1.270718304 -0.1244711991
| 29> H 1.8393784341 -1.1408449841 -1.7044403462
| 30> H 0.2117588902 0.3539208548 1.7078123149
| 31> *
| 32>
| 33>                          ****END OF INPUT****

CARTESIAN COORDINATES (ANGSTROEM)
---------------------------------
  C     -2.515747   -0.073020    0.646459
  C     -1.635946    0.763336   -0.279155
  C     -0.507818   -0.060230   -0.912870
  C      0.805831   -0.122194   -0.098379
  C      1.568479    1.203101   -0.207666
  C      1.675087   -1.261853   -0.638426
  O      0.563787   -0.432537    1.271005
  H     -1.914865   -0.590538    1.389397
  H     -3.058106   -0.821163    0.072092
  H     -3.240773    0.556587    1.157503
  H     -2.260342    1.175003   -1.074872
  H     -1.222846    1.610767    0.271624
  H     -0.869981   -1.078696   -1.064142
  H     -0.257474    0.351347   -1.891543
  H      1.881879    1.371359   -1.233663
  H      2.451776    1.170342    0.426352
  H      0.946784    2.039142    0.105120
  H      1.181368   -2.212767   -0.456144
  H      2.632526   -1.270718   -0.124471
  H      1.839378   -1.140845   -1.704440
  H      0.211759    0.353921    1.707812

 Total Charge           Charge          ....    0
 Multiplicity           Mult            ....    1
 Number of Electrons    NEL             ....   58
 Basis Dimension        Dim             ....  208

ORBITAL ENERGIES
----------------

  NO   OCC          E(Eh)            E(eV)
   0   2.0000     -18.946313      -515.5554
   1   2.0000     -10.083028      -274.3731
   2   2.0000     -10.016930      -272.5745
   3   2.0000     -10.012750      -272.4608
   4   2.0000     -10.008268      -272.3388
   5   2.0000     -10.008080      -272.3337
   6   2.0000     -10.005481      -272.2630
   7   2.0000      -0.985224       -26.8093
   8   2.0000      -0.760108       -20.6836
   9   2.0000      -0.721262       -19.6265
  10   2.0000      -0.650689       -17.7062
  11   2.0000      -0.637079       -17.3358
  12   2.0000      -0.557275       -15.1642
  13   2.0000      -0.526221       -14.3192
  14   2.0000      -0.457954       -12.4616
  15   2.0000      -0.427449       -11.6315
  16   2.0000      -0.406748       -11.0682
  17   2.0000      -0.392306       -10.6752
  18   2.0000      -0.383371       -10.4321
  19   2.0000      -0.369690       -10.0598
  20   2.0000      -0.346834        -9.4378
  21   2.0000      -0.339224        -9.2307
  22   2.0000      -0.329150        -8.9566
  23   2.0000      -0.318991        -8.6802
  24   2.0000      -0.306530        -8.3411
  25   2.0000      -0.295970        -8.0537
  26   2.0000      -0.289891        -7.8883
  27   2.0000      -0.273398        -7.4395
  28   2.0000      -0.231458        -6.2983
  29   0.0000       0.070130         1.9083
  30   0.0000       0.104106         2.8329
  31   0.0000       0.120909         3.2901
  32   0.0000       0.121303         3.3008
  33   0.0000       0.133797         3.6408

MULLIKEN ATOMIC CHARGES
-----------------------
   0 C :   -0.557942
   1 C :   -0.229981
   2 C :   -0.260576
   3 C :    0.146768
   4 C :   -0.532915
   5 C :   -0.529139
   6 O :   -0.495246
   7 H :    0.165731
   8 H :    0.154793
   9 H :    0.154795
  10 H :    0.153120
  11 H :    0.150624
  12 H :    0.161283
  13 H :    0.166081
  14 H :    0.170302
  15 H :    0.168349
  16 H :    0.164572
  17 H :    0.166357
  18 H :    0.163406
  19 H :    0.168994
  20 H :    0.350625
Sum of atomic charges:   -0.0000000

LOEWDIN ATOMIC CHARGES
----------------------
   0 C :   -0.434978
   1 C :   -0.314619
   2 C :   -0.280961
   3 C :    0.058917
   4 C :   -0.393456
   5 C :   -0.383288
   6 O :   -0.638525
   7 H :    0.157220
   8 H :    0.151438
   9 H :    0.151313
  10 H :    0.156476
  11 H :    0.157034
  12 H :    0.166966
  13 H :    0.168993
  14 H :    0.166689
  15 H :    0.164428
  16 H :    0.162444
  17 H :    0.165031
  18 H :    0.162963
  19 H :    0.167356
  20 H :    0.288556

  Mayer bond orders larger than 0.100000
B(  0-C ,  1-C ) :   0.8950 B(  0-C ,  7-H ) :   0.9826 B(  0-C ,  8-H ) :   0.9796
B(  0-C ,  9-H ) :   0.9729 B(  1-C ,  2-C ) :   0.8314 B(  1-C , 10-H ) :   0.9624
B(  1-C , 11-H ) :   0.9806 B(  2-C ,  3-C ) :   0.8970 B(  2-C , 12-H ) :   0.9794
B(  2-C , 13-H ) :   0.9629 B(  3-C ,  4-C ) :   0.9662 B(  3-C ,  5-C ) :   0.9247
B(  3-C ,  6-O ) :   0.8599 B(  4-C , 14-H ) :   0.9711 B(  4-C , 15-H ) :   0.9742
B(  4-C , 16-H ) :   0.9540 B(  5-C , 17-H ) :   0.9745 B(  5-C , 18-H ) :   0.9711
B(  5-C , 19-H ) :   0.9720 B(  6-O , 20-H ) :   0.8673

Dispersion correction           -0.005725079
FINAL SINGLE POINT ENERGY      -312.209697412946

DIPOLE MOMENT
-------------

Method             : SCF
Type of density    : Electron Density
Multiplicity       :   1
Irrep              :   0
Energy             :  -312.2150820742398309 Eh
Relativity type    :
Basis              : AO
                                X                 Y                 Z
Electronic contribution:      1.438663623      -0.604986289       1.801116689
Nuclear contribution   :     -1.566730383       1.413717746      -2.250906613
                        -----------------------------------------
Total Dipole Moment    :     -0.128066759       0.808731457      -0.449789924
                        -----------------------------------------
Magnitude (a.u.)       :      0.934215521
Magnitude (Debye)      :      2.374587143

Rotational constants in cm-1:             0.132040             0.055282             0.053339
Rotational constants in MHz :          3958.472435          1657.309255          1599.056510

                             ****ORCA TERMINATED NORMALLY****
TOTAL RUN TIME: 0 days 0 hours 0 minutes 30 seconds 143 msec
