                         Program Version 6.0.0  -   RELEASE  -
|  1> ! pbe def2-sv(p) def2/J RI DEFGRID1 loosescf d4 GCP(DFT/SV(P)) printgap
|  2> %output
|  3>     printlevel normal
|  4> end
|  5> * xyz 0 1
|  6> C 3.3995715226 -0.9819233232 -0.2534220642
|  7> C 2.5858361767 0.1468134058 0.3053722716
|  8> C 3.1409110069 1.0240522356 1.1294181338
|  9> C 1.137808838 0.2726781243 -0.1384968432
| 10> H 1.0995448254 1.0598383265 -0.902293253
| 11> C 0.5589999017 -1.0006303024 -0.7628493558
| 12> C -0.82165663 -0.7196194517 -1.3524619403
| 13> C -1.7152447429 -0.0752269821 -0.3335017625
| 14> C -1.211378092 0.549611733 0.7431537259
| 15> C 0.2350379313 0.6991394586 1.0295941476
| 16> C -3.1519928152 -0.1450345223 -0.5265603207
| 17> O -3.9972261328 0.3412215844 0.2050883186
| 18> H 3.4341146958 -0.9265527085 -1.3400924093
| 19> H 4.4172241777 -0.9334158994 0.1244803643
| 20> H 2.9728265166 -1.9430979984 0.0247998606
| 21> H 2.6094388997 1.8625122107 1.542725599
| 22> H 4.1737102319 0.9400799319 1.4226161577
| 23> H 1.20561368 -1.3720162438 -1.5555568105
| 24> H 0.4708860521 -1.772059368 0.0042461536
| 25> H -0.7281472158 -0.0569749466 -2.217707989
| 26> H -1.2759167625 -1.6489844644 -1.7019150349
| 27> H -1.9013527622 0.9732818175 1.4617659976
| 28> H 0.4217408199 1.7391497561 1.3029922369
| 29> H 0.4721929811 0.0995148612 1.9147282635
| 30> H -3.4689435062 -0.6952841934 -1.4325945309
| 31> *
| 32>
| 33>                          ****END OF INPUT****

CARTESIAN COORDINATES (ANGSTROEM)
---------------------------------
  C      3.399572   -0.981923   -0.253422
  C      2.585836    0.146813    0.305372
  C      3.140911    1.024052    1.129418
  C      1.137809    0.272678   -0.138497
  H      1.099545    1.059838   -0.902293
  C      0.559000   -1.000630   -0.762849
  C     -0.821657   -0.719619   -1.352462
  C     -1.715245   -0.075227   -0.333502
  C     -1.211378    0.549612    0.743154
  C      0.235038    0.699139    1.029594
  C     -3.151993   -0.145035   -0.526560
  O     -3.997226    0.341222    0.205088
  H      3.434115   -0.926553   -1.340092
  H      4.417224   -0.933416    0.124480
  H      2.972827   -1.943098    0.024800
  H      2.609439    1.862512    1.542726
  H      4.173710    0.940080    1.422616
  H      1.205614   -1.372016   -1.555557
  H      0.470886   -1.772059    0.004246
  H     -0.728147   -0.056975   -2.217708
  H     -1.275917   -1.648984   -1.701915
  H     -1.901353    0.973282    1.461766
  H      0.421741    1.739150    1.302992
  H      0.472193    0.099515    1.914728
  H     -3.468944   -0.695284   -1.432595

 Total Charge           Charge          ....    0
 Multiplicity           Mult            ....    1
 Number of Electrons    NEL             ....   82
 Basis Dimension        Dim             ....  182

ORBITAL ENERGIES
----------------

  NO   OCC          E(Eh)            E(eV)
   0   2.0000     -18.740558      -509.9565
   1   2.0000      -9.961525      -271.0669
   2   2.0000      -9.910303      -269.6730
   3   2.0000      -9.908918      -269.6354
   4   2.0000      -9.906058      -269.5575
   5   2.0000      -9.903033      -269.4752
   6   2.0000      -9.900240      -269.3992
   7   2.0000      -9.900211      -269.3984
   8   2.0000      -9.896452      -269.2961
   9   2.0000      -9.887386      -269.0494
  10   2.0000      -9.876565      -268.7550
  11   2.0000      -0.929959       -25.3055
  12   2.0000      -0.781936       -21.2776
  13   2.0000      -0.733061       -19.9476
  14   2.0000      -0.686437       -18.6789
  15   2.0000      -0.676419       -18.4063
  16   2.0000      -0.620519       -16.8852
  17   2.0000      -0.585220       -15.9246
  18   2.0000      -0.567242       -15.4354
  19   2.0000      -0.526119       -14.3164
  20   2.0000      -0.482306       -13.1242
  21   2.0000      -0.467494       -12.7212
  22   2.0000      -0.448967       -12.2170
  23   2.0000      -0.418284       -11.3821
  24   2.0000      -0.407815       -11.0972
  25   2.0000      -0.399601       -10.8737
  26   2.0000      -0.393772       -10.7151
  27   2.0000      -0.381423       -10.3791
  28   2.0000      -0.372183       -10.1276
  29   2.0000      -0.360677        -9.8145
  30   2.0000      -0.357350        -9.7240
  31   2.0000      -0.350678        -9.5424
  32   2.0000      -0.337313        -9.1787
  33   2.0000      -0.331369        -9.0170
  34   2.0000      -0.324748        -8.8368
  35   2.0000      -0.306046        -8.3279
  36   2.0000      -0.290301        -7.8995
  37   2.0000      -0.278558        -7.5799
  38   2.0000      -0.230042        -6.2597
  39   2.0000      -0.221712        -6.0331
  40   2.0000      -0.199356        -5.4248
  41   0.0000      -0.091110        -2.4792
  42   0.0000      -0.021516        -0.5855
  43   0.0000       0.021939         0.5970
  44   0.0000       0.032115         0.8739
  45   0.0000       0.053294         1.4502

MULLIKEN ATOMIC CHARGES
-----------------------
   0 C :   -0.212878
   1 C :   -0.053569
   2 C :   -0.232875
   3 C :   -0.143776
   4 H :    0.089625
   5 C :   -0.159161
   6 C :   -0.046082
   7 C :   -0.082841
   8 C :   -0.139590
   9 C :   -0.079514
  10 C :    0.046248
  11 O :   -0.171337
  12 H :    0.114329
  13 H :    0.097884
  14 H :    0.114593
  15 H :    0.087205
  16 H :    0.083906
  17 H :    0.088416
  18 H :    0.092802
  19 H :    0.094909
  20 H :    0.089678
  21 H :    0.075585
  22 H :    0.109476
  23 H :    0.108583
  24 H :    0.028386
Sum of atomic charges:   -0.0000000

LOEWDIN ATOMIC CHARGES
----------------------
   0 C :   -0.322016
   1 C :   -0.050752
   2 C :   -0.265717
   3 C :   -0.130656
   4 H :    0.132642
   5 C :   -0.213826
   6 C :   -0.210842
   7 C :   -0.122614
   8 C :   -0.065926
   9 C :   -0.211232
  10 C :   -0.000310
  11 O :   -0.136018
  12 H :    0.128773
  13 H :    0.125112
  14 H :    0.129330
  15 H :    0.116055
  16 H :    0.118526
  17 H :    0.120096
  18 H :    0.121403
  19 H :    0.129318
  20 H :    0.125927
  21 H :    0.131386
  22 H :    0.135605
  23 H :    0.140096
  24 H :    0.075642

  Mayer bond orders larger than 0.100000
B(  0-C ,  1-C ) :   1.1506 B(  0-C , 12-H ) :   0.9259 B(  0-C , 13-H ) :   0.9330
B(  0-C , 14-H ) :   0.9175 B(  1-C ,  2-C ) :   2.0353 B(  1-C ,  3-C ) :   0.9875
B(  2-C , 15-H ) :   0.9131 B(  2-C , 16-H ) :   0.8995 B(  3-C ,  4-H ) :   0.8713
B(  3-C ,  5-C ) :   1.1095 B(  3-C ,  9-C ) :   1.1014 B(  5-C ,  6-C ) :   1.1288
B(  5-C , 17-H ) :   0.8946 B(  5-C , 18-H ) :   0.9155 B(  6-C ,  7-C ) :   1.0509
B(  6-C , 19-H ) :   0.8836 B(  6-C , 20-H ) :   0.8967 B(  7-C ,  8-C ) :   1.8137
B(  7-C , 10-C ) :   1.0139 B(  8-C ,  9-C ) :   1.0557 B(  8-C , 11-O ) :   0.1098
B(  8-C , 21-H ) :   0.9218 B(  9-C , 22-H ) :   0.8831 B(  9-C , 23-H ) :   0.8789
B( 10-C , 11-O ) :   2.1361 B( 10-C , 24-H ) :   0.9162

Dispersion correction           -0.026200632
FINAL SINGLE POINT ENERGY      -463.620520292820

DIPOLE MOMENT
-------------

Method             : SCF
Type of density    : Electron Density
Multiplicity       :   1
Irrep              :   0
Energy             :  -463.6970099777136056 Eh
Relativity type    :
Basis              : AO
                                X                 Y                 Z
Electronic contribution:    -11.775246271       2.195467792       0.880029408
Nuclear contribution   :     12.984025695      -2.503610323      -1.265179815
                        -----------------------------------------
Total Dipole Moment    :      1.208779424      -0.308142531      -0.385150407
                        -----------------------------------------
Magnitude (a.u.)       :      1.305542168
Magnitude (Debye)      :      3.318424470

Rotational constants in cm-1:             0.098376             0.018703             0.016203
Rotational constants in MHz :          2949.236895           560.700330           485.767457

                             ****ORCA TERMINATED NORMALLY****
TOTAL RUN TIME: 0 days 0 hours 0 minutes 19 seconds 93 msec
