                         Program Version 6.0.0  -   RELEASE  -
|  1> ! pbe def2-sv(p) def2/J RI DEFGRID1 loosescf d4 GCP(DFT/SV(P)) printgap
|  2> %output
|  3>     printlevel normal
|  4> end
|  5> * xyz 0 1
|  6> C -4.201054844 1.4517113648 0.1881667161
|  7> C -3.4791722193 0.1292004967 0.016805555
|  8> O -2.0669419226 0.3809735407 0.0475019529
|  9> C -1.2591198825 -0.6708306307 -0.0860130243
| 10> O -1.6853628213 -1.8064174894 -0.2296156223
| 11> C 0.1672695547 -0.3208516695 -0.0419082701
| 12> C 0.5972203399 0.9959034875 0.1228650799
| 13> C 1.943676787 1.2873890712 0.1603784573
| 14> C 2.8878980257 0.267755402 0.0339897522
| 15> C 2.4592775989 -1.0518978149 -0.1315135995
| 16> C 1.115051375 -1.3393608071 -0.1686299567
| 17> O 4.2133242364 0.5011344345 0.0648714206
| 18> H -5.2721585775 1.2806331519 0.1653798232
| 19> H -3.9296944596 1.9030330472 1.1378292192
| 20> H -3.9287503676 2.1304487475 -0.6145437635
| 21> H -3.725305078 -0.3485639287 -0.9377678614
| 22> H -3.723092118 -0.5752131484 0.8195353705
| 23> H -0.1336710549 1.7821372011 0.2203653254
| 24> H 2.2677610005 2.3092382738 0.2881229669
| 25> H 3.2014883884 -1.8276210923 -0.2277848742
| 26> H 0.7669332758 -2.3530244043 -0.2957135322
| 27> H 4.4049168036 1.4454661697 0.1838188882
| 28> *
| 29>
| 30>                          ****END OF INPUT****

CARTESIAN COORDINATES (ANGSTROEM)
---------------------------------
  C     -4.201055    1.451711    0.188167
  C     -3.479172    0.129200    0.016806
  O     -2.066942    0.380974    0.047502
  C     -1.259120   -0.670831   -0.086013
  O     -1.685363   -1.806417   -0.229616
  C      0.167270   -0.320852   -0.041908
  C      0.597220    0.995903    0.122865
  C      1.943677    1.287389    0.160378
  C      2.887898    0.267755    0.033990
  C      2.459278   -1.051898   -0.131514
  C      1.115051   -1.339361   -0.168630
  O      4.213324    0.501134    0.064871
  H     -5.272159    1.280633    0.165380
  H     -3.929694    1.903033    1.137829
  H     -3.928750    2.130449   -0.614544
  H     -3.725305   -0.348564   -0.937768
  H     -3.723092   -0.575213    0.819535
  H     -0.133671    1.782137    0.220365
  H      2.267761    2.309238    0.288123
  H      3.201488   -1.827621   -0.227785
  H      0.766933   -2.353024   -0.295714
  H      4.404917    1.445466    0.183819

 Total Charge           Charge          ....    0
 Multiplicity           Mult            ....    1
 Number of Electrons    NEL             ....   88
 Basis Dimension        Dim             ....  188

ORBITAL ENERGIES
----------------

  NO   OCC          E(Eh)            E(eV)
   0   2.0000     -18.799536      -511.5614
   1   2.0000     -18.792666      -511.3744
   2   2.0000     -18.724448      -509.5181
   3   2.0000     -10.000495      -272.1273
   4   2.0000      -9.967774      -271.2369
   5   2.0000      -9.943799      -270.5845
   6   2.0000      -9.903638      -269.4917
   7   2.0000      -9.901797      -269.4416
   8   2.0000      -9.900567      -269.4081
   9   2.0000      -9.899005      -269.3656
  10   2.0000      -9.894723      -269.2491
  11   2.0000      -9.886981      -269.0384
  12   2.0000      -0.998894       -27.1813
  13   2.0000      -0.982215       -26.7274
  14   2.0000      -0.900059       -24.4918
  15   2.0000      -0.782509       -21.2931
  16   2.0000      -0.709827       -19.3154
  17   2.0000      -0.682044       -18.5594
  18   2.0000      -0.677355       -18.4318
  19   2.0000      -0.602786       -16.4026
  20   2.0000      -0.566122       -15.4050
  21   2.0000      -0.556338       -15.1387
  22   2.0000      -0.510752       -13.8983
  23   2.0000      -0.503763       -13.7081
  24   2.0000      -0.472839       -12.8666
  25   2.0000      -0.441317       -12.0088
  26   2.0000      -0.435132       -11.8405
  27   2.0000      -0.402678       -10.9574
  28   2.0000      -0.390819       -10.6347
  29   2.0000      -0.384556       -10.4643
  30   2.0000      -0.383676       -10.4403
  31   2.0000      -0.372295       -10.1307
  32   2.0000      -0.371607       -10.1119
  33   2.0000      -0.356707        -9.7065
  34   2.0000      -0.342910        -9.3311
  35   2.0000      -0.333171        -9.0661
  36   2.0000      -0.323795        -8.8109
  37   2.0000      -0.304623        -8.2892
  38   2.0000      -0.297549        -8.0967
  39   2.0000      -0.292950        -7.9716
  40   2.0000      -0.252121        -6.8606
  41   2.0000      -0.238229        -6.4825
  42   2.0000      -0.213880        -5.8200
  43   2.0000      -0.206535        -5.6201
  44   0.0000      -0.062699        -1.7061
  45   0.0000      -0.041436        -1.1275
  46   0.0000       0.012651         0.3442
  47   0.0000       0.031712         0.8629
  48   0.0000       0.042148         1.1469

MULLIKEN ATOMIC CHARGES
-----------------------
   0 C :   -0.270368
   1 C :   -0.023584
   2 O :   -0.251147
   3 C :    0.159224
   4 O :   -0.210693
   5 C :    0.039281
   6 C :   -0.089847
   7 C :   -0.152272
   8 C :    0.247573
   9 C :   -0.112593
  10 C :   -0.090735
  11 O :   -0.316337
  12 H :    0.110081
  13 H :    0.113336
  14 H :    0.113127
  15 H :    0.104056
  16 H :    0.104005
  17 H :    0.056224
  18 H :    0.031198
  19 H :    0.051923
  20 H :    0.065621
  21 H :    0.321925
Sum of atomic charges:    0.0000000

LOEWDIN ATOMIC CHARGES
----------------------
   0 C :   -0.351156
   1 C :   -0.106994
   2 O :   -0.072991
   3 C :    0.044365
   4 O :   -0.175970
   5 C :   -0.099207
   6 C :   -0.091557
   7 C :   -0.176152
   8 C :    0.030950
   9 C :   -0.145329
  10 C :   -0.078900
  11 O :   -0.215529
  12 H :    0.129979
  13 H :    0.125598
  14 H :    0.125546
  15 H :    0.115869
  16 H :    0.115846
  17 H :    0.131086
  18 H :    0.121753
  19 H :    0.133706
  20 H :    0.137311
  21 H :    0.301775

  Mayer bond orders larger than 0.100000
B(  0-C ,  1-C ) :   1.1498 B(  0-C , 12-H ) :   0.9446 B(  0-C , 13-H ) :   0.9498
B(  0-C , 14-H ) :   0.9498 B(  1-C ,  2-O ) :   0.9110 B(  1-C , 15-H ) :   0.9311
B(  1-C , 16-H ) :   0.9311 B(  2-O ,  3-C ) :   1.2283 B(  3-C ,  4-O ) :   2.0399
B(  3-C ,  5-C ) :   0.9677 B(  5-C ,  6-C ) :   1.3530 B(  5-C , 10-C ) :   1.3547
B(  6-C ,  7-C ) :   1.3574 B(  6-C , 17-H ) :   0.9553 B(  7-C ,  8-C ) :   1.2897
B(  7-C , 18-H ) :   0.9586 B(  8-C ,  9-C ) :   1.3273 B(  8-C , 11-O ) :   1.2132
B(  9-C , 10-C ) :   1.3640 B(  9-C , 19-H ) :   0.9687 B( 10-C , 20-H ) :   0.9593
B( 11-O , 21-H ) :   0.8382

Dispersion correction           -0.022254396
FINAL SINGLE POINT ENERGY      -573.464043514642

DIPOLE MOMENT
-------------

Method             : SCF
Type of density    : Electron Density
Multiplicity       :   1
Irrep              :   0
Energy             :  -573.5395890814951372 Eh
Relativity type    :
Basis              : AO
                                X                 Y                 Z
Electronic contribution:      9.744847218      -4.021960603      -0.519857833
Nuclear contribution   :     -9.442025757       5.377539233       0.691798215
                        -----------------------------------------
Total Dipole Moment    :      0.302821461       1.355578630       0.171940382
                        -----------------------------------------
Magnitude (a.u.)       :      1.399591996
Magnitude (Debye)      :      3.557480135

Rotational constants in cm-1:             0.086903             0.014810             0.012714
Rotational constants in MHz :          2605.287219           444.001666           381.157677

                             ****ORCA TERMINATED NORMALLY****
TOTAL RUN TIME: 0 days 0 hours 0 minutes 13 seconds 952 msec
