                         Program Version 6.0.0  -   RELEASE  -
|  1> ! r2scan-3c def2/J RI DEFGRID2 scfconv6 printgap
|  2> %output
|  3>     printlevel normal
|  4> end
|  5> * xyz 0 1
|  6> C 2.7205031297 -0.0811628082 -0.5698470273
|  7> C 1.7348681571 -0.5645446624 0.4879151649
|  8> C 0.5797411457 0.4138481656 0.7052620378
|  9> C -0.3891971904 0.462257373 -0.4782707312
| 10> S -2.0724450991 -0.1344581907 -0.0612451997
| 11> H 3.5245871341 -0.8021777243 -0.6941183711
| 12> H 3.1554872908 0.8709344816 -0.2744367009
| 13> H 2.2304667466 0.0516615193 -1.5313880399
| 14> H 2.2650732346 -0.6929363998 1.4336982242
| 15> H 1.3313559828 -1.5382914849 0.2008634912
| 16> H 0.9854681538 1.4114374785 0.8827524389
| 17> H 0.0361576994 0.114479343 1.603351948
| 18> H -0.5015295864 1.464959487 -0.8852092749
| 19> H -0.0735986127 -0.2055947914 -1.278737563
| 20> H -2.3857332476 0.8574861504 0.763022119
| 21> *
| 22>
| 23>                          ****END OF INPUT****

CARTESIAN COORDINATES (ANGSTROEM)
---------------------------------
  C      2.720503   -0.081163   -0.569847
  C      1.734868   -0.564545    0.487915
  C      0.579741    0.413848    0.705262
  C     -0.389197    0.462257   -0.478271
  S     -2.072445   -0.134458   -0.061245
  H      3.524587   -0.802178   -0.694118
  H      3.155487    0.870934   -0.274437
  H      2.230467    0.051662   -1.531388
  H      2.265073   -0.692936    1.433698
  H      1.331356   -1.538291    0.200863
  H      0.985468    1.411437    0.882752
  H      0.036158    0.114479    1.603352
  H     -0.501530    1.464959   -0.885209
  H     -0.073599   -0.205595   -1.278738
  H     -2.385733    0.857486    0.763022

 Total Charge           Charge          ....    0
 Multiplicity           Mult            ....    1
 Number of Electrons    NEL             ....   50
 Basis Dimension        Dim             ....  153

ORBITAL ENERGIES
----------------

  NO   OCC          E(Eh)            E(eV)
   0   2.0000     -88.549218     -2409.5467
   1   2.0000     -10.065330      -273.8915
   2   2.0000     -10.032839      -273.0074
   3   2.0000     -10.031118      -272.9606
   4   2.0000     -10.021581      -272.7011
   5   2.0000      -7.844418      -213.4575
   6   2.0000      -5.791669      -157.5993
   7   2.0000      -5.787844      -157.4952
   8   2.0000      -5.781425      -157.3206
   9   2.0000      -0.783664       -21.3246
  10   2.0000      -0.729927       -19.8623
  11   2.0000      -0.657565       -17.8932
  12   2.0000      -0.596321       -16.2267
  13   2.0000      -0.544173       -14.8077
  14   2.0000      -0.444646       -12.0994
  15   2.0000      -0.425357       -11.5745
  16   2.0000      -0.416743       -11.3402
  17   2.0000      -0.368337       -10.0229
  18   2.0000      -0.364654        -9.9227
  19   2.0000      -0.355276        -9.6675
  20   2.0000      -0.319803        -8.7023
  21   2.0000      -0.307290        -8.3618
  22   2.0000      -0.302426        -8.2294
  23   2.0000      -0.286364        -7.7924
  24   2.0000      -0.207654        -5.6506
  25   0.0000       0.012489         0.3398
  26   0.0000       0.046677         1.2702
  27   0.0000       0.093977         2.5572
  28   0.0000       0.104271         2.8374
  29   0.0000       0.122388         3.3303

MULLIKEN ATOMIC CHARGES
-----------------------
   0 C :   -0.460070
   1 C :   -0.283498
   2 C :   -0.197152
   3 C :   -0.269943
   4 S :   -0.267173
   5 H :    0.148908
   6 H :    0.144305
   7 H :    0.138552
   8 H :    0.141658
   9 H :    0.143969
  10 H :    0.139416
  11 H :    0.157476
  12 H :    0.172466
  13 H :    0.158148
  14 H :    0.132940
Sum of atomic charges:    0.0000000

LOEWDIN ATOMIC CHARGES
----------------------
   0 C :   -0.425705
   1 C :   -0.315682
   2 C :   -0.324598
   3 C :   -0.364915
   4 S :   -0.104792
   5 H :    0.151898
   6 H :    0.150070
   7 H :    0.148180
   8 H :    0.153623
   9 H :    0.153715
  10 H :    0.156011
  11 H :    0.163843
  12 H :    0.162527
  13 H :    0.170135
  14 H :    0.125690

  Mayer bond orders larger than 0.100000
B(  0-C ,  1-C ) :   0.9187 B(  0-C ,  5-H ) :   0.9714 B(  0-C ,  6-H ) :   0.9832
B(  0-C ,  7-H ) :   0.9741 B(  1-C ,  2-C ) :   0.8933 B(  1-C ,  8-H ) :   0.9671
B(  1-C ,  9-H ) :   0.9737 B(  2-C ,  3-C ) :   0.8444 B(  2-C , 10-H ) :   0.9766
B(  2-C , 11-H ) :   0.9666 B(  3-C ,  4-S ) :   0.9781 B(  3-C , 12-H ) :   0.9614
B(  3-C , 13-H ) :   0.9719 B(  4-S , 14-H ) :   0.9622

Dispersion correction           -0.003639609
FINAL SINGLE POINT ENERGY      -556.549995809193

DIPOLE MOMENT
-------------

Method             : SCF
Type of density    : Electron Density
Multiplicity       :   1
Irrep              :   0
Energy             :  -556.5568377228008785 Eh
Relativity type    :
Basis              : AO
                                X                 Y                 Z
Electronic contribution:     -9.382211451      -1.054926380      -0.079974475
Nuclear contribution   :      9.973174180       1.441056906       0.207946827
                        -----------------------------------------
Total Dipole Moment    :      0.590962728       0.386130526       0.127972351
                        -----------------------------------------
Magnitude (a.u.)       :      0.717433378
Magnitude (Debye)      :      1.823570726

Rotational constants in cm-1:             0.373970             0.051368             0.049907
Rotational constants in MHz :         11211.328952          1539.985478          1496.184333

                             ****ORCA TERMINATED NORMALLY****
TOTAL RUN TIME: 0 days 0 hours 0 minutes 13 seconds 952 msec
