                         Program Version 6.0.0  -   RELEASE  -
|  1> ! r2scan-3c def2/J RI DEFGRID2 scfconv6 printgap
|  2> %output
|  3>     printlevel normal
|  4> end
|  5> %cpcm
|  6>     smd true
|  7>     smdsolvent "water"
|  8> end
|  9> * xyz 0 1
| 10> C 2.7205031297 -0.0811628082 -0.5698470273
| 11> C 1.7348681571 -0.5645446624 0.4879151649
| 12> C 0.5797411457 0.4138481656 0.7052620378
| 13> C -0.3891971904 0.462257373 -0.4782707312
| 14> S -2.0724450991 -0.1344581907 -0.0612451997
| 15> H 3.5245871341 -0.8021777243 -0.6941183711
| 16> H 3.1554872908 0.8709344816 -0.2744367009
| 17> H 2.2304667466 0.0516615193 -1.5313880399
| 18> H 2.2650732346 -0.6929363998 1.4336982242
| 19> H 1.3313559828 -1.5382914849 0.2008634912
| 20> H 0.9854681538 1.4114374785 0.8827524389
| 21> H 0.0361576994 0.114479343 1.603351948
| 22> H -0.5015295864 1.464959487 -0.8852092749
| 23> H -0.0735986127 -0.2055947914 -1.278737563
| 24> H -2.3857332476 0.8574861504 0.763022119
| 25> *
| 26>
| 27>                          ****END OF INPUT****

CARTESIAN COORDINATES (ANGSTROEM)
---------------------------------
  C      2.720503   -0.081163   -0.569847
  C      1.734868   -0.564545    0.487915
  C      0.579741    0.413848    0.705262
  C     -0.389197    0.462257   -0.478271
  S     -2.072445   -0.134458   -0.061245
  H      3.524587   -0.802178   -0.694118
  H      3.155487    0.870934   -0.274437
  H      2.230467    0.051662   -1.531388
  H      2.265073   -0.692936    1.433698
  H      1.331356   -1.538291    0.200863
  H      0.985468    1.411437    0.882752
  H      0.036158    0.114479    1.603352
  H     -0.501530    1.464959   -0.885209
  H     -0.073599   -0.205595   -1.278738
  H     -2.385733    0.857486    0.763022

 Total Charge           Charge          ....    0
 Multiplicity           Mult            ....    1
 Number of Electrons    NEL             ....   50
 Basis Dimension        Dim             ....  153

ORBITAL ENERGIES
----------------

  NO   OCC          E(Eh)            E(eV)
   0   2.0000     -88.547760     -2409.5070
   1   2.0000     -10.054125      -273.5867
   2   2.0000     -10.020621      -272.6750
   3   2.0000     -10.018496      -272.6171
   4   2.0000     -10.008138      -272.3353
   5   2.0000      -7.843079      -213.4210
   6   2.0000      -5.790075      -157.5560
   7   2.0000      -5.786358      -157.4548
   8   2.0000      -5.780527      -157.2961
   9   2.0000      -0.773023       -21.0350
  10   2.0000      -0.720861       -19.6156
  11   2.0000      -0.648264       -17.6401
  12   2.0000      -0.586146       -15.9498
  13   2.0000      -0.532128       -14.4799
  14   2.0000      -0.432340       -11.7646
  15   2.0000      -0.414234       -11.2719
  16   2.0000      -0.406084       -11.0501
  17   2.0000      -0.356893        -9.7116
  18   2.0000      -0.353844        -9.6286
  19   2.0000      -0.344489        -9.3740
  20   2.0000      -0.310217        -8.4414
  21   2.0000      -0.295240        -8.0339
  22   2.0000      -0.289701        -7.8832
  23   2.0000      -0.279478        -7.6050
  24   2.0000      -0.208355        -5.6696
  25   0.0000       0.016036         0.4364
  26   0.0000       0.053705         1.4614
  27   0.0000       0.106853         2.9076
  28   0.0000       0.117556         3.1989
  29   0.0000       0.131804         3.5866

MULLIKEN ATOMIC CHARGES
-----------------------
   0 C :   -0.503546
   1 C :   -0.278722
   2 C :   -0.224350
   3 C :   -0.263480
   4 S :   -0.348381
   5 H :    0.156483
   6 H :    0.155458
   7 H :    0.153518
   8 H :    0.150050
   9 H :    0.147227
  10 H :    0.156637
  11 H :    0.159175
  12 H :    0.189961
  13 H :    0.180184
  14 H :    0.169785
Sum of atomic charges:    0.0000000

LOEWDIN ATOMIC CHARGES
----------------------
   0 C :   -0.433615
   1 C :   -0.317428
   2 C :   -0.324233
   3 C :   -0.359540
   4 S :   -0.144041
   5 H :    0.153086
   6 H :    0.152729
   7 H :    0.152354
   8 H :    0.155300
   9 H :    0.154580
  10 H :    0.162273
  11 H :    0.162882
  12 H :    0.169710
  13 H :    0.177776
  14 H :    0.138168

  Mayer bond orders larger than 0.100000
B(  0-C ,  1-C ) :   0.9109 B(  0-C ,  5-H ) :   0.9695 B(  0-C ,  6-H ) :   0.9805
B(  0-C ,  7-H ) :   0.9725 B(  1-C ,  2-C ) :   0.8898 B(  1-C ,  8-H ) :   0.9687
B(  1-C ,  9-H ) :   0.9726 B(  2-C ,  3-C ) :   0.8452 B(  2-C , 10-H ) :   0.9736
B(  2-C , 11-H ) :   0.9714 B(  3-C ,  4-S ) :   0.9587 B(  3-C , 12-H ) :   0.9559
B(  3-C , 13-H ) :   0.9641 B(  4-S , 14-H ) :   0.9557

Dispersion correction           -0.003639609
FINAL SINGLE POINT ENERGY      -556.551762237822

DIPOLE MOMENT
-------------

Method             : SCF
Type of density    : Electron Density
Multiplicity       :   1
Irrep              :   0
Energy             :  -556.5586041514300177 Eh
Relativity type    :
Basis              : AO
                                X                 Y                 Z
Electronic contribution:     -9.210307776      -0.891025165      -0.079049701
Nuclear contribution   :      9.973174180       1.441056906       0.207946827
                        -----------------------------------------
Total Dipole Moment    :      0.762866404       0.550031741       0.128897126
                        -----------------------------------------
Magnitude (a.u.)       :      0.949270528
Magnitude (Debye)      :      2.412853930

Rotational constants in cm-1:             0.373970             0.051368             0.049907
Rotational constants in MHz :         11211.328952          1539.985478          1496.184333

                             ****ORCA TERMINATED NORMALLY****
TOTAL RUN TIME: 0 days 0 hours 0 minutes 16 seconds 406 msec
