                         Program Version 6.0.0  -   RELEASE  -
|  1> ! r2scan-3c def2/J RI DEFGRID2 scfconv6 printgap
|  2> %output
|  3>     printlevel normal
|  4> end
|  5> %cpcm
|  6>     smd true
|  7>     smdsolvent "water"
|  8> end
|  9> * xyz 0 1
| 10> C -2.4144874494 -0.0552817843 0.1586823506
| 11> O -1.1741761654 0.1522028485 -0.4857483303
| 12> C -0.0687004708 -0.1055186333 0.3525992202
| 13> C 1.2081985722 0.1467911061 -0.443188727
| 14> O 2.3098470262 -0.1287122585 0.3926027286
| 15> H -2.5123605508 -1.0939969709 0.4915193289
| 16> H -3.1794321931 0.1708462719 -0.5794616554
| 17> H -2.5213660133 0.6090057762 1.0227237736
| 18> H -0.0885700176 0.5513819983 1.2341309552
| 19> H -0.0817194989 -1.1478998551 0.7025641694
| 20> H 1.2148962687 1.191444152 -0.7776333252
| 21> H 1.2060825992 -0.5053810457 -1.3250857058
| 22> H 3.1284758167 0.0186616531 -0.1016260309
| 23> *
| 24>
| 25>                          ****END OF INPUT****

CARTESIAN COORDINATES (ANGSTROEM)
---------------------------------
  C     -2.414487   -0.055282    0.158682
  O     -1.174176    0.152203   -0.485748
  C     -0.068700   -0.105519    0.352599
  C      1.208199    0.146791   -0.443189
  O      2.309847   -0.128712    0.392603
  H     -2.512361   -1.093997    0.491519
  H     -3.179432    0.170846   -0.579462
  H     -2.521366    0.609006    1.022724
  H     -0.088570    0.551382    1.234131
  H     -0.081719   -1.147900    0.702564
  H      1.214896    1.191444   -0.777633
  H      1.206083   -0.505381   -1.325086
  H      3.128476    0.018662   -0.101626

 Total Charge           Charge          ....    0
 Multiplicity           Mult            ....    1
 Number of Electrons    NEL             ....   42
 Basis Dimension        Dim             ....  145

ORBITAL ENERGIES
----------------

  NO   OCC          E(Eh)            E(eV)
   0   2.0000     -18.960778      -515.9490
   1   2.0000     -18.955707      -515.8110
   2   2.0000     -10.073278      -274.1078
   3   2.0000     -10.072163      -274.0775
   4   2.0000     -10.064318      -273.8640
   5   2.0000      -1.005698       -27.3664
   6   2.0000      -0.989485       -26.9253
   7   2.0000      -0.718719       -19.5574
   8   2.0000      -0.632670       -17.2158
   9   2.0000      -0.568016       -15.4565
  10   2.0000      -0.490188       -13.3387
  11   2.0000      -0.455664       -12.3992
  12   2.0000      -0.432158       -11.7596
  13   2.0000      -0.426785       -11.6134
  14   2.0000      -0.403118       -10.9694
  15   2.0000      -0.357900        -9.7390
  16   2.0000      -0.340703        -9.2710
  17   2.0000      -0.308222        -8.3872
  18   2.0000      -0.289717        -7.8836
  19   2.0000      -0.244140        -6.6434
  20   2.0000      -0.228008        -6.2044
  21   0.0000       0.049853         1.3566
  22   0.0000       0.095295         2.5931
  23   0.0000       0.124344         3.3836
  24   0.0000       0.145051         3.9470
  25   0.0000       0.146112         3.9759

MULLIKEN ATOMIC CHARGES
-----------------------
   0 C :   -0.305139
   1 O :   -0.306704
   2 C :   -0.153891
   3 C :   -0.123570
   4 O :   -0.510171
   5 H :    0.152233
   6 H :    0.163457
   7 H :    0.152393
   8 H :    0.145941
   9 H :    0.145732
  10 H :    0.143667
  11 H :    0.143702
  12 H :    0.352350
Sum of atomic charges:    0.0000000

LOEWDIN ATOMIC CHARGES
----------------------
   0 C :   -0.071467
   1 O :   -0.828689
   2 C :    0.034845
   3 C :    0.037118
   4 O :   -0.649062
   5 H :    0.164643
   6 H :    0.180074
   7 H :    0.164634
   8 H :    0.172226
   9 H :    0.172336
  10 H :    0.166776
  11 H :    0.167103
  12 H :    0.289462

  Mayer bond orders larger than 0.100000
B(  0-C ,  1-O ) :   0.8796 B(  0-C ,  5-H ) :   0.9619 B(  0-C ,  6-H ) :   0.9665
B(  0-C ,  7-H ) :   0.9618 B(  1-O ,  2-C ) :   0.9172 B(  2-C ,  3-C ) :   0.9675
B(  2-C ,  8-H ) :   0.9391 B(  2-C ,  9-H ) :   0.9400 B(  3-C ,  4-O ) :   0.9250
B(  3-C , 10-H ) :   0.9595 B(  3-C , 11-H ) :   0.9602 B(  4-O , 12-H ) :   0.8695

Dispersion correction           -0.002326113
FINAL SINGLE POINT ENERGY      -269.500041683744

DIPOLE MOMENT
-------------

Method             : SCF
Type of density    : Electron Density
Multiplicity       :   1
Irrep              :   0
Energy             :  -269.5080269911995856 Eh
Relativity type    :
Basis              : AO
                                X                 Y                 Z
Electronic contribution:      2.655716697       0.226884822      -0.735278845
Nuclear contribution   :     -2.641894670      -0.192856268       0.624500062
                        -----------------------------------------
Total Dipole Moment    :      0.013822027       0.034028554      -0.110778784
                        -----------------------------------------
Magnitude (a.u.)       :      0.116708739
Magnitude (Debye)      :      0.296650040

Rotational constants in cm-1:             0.759932             0.071461             0.067845
Rotational constants in MHz :         22782.178786          2142.351539          2033.955648

                             ****ORCA TERMINATED NORMALLY****
TOTAL RUN TIME: 0 days 0 hours 0 minutes 17 seconds 706 msec
