                         Program Version 6.0.0  -   RELEASE  -
|  1> ! r2scan-3c def2/J RI DEFGRID2 scfconv6 printgap
|  2> %output
|  3>     printlevel normal
|  4> end
|  5> * xyz 0 1
|  6> C 2.5257736835 -0.5643348456 -0.3227290765
|  7> C 1.2399799579 -0.0024727978 0.2791020609
|  8> H 1.0702020192 -0.4832059965 1.2572561751
|  9> C 0.0316268506 -0.2659933291 -0.6365875915
| 10> C -1.2862124865 -0.5367142058 0.1000033166
| 11> C -1.7345465574 0.6522159854 0.9482417894
| 12> C -2.3735384465 -0.8928895646 -0.9131850037
| 13> O 1.4651165895 1.3855209467 0.4819101983
| 14> H 2.6834127625 -0.1387317855 -1.3101783264
| 15> H 3.3689858108 -0.2933556227 0.307098247
| 16> H 2.466416674 -1.6455666849 -0.3970416927
| 17> H -0.085924918 0.5935743823 -1.3008689614
| 18> H 0.2550192081 -1.1329166483 -1.2600479867
| 19> H -1.1348578369 -1.3972609664 0.7622754409
| 20> H -2.7068557735 0.4481896726 1.3913261112
| 21> H -1.8238501332 1.5457060673 0.3336666957
| 22> H -1.035959929 0.8412713536 1.7598581836
| 23> H -3.305605306 -1.1282693781 -0.4052799676
| 24> H -2.5508196242 -0.0571586949 -1.5865025946
| 25> H -2.078993427 -1.7551764986 -1.5063139597
| 26> H 0.6518076582 1.7975365104 0.8014405309
| 27> *
| 28>
| 29>                          ****END OF INPUT****

CARTESIAN COORDINATES (ANGSTROEM)
---------------------------------
  C      2.525774   -0.564335   -0.322729
  C      1.239980   -0.002473    0.279102
  H      1.070202   -0.483206    1.257256
  C      0.031627   -0.265993   -0.636588
  C     -1.286212   -0.536714    0.100003
  C     -1.734547    0.652216    0.948242
  C     -2.373538   -0.892890   -0.913185
  O      1.465117    1.385521    0.481910
  H      2.683413   -0.138732   -1.310178
  H      3.368986   -0.293356    0.307098
  H      2.466417   -1.645567   -0.397042
  H     -0.085925    0.593574   -1.300869
  H      0.255019   -1.132917   -1.260048
  H     -1.134858   -1.397261    0.762275
  H     -2.706856    0.448190    1.391326
  H     -1.823850    1.545706    0.333667
  H     -1.035960    0.841271    1.759858
  H     -3.305605   -1.128269   -0.405280
  H     -2.550820   -0.057159   -1.586503
  H     -2.078993   -1.755176   -1.506314
  H      0.651808    1.797537    0.801441

 Total Charge           Charge          ....    0
 Multiplicity           Mult            ....    1
 Number of Electrons    NEL             ....   58
 Basis Dimension        Dim             ....  208

ORBITAL ENERGIES
----------------

  NO   OCC          E(Eh)            E(eV)
   0   2.0000     -18.940650      -515.4013
   1   2.0000     -10.078676      -274.2547
   2   2.0000     -10.039286      -273.1829
   3   2.0000     -10.025591      -272.8102
   4   2.0000     -10.022535      -272.7270
   5   2.0000     -10.018879      -272.6275
   6   2.0000     -10.013902      -272.4921
   7   2.0000      -0.979014       -26.6403
   8   2.0000      -0.781761       -21.2728
   9   2.0000      -0.722990       -19.6736
  10   2.0000      -0.657840       -17.9007
  11   2.0000      -0.648409       -17.6441
  12   2.0000      -0.557908       -15.1814
  13   2.0000      -0.533714       -14.5231
  14   2.0000      -0.479928       -13.0595
  15   2.0000      -0.439150       -11.9499
  16   2.0000      -0.421230       -11.4623
  17   2.0000      -0.409559       -11.1447
  18   2.0000      -0.377157       -10.2630
  19   2.0000      -0.365765        -9.9530
  20   2.0000      -0.356117        -9.6904
  21   2.0000      -0.350554        -9.5391
  22   2.0000      -0.345184        -9.3929
  23   2.0000      -0.332486        -9.0474
  24   2.0000      -0.316825        -8.6213
  25   2.0000      -0.300705        -8.1826
  26   2.0000      -0.296701        -8.0736
  27   2.0000      -0.271730        -7.3941
  28   2.0000      -0.230038        -6.2596
  29   0.0000       0.060931         1.6580
  30   0.0000       0.093063         2.5324
  31   0.0000       0.103646         2.8203
  32   0.0000       0.116776         3.1776
  33   0.0000       0.127390         3.4665

MULLIKEN ATOMIC CHARGES
-----------------------
   0 C :   -0.505007
   1 C :    0.056341
   2 H :    0.137239
   3 C :   -0.330397
   4 C :   -0.020862
   5 C :   -0.541934
   6 C :   -0.482071
   7 O :   -0.434508
   8 H :    0.153562
   9 H :    0.157137
  10 H :    0.142123
  11 H :    0.169771
  12 H :    0.146174
  13 H :    0.150018
  14 H :    0.150930
  15 H :    0.164039
  16 H :    0.150586
  17 H :    0.146975
  18 H :    0.148033
  19 H :    0.145040
  20 H :    0.296811
Sum of atomic charges:    0.0000000

LOEWDIN ATOMIC CHARGES
----------------------
   0 C :   -0.383696
   1 C :    0.050662
   2 H :    0.161399
   3 C :   -0.284877
   4 C :   -0.245842
   5 C :   -0.422281
   6 C :   -0.416626
   7 O :   -0.620570
   8 H :    0.161591
   9 H :    0.162724
  10 H :    0.154614
  11 H :    0.172252
  12 H :    0.165573
  13 H :    0.155618
  14 H :    0.156887
  15 H :    0.154159
  16 H :    0.151174
  17 H :    0.152163
  18 H :    0.154392
  19 H :    0.153724
  20 H :    0.266959

  Mayer bond orders larger than 0.100000
B(  0-C ,  1-C ) :   0.9202 B(  0-C ,  8-H ) :   0.9808 B(  0-C ,  9-H ) :   0.9734
B(  0-C , 10-H ) :   0.9762 B(  1-C ,  2-H ) :   0.9741 B(  1-C ,  3-C ) :   0.8438
B(  1-C ,  7-O ) :   0.8689 B(  3-C ,  4-C ) :   0.8987 B(  3-C , 11-H ) :   0.9909
B(  3-C , 12-H ) :   0.9708 B(  4-C ,  5-C ) :   0.8622 B(  4-C ,  6-C ) :   0.9200
B(  4-C , 13-H ) :   0.9599 B(  5-C , 14-H ) :   0.9659 B(  5-C , 15-H ) :   0.9893
B(  5-C , 16-H ) :   0.9658 B(  6-C , 17-H ) :   0.9758 B(  6-C , 18-H ) :   0.9850
B(  6-C , 19-H ) :   0.9755 B(  7-O , 20-H ) :   0.8878

Dispersion correction           -0.005524838
FINAL SINGLE POINT ENERGY      -312.201634875653

DIPOLE MOMENT
-------------

Method             : SCF
Type of density    : Electron Density
Multiplicity       :   1
Irrep              :   0
Energy             :  -312.2072555255839461 Eh
Relativity type    :
Basis              : AO
                                X                 Y                 Z
Electronic contribution:      3.354248997       2.259697275       1.135483303
Nuclear contribution   :     -3.943895254      -2.611328310      -1.074843455
                        -----------------------------------------
Total Dipole Moment    :     -0.589646257      -0.351631035       0.060639849
                        -----------------------------------------
Magnitude (a.u.)       :      0.689205546
Magnitude (Debye)      :      1.751821277

Rotational constants in cm-1:             0.145885             0.049532             0.040542
Rotational constants in MHz :          4373.509530          1484.935567          1215.431438

                             ****ORCA TERMINATED NORMALLY****
TOTAL RUN TIME: 0 days 0 hours 0 minutes 30 seconds 719 msec
