                         Program Version 6.0.0  -   RELEASE  -
|  1> ! r2scan-3c def2/J RI DEFGRID2 scfconv6 printgap
|  2> %output
|  3>     printlevel normal
|  4> end
|  5> %cpcm
|  6>     smd true
|  7>     smdsolvent "water"
|  8> end
|  9> * xyz 0 1
| 10> C 2.5257736835 -0.5643348456 -0.3227290765
| 11> C 1.2399799579 -0.0024727978 0.2791020609
| 12> H 1.0702020192 -0.4832059965 1.2572561751
| 13> C 0.0316268506 -0.2659933291 -0.6365875915
| 14> C -1.2862124865 -0.5367142058 0.1000033166
| 15> C -1.7345465574 0.6522159854 0.9482417894
| 16> C -2.3735384465 -0.8928895646 -0.9131850037
| 17> O 1.4651165895 1.3855209467 0.4819101983
| 18> H 2.6834127625 -0.1387317855 -1.3101783264
| 19> H 3.3689858108 -0.2933556227 0.307098247
| 20> H 2.466416674 -1.6455666849 -0.3970416927
| 21> H -0.085924918 0.5935743823 -1.3008689614
| 22> H 0.2550192081 -1.1329166483 -1.2600479867
| 23> H -1.1348578369 -1.3972609664 0.7622754409
| 24> H -2.7068557735 0.4481896726 1.3913261112
| 25> H -1.8238501332 1.5457060673 0.3336666957
| 26> H -1.035959929 0.8412713536 1.7598581836
| 27> H -3.305605306 -1.1282693781 -0.4052799676
| 28> H -2.5508196242 -0.0571586949 -1.5865025946
| 29> H -2.078993427 -1.7551764986 -1.5063139597
| 30> H 0.6518076582 1.7975365104 0.8014405309
| 31> *
| 32>
| 33>                          ****END OF INPUT****

CARTESIAN COORDINATES (ANGSTROEM)
---------------------------------
  C      2.525774   -0.564335   -0.322729
  C      1.239980   -0.002473    0.279102
  H      1.070202   -0.483206    1.257256
  C      0.031627   -0.265993   -0.636588
  C     -1.286212   -0.536714    0.100003
  C     -1.734547    0.652216    0.948242
  C     -2.373538   -0.892890   -0.913185
  O      1.465117    1.385521    0.481910
  H      2.683413   -0.138732   -1.310178
  H      3.368986   -0.293356    0.307098
  H      2.466417   -1.645567   -0.397042
  H     -0.085925    0.593574   -1.300869
  H      0.255019   -1.132917   -1.260048
  H     -1.134858   -1.397261    0.762275
  H     -2.706856    0.448190    1.391326
  H     -1.823850    1.545706    0.333667
  H     -1.035960    0.841271    1.759858
  H     -3.305605   -1.128269   -0.405280
  H     -2.550820   -0.057159   -1.586503
  H     -2.078993   -1.755176   -1.506314
  H      0.651808    1.797537    0.801441

 Total Charge           Charge          ....    0
 Multiplicity           Mult            ....    1
 Number of Electrons    NEL             ....   58
 Basis Dimension        Dim             ....  208

ORBITAL ENERGIES
----------------

  NO   OCC          E(Eh)            E(eV)
   0   2.0000     -18.947269      -515.5814
   1   2.0000     -10.074843      -274.1504
   2   2.0000     -10.026099      -272.8240
   3   2.0000     -10.012975      -272.4669
   4   2.0000     -10.010003      -272.3860
   5   2.0000     -10.008502      -272.3452
   6   2.0000     -10.006153      -272.2813
   7   2.0000      -0.984324       -26.7848
   8   2.0000      -0.769850       -20.9487
   9   2.0000      -0.717555       -19.5257
  10   2.0000      -0.643373       -17.5071
  11   2.0000      -0.640539       -17.4300
  12   2.0000      -0.554257       -15.0821
  13   2.0000      -0.522109       -14.2073
  14   2.0000      -0.477635       -12.9971
  15   2.0000      -0.428422       -11.6580
  16   2.0000      -0.413653       -11.2561
  17   2.0000      -0.398574       -10.8458
  18   2.0000      -0.369278       -10.0486
  19   2.0000      -0.358149        -9.7457
  20   2.0000      -0.347794        -9.4640
  21   2.0000      -0.344451        -9.3730
  22   2.0000      -0.336648        -9.1607
  23   2.0000      -0.325110        -8.8467
  24   2.0000      -0.312286        -8.4977
  25   2.0000      -0.290140        -7.8951
  26   2.0000      -0.283927        -7.7260
  27   2.0000      -0.267095        -7.2680
  28   2.0000      -0.235541        -6.4094
  29   0.0000       0.075120         2.0441
  30   0.0000       0.104277         2.8375
  31   0.0000       0.114796         3.1238
  32   0.0000       0.126758         3.4493
  33   0.0000       0.136972         3.7272

MULLIKEN ATOMIC CHARGES
-----------------------
   0 C :   -0.544263
   1 C :    0.065282
   2 H :    0.150165
   3 C :   -0.336285
   4 C :   -0.006077
   5 C :   -0.572322
   6 C :   -0.532951
   7 O :   -0.523510
   8 H :    0.162893
   9 H :    0.161010
  10 H :    0.165686
  11 H :    0.169752
  12 H :    0.159949
  13 H :    0.157499
  14 H :    0.160023
  15 H :    0.174388
  16 H :    0.165441
  17 H :    0.158668
  18 H :    0.159209
  19 H :    0.155930
  20 H :    0.349513
Sum of atomic charges:    0.0000000

LOEWDIN ATOMIC CHARGES
----------------------
   0 C :   -0.393080
   1 C :    0.050552
   2 H :    0.169158
   3 C :   -0.284237
   4 C :   -0.241958
   5 C :   -0.426952
   6 C :   -0.425900
   7 O :   -0.658381
   8 H :    0.162231
   9 H :    0.161153
  10 H :    0.163918
  11 H :    0.172963
  12 H :    0.170016
  13 H :    0.158248
  14 H :    0.157902
  15 H :    0.158262
  16 H :    0.156430
  17 H :    0.154913
  18 H :    0.156406
  19 H :    0.155472
  20 H :    0.282884

  Mayer bond orders larger than 0.100000
B(  0-C ,  1-C ) :   0.9137 B(  0-C ,  8-H ) :   0.9770 B(  0-C ,  9-H ) :   0.9733
B(  0-C , 10-H ) :   0.9693 B(  1-C ,  2-H ) :   0.9661 B(  1-C ,  3-C ) :   0.8632
B(  1-C ,  7-O ) :   0.8511 B(  3-C ,  4-C ) :   0.9007 B(  3-C , 11-H ) :   0.9849
B(  3-C , 12-H ) :   0.9701 B(  4-C ,  5-C ) :   0.8655 B(  4-C ,  6-C ) :   0.9037
B(  4-C , 13-H ) :   0.9623 B(  5-C , 14-H ) :   0.9656 B(  5-C , 15-H ) :   0.9840
B(  5-C , 16-H ) :   0.9629 B(  6-C , 17-H ) :   0.9735 B(  6-C , 18-H ) :   0.9844
B(  6-C , 19-H ) :   0.9740 B(  7-O , 20-H ) :   0.8633

Dispersion correction           -0.005524838
FINAL SINGLE POINT ENERGY      -312.207356066412

DIPOLE MOMENT
-------------

Method             : SCF
Type of density    : Electron Density
Multiplicity       :   1
Irrep              :   0
Energy             :  -312.2129767163422116 Eh
Relativity type    :
Basis              : AO
                                X                 Y                 Z
Electronic contribution:      3.143124752       2.118620059       1.196429594
Nuclear contribution   :     -3.943895254      -2.611328310      -1.074843455
                        -----------------------------------------
Total Dipole Moment    :     -0.800770502      -0.492708251       0.121586139
                        -----------------------------------------
Magnitude (a.u.)       :      0.948039032
Magnitude (Debye)      :      2.409723717

Rotational constants in cm-1:             0.145885             0.049532             0.040542
Rotational constants in MHz :          4373.509530          1484.935567          1215.431438

                             ****ORCA TERMINATED NORMALLY****
TOTAL RUN TIME: 0 days 0 hours 0 minutes 35 seconds 77 msec
