                         Program Version 6.0.0  -   RELEASE  -
|  1> ! pbe def2-sv(p) def2/J RI DEFGRID1 loosescf d4 GCP(DFT/SV(P)) printgap
|  2> %output
|  3>     printlevel normal
|  4> end
|  5> * xyz 0 1
|  6> C -2.5160645718 0.331428676 0.8820401058
|  7> C -1.7432467456 0.6254867755 -0.4070572438
|  8> C -0.4977997994 -0.2221819733 -0.4464199677
|  9> O -0.3918777032 -1.2686163542 -1.0538359908
| 10> O 0.4661428963 0.3037152465 0.2932846339
| 11> C 1.7271595077 -0.3783957353 0.4015275155
| 12> C 2.8497813942 0.6370627367 0.2787449255
| 13> H -3.4224231853 0.928506875 0.9096978179
| 14> H -2.7881642629 -0.7204810541 0.9276477625
| 15> H -1.9070102798 0.5740998806 1.7488063534
| 16> H -1.4543956029 1.675320261 -0.4315253928
| 17> H -2.3533869563 0.3817883189 -1.2758550858
| 18> H 1.7453844702 -0.8678385859 1.3794639985
| 19> H 1.7785368273 -1.1401711106 -0.3826336909
| 20> H 3.8027875733 0.1350311004 0.4092363214
| 21> H 2.8270034208 1.1092292415 -0.69958595
| 22> H 2.7398453145 1.4031395619 1.0406474272
| 23> *
| 24>
| 25>                          ****END OF INPUT****

CARTESIAN COORDINATES (ANGSTROEM)
---------------------------------
  C     -2.516065    0.331429    0.882040
  C     -1.743247    0.625487   -0.407057
  C     -0.497800   -0.222182   -0.446420
  O     -0.391878   -1.268616   -1.053836
  O      0.466143    0.303715    0.293285
  C      1.727160   -0.378396    0.401528
  C      2.849781    0.637063    0.278745
  H     -3.422423    0.928507    0.909698
  H     -2.788164   -0.720481    0.927648
  H     -1.907010    0.574100    1.748806
  H     -1.454396    1.675320   -0.431525
  H     -2.353387    0.381788   -1.275855
  H      1.745384   -0.867839    1.379464
  H      1.778537   -1.140171   -0.382634
  H      3.802788    0.135031    0.409236
  H      2.827003    1.109229   -0.699586
  H      2.739845    1.403140    1.040647

 Total Charge           Charge          ....    0
 Multiplicity           Mult            ....    1
 Number of Electrons    NEL             ....   56
 Basis Dimension        Dim             ....  118

ORBITAL ENERGIES
----------------

  NO   OCC          E(Eh)            E(eV)
   0   2.0000     -18.797012      -511.4927
   1   2.0000     -18.728480      -509.6279
   2   2.0000     -10.003553      -272.2105
   3   2.0000      -9.945357      -270.6269
   4   2.0000      -9.897978      -269.3377
   5   2.0000      -9.889356      -269.1031
   6   2.0000      -9.887749      -269.0593
   7   2.0000      -1.003260       -27.3001
   8   2.0000      -0.906164       -24.6580
   9   2.0000      -0.722683       -19.6652
  10   2.0000      -0.688660       -18.7394
  11   2.0000      -0.603522       -16.4227
  12   2.0000      -0.560527       -15.2527
  13   2.0000      -0.504392       -13.7252
  14   2.0000      -0.453743       -12.3470
  15   2.0000      -0.427590       -11.6353
  16   2.0000      -0.415901       -11.3172
  17   2.0000      -0.395887       -10.7726
  18   2.0000      -0.385907       -10.5011
  19   2.0000      -0.360990        -9.8230
  20   2.0000      -0.352946        -9.6042
  21   2.0000      -0.346961        -9.4413
  22   2.0000      -0.323423        -8.8008
  23   2.0000      -0.315618        -8.5884
  24   2.0000      -0.311508        -8.4766
  25   2.0000      -0.290382        -7.9017
  26   2.0000      -0.253259        -6.8915
  27   2.0000      -0.213689        -5.8148
  28   0.0000      -0.017682        -0.4811
  29   0.0000       0.042213         1.1487
  30   0.0000       0.055897         1.5210
  31   0.0000       0.079446         2.1618
  32   0.0000       0.089625         2.4388

MULLIKEN ATOMIC CHARGES
-----------------------
   0 C :   -0.303974
   1 C :   -0.131711
   2 C :    0.093704
   3 O :   -0.208258
   4 O :   -0.246479
   5 C :   -0.025943
   6 C :   -0.284797
   7 H :    0.115969
   8 H :    0.116063
   9 H :    0.112739
  10 H :    0.101254
  11 H :    0.103874
  12 H :    0.102178
  13 H :    0.116409
  14 H :    0.111485
  15 H :    0.113820
  16 H :    0.113665
Sum of atomic charges:   -0.0000000

LOEWDIN ATOMIC CHARGES
----------------------
   0 C :   -0.331206
   1 C :   -0.248969
   2 C :    0.034817
   3 O :   -0.172559
   4 O :   -0.070905
   5 C :   -0.113020
   6 C :   -0.351228
   7 H :    0.123873
   8 H :    0.125064
   9 H :    0.122238
  10 H :    0.131318
  11 H :    0.133816
  12 H :    0.115453
  13 H :    0.120373
  14 H :    0.129735
  15 H :    0.126140
  16 H :    0.125061

  Mayer bond orders larger than 0.100000
B(  0-C ,  1-C ) :   1.1408 B(  0-C ,  7-H ) :   0.9524 B(  0-C ,  8-H ) :   0.9536
B(  0-C ,  9-H ) :   0.9539 B(  1-C ,  2-C ) :   1.0223 B(  1-C , 10-H ) :   0.9062
B(  1-C , 11-H ) :   0.9126 B(  2-C ,  3-O ) :   2.0682 B(  2-C ,  4-O ) :   1.1944
B(  4-O ,  5-C ) :   0.9121 B(  5-C ,  6-C ) :   1.1641 B(  5-C , 12-H ) :   0.9353
B(  5-C , 13-H ) :   0.9090 B(  6-C , 14-H ) :   0.9449 B(  6-C , 15-H ) :   0.9520
B(  6-C , 16-H ) :   0.9495

Dispersion correction           -0.011699669
FINAL SINGLE POINT ENERGY      -346.243340808877

DIPOLE MOMENT
-------------

Method             : SCF
Type of density    : Electron Density
Multiplicity       :   1
Irrep              :   0
Energy             :  -346.3079561675700688 Eh
Relativity type    :
Basis              : AO
                                X                 Y                 Z
Electronic contribution:     -0.643263042      -2.679147167      -2.890599348
Nuclear contribution   :      0.909413273       3.249225626       3.390423991
                        -----------------------------------------
Total Dipole Moment    :      0.266150231       0.570078459       0.499824643
                        -----------------------------------------
Magnitude (a.u.)       :      0.803523534
Magnitude (Debye)      :      2.042394511

Rotational constants in cm-1:             0.175143             0.048719             0.042615
Rotational constants in MHz :          5250.653684          1460.568919          1277.578339

                             ****ORCA TERMINATED NORMALLY****
TOTAL RUN TIME: 0 days 0 hours 0 minutes 8 seconds 870 msec
