                         Program Version 6.0.0  -   RELEASE  -
|  1> ! r2scan-3c def2/J RI DEFGRID2 scfconv6 printgap
|  2> %output
|  3>     printlevel normal
|  4> end
|  5> * xyz 0 1
|  6> C 1.7940245721 -1.1563658088 0.1150331255
|  7> C 1.2204924451 0.2170986475 0.4473948821
|  8> H 0.9784124642 0.2565439695 1.5231809197
|  9> C -0.0480395783 0.5207412803 -0.3613635719
| 10> C -1.2680089849 -0.312323396 0.0780501745
| 11> C -2.3779556501 0.5887697311 0.6185163342
| 12> C -1.7972011567 -1.1643471179 -1.0740703766
| 13> O 2.2439921742 1.1629553415 0.1719571122
| 14> H 2.064223725 -1.1894390484 -0.9372347452
| 15> H 2.6896840724 -1.3299441409 0.7052035072
| 16> H 1.0690233466 -1.9350413405 0.3270145122
| 17> H -0.2780243283 1.5830729461 -0.2521619423
| 18> H 0.1731546708 0.3455541968 -1.415529716
| 19> H -0.9613468203 -0.9846187204 0.8865691364
| 20> H -3.2226308856 -0.0083904182 0.954290783
| 21> H -2.72612001 1.2681444731 -0.1565925407
| 22> H -2.0191481649 1.175982639 1.4606363989
| 23> H -1.0206793379 -1.8259397245 -1.449881955
| 24> H -2.636149014 -1.7725062215 -0.743516362
| 25> H -2.1354329465 -0.5287468659 -1.8895102855
| 26> H 1.9182522125 2.0530799859 0.3604893278
| 27> *
| 28>
| 29>                          ****END OF INPUT****

CARTESIAN COORDINATES (ANGSTROEM)
---------------------------------
  C      1.794025   -1.156366    0.115033
  C      1.220492    0.217099    0.447395
  H      0.978412    0.256544    1.523181
  C     -0.048040    0.520741   -0.361364
  C     -1.268009   -0.312323    0.078050
  C     -2.377956    0.588770    0.618516
  C     -1.797201   -1.164347   -1.074070
  O      2.243992    1.162955    0.171957
  H      2.064224   -1.189439   -0.937235
  H      2.689684   -1.329944    0.705204
  H      1.069023   -1.935041    0.327015
  H     -0.278024    1.583073   -0.252162
  H      0.173155    0.345554   -1.415530
  H     -0.961347   -0.984619    0.886569
  H     -3.222631   -0.008390    0.954291
  H     -2.726120    1.268144   -0.156593
  H     -2.019148    1.175983    1.460636
  H     -1.020679   -1.825940   -1.449882
  H     -2.636149   -1.772506   -0.743516
  H     -2.135433   -0.528747   -1.889510
  H      1.918252    2.053080    0.360489

 Total Charge           Charge          ....    0
 Multiplicity           Mult            ....    1
 Number of Electrons    NEL             ....   58
 Basis Dimension        Dim             ....  208

ORBITAL ENERGIES
----------------

  NO   OCC          E(Eh)            E(eV)
   0   2.0000     -18.943425      -515.4768
   1   2.0000     -10.080788      -274.3122
   2   2.0000     -10.037376      -273.1309
   3   2.0000     -10.022791      -272.7340
   4   2.0000     -10.018561      -272.6189
   5   2.0000     -10.017302      -272.5847
   6   2.0000     -10.015581      -272.5378
   7   2.0000      -0.981053       -26.6958
   8   2.0000      -0.780829       -21.2474
   9   2.0000      -0.720544       -19.6070
  10   2.0000      -0.653388       -17.7796
  11   2.0000      -0.649494       -17.6736
  12   2.0000      -0.559296       -15.2192
  13   2.0000      -0.531481       -14.4623
  14   2.0000      -0.480648       -13.0791
  15   2.0000      -0.440063       -11.9747
  16   2.0000      -0.414353       -11.2751
  17   2.0000      -0.407330       -11.0840
  18   2.0000      -0.382060       -10.3964
  19   2.0000      -0.367097        -9.9892
  20   2.0000      -0.357861        -9.7379
  21   2.0000      -0.352276        -9.5859
  22   2.0000      -0.330847        -9.0028
  23   2.0000      -0.327562        -8.9134
  24   2.0000      -0.317826        -8.6485
  25   2.0000      -0.296469        -8.0673
  26   2.0000      -0.293854        -7.9962
  27   2.0000      -0.277756        -7.5581
  28   2.0000      -0.231509        -6.2997
  29   0.0000       0.062965         1.7134
  30   0.0000       0.081009         2.2044
  31   0.0000       0.107446         2.9237
  32   0.0000       0.114383         3.1125
  33   0.0000       0.116199         3.1619

MULLIKEN ATOMIC CHARGES
-----------------------
   0 C :   -0.502639
   1 C :    0.003950
   2 H :    0.132188
   3 C :   -0.274411
   4 C :   -0.021581
   5 C :   -0.510446
   6 C :   -0.501993
   7 O :   -0.415429
   8 H :    0.159728
   9 H :    0.156417
  10 H :    0.146474
  11 H :    0.136868
  12 H :    0.163595
  13 H :    0.153364
  14 H :    0.144593
  15 H :    0.153932
  16 H :    0.146570
  17 H :    0.149650
  18 H :    0.143929
  19 H :    0.152039
  20 H :    0.283201
Sum of atomic charges:   -0.0000000

LOEWDIN ATOMIC CHARGES
----------------------
   0 C :   -0.382971
   1 C :    0.050616
   2 H :    0.158494
   3 C :   -0.279182
   4 C :   -0.248457
   5 C :   -0.416601
   6 C :   -0.415982
   7 O :   -0.614507
   8 H :    0.161931
   9 H :    0.162549
  10 H :    0.156798
  11 H :    0.160234
  12 H :    0.167555
  13 H :    0.155736
  14 H :    0.152382
  15 H :    0.153613
  16 H :    0.152106
  17 H :    0.153451
  18 H :    0.151733
  19 H :    0.153721
  20 H :    0.266779

  Mayer bond orders larger than 0.100000
B(  0-C ,  1-C ) :   0.9260 B(  0-C ,  8-H ) :   0.9860 B(  0-C ,  9-H ) :   0.9661
B(  0-C , 10-H ) :   0.9660 B(  1-C ,  2-H ) :   0.9718 B(  1-C ,  3-C ) :   0.8703
B(  1-C ,  7-O ) :   0.9091 B(  3-C ,  4-C ) :   0.7947 B(  3-C , 11-H ) :   0.9725
B(  3-C , 12-H ) :   0.9845 B(  4-C ,  5-C ) :   0.8968 B(  4-C ,  6-C ) :   0.8976
B(  4-C , 13-H ) :   0.9700 B(  5-C , 14-H ) :   0.9754 B(  5-C , 15-H ) :   0.9886
B(  5-C , 16-H ) :   0.9764 B(  6-C , 17-H ) :   0.9727 B(  6-C , 18-H ) :   0.9761
B(  6-C , 19-H ) :   0.9856 B(  7-O , 20-H ) :   0.9003

Dispersion correction           -0.005549320
FINAL SINGLE POINT ENERGY      -312.200076697546

DIPOLE MOMENT
-------------

Method             : SCF
Type of density    : Electron Density
Multiplicity       :   1
Irrep              :   0
Energy             :  -312.2055840772760007 Eh
Relativity type    :
Basis              : AO
                                X                 Y                 Z
Electronic contribution:      5.126826014       2.785813068       0.776088866
Nuclear contribution   :     -5.695856759      -2.696142739      -0.585716872
                        -----------------------------------------
Total Dipole Moment    :     -0.569030745       0.089670329       0.190371994
                        -----------------------------------------
Magnitude (a.u.)       :      0.606694530
Magnitude (Debye)      :      1.542094943

Rotational constants in cm-1:             0.139817             0.047970             0.040607
Rotational constants in MHz :          4191.615904          1438.101636          1217.379571

                             ****ORCA TERMINATED NORMALLY****
TOTAL RUN TIME: 0 days 0 hours 0 minutes 28 seconds 968 msec
