                         Program Version 6.0.0  -   RELEASE  -
|  1> ! r2scan-3c def2/J RI DEFGRID2 scfconv6 printgap
|  2> %output
|  3>     printlevel normal
|  4> end
|  5> %cpcm
|  6>     smd true
|  7>     smdsolvent "water"
|  8> end
|  9> * xyz 0 1
| 10> C 1.7940245721 -1.1563658088 0.1150331255
| 11> C 1.2204924451 0.2170986475 0.4473948821
| 12> H 0.9784124642 0.2565439695 1.5231809197
| 13> C -0.0480395783 0.5207412803 -0.3613635719
| 14> C -1.2680089849 -0.312323396 0.0780501745
| 15> C -2.3779556501 0.5887697311 0.6185163342
| 16> C -1.7972011567 -1.1643471179 -1.0740703766
| 17> O 2.2439921742 1.1629553415 0.1719571122
| 18> H 2.064223725 -1.1894390484 -0.9372347452
| 19> H 2.6896840724 -1.3299441409 0.7052035072
| 20> H 1.0690233466 -1.9350413405 0.3270145122
| 21> H -0.2780243283 1.5830729461 -0.2521619423
| 22> H 0.1731546708 0.3455541968 -1.415529716
| 23> H -0.9613468203 -0.9846187204 0.8865691364
| 24> H -3.2226308856 -0.0083904182 0.954290783
| 25> H -2.72612001 1.2681444731 -0.1565925407
| 26> H -2.0191481649 1.175982639 1.4606363989
| 27> H -1.0206793379 -1.8259397245 -1.449881955
| 28> H -2.636149014 -1.7725062215 -0.743516362
| 29> H -2.1354329465 -0.5287468659 -1.8895102855
| 30> H 1.9182522125 2.0530799859 0.3604893278
| 31> *
| 32>
| 33>                          ****END OF INPUT****

CARTESIAN COORDINATES (ANGSTROEM)
---------------------------------
  C      1.794025   -1.156366    0.115033
  C      1.220492    0.217099    0.447395
  H      0.978412    0.256544    1.523181
  C     -0.048040    0.520741   -0.361364
  C     -1.268009   -0.312323    0.078050
  C     -2.377956    0.588770    0.618516
  C     -1.797201   -1.164347   -1.074070
  O      2.243992    1.162955    0.171957
  H      2.064224   -1.189439   -0.937235
  H      2.689684   -1.329944    0.705204
  H      1.069023   -1.935041    0.327015
  H     -0.278024    1.583073   -0.252162
  H      0.173155    0.345554   -1.415530
  H     -0.961347   -0.984619    0.886569
  H     -3.222631   -0.008390    0.954291
  H     -2.726120    1.268144   -0.156593
  H     -2.019148    1.175983    1.460636
  H     -1.020679   -1.825940   -1.449882
  H     -2.636149   -1.772506   -0.743516
  H     -2.135433   -0.528747   -1.889510
  H      1.918252    2.053080    0.360489

 Total Charge           Charge          ....    0
 Multiplicity           Mult            ....    1
 Number of Electrons    NEL             ....   58
 Basis Dimension        Dim             ....  208

ORBITAL ENERGIES
----------------

  NO   OCC          E(Eh)            E(eV)
   0   2.0000     -18.948047      -515.6026
   1   2.0000     -10.075705      -274.1739
   2   2.0000     -10.026265      -272.8285
   3   2.0000     -10.012790      -272.4619
   4   2.0000     -10.010148      -272.3900
   5   2.0000     -10.006428      -272.2887
   6   2.0000     -10.006318      -272.2857
   7   2.0000      -0.984411       -26.7872
   8   2.0000      -0.770651       -20.9705
   9   2.0000      -0.714541       -19.4436
  10   2.0000      -0.643650       -17.5146
  11   2.0000      -0.640420       -17.4267
  12   2.0000      -0.554462       -15.0877
  13   2.0000      -0.521347       -14.1866
  14   2.0000      -0.477406       -12.9909
  15   2.0000      -0.432265       -11.7625
  16   2.0000      -0.405464       -11.0332
  17   2.0000      -0.397129       -10.8064
  18   2.0000      -0.374121       -10.1804
  19   2.0000      -0.364763        -9.9257
  20   2.0000      -0.349556        -9.5119
  21   2.0000      -0.344948        -9.3865
  22   2.0000      -0.324463        -8.8291
  23   2.0000      -0.323625        -8.8063
  24   2.0000      -0.308870        -8.4048
  25   2.0000      -0.287481        -7.8228
  26   2.0000      -0.283171        -7.7055
  27   2.0000      -0.273452        -7.4410
  28   2.0000      -0.235343        -6.4040
  29   0.0000       0.079480         2.1627
  30   0.0000       0.092273         2.5109
  31   0.0000       0.119013         3.2385
  32   0.0000       0.124524         3.3885
  33   0.0000       0.125344         3.4108

MULLIKEN ATOMIC CHARGES
-----------------------
   0 C :   -0.542677
   1 C :    0.023132
   2 H :    0.143931
   3 C :   -0.296319
   4 C :   -0.003519
   5 C :   -0.550904
   6 C :   -0.544094
   7 O :   -0.507282
   8 H :    0.168145
   9 H :    0.161935
  10 H :    0.168652
  11 H :    0.159242
  12 H :    0.164653
  13 H :    0.164525
  14 H :    0.154693
  15 H :    0.163332
  16 H :    0.158248
  17 H :    0.157983
  18 H :    0.154594
  19 H :    0.161767
  20 H :    0.339964
Sum of atomic charges:   -0.0000000

LOEWDIN ATOMIC CHARGES
----------------------
   0 C :   -0.392794
   1 C :    0.051758
   2 H :    0.166109
   3 C :   -0.279754
   4 C :   -0.244054
   5 C :   -0.424251
   6 C :   -0.424027
   7 O :   -0.652753
   8 H :    0.162296
   9 H :    0.161594
  10 H :    0.165727
  11 H :    0.167948
  12 H :    0.166999
  13 H :    0.159848
  14 H :    0.154109
  15 H :    0.155795
  16 H :    0.155316
  17 H :    0.155089
  18 H :    0.153927
  19 H :    0.155667
  20 H :    0.285451

  Mayer bond orders larger than 0.100000
B(  0-C ,  1-C ) :   0.9212 B(  0-C ,  8-H ) :   0.9813 B(  0-C ,  9-H ) :   0.9657
B(  0-C , 10-H ) :   0.9605 B(  1-C ,  2-H ) :   0.9656 B(  1-C ,  3-C ) :   0.8816
B(  1-C ,  7-O ) :   0.8890 B(  3-C ,  4-C ) :   0.7978 B(  3-C , 11-H ) :   0.9685
B(  3-C , 12-H ) :   0.9815 B(  4-C ,  5-C ) :   0.8901 B(  4-C ,  6-C ) :   0.8871
B(  4-C , 13-H ) :   0.9701 B(  5-C , 14-H ) :   0.9747 B(  5-C , 15-H ) :   0.9858
B(  5-C , 16-H ) :   0.9733 B(  6-C , 17-H ) :   0.9714 B(  6-C , 18-H ) :   0.9746
B(  6-C , 19-H ) :   0.9834 B(  7-O , 20-H ) :   0.8743

Dispersion correction           -0.005549320
FINAL SINGLE POINT ENERGY      -312.206065972946

DIPOLE MOMENT
-------------

Method             : SCF
Type of density    : Electron Density
Multiplicity       :   1
Irrep              :   0
Energy             :  -312.2115733526762256 Eh
Relativity type    :
Basis              : AO
                                X                 Y                 Z
Electronic contribution:      4.879093948       2.841642055       0.899019169
Nuclear contribution   :     -5.695856759      -2.696142739      -0.585716872
                        -----------------------------------------
Total Dipole Moment    :     -0.816762811       0.145499316       0.313302297
                        -----------------------------------------
Magnitude (a.u.)       :      0.886808813
Magnitude (Debye)      :      2.254088867

Rotational constants in cm-1:             0.139817             0.047970             0.040607
Rotational constants in MHz :          4191.615904          1438.101636          1217.379571

                             ****ORCA TERMINATED NORMALLY****
TOTAL RUN TIME: 0 days 0 hours 0 minutes 34 seconds 508 msec
