                         Program Version 6.0.0  -   RELEASE  -
|  1> ! pbe def2-sv(p) def2/J RI DEFGRID1 loosescf d4 GCP(DFT/SV(P)) printgap
|  2> %output
|  3>     printlevel normal
|  4> end
|  5> * xyz 0 1
|  6> C 1.7910177088 0.5632361144 -1.0889968622
|  7> C 1.0679515386 -0.1799285262 0.0304396292
|  8> H 0.6856586927 -1.1323571024 -0.3646781972
|  9> C -0.0918802739 0.6437402751 0.6236817358
| 10> C -1.5018922447 0.2800843243 0.1319212838
| 11> C -1.6448570045 0.4065438313 -1.3828509357
| 12> C -1.9303043676 -1.1117605895 0.5959989855
| 13> O 2.0541172271 -0.4673434159 1.0160396447
| 14> H 1.1034083544 0.8160681735 -1.888003765
| 15> H 2.233114771 1.4725254538 -0.6896245505
| 16> H 2.5897355373 -0.0594209604 -1.4840924989
| 17> H -0.0739205702 0.5223855037 1.7099438182
| 18> H 0.0918283326 1.7003574884 0.4199794117
| 19> H -2.1826619479 1.0057274735 0.593215393
| 20> H -2.6812842157 0.249449171 -1.6729873154
| 21> H -1.034485912 -0.3337954321 -1.8935133112
| 22> H -1.3444538335 1.3975755209 -1.7141420936
| 23> H -1.86532665 -1.1924609542 1.6785331263
| 24> H -2.9595533507 -1.3019689949 0.3013127823
| 25> H -1.3067675226 -1.8837990938 0.1521206999
| 26> H 1.6651787657 -1.0146189919 1.7103918413
| 27> *
| 28>
| 29>                          ****END OF INPUT****

CARTESIAN COORDINATES (ANGSTROEM)
---------------------------------
  C      1.791018    0.563236   -1.088997
  C      1.067952   -0.179929    0.030440
  H      0.685659   -1.132357   -0.364678
  C     -0.091880    0.643740    0.623682
  C     -1.501892    0.280084    0.131921
  C     -1.644857    0.406544   -1.382851
  C     -1.930304   -1.111761    0.595999
  O      2.054117   -0.467343    1.016040
  H      1.103408    0.816068   -1.888004
  H      2.233115    1.472525   -0.689625
  H      2.589736   -0.059421   -1.484092
  H     -0.073921    0.522386    1.709944
  H      0.091828    1.700357    0.419979
  H     -2.182662    1.005727    0.593215
  H     -2.681284    0.249449   -1.672987
  H     -1.034486   -0.333795   -1.893513
  H     -1.344454    1.397576   -1.714142
  H     -1.865327   -1.192461    1.678533
  H     -2.959553   -1.301969    0.301313
  H     -1.306768   -1.883799    0.152121
  H      1.665179   -1.014619    1.710392

 Total Charge           Charge          ....    0
 Multiplicity           Mult            ....    1
 Number of Electrons    NEL             ....   58
 Basis Dimension        Dim             ....  126

ORBITAL ENERGIES
----------------

  NO   OCC          E(Eh)            E(eV)
   0   2.0000     -18.732960      -509.7498
   1   2.0000      -9.933802      -270.3125
   2   2.0000      -9.897614      -269.3278
   3   2.0000      -9.878979      -268.8207
   4   2.0000      -9.876025      -268.7403
   5   2.0000      -9.875024      -268.7131
   6   2.0000      -9.868102      -268.5247
   7   2.0000      -0.910392       -24.7730
   8   2.0000      -0.733501       -19.9596
   9   2.0000      -0.672894       -18.3104
  10   2.0000      -0.614961       -16.7339
  11   2.0000      -0.609298       -16.5798
  12   2.0000      -0.532681       -14.4950
  13   2.0000      -0.491766       -13.3816
  14   2.0000      -0.462791       -12.5932
  15   2.0000      -0.406243       -11.0544
  16   2.0000      -0.402609       -10.9555
  17   2.0000      -0.395626       -10.7655
  18   2.0000      -0.369391       -10.0516
  19   2.0000      -0.354321        -9.6416
  20   2.0000      -0.343625        -9.3505
  21   2.0000      -0.331197        -9.0123
  22   2.0000      -0.320262        -8.7148
  23   2.0000      -0.309590        -8.4244
  24   2.0000      -0.297942        -8.1074
  25   2.0000      -0.286255        -7.7894
  26   2.0000      -0.280765        -7.6400
  27   2.0000      -0.260498        -7.0885
  28   2.0000      -0.205235        -5.5847
  29   0.0000       0.022210         0.6044
  30   0.0000       0.047249         1.2857
  31   0.0000       0.059113         1.6085
  32   0.0000       0.068349         1.8599
  33   0.0000       0.085855         2.3362

MULLIKEN ATOMIC CHARGES
-----------------------
   0 C :   -0.251891
   1 C :   -0.003300
   2 H :    0.071127
   3 C :   -0.112983
   4 C :   -0.180987
   5 C :   -0.255610
   6 C :   -0.253825
   7 O :   -0.433691
   8 H :    0.101656
   9 H :    0.103131
  10 H :    0.104367
  11 H :    0.066523
  12 H :    0.078700
  13 H :    0.071130
  14 H :    0.098941
  15 H :    0.106762
  16 H :    0.104729
  17 H :    0.094528
  18 H :    0.100353
  19 H :    0.099464
  20 H :    0.290877
Sum of atomic charges:    0.0000000

LOEWDIN ATOMIC CHARGES
----------------------
   0 C :   -0.340414
   1 C :   -0.055306
   2 H :    0.093273
   3 C :   -0.229976
   4 C :   -0.156874
   5 C :   -0.332833
   6 C :   -0.333118
   7 O :   -0.337862
   8 H :    0.120883
   9 H :    0.122705
  10 H :    0.122790
  11 H :    0.112416
  12 H :    0.117771
  13 H :    0.116406
  14 H :    0.118783
  15 H :    0.116263
  16 H :    0.118001
  17 H :    0.115068
  18 H :    0.119570
  19 H :    0.114581
  20 H :    0.277874

  Mayer bond orders larger than 0.100000
B(  0-C ,  1-C ) :   1.1222 B(  0-C ,  8-H ) :   0.9399 B(  0-C ,  9-H ) :   0.9394
B(  0-C , 10-H ) :   0.9443 B(  1-C ,  2-H ) :   0.9184 B(  1-C ,  3-C ) :   1.0234
B(  1-C ,  7-O ) :   1.0535 B(  3-C ,  4-C ) :   1.0732 B(  3-C , 11-H ) :   0.9188
B(  3-C , 12-H ) :   0.9117 B(  4-C ,  5-C ) :   1.1124 B(  4-C ,  6-C ) :   1.1092
B(  4-C , 13-H ) :   0.8969 B(  5-C , 14-H ) :   0.9471 B(  5-C , 15-H ) :   0.9401
B(  5-C , 16-H ) :   0.9459 B(  6-C , 17-H ) :   0.9516 B(  6-C , 18-H ) :   0.9504
B(  6-C , 19-H ) :   0.9428 B(  7-O , 20-H ) :   0.8538

Dispersion correction           -0.016729614
FINAL SINGLE POINT ENERGY      -311.513436568561

DIPOLE MOMENT
-------------

Method             : SCF
Type of density    : Electron Density
Multiplicity       :   1
Irrep              :   0
Energy             :  -311.5926708474725046 Eh
Relativity type    :
Basis              : AO
                                X                 Y                 Z
Electronic contribution:      4.122563071      -0.408026260       3.006456310
Nuclear contribution   :     -4.734944770       0.223540325      -2.932203866
                        -----------------------------------------
Total Dipole Moment    :     -0.612381699      -0.184485935       0.074252444
                        -----------------------------------------
Magnitude (a.u.)       :      0.643863208
Magnitude (Debye)      :      1.636570215

Rotational constants in cm-1:             0.125386             0.055846             0.044803
Rotational constants in MHz :          3758.963396          1674.224620          1343.158001

                             ****ORCA TERMINATED NORMALLY****
TOTAL RUN TIME: 0 days 0 hours 0 minutes 10 seconds 276 msec
