                         Program Version 6.0.0  -   RELEASE  -
|  1> ! pbe def2-sv(p) def2/J RI DEFGRID1 loosescf d4 GCP(DFT/SV(P)) printgap
|  2> %output
|  3>     printlevel normal
|  4> end
|  5> * xyz 0 1
|  6> C -2.5952435514 -0.3497726701 -0.6941598273
|  7> C -1.7395228545 0.0593405877 0.5009521173
|  8> C -0.4898940193 0.8587254572 0.1020950644
|  9> C 0.8310228873 0.0635101232 0.0293136766
| 10> C 1.9349761566 0.9840980265 -0.5009000757
| 11> C 0.7215556027 -1.1726793799 -0.868788782
| 12> O 1.2513323199 -0.3186275742 1.3378953197
| 13> H -3.4674273648 -0.9067787563 -0.3587819623
| 14> H -2.0363442957 -0.9723243882 -1.3864795544
| 15> H -2.9396691046 0.5323725453 -1.2290585482
| 16> H -2.3522968259 0.6720499201 1.165253793
| 17> H -1.4579265693 -0.8328327271 1.0644056132
| 18> H -0.6600903871 1.328910985 -0.8668608611
| 19> H -0.3257131813 1.6564271361 0.8301980071
| 20> H 2.8859775423 0.4586340102 -0.4800927008
| 21> H 2.0179304665 1.8636121061 0.1319962083
| 22> H 1.7172265605 1.2923148994 -1.5184236255
| 23> H -0.0166906091 -1.8718756393 -0.4851550186
| 24> H 1.6839429829 -1.6784975841 -0.9034815176
| 25> H 0.4436204786 -0.8789164597 -1.8765125734
| 26> H 0.5779149041 -0.8870182309 1.7340840284
| 27> *
| 28>
| 29>                          ****END OF INPUT****

CARTESIAN COORDINATES (ANGSTROEM)
---------------------------------
  C     -2.595244   -0.349773   -0.694160
  C     -1.739523    0.059341    0.500952
  C     -0.489894    0.858725    0.102095
  C      0.831023    0.063510    0.029314
  C      1.934976    0.984098   -0.500900
  C      0.721556   -1.172679   -0.868789
  O      1.251332   -0.318628    1.337895
  H     -3.467427   -0.906779   -0.358782
  H     -2.036344   -0.972324   -1.386480
  H     -2.939669    0.532373   -1.229059
  H     -2.352297    0.672050    1.165254
  H     -1.457927   -0.832833    1.064406
  H     -0.660090    1.328911   -0.866861
  H     -0.325713    1.656427    0.830198
  H      2.885978    0.458634   -0.480093
  H      2.017930    1.863612    0.131996
  H      1.717227    1.292315   -1.518424
  H     -0.016691   -1.871876   -0.485155
  H      1.683943   -1.678498   -0.903482
  H      0.443620   -0.878916   -1.876513
  H      0.577915   -0.887018    1.734084

 Total Charge           Charge          ....    0
 Multiplicity           Mult            ....    1
 Number of Electrons    NEL             ....   58
 Basis Dimension        Dim             ....  126

ORBITAL ENERGIES
----------------

  NO   OCC          E(Eh)            E(eV)
   0   2.0000     -18.734314      -509.7866
   1   2.0000      -9.944152      -270.5941
   2   2.0000      -9.890121      -269.1239
   3   2.0000      -9.879344      -268.8306
   4   2.0000      -9.876680      -268.7581
   5   2.0000      -9.872777      -268.6519
   6   2.0000      -9.867171      -268.4994
   7   2.0000      -0.913302       -24.8522
   8   2.0000      -0.722663       -19.6647
   9   2.0000      -0.683613       -18.6021
  10   2.0000      -0.618023       -16.8173
  11   2.0000      -0.607324       -16.5261
  12   2.0000      -0.533586       -14.5196
  13   2.0000      -0.503678       -13.7058
  14   2.0000      -0.443071       -12.0566
  15   2.0000      -0.415844       -11.3157
  16   2.0000      -0.403357       -10.9759
  17   2.0000      -0.381730       -10.3874
  18   2.0000      -0.370085       -10.0705
  19   2.0000      -0.357121        -9.7177
  20   2.0000      -0.338448        -9.2096
  21   2.0000      -0.335271        -9.1232
  22   2.0000      -0.324095        -8.8191
  23   2.0000      -0.310173        -8.4402
  24   2.0000      -0.304629        -8.2894
  25   2.0000      -0.292095        -7.9483
  26   2.0000      -0.280524        -7.6335
  27   2.0000      -0.259324        -7.0566
  28   2.0000      -0.209196        -5.6925
  29   0.0000       0.020520         0.5584
  30   0.0000       0.049941         1.3590
  31   0.0000       0.058831         1.6009
  32   0.0000       0.070790         1.9263
  33   0.0000       0.076235         2.0745

MULLIKEN ATOMIC CHARGES
-----------------------
   0 C :   -0.295362
   1 C :   -0.176751
   2 C :   -0.098901
   3 C :   -0.086633
   4 C :   -0.199583
   5 C :   -0.223533
   6 O :   -0.422828
   7 H :    0.101881
   8 H :    0.106481
   9 H :    0.104578
  10 H :    0.088497
  11 H :    0.067838
  12 H :    0.074080
  13 H :    0.081068
  14 H :    0.101069
  15 H :    0.099370
  16 H :    0.092043
  17 H :    0.095069
  18 H :    0.102595
  19 H :    0.096133
  20 H :    0.292889
Sum of atomic charges:   -0.0000000

LOEWDIN ATOMIC CHARGES
----------------------
   0 C :   -0.342297
   1 C :   -0.237150
   2 C :   -0.229604
   3 C :   -0.013958
   4 C :   -0.324755
   5 C :   -0.338872
   6 O :   -0.322891
   7 H :    0.118787
   8 H :    0.116736
   9 H :    0.118570
  10 H :    0.120367
  11 H :    0.101863
  12 H :    0.117378
  13 H :    0.120180
  14 H :    0.122111
  15 H :    0.121597
  16 H :    0.119292
  17 H :    0.113830
  18 H :    0.122549
  19 H :    0.120775
  20 H :    0.275492

  Mayer bond orders larger than 0.100000
B(  0-C ,  1-C ) :   1.1576 B(  0-C ,  7-H ) :   0.9505 B(  0-C ,  8-H ) :   0.9482
B(  0-C ,  9-H ) :   0.9525 B(  1-C ,  2-C ) :   1.0873 B(  1-C , 10-H ) :   0.9257
B(  1-C , 11-H ) :   0.9178 B(  2-C ,  3-C ) :   1.0518 B(  2-C , 12-H ) :   0.9141
B(  2-C , 13-H ) :   0.9085 B(  3-C ,  4-C ) :   1.0826 B(  3-C ,  5-C ) :   1.0863
B(  3-C ,  6-O ) :   1.0240 B(  4-C , 14-H ) :   0.9418 B(  4-C , 15-H ) :   0.9422
B(  4-C , 16-H ) :   0.9451 B(  5-C , 17-H ) :   0.9313 B(  5-C , 18-H ) :   0.9395
B(  5-C , 19-H ) :   0.9344 B(  6-O , 20-H ) :   0.8492

Dispersion correction           -0.016972632
FINAL SINGLE POINT ENERGY      -311.518047308487

DIPOLE MOMENT
-------------

Method             : SCF
Type of density    : Electron Density
Multiplicity       :   1
Irrep              :   0
Energy             :  -311.5973019766595939 Eh
Relativity type    :
Basis              : AO
                                X                 Y                 Z
Electronic contribution:      3.137526063       0.064225510       3.700742202
Nuclear contribution   :     -3.667985514      -0.214804310      -3.900644418
                        -----------------------------------------
Total Dipole Moment    :     -0.530459450      -0.150578800      -0.199902217
                        -----------------------------------------
Magnitude (a.u.)       :      0.586533972
Magnitude (Debye)      :      1.490850876

Rotational constants in cm-1:             0.134151             0.053069             0.051427
Rotational constants in MHz :          4021.755831          1590.969615          1541.730713

                             ****ORCA TERMINATED NORMALLY****
TOTAL RUN TIME: 0 days 0 hours 0 minutes 9 seconds 420 msec
