                         Program Version 6.0.0  -   RELEASE  -
|  1> ! pbe def2-sv(p) def2/J RI DEFGRID1 loosescf d4 GCP(DFT/SV(P)) printgap
|  2> %output
|  3>     printlevel normal
|  4> end
|  5> * xyz 0 1
|  6> C -2.1425195934 -0.1185871882 0.740115217
|  7> C -1.5524150673 -0.1337574685 -0.6651906092
|  8> C -0.246160992 0.6543832111 -0.7389641513
|  9> C 0.8867688964 -0.0250716686 -0.0185135779
| 10> O 0.9555441145 -1.208576801 0.2343974958
| 11> O 1.8523075004 0.8255594241 0.3041869148
| 12> H -1.4537516911 -0.5835410404 1.4422597365
| 13> H -3.0780437431 -0.670832354 0.763882331
| 14> H -2.3344575976 0.9014914057 1.0648470979
| 15> H -1.3575318462 -1.165205077 -0.9643399804
| 16> H -2.2665470908 0.2992632071 -1.3660970892
| 17> H 0.0712366515 0.7591864355 -1.7794540885
| 18> H -0.360742718 1.6568162286 -0.325339099
| 19> H 2.605505447 0.3906133303 0.7484777755
| 20> *
| 21>
| 22>                          ****END OF INPUT****

CARTESIAN COORDINATES (ANGSTROEM)
---------------------------------
  C     -2.142520   -0.118587    0.740115
  C     -1.552415   -0.133757   -0.665191
  C     -0.246161    0.654383   -0.738964
  C      0.886769   -0.025072   -0.018514
  O      0.955544   -1.208577    0.234397
  O      1.852308    0.825559    0.304187
  H     -1.453752   -0.583541    1.442260
  H     -3.078044   -0.670832    0.763882
  H     -2.334458    0.901491    1.064847
  H     -1.357532   -1.165205   -0.964340
  H     -2.266547    0.299263   -1.366097
  H      0.071237    0.759186   -1.779454
  H     -0.360743    1.656816   -0.325339
  H      2.605505    0.390613    0.748478

 Total Charge           Charge          ....    0
 Multiplicity           Mult            ....    1
 Number of Electrons    NEL             ....   48
 Basis Dimension        Dim             ....  100

ORBITAL ENERGIES
----------------

  NO   OCC          E(Eh)            E(eV)
   0   2.0000     -18.800289      -511.5819
   1   2.0000     -18.737548      -509.8746
   2   2.0000     -10.014361      -272.5046
   3   2.0000      -9.902560      -269.4624
   4   2.0000      -9.889354      -269.1030
   5   2.0000      -9.874287      -268.6930
   6   2.0000      -1.008826       -27.4516
   7   2.0000      -0.911399       -24.8004
   8   2.0000      -0.723649       -19.6915
   9   2.0000      -0.647768       -17.6267
  10   2.0000      -0.576701       -15.6928
  11   2.0000      -0.517056       -14.0698
  12   2.0000      -0.447302       -12.1717
  13   2.0000      -0.431730       -11.7480
  14   2.0000      -0.411932       -11.2092
  15   2.0000      -0.382393       -10.4054
  16   2.0000      -0.375321       -10.2130
  17   2.0000      -0.355249        -9.6668
  18   2.0000      -0.331366        -9.0169
  19   2.0000      -0.303297        -8.2531
  20   2.0000      -0.301346        -8.2000
  21   2.0000      -0.296336        -8.0637
  22   2.0000      -0.273365        -7.4386
  23   2.0000      -0.223045        -6.0694
  24   0.0000      -0.022327        -0.6075
  25   0.0000       0.026280         0.7151
  26   0.0000       0.042912         1.1677
  27   0.0000       0.083900         2.2830
  28   0.0000       0.086167         2.3447

MULLIKEN ATOMIC CHARGES
-----------------------
   0 C :   -0.294274
   1 C :   -0.166942
   2 C :   -0.181121
   3 C :    0.072019
   4 O :   -0.194630
   5 O :   -0.287833
   6 H :    0.117150
   7 H :    0.106321
   8 H :    0.095336
   9 H :    0.104500
  10 H :    0.085707
  11 H :    0.123898
  12 H :    0.106614
  13 H :    0.313254
Sum of atomic charges:   -0.0000000

LOEWDIN ATOMIC CHARGES
----------------------
   0 C :   -0.343158
   1 C :   -0.230985
   2 C :   -0.251940
   3 C :    0.026293
   4 O :   -0.172202
   5 O :   -0.208480
   6 H :    0.122217
   7 H :    0.121286
   8 H :    0.114825
   9 H :    0.125815
  10 H :    0.118088
  11 H :    0.146993
  12 H :    0.134292
  13 H :    0.296956

  Mayer bond orders larger than 0.100000
B(  0-C ,  1-C ) :   1.1533 B(  0-C ,  6-H ) :   0.9523 B(  0-C ,  7-H ) :   0.9532
B(  0-C ,  8-H ) :   0.9542 B(  1-C ,  2-C ) :   1.1195 B(  1-C ,  9-H ) :   0.9168
B(  1-C , 10-H ) :   0.9241 B(  2-C ,  3-C ) :   1.0070 B(  2-C , 11-H ) :   0.8913
B(  2-C , 12-H ) :   0.9094 B(  3-C ,  4-O ) :   2.0864 B(  3-C ,  5-O ) :   1.2782
B(  5-O , 13-H ) :   0.8213

Dispersion correction           -0.009550126
FINAL SINGLE POINT ENERGY      -307.033982310583

DIPOLE MOMENT
-------------

Method             : SCF
Type of density    : Electron Density
Multiplicity       :   1
Irrep              :   0
Energy             :  -307.0890833299135920 Eh
Relativity type    :
Basis              : AO
                                X                 Y                 Z
Electronic contribution:      7.777036852      -0.908233570       0.306296001
Nuclear contribution   :     -7.627232258       1.483934754      -0.382057879
                        -----------------------------------------
Total Dipole Moment    :      0.149804593       0.575701184      -0.075761878
                        -----------------------------------------
Magnitude (a.u.)       :      0.599677523
Magnitude (Debye)      :      1.524259129

Rotational constants in cm-1:             0.220238             0.075422             0.068735
Rotational constants in MHz :          6602.559439          2261.082196          2060.629175

                             ****ORCA TERMINATED NORMALLY****
TOTAL RUN TIME: 0 days 0 hours 0 minutes 7 seconds 452 msec
