                         Program Version 6.0.0  -   RELEASE  -
|  1> ! pbe def2-sv(p) def2/J RI DEFGRID1 loosescf d4 GCP(DFT/SV(P)) printgap
|  2> %output
|  3>     printlevel normal
|  4> end
|  5> * xyz 0 1
|  6> C 1.534787956 -0.8740966212 -0.0566484308
|  7> O 1.2508525631 0.5089787354 -0.1725495798
|  8> C 0.0526280028 0.9088794682 0.4578590097
|  9> C -1.2224381255 0.4748819553 -0.2789766464
| 10> N -1.5789162707 -0.9071696681 0.0186526301
| 11> H 1.6776782855 -1.1472531638 0.9947541208
| 12> H 2.4579157948 -1.0356652888 -0.6077091706
| 13> H 0.7284130145 -1.4768019837 -0.4781475416
| 14> H 0.0295128652 0.5335106035 1.491198995
| 15> H 0.1032753806 1.9998558966 0.4747998841
| 16> H -2.0200150946 1.1884113447 -0.0132961834
| 17> H -1.0399719268 0.5533937713 -1.3539806679
| 18> H -2.4167112604 -1.1602310631 -0.4927473039
| 19> H -1.783263243 -1.001293057 1.0083122782
| 20> *
| 21>
| 22>                          ****END OF INPUT****

CARTESIAN COORDINATES (ANGSTROEM)
---------------------------------
  C      1.534788   -0.874097   -0.056648
  O      1.250853    0.508979   -0.172550
  C      0.052628    0.908879    0.457859
  C     -1.222438    0.474882   -0.278977
  N     -1.578916   -0.907170    0.018653
  H      1.677678   -1.147253    0.994754
  H      2.457916   -1.035665   -0.607709
  H      0.728413   -1.476802   -0.478148
  H      0.029513    0.533511    1.491199
  H      0.103275    1.999856    0.474800
  H     -2.020015    1.188411   -0.013296
  H     -1.039972    0.553394   -1.353981
  H     -2.416711   -1.160231   -0.492747
  H     -1.783263   -1.001293    1.008312

 Total Charge           Charge          ....    0
 Multiplicity           Mult            ....    1
 Number of Electrons    NEL             ....   42
 Basis Dimension        Dim             ....   88

ORBITAL ENERGIES
----------------

  NO   OCC          E(Eh)            E(eV)
   0   2.0000     -18.738242      -509.8935
   1   2.0000     -13.969099      -380.1185
   2   2.0000      -9.925314      -270.0815
   3   2.0000      -9.908280      -269.6180
   4   2.0000      -9.904042      -269.5027
   5   2.0000      -0.918954       -25.0060
   6   2.0000      -0.798917       -21.7396
   7   2.0000      -0.658032       -17.9060
   8   2.0000      -0.589736       -16.0475
   9   2.0000      -0.525302       -14.2942
  10   2.0000      -0.451397       -12.2831
  11   2.0000      -0.433628       -11.7996
  12   2.0000      -0.414118       -11.2687
  13   2.0000      -0.387266       -10.5380
  14   2.0000      -0.377518       -10.2728
  15   2.0000      -0.348784        -9.4909
  16   2.0000      -0.319112        -8.6835
  17   2.0000      -0.316398        -8.6096
  18   2.0000      -0.253032        -6.8853
  19   2.0000      -0.207829        -5.6553
  20   2.0000      -0.176437        -4.8011
  21   0.0000       0.029755         0.8097
  22   0.0000       0.066398         1.8068
  23   0.0000       0.074590         2.0297
  24   0.0000       0.087696         2.3863
  25   0.0000       0.100452         2.7334

MULLIKEN ATOMIC CHARGES
-----------------------
   0 C :   -0.111450
   1 O :   -0.344027
   2 C :    0.014160
   3 C :   -0.097616
   4 N :   -0.458581
   5 H :    0.069598
   6 H :    0.101941
   7 H :    0.116166
   8 H :    0.055606
   9 H :    0.087278
  10 H :    0.065420
  11 H :    0.093053
  12 H :    0.207320
  13 H :    0.201132
Sum of atomic charges:   -0.0000000

LOEWDIN ATOMIC CHARGES
----------------------
   0 C :   -0.217807
   1 O :   -0.183995
   2 C :   -0.118605
   3 C :   -0.199367
   4 N :   -0.408875
   5 H :    0.091652
   6 H :    0.109023
   7 H :    0.106122
   8 H :    0.091719
   9 H :    0.112716
  10 H :    0.092768
  11 H :    0.118376
  12 H :    0.205635
  13 H :    0.200637

  Mayer bond orders larger than 0.100000
B(  0-C ,  1-O ) :   1.0067 B(  0-C ,  5-H ) :   0.9426 B(  0-C ,  6-H ) :   0.9605
B(  0-C ,  7-H ) :   0.9300 B(  1-O ,  2-C ) :   1.0615 B(  2-C ,  3-C ) :   1.0976
B(  2-C ,  8-H ) :   0.9144 B(  2-C ,  9-H ) :   0.9322 B(  3-C ,  4-N ) :   1.0874
B(  3-C , 10-H ) :   0.9130 B(  3-C , 11-H ) :   0.9194 B(  4-N , 12-H ) :   0.9043
B(  4-N , 13-H ) :   0.9029

Dispersion correction           -0.008736227
FINAL SINGLE POINT ENERGY      -249.090391493704

DIPOLE MOMENT
-------------

Method             : SCF
Type of density    : Electron Density
Multiplicity       :   1
Irrep              :   0
Energy             :  -249.1513962532702635 Eh
Relativity type    :
Basis              : AO
                                X                 Y                 Z
Electronic contribution:      1.270494754       1.317249820      -0.646848635
Nuclear contribution   :     -2.113330326      -1.447908484       0.957459344
                        -----------------------------------------
Total Dipole Moment    :     -0.842835572      -0.130658664       0.310610709
                        -----------------------------------------
Magnitude (a.u.)       :      0.907701769
Magnitude (Debye)      :      2.307194540

Rotational constants in cm-1:             0.274282             0.119462             0.093269
Rotational constants in MHz :          8222.767725          3581.372789          2796.129747

                             ****ORCA TERMINATED NORMALLY****
TOTAL RUN TIME: 0 days 0 hours 0 minutes 6 seconds 29 msec
