                         Program Version 6.0.0  -   RELEASE  -
|  1> ! r2scan-3c def2/J RI DEFGRID2 scfconv6 printgap
|  2> %output
|  3>     printlevel normal
|  4> end
|  5> * xyz 0 1
|  6> C -2.2535457986 0.3071809911 1.1434514909
|  7> C -1.830034615 0.514146915 -0.3135818521
|  8> C -0.5285975321 -0.2028560066 -0.56537751
|  9> O -0.4282907526 -1.2871407492 -1.1038607766
| 10> O 0.5016171508 0.4843741528 -0.0975036233
| 11> C 1.8213125741 -0.078668117 -0.1924871817
| 12> C 2.6043044578 0.295696128 1.0531400869
| 13> H -3.2014121281 0.8053144422 1.3230121492
| 14> H -2.3698777748 -0.7529403959 1.3561532104
| 15> H -1.5052782595 0.7203070919 1.8144700932
| 16> H -1.6877674492 1.5764405182 -0.5077642071
| 17> H -2.5826627062 0.1064566839 -0.9872825265
| 18> H 1.7291562735 -1.1632498989 -0.3079308671
| 19> H 2.2885451055 0.334754768 -1.0912136395
| 20> H 3.6165730123 -0.085038383 0.9671324507
| 21> H 2.634730715 1.375991434 1.1596460297
| 22> H 2.1372300007 -0.1314557882 1.9360380225
| 23> *
| 24>
| 25>                          ****END OF INPUT****

CARTESIAN COORDINATES (ANGSTROEM)
---------------------------------
  C     -2.253546    0.307181    1.143451
  C     -1.830035    0.514147   -0.313582
  C     -0.528598   -0.202856   -0.565378
  O     -0.428291   -1.287141   -1.103861
  O      0.501617    0.484374   -0.097504
  C      1.821313   -0.078668   -0.192487
  C      2.604304    0.295696    1.053140
  H     -3.201412    0.805314    1.323012
  H     -2.369878   -0.752940    1.356153
  H     -1.505278    0.720307    1.814470
  H     -1.687767    1.576441   -0.507764
  H     -2.582663    0.106457   -0.987283
  H      1.729156   -1.163250   -0.307931
  H      2.288545    0.334755   -1.091214
  H      3.616573   -0.085038    0.967132
  H      2.634731    1.375991    1.159646
  H      2.137230   -0.131456    1.936038

 Total Charge           Charge          ....    0
 Multiplicity           Mult            ....    1
 Number of Electrons    NEL             ....   56
 Basis Dimension        Dim             ....  193

ORBITAL ENERGIES
----------------

  NO   OCC          E(Eh)            E(eV)
   0   2.0000     -18.996453      -516.9198
   1   2.0000     -18.925655      -514.9933
   2   2.0000     -10.150611      -276.2122
   3   2.0000     -10.090716      -274.5823
   4   2.0000     -10.043049      -273.2853
   5   2.0000     -10.032456      -272.9970
   6   2.0000     -10.031750      -272.9778
   7   2.0000      -1.071173       -29.1481
   8   2.0000      -0.973392       -26.4874
   9   2.0000      -0.767072       -20.8731
  10   2.0000      -0.733044       -19.9471
  11   2.0000      -0.639209       -17.3938
  12   2.0000      -0.596326       -16.2269
  13   2.0000      -0.532081       -14.4786
  14   2.0000      -0.465110       -12.6563
  15   2.0000      -0.462203       -12.5772
  16   2.0000      -0.439986       -11.9726
  17   2.0000      -0.411000       -11.1839
  18   2.0000      -0.398527       -10.8445
  19   2.0000      -0.384071       -10.4511
  20   2.0000      -0.373940       -10.1754
  21   2.0000      -0.350433        -9.5358
  22   2.0000      -0.342732        -9.3262
  23   2.0000      -0.326750        -8.8913
  24   2.0000      -0.326190        -8.8761
  25   2.0000      -0.307963        -8.3801
  26   2.0000      -0.269656        -7.3377
  27   2.0000      -0.231902        -6.3104
  28   0.0000      -0.013156        -0.3580
  29   0.0000       0.074572         2.0292
  30   0.0000       0.094760         2.5785
  31   0.0000       0.119023         3.2388
  32   0.0000       0.121473         3.3055

MULLIKEN ATOMIC CHARGES
-----------------------
   0 C :   -0.473122
   1 C :   -0.292905
   2 C :    0.413190
   3 O :   -0.433337
   4 O :   -0.175450
   5 C :   -0.153590
   6 C :   -0.443808
   7 H :    0.153228
   8 H :    0.157581
   9 H :    0.157497
  10 H :    0.151411
  11 H :    0.163255
  12 H :    0.180650
  13 H :    0.143900
  14 H :    0.147139
  15 H :    0.153143
  16 H :    0.151216
Sum of atomic charges:    0.0000000

LOEWDIN ATOMIC CHARGES
----------------------
   0 C :   -0.393113
   1 C :   -0.236301
   2 C :    0.356632
   3 O :   -0.435584
   4 O :   -0.597996
   5 C :    0.032560
   6 C :   -0.387593
   7 H :    0.153009
   8 H :    0.158713
   9 H :    0.158142
  10 H :    0.173953
  11 H :    0.174401
  12 H :    0.192638
  13 H :    0.174636
  14 H :    0.159407
  15 H :    0.158529
  16 H :    0.157967

  Mayer bond orders larger than 0.100000
B(  0-C ,  1-C ) :   0.8944 B(  0-C ,  7-H ) :   0.9707 B(  0-C ,  8-H ) :   0.9745
B(  0-C ,  9-H ) :   0.9768 B(  1-C ,  2-C ) :   0.9602 B(  1-C , 10-H ) :   0.9677
B(  1-C , 11-H ) :   0.9797 B(  2-C ,  3-O ) :   1.8425 B(  2-C ,  4-O ) :   1.0521
B(  4-O ,  5-C ) :   0.7865 B(  5-C ,  6-C ) :   0.9456 B(  5-C , 12-H ) :   0.9648
B(  5-C , 13-H ) :   0.9498 B(  6-C , 14-H ) :   0.9678 B(  6-C , 15-H ) :   0.9698
B(  6-C , 16-H ) :   0.9730

Dispersion correction           -0.003940446
FINAL SINGLE POINT ENERGY      -346.934934034523

DIPOLE MOMENT
-------------

Method             : SCF
Type of density    : Electron Density
Multiplicity       :   1
Irrep              :   0
Energy             :  -346.9414054844817201 Eh
Relativity type    :
Basis              : AO
                                X                 Y                 Z
Electronic contribution:     -0.718175979      -1.920182235      -4.770528415
Nuclear contribution   :      0.994828363       2.602376460       5.294335673
                        -----------------------------------------
Total Dipole Moment    :      0.276652384       0.682194225       0.523807258
                        -----------------------------------------
Magnitude (a.u.)       :      0.903492970
Magnitude (Debye)      :      2.296496623

Rotational constants in cm-1:             0.149954             0.053092             0.043813
Rotational constants in MHz :          4495.505542          1591.672056          1313.492140

                             ****ORCA TERMINATED NORMALLY****
TOTAL RUN TIME: 0 days 0 hours 0 minutes 19 seconds 645 msec
