                         Program Version 6.0.0  -   RELEASE  -
|  1> ! r2scan-3c def2/J RI DEFGRID2 scfconv6 printgap
|  2> %output
|  3>     printlevel normal
|  4> end
|  5> %cpcm
|  6>     smd true
|  7>     smdsolvent "water"
|  8> end
|  9> * xyz 0 1
| 10> C -2.2535457986 0.3071809911 1.1434514909
| 11> C -1.830034615 0.514146915 -0.3135818521
| 12> C -0.5285975321 -0.2028560066 -0.56537751
| 13> O -0.4282907526 -1.2871407492 -1.1038607766
| 14> O 0.5016171508 0.4843741528 -0.0975036233
| 15> C 1.8213125741 -0.078668117 -0.1924871817
| 16> C 2.6043044578 0.295696128 1.0531400869
| 17> H -3.2014121281 0.8053144422 1.3230121492
| 18> H -2.3698777748 -0.7529403959 1.3561532104
| 19> H -1.5052782595 0.7203070919 1.8144700932
| 20> H -1.6877674492 1.5764405182 -0.5077642071
| 21> H -2.5826627062 0.1064566839 -0.9872825265
| 22> H 1.7291562735 -1.1632498989 -0.3079308671
| 23> H 2.2885451055 0.334754768 -1.0912136395
| 24> H 3.6165730123 -0.085038383 0.9671324507
| 25> H 2.634730715 1.375991434 1.1596460297
| 26> H 2.1372300007 -0.1314557882 1.9360380225
| 27> *
| 28>
| 29>                          ****END OF INPUT****

CARTESIAN COORDINATES (ANGSTROEM)
---------------------------------
  C     -2.253546    0.307181    1.143451
  C     -1.830035    0.514147   -0.313582
  C     -0.528598   -0.202856   -0.565378
  O     -0.428291   -1.287141   -1.103861
  O      0.501617    0.484374   -0.097504
  C      1.821313   -0.078668   -0.192487
  C      2.604304    0.295696    1.053140
  H     -3.201412    0.805314    1.323012
  H     -2.369878   -0.752940    1.356153
  H     -1.505278    0.720307    1.814470
  H     -1.687767    1.576441   -0.507764
  H     -2.582663    0.106457   -0.987283
  H      1.729156   -1.163250   -0.307931
  H      2.288545    0.334755   -1.091214
  H      3.616573   -0.085038    0.967132
  H      2.634731    1.375991    1.159646
  H      2.137230   -0.131456    1.936038

 Total Charge           Charge          ....    0
 Multiplicity           Mult            ....    1
 Number of Electrons    NEL             ....   56
 Basis Dimension        Dim             ....  193

ORBITAL ENERGIES
----------------

  NO   OCC          E(Eh)            E(eV)
   0   2.0000     -19.002270      -517.0781
   1   2.0000     -18.942569      -515.4535
   2   2.0000     -10.161966      -276.5212
   3   2.0000     -10.082896      -274.3695
   4   2.0000     -10.037434      -273.1325
   5   2.0000     -10.022096      -272.7151
   6   2.0000     -10.018572      -272.6192
   7   2.0000      -1.078786       -29.3553
   8   2.0000      -0.988101       -26.8876
   9   2.0000      -0.762581       -20.7509
  10   2.0000      -0.724382       -19.7114
  11   2.0000      -0.632730       -17.2175
  12   2.0000      -0.589330       -16.0365
  13   2.0000      -0.530359       -14.4318
  14   2.0000      -0.467823       -12.7301
  15   2.0000      -0.459037       -12.4910
  16   2.0000      -0.449202       -12.2234
  17   2.0000      -0.409446       -11.1416
  18   2.0000      -0.396342       -10.7850
  19   2.0000      -0.378417       -10.2973
  20   2.0000      -0.362982        -9.8772
  21   2.0000      -0.341638        -9.2964
  22   2.0000      -0.338820        -9.2198
  23   2.0000      -0.325143        -8.8476
  24   2.0000      -0.318219        -8.6592
  25   2.0000      -0.308218        -8.3870
  26   2.0000      -0.276037        -7.5113
  27   2.0000      -0.248592        -6.7645
  28   0.0000      -0.021954        -0.5974
  29   0.0000       0.077963         2.1215
  30   0.0000       0.104316         2.8386
  31   0.0000       0.126888         3.4528
  32   0.0000       0.131264         3.5719

MULLIKEN ATOMIC CHARGES
-----------------------
   0 C :   -0.493014
   1 C :   -0.308400
   2 C :    0.450414
   3 O :   -0.520906
   4 O :   -0.191303
   5 C :   -0.146048
   6 C :   -0.487065
   7 H :    0.172317
   8 H :    0.164447
   9 H :    0.166182
  10 H :    0.175280
  11 H :    0.173353
  12 H :    0.176554
  13 H :    0.170134
  14 H :    0.168480
  15 H :    0.165102
  16 H :    0.164475
Sum of atomic charges:    0.0000000

LOEWDIN ATOMIC CHARGES
----------------------
   0 C :   -0.394159
   1 C :   -0.233734
   2 C :    0.365798
   3 O :   -0.498520
   4 O :   -0.598279
   5 C :    0.036982
   6 C :   -0.390538
   7 H :    0.160295
   8 H :    0.160623
   9 H :    0.160983
  10 H :    0.183993
  11 H :    0.178679
  12 H :    0.192075
  13 H :    0.184533
  14 H :    0.167899
  15 H :    0.162042
  16 H :    0.161326

  Mayer bond orders larger than 0.100000
B(  0-C ,  1-C ) :   0.8875 B(  0-C ,  7-H ) :   0.9658 B(  0-C ,  8-H ) :   0.9710
B(  0-C ,  9-H ) :   0.9730 B(  1-C ,  2-C ) :   0.9598 B(  1-C , 10-H ) :   0.9581
B(  1-C , 11-H ) :   0.9751 B(  2-C ,  3-O ) :   1.7692 B(  2-C ,  4-O ) :   1.0820
B(  4-O ,  5-C ) :   0.7752 B(  5-C ,  6-C ) :   0.9426 B(  5-C , 12-H ) :   0.9605
B(  5-C , 13-H ) :   0.9409 B(  6-C , 14-H ) :   0.9616 B(  6-C , 15-H ) :   0.9671
B(  6-C , 16-H ) :   0.9706

Dispersion correction           -0.003940446
FINAL SINGLE POINT ENERGY      -346.940235966831

DIPOLE MOMENT
-------------

Method             : SCF
Type of density    : Electron Density
Multiplicity       :   1
Irrep              :   0
Energy             :  -346.9467074167897067 Eh
Relativity type    :
Basis              : AO
                                X                 Y                 Z
Electronic contribution:     -0.636045151      -1.633783872      -4.593735328
Nuclear contribution   :      0.994828363       2.602376460       5.294335673
                        -----------------------------------------
Total Dipole Moment    :      0.358783212       0.968592588       0.700600345
                        -----------------------------------------
Magnitude (a.u.)       :      1.248093682
Magnitude (Debye)      :      3.172402023

Rotational constants in cm-1:             0.149954             0.053092             0.043813
Rotational constants in MHz :          4495.505542          1591.672056          1313.492140

                             ****ORCA TERMINATED NORMALLY****
TOTAL RUN TIME: 0 days 0 hours 0 minutes 22 seconds 977 msec
