                         Program Version 6.0.0  -   RELEASE  -
|  1> ! r2scan-3c def2/J RI DEFGRID2 scfconv6 printgap
|  2> %output
|  3>     printlevel normal
|  4> end
|  5> * xyz 0 1
|  6> C 1.5461870896 -0.8228763148 0.8363636183
|  7> C 1.07514088 -0.2796699571 -0.5099953121
|  8> C 2.2493462899 0.3014363616 -1.2938252907
|  9> C -0.0021590404 0.8029194268 -0.3055477902
| 10> C -1.2475074863 0.2312938938 0.3180996265
| 11> O -1.5609511561 0.4664352629 1.470646652
| 12> C -2.0839890273 -0.6513980832 -0.5640923365
| 13> H 2.0139648413 -0.0335787011 1.4208982455
| 14> H 0.709558221 -1.2158909136 1.4105765225
| 15> H 2.2708067711 -1.6203811055 0.6920634212
| 16> H 0.6432696243 -1.1032303078 -1.0869481051
| 17> H 3.013759137 -0.4572713161 -1.4405901786
| 18> H 2.6920119282 1.1338243547 -0.7519919107
| 19> H 1.9255867552 0.6569514382 -2.2686051993
| 20> H -0.2640944029 1.2337905749 -1.2727790687
| 21> H 0.3939369707 1.5857957978 0.3436717086
| 22> H -3.064980055 -0.193352814 -0.6760663463
| 23> H -1.6352242412 -0.7955223585 -1.5399335258
| 24> H -2.236495882 -1.6105681524 -0.073658253
| 25> *
| 26>
| 27>                          ****END OF INPUT****

CARTESIAN COORDINATES (ANGSTROEM)
---------------------------------
  C      1.546187   -0.822876    0.836364
  C      1.075141   -0.279670   -0.509995
  C      2.249346    0.301436   -1.293825
  C     -0.002159    0.802919   -0.305548
  C     -1.247507    0.231294    0.318100
  O     -1.560951    0.466435    1.470647
  C     -2.083989   -0.651398   -0.564092
  H      2.013965   -0.033579    1.420898
  H      0.709558   -1.215891    1.410577
  H      2.270807   -1.620381    0.692063
  H      0.643270   -1.103230   -1.086948
  H      3.013759   -0.457271   -1.440590
  H      2.692012    1.133824   -0.751992
  H      1.925587    0.656951   -2.268605
  H     -0.264094    1.233791   -1.272779
  H      0.393937    1.585796    0.343672
  H     -3.064980   -0.193353   -0.676066
  H     -1.635224   -0.795522   -1.539934
  H     -2.236496   -1.610568   -0.073658

 Total Charge           Charge          ....    0
 Multiplicity           Mult            ....    1
 Number of Electrons    NEL             ....   56
 Basis Dimension        Dim             ....  198

ORBITAL ENERGIES
----------------

  NO   OCC          E(Eh)            E(eV)
   0   2.0000     -18.933006      -515.1933
   1   2.0000     -10.117659      -275.3155
   2   2.0000     -10.051170      -273.5062
   3   2.0000     -10.035722      -273.0859
   4   2.0000     -10.034395      -273.0498
   5   2.0000     -10.025252      -272.8010
   6   2.0000     -10.020212      -272.6638
   7   2.0000      -0.999686       -27.2029
   8   2.0000      -0.791155       -21.5284
   9   2.0000      -0.724230       -19.7073
  10   2.0000      -0.668879       -18.2011
  11   2.0000      -0.658164       -17.9095
  12   2.0000      -0.548028       -14.9126
  13   2.0000      -0.502276       -13.6676
  14   2.0000      -0.447891       -12.1877
  15   2.0000      -0.435790       -11.8585
  16   2.0000      -0.426396       -11.6028
  17   2.0000      -0.406865       -11.0714
  18   2.0000      -0.395560       -10.7637
  19   2.0000      -0.379715       -10.3326
  20   2.0000      -0.361477        -9.8363
  21   2.0000      -0.348244        -9.4762
  22   2.0000      -0.344218        -9.3666
  23   2.0000      -0.330190        -8.9849
  24   2.0000      -0.315403        -8.5826
  25   2.0000      -0.306897        -8.3511
  26   2.0000      -0.299909        -8.1609
  27   2.0000      -0.210095        -5.7170
  28   0.0000      -0.047859        -1.3023
  29   0.0000       0.072440         1.9712
  30   0.0000       0.102026         2.7763
  31   0.0000       0.110068         2.9951
  32   0.0000       0.119354         3.2478

MULLIKEN ATOMIC CHARGES
-----------------------
   0 C :   -0.487852
   1 C :   -0.028171
   2 C :   -0.465778
   3 C :   -0.339329
   4 C :    0.285403
   5 O :   -0.340673
   6 C :   -0.522316
   7 H :    0.154715
   8 H :    0.159765
   9 H :    0.147729
  10 H :    0.141653
  11 H :    0.150210
  12 H :    0.152426
  13 H :    0.144759
  14 H :    0.158038
  15 H :    0.171851
  16 H :    0.181073
  17 H :    0.155473
  18 H :    0.181024
Sum of atomic charges:    0.0000000

LOEWDIN ATOMIC CHARGES
----------------------
   0 C :   -0.406394
   1 C :   -0.230358
   2 C :   -0.411070
   3 C :   -0.276021
   4 C :    0.211037
   5 O :   -0.463949
   6 C :   -0.394782
   7 H :    0.158239
   8 H :    0.162522
   9 H :    0.153792
  10 H :    0.156894
  11 H :    0.155157
  12 H :    0.156348
  13 H :    0.152817
  14 H :    0.171890
  15 H :    0.180393
  16 H :    0.183558
  17 H :    0.157886
  18 H :    0.182041

  Mayer bond orders larger than 0.100000
B(  0-C ,  1-C ) :   0.9242 B(  0-C ,  7-H ) :   0.9816 B(  0-C ,  8-H ) :   0.9621
B(  0-C ,  9-H ) :   0.9720 B(  1-C ,  2-C ) :   0.9014 B(  1-C ,  3-C ) :   0.8911
B(  1-C , 10-H ) :   0.9446 B(  2-C , 11-H ) :   0.9741 B(  2-C , 12-H ) :   0.9868
B(  2-C , 13-H ) :   0.9771 B(  3-C ,  4-C ) :   0.9161 B(  3-C , 14-H ) :   0.9497
B(  3-C , 15-H ) :   0.9884 B(  4-C ,  5-O ) :   1.9434 B(  4-C ,  6-C ) :   0.8797
B(  6-C , 16-H ) :   0.9497 B(  6-C , 17-H ) :   0.9699 B(  6-C , 18-H ) :   0.9601

Dispersion correction           -0.005100998
FINAL SINGLE POINT ENERGY      -311.003949267749

DIPOLE MOMENT
-------------

Method             : SCF
Type of density    : Electron Density
Multiplicity       :   1
Irrep              :   0
Energy             :  -311.0076888839886351 Eh
Relativity type    :
Basis              : AO
                                X                 Y                 Z
Electronic contribution:     -5.653812268       1.968474704       3.807493827
Nuclear contribution   :      6.039361134      -2.262908975      -4.897324166
                        -----------------------------------------
Total Dipole Moment    :      0.385548866      -0.294434271      -1.089830339
                        -----------------------------------------
Magnitude (a.u.)       :      1.192924824
Magnitude (Debye)      :      3.032173933

Rotational constants in cm-1:             0.144731             0.052945             0.047899
Rotational constants in MHz :          4338.938155          1587.259483          1435.963622

                             ****ORCA TERMINATED NORMALLY****
TOTAL RUN TIME: 0 days 0 hours 0 minutes 31 seconds 156 msec
