                         Program Version 6.0.0  -   RELEASE  -
|  1> ! r2scan-3c def2/J RI DEFGRID2 scfconv6 printgap
|  2> %output
|  3>     printlevel normal
|  4> end
|  5> %cpcm
|  6>     smd true
|  7>     smdsolvent "water"
|  8> end
|  9> * xyz 0 1
| 10> C 1.5461870896 -0.8228763148 0.8363636183
| 11> C 1.07514088 -0.2796699571 -0.5099953121
| 12> C 2.2493462899 0.3014363616 -1.2938252907
| 13> C -0.0021590404 0.8029194268 -0.3055477902
| 14> C -1.2475074863 0.2312938938 0.3180996265
| 15> O -1.5609511561 0.4664352629 1.470646652
| 16> C -2.0839890273 -0.6513980832 -0.5640923365
| 17> H 2.0139648413 -0.0335787011 1.4208982455
| 18> H 0.709558221 -1.2158909136 1.4105765225
| 19> H 2.2708067711 -1.6203811055 0.6920634212
| 20> H 0.6432696243 -1.1032303078 -1.0869481051
| 21> H 3.013759137 -0.4572713161 -1.4405901786
| 22> H 2.6920119282 1.1338243547 -0.7519919107
| 23> H 1.9255867552 0.6569514382 -2.2686051993
| 24> H -0.2640944029 1.2337905749 -1.2727790687
| 25> H 0.3939369707 1.5857957978 0.3436717086
| 26> H -3.064980055 -0.193352814 -0.6760663463
| 27> H -1.6352242412 -0.7955223585 -1.5399335258
| 28> H -2.236495882 -1.6105681524 -0.073658253
| 29> *
| 30>
| 31>                          ****END OF INPUT****

CARTESIAN COORDINATES (ANGSTROEM)
---------------------------------
  C      1.546187   -0.822876    0.836364
  C      1.075141   -0.279670   -0.509995
  C      2.249346    0.301436   -1.293825
  C     -0.002159    0.802919   -0.305548
  C     -1.247507    0.231294    0.318100
  O     -1.560951    0.466435    1.470647
  C     -2.083989   -0.651398   -0.564092
  H      2.013965   -0.033579    1.420898
  H      0.709558   -1.215891    1.410577
  H      2.270807   -1.620381    0.692063
  H      0.643270   -1.103230   -1.086948
  H      3.013759   -0.457271   -1.440590
  H      2.692012    1.133824   -0.751992
  H      1.925587    0.656951   -2.268605
  H     -0.264094    1.233791   -1.272779
  H      0.393937    1.585796    0.343672
  H     -3.064980   -0.193353   -0.676066
  H     -1.635224   -0.795522   -1.539934
  H     -2.236496   -1.610568   -0.073658

 Total Charge           Charge          ....    0
 Multiplicity           Mult            ....    1
 Number of Electrons    NEL             ....   56
 Basis Dimension        Dim             ....  198

ORBITAL ENERGIES
----------------

  NO   OCC          E(Eh)            E(eV)
   0   2.0000     -18.944845      -515.5154
   1   2.0000     -10.124071      -275.4900
   2   2.0000     -10.038155      -273.1521
   3   2.0000     -10.026058      -272.8229
   4   2.0000     -10.022120      -272.7158
   5   2.0000     -10.010053      -272.3874
   6   2.0000     -10.009707      -272.3780
   7   2.0000      -1.013150       -27.5692
   8   2.0000      -0.779937       -21.2232
   9   2.0000      -0.715313       -19.4647
  10   2.0000      -0.658939       -17.9306
  11   2.0000      -0.646048       -17.5799
  12   2.0000      -0.537225       -14.6186
  13   2.0000      -0.497243       -13.5307
  14   2.0000      -0.442032       -12.0283
  15   2.0000      -0.431286       -11.7359
  16   2.0000      -0.420599       -11.4451
  17   2.0000      -0.402954       -10.9649
  18   2.0000      -0.385026       -10.4771
  19   2.0000      -0.374050       -10.1784
  20   2.0000      -0.349815        -9.5190
  21   2.0000      -0.339617        -9.2414
  22   2.0000      -0.333225        -9.0675
  23   2.0000      -0.330832        -9.0024
  24   2.0000      -0.306179        -8.3316
  25   2.0000      -0.294861        -8.0236
  26   2.0000      -0.290605        -7.9078
  27   2.0000      -0.221620        -6.0306
  28   0.0000      -0.050743        -1.3808
  29   0.0000       0.085593         2.3291
  30   0.0000       0.114997         3.1292
  31   0.0000       0.124898         3.3987
  32   0.0000       0.133045         3.6203

MULLIKEN ATOMIC CHARGES
-----------------------
   0 C :   -0.545844
   1 C :    0.013770
   2 C :   -0.518711
   3 C :   -0.353908
   4 C :    0.325415
   5 O :   -0.450106
   6 C :   -0.557822
   7 H :    0.167961
   8 H :    0.160783
   9 H :    0.163572
  10 H :    0.162333
  11 H :    0.162270
  12 H :    0.163780
  13 H :    0.160283
  14 H :    0.187570
  15 H :    0.175199
  16 H :    0.201047
  17 H :    0.183762
  18 H :    0.198647
Sum of atomic charges:    0.0000000

LOEWDIN ATOMIC CHARGES
----------------------
   0 C :   -0.416691
   1 C :   -0.222072
   2 C :   -0.417376
   3 C :   -0.272690
   4 C :    0.228631
   5 O :   -0.543624
   6 C :   -0.391896
   7 H :    0.159528
   8 H :    0.160126
   9 H :    0.158861
  10 H :    0.164826
  11 H :    0.158332
  12 H :    0.158490
  13 H :    0.157427
  14 H :    0.186002
  15 H :    0.180600
  16 H :    0.191605
  17 H :    0.171260
  18 H :    0.188660

  Mayer bond orders larger than 0.100000
B(  0-C ,  1-C ) :   0.8964 B(  0-C ,  7-H ) :   0.9822 B(  0-C ,  8-H ) :   0.9641
B(  0-C ,  9-H ) :   0.9682 B(  1-C ,  2-C ) :   0.8891 B(  1-C ,  3-C ) :   0.8839
B(  1-C , 10-H ) :   0.9427 B(  2-C , 11-H ) :   0.9715 B(  2-C , 12-H ) :   0.9860
B(  2-C , 13-H ) :   0.9744 B(  3-C ,  4-C ) :   0.9326 B(  3-C , 14-H ) :   0.9344
B(  3-C , 15-H ) :   0.9912 B(  4-C ,  5-O ) :   1.8615 B(  4-C ,  6-C ) :   0.8991
B(  6-C , 16-H ) :   0.9389 B(  6-C , 17-H ) :   0.9575 B(  6-C , 18-H ) :   0.9522

Dispersion correction           -0.005100998
FINAL SINGLE POINT ENERGY      -311.010628088635

DIPOLE MOMENT
-------------

Method             : SCF
Type of density    : Electron Density
Multiplicity       :   1
Irrep              :   0
Energy             :  -311.0143677048745303 Eh
Relativity type    :
Basis              : AO
                                X                 Y                 Z
Electronic contribution:     -5.529244114       1.841735138       3.247584701
Nuclear contribution   :      6.039361134      -2.262908975      -4.897324166
                        -----------------------------------------
Total Dipole Moment    :      0.510117020      -0.421173837      -1.649739465
                        -----------------------------------------
Magnitude (a.u.)       :      1.777427095
Magnitude (Debye)      :      4.517860636

Rotational constants in cm-1:             0.144731             0.052945             0.047899
Rotational constants in MHz :          4338.938155          1587.259483          1435.963622

                             ****ORCA TERMINATED NORMALLY****
TOTAL RUN TIME: 0 days 0 hours 0 minutes 28 seconds 336 msec
