                         Program Version 6.0.0  -   RELEASE  -
|  1> ! r2scan-3c def2/J RI DEFGRID2 scfconv6 printgap
|  2> %output
|  3>     printlevel normal
|  4> end
|  5> %cpcm
|  6>     smd true
|  7>     smdsolvent "water"
|  8> end
|  9> * xyz 0 1
| 10> C -2.3165955621 -0.0506064721 -1.0224235099
| 11> C -1.7658160048 0.6443679157 0.2179588136
| 12> C -0.58437684 -0.0616823572 0.884826661
| 13> C 0.7681156611 -0.1046585151 0.1432732446
| 14> C 1.070711613 1.2024782076 -0.596155171
| 15> C 0.8639243021 -1.2933245319 -0.8190096973
| 16> O 1.7236521527 -0.2831468362 1.1955587206
| 17> H -2.4919526973 -1.1050371466 -0.8228129999
| 18> H -1.6347837728 0.0359674291 -1.8639342039
| 19> H -3.261232057 0.4047062595 -1.3117091314
| 20> H -1.4964230501 1.6718198673 -0.0276741537
| 21> H -2.5626409405 0.6902080366 0.9643469606
| 22> H -0.3819968019 0.4437938206 1.8328344111
| 23> H -0.8674951199 -1.0885059279 1.1256187004
| 24> H 2.0803372233 1.1726738547 -1.001682926
| 25> H 1.0001243796 2.0426370876 0.0904320425
| 26> H 0.3772410022 1.3497860894 -1.4172832828
| 27> H 1.8352780956 -1.3010725486 -1.3105955025
| 28> H 0.0936943772 -1.241278352 -1.5793551814
| 29> H 0.7484406554 -2.2225998025 -0.265480374
| 30> H 2.6053080226 -0.369334197 0.8082903246
| 31> *
| 32>
| 33>                          ****END OF INPUT****

CARTESIAN COORDINATES (ANGSTROEM)
---------------------------------
  C     -2.316596   -0.050606   -1.022424
  C     -1.765816    0.644368    0.217959
  C     -0.584377   -0.061682    0.884827
  C      0.768116   -0.104659    0.143273
  C      1.070712    1.202478   -0.596155
  C      0.863924   -1.293325   -0.819010
  O      1.723652   -0.283147    1.195559
  H     -2.491953   -1.105037   -0.822813
  H     -1.634784    0.035967   -1.863934
  H     -3.261232    0.404706   -1.311709
  H     -1.496423    1.671820   -0.027674
  H     -2.562641    0.690208    0.964347
  H     -0.381997    0.443794    1.832834
  H     -0.867495   -1.088506    1.125619
  H      2.080337    1.172674   -1.001683
  H      1.000124    2.042637    0.090432
  H      0.377241    1.349786   -1.417283
  H      1.835278   -1.301073   -1.310596
  H      0.093694   -1.241278   -1.579355
  H      0.748441   -2.222600   -0.265480
  H      2.605308   -0.369334    0.808290

 Total Charge           Charge          ....    0
 Multiplicity           Mult            ....    1
 Number of Electrons    NEL             ....   58
 Basis Dimension        Dim             ....  208

ORBITAL ENERGIES
----------------

  NO   OCC          E(Eh)            E(eV)
   0   2.0000     -18.944488      -515.5057
   1   2.0000     -10.083130      -274.3759
   2   2.0000     -10.018135      -272.6073
   3   2.0000     -10.015014      -272.5224
   4   2.0000     -10.007563      -272.3196
   5   2.0000     -10.007107      -272.3072
   6   2.0000     -10.006881      -272.3011
   7   2.0000      -0.982315       -26.7301
   8   2.0000      -0.763056       -20.7638
   9   2.0000      -0.713070       -19.4036
  10   2.0000      -0.649484       -17.6734
  11   2.0000      -0.647044       -17.6069
  12   2.0000      -0.568903       -15.4806
  13   2.0000      -0.508535       -13.8379
  14   2.0000      -0.452662       -12.3176
  15   2.0000      -0.433761       -11.8032
  16   2.0000      -0.411225       -11.1900
  17   2.0000      -0.389078       -10.5874
  18   2.0000      -0.379738       -10.3332
  19   2.0000      -0.376085       -10.2338
  20   2.0000      -0.353909        -9.6304
  21   2.0000      -0.342166        -9.3108
  22   2.0000      -0.325779        -8.8649
  23   2.0000      -0.315619        -8.5884
  24   2.0000      -0.302112        -8.2209
  25   2.0000      -0.295257        -8.0344
  26   2.0000      -0.289122        -7.8674
  27   2.0000      -0.269843        -7.3428
  28   2.0000      -0.237305        -6.4574
  29   0.0000       0.079919         2.1747
  30   0.0000       0.096641         2.6297
  31   0.0000       0.117170         3.1884
  32   0.0000       0.131722         3.5843
  33   0.0000       0.136991         3.7277

MULLIKEN ATOMIC CHARGES
-----------------------
   0 C :   -0.526808
   1 C :   -0.256067
   2 C :   -0.315354
   3 C :    0.246287
   4 C :   -0.544759
   5 C :   -0.537465
   6 O :   -0.516032
   7 H :    0.159314
   8 H :    0.160780
   9 H :    0.155027
  10 H :    0.158317
  11 H :    0.149820
  12 H :    0.163255
  13 H :    0.157670
  14 H :    0.165303
  15 H :    0.170154
  16 H :    0.174311
  17 H :    0.160207
  18 H :    0.170310
  19 H :    0.168837
  20 H :    0.336892
Sum of atomic charges:   -0.0000000

LOEWDIN ATOMIC CHARGES
----------------------
   0 C :   -0.434707
   1 C :   -0.309842
   2 C :   -0.267361
   3 C :    0.065181
   4 C :   -0.393682
   5 C :   -0.392812
   6 O :   -0.654495
   7 H :    0.153236
   8 H :    0.150799
   9 H :    0.152806
  10 H :    0.157192
  11 H :    0.156862
  12 H :    0.176973
  13 H :    0.166056
  14 H :    0.163980
  15 H :    0.164871
  16 H :    0.165957
  17 H :    0.162018
  18 H :    0.166000
  19 H :    0.164405
  20 H :    0.286563

  Mayer bond orders larger than 0.100000
B(  0-C ,  1-C ) :   0.8736 B(  0-C ,  7-H ) :   0.9794 B(  0-C ,  8-H ) :   0.9778
B(  0-C ,  9-H ) :   0.9667 B(  1-C ,  2-C ) :   0.8886 B(  1-C , 10-H ) :   0.9773
B(  1-C , 11-H ) :   0.9608 B(  2-C ,  3-C ) :   0.8827 B(  2-C , 12-H ) :   0.9712
B(  2-C , 13-H ) :   0.9793 B(  3-C ,  4-C ) :   0.9138 B(  3-C ,  5-C ) :   0.9501
B(  3-C ,  6-O ) :   0.8120 B(  4-C , 14-H ) :   0.9665 B(  4-C , 15-H ) :   0.9740
B(  4-C , 16-H ) :   0.9612 B(  5-C , 17-H ) :   0.9646 B(  5-C , 18-H ) :   0.9579
B(  5-C , 19-H ) :   0.9773 B(  6-O , 20-H ) :   0.8783

Dispersion correction           -0.005866213
FINAL SINGLE POINT ENERGY      -312.209787715067

DIPOLE MOMENT
-------------

Method             : SCF
Type of density    : Electron Density
Multiplicity       :   1
Irrep              :   0
Energy             :  -312.2151530287300716 Eh
Relativity type    :
Basis              : AO
                                X                 Y                 Z
Electronic contribution:      3.758745812      -0.369573080       3.595341137
Nuclear contribution   :     -3.685889118       0.449648073      -4.465745563
                        -----------------------------------------
Total Dipole Moment    :      0.072856694       0.080074993      -0.870404426
                        -----------------------------------------
Magnitude (a.u.)       :      0.877111148
Magnitude (Debye)      :      2.229439363

Rotational constants in cm-1:             0.127566             0.056287             0.053802
Rotational constants in MHz :          3824.342528          1687.447037          1612.937838

                             ****ORCA TERMINATED NORMALLY****
TOTAL RUN TIME: 0 days 0 hours 0 minutes 32 seconds 607 msec
