                         Program Version 6.0.0  -   RELEASE  -
|  1> ! pbe def2-sv(p) def2/J RI DEFGRID1 loosescf d4 GCP(DFT/SV(P)) printgap
|  2> %output
|  3>     printlevel normal
|  4> end
|  5> * xyz 0 1
|  6> C 1.8399493433 -1.0545102346 0.4059084898
|  7> C 1.2874875542 0.3025580664 0.8247841881
|  8> C 0.171889563 0.8711388248 -0.0644795208
|  9> H -0.0415000938 1.8805373031 0.3344842713
| 10> C -1.1829809729 0.1226256558 -0.084905543
| 11> C -1.1469104784 -1.2036764854 -0.8445561943
| 12> C -1.741529989 -0.0684275459 1.3223066396
| 13> O 0.7023726244 1.006169023 -1.3734486706
| 14> H 1.1537555942 -1.8585905426 0.6506924495
| 15> H 2.7779896402 -1.240999194 0.923647989
| 16> H 2.0277559913 -1.0622786972 -0.664020188
| 17> H 0.9309168228 0.2668323619 1.8538114019
| 18> H 2.1018470225 1.0298350151 0.7796653874
| 19> H -1.8681077247 0.7889634417 -0.6272164958
| 20> H -2.1492803738 -1.4695324005 -1.1724988287
| 21> H -0.5051847246 -1.1229171682 -1.7181875633
| 22> H -0.7753214853 -2.0070508591 -0.2165688852
| 23> H -2.7582282578 -0.4493597299 1.2656784001
| 24> H -1.7557571555 0.8754330799 1.8628635956
| 25> H -1.1425013921 -0.7813489908 1.8822955601
| 26> H 0.055101636 1.4563928117 -1.9316008502
| 27> *
| 28>
| 29>                          ****END OF INPUT****

CARTESIAN COORDINATES (ANGSTROEM)
---------------------------------
  C      1.839949   -1.054510    0.405908
  C      1.287488    0.302558    0.824784
  C      0.171890    0.871139   -0.064480
  H     -0.041500    1.880537    0.334484
  C     -1.182981    0.122626   -0.084906
  C     -1.146910   -1.203676   -0.844556
  C     -1.741530   -0.068428    1.322307
  O      0.702373    1.006169   -1.373449
  H      1.153756   -1.858591    0.650692
  H      2.777990   -1.240999    0.923648
  H      2.027756   -1.062279   -0.664020
  H      0.930917    0.266832    1.853811
  H      2.101847    1.029835    0.779665
  H     -1.868108    0.788963   -0.627216
  H     -2.149280   -1.469532   -1.172499
  H     -0.505185   -1.122917   -1.718188
  H     -0.775321   -2.007051   -0.216569
  H     -2.758228   -0.449360    1.265678
  H     -1.755757    0.875433    1.862864
  H     -1.142501   -0.781349    1.882296
  H      0.055102    1.456393   -1.931601

 Total Charge           Charge          ....    0
 Multiplicity           Mult            ....    1
 Number of Electrons    NEL             ....   58
 Basis Dimension        Dim             ....  126

ORBITAL ENERGIES
----------------

  NO   OCC          E(Eh)            E(eV)
   0   2.0000     -18.740387      -509.9519
   1   2.0000      -9.932471      -270.2763
   2   2.0000      -9.893848      -269.2253
   3   2.0000      -9.878756      -268.8146
   4   2.0000      -9.875494      -268.7259
   5   2.0000      -9.866885      -268.4916
   6   2.0000      -9.864287      -268.4209
   7   2.0000      -0.917584       -24.9687
   8   2.0000      -0.723943       -19.6995
   9   2.0000      -0.679779       -18.4977
  10   2.0000      -0.611761       -16.6469
  11   2.0000      -0.598613       -16.2891
  12   2.0000      -0.533697       -14.5226
  13   2.0000      -0.494830       -13.4650
  14   2.0000      -0.446725       -12.1560
  15   2.0000      -0.429399       -11.6845
  16   2.0000      -0.392524       -10.6811
  17   2.0000      -0.376870       -10.2552
  18   2.0000      -0.368621       -10.0307
  19   2.0000      -0.354667        -9.6510
  20   2.0000      -0.340143        -9.2558
  21   2.0000      -0.329931        -8.9779
  22   2.0000      -0.319042        -8.6816
  23   2.0000      -0.299089        -8.1386
  24   2.0000      -0.298241        -8.1155
  25   2.0000      -0.285089        -7.7577
  26   2.0000      -0.280325        -7.6280
  27   2.0000      -0.255735        -6.9589
  28   2.0000      -0.210780        -5.7356
  29   0.0000       0.018902         0.5143
  30   0.0000       0.048282         1.3138
  31   0.0000       0.063143         1.7182
  32   0.0000       0.071783         1.9533
  33   0.0000       0.084617         2.3025

MULLIKEN ATOMIC CHARGES
-----------------------
   0 C :   -0.281210
   1 C :   -0.167096
   2 C :    0.055221
   3 H :    0.051246
   4 C :   -0.188484
   5 C :   -0.234294
   6 C :   -0.258786
   7 O :   -0.416577
   8 H :    0.101144
   9 H :    0.097225
  10 H :    0.116538
  11 H :    0.086954
  12 H :    0.086970
  13 H :    0.055580
  14 H :    0.094031
  15 H :    0.099060
  16 H :    0.099668
  17 H :    0.100281
  18 H :    0.098642
  19 H :    0.107726
  20 H :    0.296161
Sum of atomic charges:    0.0000000

LOEWDIN ATOMIC CHARGES
----------------------
   0 C :   -0.344749
   1 C :   -0.235170
   2 C :   -0.047428
   3 H :    0.095052
   4 C :   -0.171301
   5 C :   -0.337129
   6 C :   -0.329389
   7 O :   -0.325789
   8 H :    0.113052
   9 H :    0.118418
  10 H :    0.125448
  11 H :    0.118274
  12 H :    0.122576
  13 H :    0.108311
  14 H :    0.117174
  15 H :    0.118294
  16 H :    0.116074
  17 H :    0.120488
  18 H :    0.116490
  19 H :    0.118518
  20 H :    0.282784

  Mayer bond orders larger than 0.100000
B(  0-C ,  1-C ) :   1.1725 B(  0-C ,  8-H ) :   0.9443 B(  0-C ,  9-H ) :   0.9483
B(  0-C , 10-H ) :   0.9454 B(  1-C ,  2-C ) :   1.0862 B(  1-C , 11-H ) :   0.9168
B(  1-C , 12-H ) :   0.9128 B(  2-C ,  3-H ) :   0.8972 B(  2-C ,  4-C ) :   1.0248
B(  2-C ,  7-O ) :   1.0464 B(  4-C ,  5-C ) :   1.1157 B(  4-C ,  6-C ) :   1.1049
B(  4-C , 13-H ) :   0.8924 B(  5-C , 14-H ) :   0.9463 B(  5-C , 15-H ) :   0.9335
B(  5-C , 16-H ) :   0.9427 B(  6-C , 17-H ) :   0.9465 B(  6-C , 18-H ) :   0.9480
B(  6-C , 19-H ) :   0.9414 B(  7-O , 20-H ) :   0.8484

Dispersion correction           -0.017439616
FINAL SINGLE POINT ENERGY      -311.515211954027

DIPOLE MOMENT
-------------

Method             : SCF
Type of density    : Electron Density
Multiplicity       :   1
Irrep              :   0
Energy             :  -311.5945744580363339 Eh
Relativity type    :
Basis              : AO
                                X                 Y                 Z
Electronic contribution:      1.309320066       3.687258372      -2.939960627
Nuclear contribution   :     -1.817601522      -3.450722218       3.003361455
                        -----------------------------------------
Total Dipole Moment    :     -0.508281457       0.236536154       0.063400829
                        -----------------------------------------
Magnitude (a.u.)       :      0.564197710
Magnitude (Debye)      :      1.434076612

Rotational constants in cm-1:             0.098329             0.067110             0.060370
Rotational constants in MHz :          2947.840595          2011.901158          1809.852509

                             ****ORCA TERMINATED NORMALLY****
TOTAL RUN TIME: 0 days 0 hours 0 minutes 8 seconds 791 msec
