                         Program Version 6.0.0  -   RELEASE  -
|  1> ! r2scan-3c def2/J RI DEFGRID2 scfconv6 printgap
|  2> %output
|  3>     printlevel normal
|  4> end
|  5> * xyz 0 1
|  6> C -4.2476208555 -0.0253893419 -0.217707659
|  7> C -2.7534975726 -0.1227243807 -0.4992932936
|  8> C -1.9183726572 0.2444131067 0.733687199
|  9> C -0.4509813859 0.1377915688 0.4340421967
| 10> C 0.2266593938 -1.0627419827 0.6117233578
| 11> C 1.5662912181 -1.1799872866 0.2997645838
| 12> C 2.2621568446 -0.0858175782 -0.20496164
| 13> C 1.5952950067 1.1188007755 -0.3893153614
| 14> C 0.2529287818 1.2215451719 -0.0724914819
| 15> O 3.5840564558 -0.2435304907 -0.4985498182
| 16> H -4.5147468605 0.9869872394 0.0768270186
| 17> H -4.8201020622 -0.2884992765 -1.1037155566
| 18> H -4.5284439097 -0.7013237663 0.5867968893
| 19> H -2.4891831746 0.5469068678 -1.320664503
| 20> H -2.5024003717 -1.1395160566 -0.8091408754
| 21> H -2.1791546532 -0.4283895572 1.5529386077
| 22> H -2.1623140572 1.2641771448 1.0378306686
| 23> H -0.3011932545 -1.9196389416 1.0038736345
| 24> H 2.0949495672 -2.10994045 0.4399981843
| 25> H 2.1246334252 1.9765679619 -0.7792617293
| 26> H -0.2534609826 2.1643750842 -0.2197529947
| 27> H 3.9555461177 0.583859092 -0.8393048809
| 28> *
| 29>
| 30>                          ****END OF INPUT****

CARTESIAN COORDINATES (ANGSTROEM)
---------------------------------
  C     -4.247621   -0.025389   -0.217708
  C     -2.753498   -0.122724   -0.499293
  C     -1.918373    0.244413    0.733687
  C     -0.450981    0.137792    0.434042
  C      0.226659   -1.062742    0.611723
  C      1.566291   -1.179987    0.299765
  C      2.262157   -0.085818   -0.204962
  C      1.595295    1.118801   -0.389315
  C      0.252929    1.221545   -0.072491
  O      3.584056   -0.243530   -0.498550
  H     -4.514747    0.986987    0.076827
  H     -4.820102   -0.288499   -1.103716
  H     -4.528444   -0.701324    0.586797
  H     -2.489183    0.546907   -1.320665
  H     -2.502400   -1.139516   -0.809141
  H     -2.179155   -0.428390    1.552939
  H     -2.162314    1.264177    1.037831
  H     -0.301193   -1.919639    1.003874
  H      2.094950   -2.109940    0.439998
  H      2.124633    1.976568   -0.779262
  H     -0.253461    2.164375   -0.219753
  H      3.955546    0.583859   -0.839305

 Total Charge           Charge          ....    0
 Multiplicity           Mult            ....    1
 Number of Electrons    NEL             ....   74
 Basis Dimension        Dim             ....  255

ORBITAL ENERGIES
----------------

  NO   OCC          E(Eh)            E(eV)
   0   2.0000     -18.982943      -516.5521
   1   2.0000     -10.092907      -274.6420
   2   2.0000     -10.033013      -273.0122
   3   2.0000     -10.032432      -272.9964
   4   2.0000     -10.031742      -272.9776
   5   2.0000     -10.031080      -272.9596
   6   2.0000     -10.028681      -272.8943
   7   2.0000     -10.027762      -272.8693
   8   2.0000     -10.026257      -272.8283
   9   2.0000     -10.016552      -272.5642
  10   2.0000      -1.025956       -27.9177
  11   2.0000      -0.825102       -22.4522
  12   2.0000      -0.762489       -20.7484
  13   2.0000      -0.717606       -19.5271
  14   2.0000      -0.710210       -19.3258
  15   2.0000      -0.643158       -17.5012
  16   2.0000      -0.591294       -16.0899
  17   2.0000      -0.569222       -15.4893
  18   2.0000      -0.545612       -14.8469
  19   2.0000      -0.515574       -14.0295
  20   2.0000      -0.458732       -12.4827
  21   2.0000      -0.441671       -12.0185
  22   2.0000      -0.421089       -11.4584
  23   2.0000      -0.405907       -11.0453
  24   2.0000      -0.390183       -10.6174
  25   2.0000      -0.388322       -10.5668
  26   2.0000      -0.378774       -10.3070
  27   2.0000      -0.367509       -10.0004
  28   2.0000      -0.355193        -9.6653
  29   2.0000      -0.337194        -9.1755
  30   2.0000      -0.318805        -8.6751
  31   2.0000      -0.307672        -8.3722
  32   2.0000      -0.302672        -8.2361
  33   2.0000      -0.296434        -8.0664
  34   2.0000      -0.291867        -7.9421
  35   2.0000      -0.236237        -6.4283
  36   2.0000      -0.197119        -5.3639
  37   0.0000      -0.031598        -0.8598
  38   0.0000      -0.012260        -0.3336
  39   0.0000       0.057691         1.5699
  40   0.0000       0.073983         2.0132
  41   0.0000       0.097713         2.6589

MULLIKEN ATOMIC CHARGES
-----------------------
   0 C :   -0.476604
   1 C :   -0.225444
   2 C :   -0.378556
   3 C :    0.212422
   4 C :   -0.190188
   5 C :   -0.319864
   6 C :    0.432420
   7 C :   -0.351536
   8 C :   -0.207163
   9 O :   -0.416925
  10 H :    0.143110
  11 H :    0.147566
  12 H :    0.143525
  13 H :    0.144650
  14 H :    0.145716
  15 H :    0.149862
  16 H :    0.149015
  17 H :    0.148806
  18 H :    0.155018
  19 H :    0.136252
  20 H :    0.148098
  21 H :    0.309817
Sum of atomic charges:   -0.0000000

LOEWDIN ATOMIC CHARGES
----------------------
   0 C :   -0.425875
   1 C :   -0.301560
   2 C :   -0.282247
   3 C :   -0.111410
   4 C :   -0.149080
   5 C :   -0.140712
   6 C :    0.177634
   7 C :   -0.170787
   8 C :   -0.150883
   9 O :   -0.500264
  10 H :    0.149394
  11 H :    0.151305
  12 H :    0.149573
  13 H :    0.154528
  14 H :    0.154960
  15 H :    0.162934
  16 H :    0.162545
  17 H :    0.169981
  18 H :    0.179365
  19 H :    0.167755
  20 H :    0.169513
  21 H :    0.283330

  Mayer bond orders larger than 0.100000
B(  0-C ,  1-C ) :   0.8937 B(  0-C , 10-H ) :   0.9850 B(  0-C , 11-H ) :   0.9733
B(  0-C , 12-H ) :   0.9850 B(  1-C ,  2-C ) :   0.9280 B(  1-C , 13-H ) :   0.9684
B(  1-C , 14-H ) :   0.9683 B(  2-C ,  3-C ) :   0.7787 B(  2-C , 15-H ) :   1.0077
B(  2-C , 16-H ) :   1.0074 B(  3-C ,  4-C ) :   1.3994 B(  3-C ,  8-C ) :   1.4239
B(  4-C ,  5-C ) :   1.4221 B(  4-C , 17-H ) :   0.9423 B(  5-C ,  6-C ) :   1.4309
B(  5-C , 18-H ) :   0.9482 B(  6-C ,  7-C ) :   1.3536 B(  6-C ,  9-O ) :   0.9170
B(  7-C ,  8-C ) :   1.4416 B(  7-C , 19-H ) :   0.9304 B(  8-C , 20-H ) :   0.9347
B(  9-O , 21-H ) :   0.8840

Dispersion correction           -0.007130635
FINAL SINGLE POINT ENERGY      -425.300607605515

DIPOLE MOMENT
-------------

Method             : SCF
Type of density    : Electron Density
Multiplicity       :   1
Irrep              :   0
Energy             :  -425.3014309152726469 Eh
Relativity type    :
Basis              : AO
                                X                 Y                 Z
Electronic contribution:     14.454282902      -0.407408178       0.180480118
Nuclear contribution   :    -14.559660837       0.874107888      -0.357866374
                        -----------------------------------------
Total Dipole Moment    :     -0.105377935       0.466699710      -0.177386256
                        -----------------------------------------
Magnitude (a.u.)       :      0.510273468
Magnitude (Debye)      :      1.297012081

Rotational constants in cm-1:             0.139841             0.020464             0.018977
Rotational constants in MHz :          4192.336246           613.483735           568.915050

                             ****ORCA TERMINATED NORMALLY****
TOTAL RUN TIME: 0 days 0 hours 0 minutes 35 seconds 478 msec
