                         Program Version 6.0.0  -   RELEASE  -
|  1> ! r2scan-3c def2/J RI DEFGRID2 scfconv6 printgap
|  2> %output
|  3>     printlevel normal
|  4> end
|  5> %cpcm
|  6>     smd true
|  7>     smdsolvent "water"
|  8> end
|  9> * xyz 0 1
| 10> C -4.2476208555 -0.0253893419 -0.217707659
| 11> C -2.7534975726 -0.1227243807 -0.4992932936
| 12> C -1.9183726572 0.2444131067 0.733687199
| 13> C -0.4509813859 0.1377915688 0.4340421967
| 14> C 0.2266593938 -1.0627419827 0.6117233578
| 15> C 1.5662912181 -1.1799872866 0.2997645838
| 16> C 2.2621568446 -0.0858175782 -0.20496164
| 17> C 1.5952950067 1.1188007755 -0.3893153614
| 18> C 0.2529287818 1.2215451719 -0.0724914819
| 19> O 3.5840564558 -0.2435304907 -0.4985498182
| 20> H -4.5147468605 0.9869872394 0.0768270186
| 21> H -4.8201020622 -0.2884992765 -1.1037155566
| 22> H -4.5284439097 -0.7013237663 0.5867968893
| 23> H -2.4891831746 0.5469068678 -1.320664503
| 24> H -2.5024003717 -1.1395160566 -0.8091408754
| 25> H -2.1791546532 -0.4283895572 1.5529386077
| 26> H -2.1623140572 1.2641771448 1.0378306686
| 27> H -0.3011932545 -1.9196389416 1.0038736345
| 28> H 2.0949495672 -2.10994045 0.4399981843
| 29> H 2.1246334252 1.9765679619 -0.7792617293
| 30> H -0.2534609826 2.1643750842 -0.2197529947
| 31> H 3.9555461177 0.583859092 -0.8393048809
| 32> *
| 33>
| 34>                          ****END OF INPUT****

CARTESIAN COORDINATES (ANGSTROEM)
---------------------------------
  C     -4.247621   -0.025389   -0.217708
  C     -2.753498   -0.122724   -0.499293
  C     -1.918373    0.244413    0.733687
  C     -0.450981    0.137792    0.434042
  C      0.226659   -1.062742    0.611723
  C      1.566291   -1.179987    0.299765
  C      2.262157   -0.085818   -0.204962
  C      1.595295    1.118801   -0.389315
  C      0.252929    1.221545   -0.072491
  O      3.584056   -0.243530   -0.498550
  H     -4.514747    0.986987    0.076827
  H     -4.820102   -0.288499   -1.103716
  H     -4.528444   -0.701324    0.586797
  H     -2.489183    0.546907   -1.320665
  H     -2.502400   -1.139516   -0.809141
  H     -2.179155   -0.428390    1.552939
  H     -2.162314    1.264177    1.037831
  H     -0.301193   -1.919639    1.003874
  H      2.094950   -2.109940    0.439998
  H      2.124633    1.976568   -0.779262
  H     -0.253461    2.164375   -0.219753
  H      3.955546    0.583859   -0.839305

 Total Charge           Charge          ....    0
 Multiplicity           Mult            ....    1
 Number of Electrons    NEL             ....   74
 Basis Dimension        Dim             ....  255

ORBITAL ENERGIES
----------------

  NO   OCC          E(Eh)            E(eV)
   0   2.0000     -18.980954      -516.4980
   1   2.0000     -10.093248      -274.6512
   2   2.0000     -10.031279      -272.9650
   3   2.0000     -10.030235      -272.9366
   4   2.0000     -10.030039      -272.9312
   5   2.0000     -10.029225      -272.9091
   6   2.0000     -10.028444      -272.8878
   7   2.0000     -10.021077      -272.6874
   8   2.0000     -10.019650      -272.6485
   9   2.0000     -10.008365      -272.3415
  10   2.0000      -1.023960       -27.8634
  11   2.0000      -0.825332       -22.4584
  12   2.0000      -0.757410       -20.6102
  13   2.0000      -0.716884       -19.5074
  14   2.0000      -0.706765       -19.2321
  15   2.0000      -0.638250       -17.3677
  16   2.0000      -0.588008       -16.0005
  17   2.0000      -0.565463       -15.3870
  18   2.0000      -0.540337       -14.7033
  19   2.0000      -0.511553       -13.9201
  20   2.0000      -0.455335       -12.3903
  21   2.0000      -0.437034       -11.8923
  22   2.0000      -0.414856       -11.2888
  23   2.0000      -0.401456       -10.9242
  24   2.0000      -0.386998       -10.5308
  25   2.0000      -0.386140       -10.5074
  26   2.0000      -0.376542       -10.2462
  27   2.0000      -0.365025        -9.9328
  28   2.0000      -0.351415        -9.5625
  29   2.0000      -0.332678        -9.0526
  30   2.0000      -0.315685        -8.5902
  31   2.0000      -0.302975        -8.2444
  32   2.0000      -0.298670        -8.1272
  33   2.0000      -0.289704        -7.8832
  34   2.0000      -0.289208        -7.8698
  35   2.0000      -0.239021        -6.5041
  36   2.0000      -0.199345        -5.4245
  37   0.0000      -0.033100        -0.9007
  38   0.0000      -0.014214        -0.3868
  39   0.0000       0.078367         2.1325
  40   0.0000       0.087561         2.3827
  41   0.0000       0.104921         2.8551

MULLIKEN ATOMIC CHARGES
-----------------------
   0 C :   -0.520119
   1 C :   -0.243907
   2 C :   -0.336922
   3 C :    0.137561
   4 C :   -0.218164
   5 C :   -0.360602
   6 C :    0.385365
   7 C :   -0.358728
   8 C :   -0.215359
   9 O :   -0.464037
  10 H :    0.156360
  11 H :    0.157268
  12 H :    0.156495
  13 H :    0.152993
  14 H :    0.153031
  15 H :    0.162449
  16 H :    0.162270
  17 H :    0.180449
  18 H :    0.181712
  19 H :    0.182256
  20 H :    0.180016
  21 H :    0.369612
Sum of atomic charges:   -0.0000000

LOEWDIN ATOMIC CHARGES
----------------------
   0 C :   -0.432789
   1 C :   -0.302874
   2 C :   -0.283390
   3 C :   -0.121828
   4 C :   -0.160352
   5 C :   -0.159777
   6 C :    0.163183
   7 C :   -0.168798
   8 C :   -0.160373
   9 O :   -0.519231
  10 H :    0.152825
  11 H :    0.153679
  12 H :    0.152854
  13 H :    0.155795
  14 H :    0.155830
  15 H :    0.167876
  16 H :    0.167829
  17 H :    0.181025
  18 H :    0.186767
  19 H :    0.185649
  20 H :    0.180975
  21 H :    0.305124

  Mayer bond orders larger than 0.100000
B(  0-C ,  1-C ) :   0.8898 B(  0-C , 10-H ) :   0.9827 B(  0-C , 11-H ) :   0.9705
B(  0-C , 12-H ) :   0.9828 B(  1-C ,  2-C ) :   0.9185 B(  1-C , 13-H ) :   0.9694
B(  1-C , 14-H ) :   0.9696 B(  2-C ,  3-C ) :   0.7971 B(  2-C , 15-H ) :   0.9976
B(  2-C , 16-H ) :   0.9970 B(  3-C ,  4-C ) :   1.3775 B(  3-C ,  8-C ) :   1.3876
B(  4-C ,  5-C ) :   1.4036 B(  4-C , 17-H ) :   0.9499 B(  5-C ,  6-C ) :   1.3697
B(  5-C , 18-H ) :   0.9583 B(  6-C ,  7-C ) :   1.3445 B(  6-C ,  9-O ) :   0.9225
B(  7-C ,  8-C ) :   1.3887 B(  7-C , 19-H ) :   0.9533 B(  8-C , 20-H ) :   0.9492
B(  9-O , 21-H ) :   0.8522

Dispersion correction           -0.007130635
FINAL SINGLE POINT ENERGY      -425.308861455671

DIPOLE MOMENT
-------------

Method             : SCF
Type of density    : Electron Density
Multiplicity       :   1
Irrep              :   0
Energy             :  -425.3096847654290968 Eh
Relativity type    :
Basis              : AO
                                X                 Y                 Z
Electronic contribution:     14.385926214      -0.146665065       0.117956561
Nuclear contribution   :    -14.559660837       0.874107888      -0.357866374
                        -----------------------------------------
Total Dipole Moment    :     -0.173734623       0.727442823      -0.239909813
                        -----------------------------------------
Magnitude (a.u.)       :      0.785438412
Magnitude (Debye)      :      1.996425784

Rotational constants in cm-1:             0.139841             0.020464             0.018977
Rotational constants in MHz :          4192.336246           613.483735           568.915050

                             ****ORCA TERMINATED NORMALLY****
TOTAL RUN TIME: 0 days 0 hours 0 minutes 43 seconds 228 msec
