                         Program Version 6.0.0  -   RELEASE  -
|  1> ! pbe def2-sv(p) def2/J RI DEFGRID1 loosescf d4 GCP(DFT/SV(P)) printgap
|  2> %output
|  3>     printlevel normal
|  4> end
|  5> * xyz 0 1
|  6> C 2.0605147722 -0.3115955401 -0.4559711158
|  7> O 1.2787419225 0.4983788768 0.4000447242
|  8> C -0.012703756 -0.0053578294 0.6742031742
|  9> C -0.9916472432 0.1294454895 -0.4990016537
| 10> N -2.3125880562 -0.3160131124 -0.0820237849
| 11> H 3.0575677353 0.1224027847 -0.4464887544
| 12> H 1.6725357277 -0.3106253575 -1.4783984623
| 13> H 2.1004491143 -1.3408251449 -0.085160674
| 14> H 0.0423358367 -1.0570186996 0.9839527804
| 15> H -0.3721925644 0.5909502878 1.5170748946
| 16> H -0.9626720682 1.1752527649 -0.850119363
| 17> H -0.6728333982 -0.5140132793 -1.3231467163
| 18> H -2.96212305 -0.2239465473 -0.8546159659
| 19> H -2.6498169815 0.2726723003 0.6723628425
| 20> *
| 21>
| 22>                          ****END OF INPUT****

CARTESIAN COORDINATES (ANGSTROEM)
---------------------------------
  C      2.060515   -0.311596   -0.455971
  O      1.278742    0.498379    0.400045
  C     -0.012704   -0.005358    0.674203
  C     -0.991647    0.129445   -0.499002
  N     -2.312588   -0.316013   -0.082024
  H      3.057568    0.122403   -0.446489
  H      1.672536   -0.310625   -1.478398
  H      2.100449   -1.340825   -0.085161
  H      0.042336   -1.057019    0.983953
  H     -0.372193    0.590950    1.517075
  H     -0.962672    1.175253   -0.850119
  H     -0.672833   -0.514013   -1.323147
  H     -2.962123   -0.223947   -0.854616
  H     -2.649817    0.272672    0.672363

 Total Charge           Charge          ....    0
 Multiplicity           Mult            ....    1
 Number of Electrons    NEL             ....   42
 Basis Dimension        Dim             ....   88

ORBITAL ENERGIES
----------------

  NO   OCC          E(Eh)            E(eV)
   0   2.0000     -18.746139      -510.1084
   1   2.0000     -13.965578      -380.0227
   2   2.0000      -9.924337      -270.0549
   3   2.0000      -9.921408      -269.9752
   4   2.0000      -9.905749      -269.5491
   5   2.0000      -0.926342       -25.2070
   6   2.0000      -0.797101       -21.6902
   7   2.0000      -0.659010       -17.9326
   8   2.0000      -0.597028       -16.2460
   9   2.0000      -0.527308       -14.3488
  10   2.0000      -0.451485       -12.2855
  11   2.0000      -0.438236       -11.9250
  12   2.0000      -0.416470       -11.3327
  13   2.0000      -0.392905       -10.6915
  14   2.0000      -0.380453       -10.3527
  15   2.0000      -0.352990        -9.6053
  16   2.0000      -0.330726        -8.9995
  17   2.0000      -0.313237        -8.5236
  18   2.0000      -0.256042        -6.9672
  19   2.0000      -0.201238        -5.4760
  20   2.0000      -0.186670        -5.0796
  21   0.0000       0.032332         0.8798
  22   0.0000       0.045669         1.2427
  23   0.0000       0.067794         1.8448
  24   0.0000       0.091464         2.4889
  25   0.0000       0.097963         2.6657

MULLIKEN ATOMIC CHARGES
-----------------------
   0 C :   -0.106146
   1 O :   -0.338823
   2 C :    0.005211
   3 C :   -0.108017
   4 N :   -0.466501
   5 H :    0.113712
   6 H :    0.093347
   7 H :    0.084426
   8 H :    0.074660
   9 H :    0.081341
  10 H :    0.073584
  11 H :    0.085050
  12 H :    0.206055
  13 H :    0.202102
Sum of atomic charges:    0.0000000

LOEWDIN ATOMIC CHARGES
----------------------
   0 C :   -0.207280
   1 O :   -0.181665
   2 C :   -0.120952
   3 C :   -0.199066
   4 N :   -0.416464
   5 H :    0.115610
   6 H :    0.095713
   7 H :    0.097911
   8 H :    0.098678
   9 H :    0.107424
  10 H :    0.091622
  11 H :    0.110163
  12 H :    0.206488
  13 H :    0.201818

  Mayer bond orders larger than 0.100000
B(  0-C ,  1-O ) :   1.0197 B(  0-C ,  5-H ) :   0.9640 B(  0-C ,  6-H ) :   0.9402
B(  0-C ,  7-H ) :   0.9402 B(  1-O ,  2-C ) :   1.0459 B(  2-C ,  3-C ) :   1.1028
B(  2-C ,  8-H ) :   0.9144 B(  2-C ,  9-H ) :   0.9343 B(  3-C ,  4-N ) :   1.0908
B(  3-C , 10-H ) :   0.9139 B(  3-C , 11-H ) :   0.9220 B(  4-N , 12-H ) :   0.9033
B(  4-N , 13-H ) :   0.9025

Dispersion correction           -0.008219775
FINAL SINGLE POINT ENERGY      -249.090688432827

DIPOLE MOMENT
-------------

Method             : SCF
Type of density    : Electron Density
Multiplicity       :   1
Irrep              :   0
Energy             :  -249.1515872722816027 Eh
Relativity type    :
Basis              : AO
                                X                 Y                 Z
Electronic contribution:      0.399753789       1.288578033       1.377285397
Nuclear contribution   :     -0.694296592      -1.200020289      -1.743760405
                        -----------------------------------------
Total Dipole Moment    :     -0.294542802       0.088557745      -0.366475008
                        -----------------------------------------
Magnitude (a.u.)       :      0.478436901
Magnitude (Debye)      :      1.216089957

Rotational constants in cm-1:             0.487440             0.080934             0.075588
Rotational constants in MHz :         14613.092676          2426.338529          2266.074241

                             ****ORCA TERMINATED NORMALLY****
TOTAL RUN TIME: 0 days 0 hours 0 minutes 5 seconds 991 msec
