                         Program Version 6.0.0  -   RELEASE  -
|  1> ! r2scan-3c def2/J RI DEFGRID2 scfconv6 printgap
|  2> %output
|  3>     printlevel normal
|  4> end
|  5> * xyz 0 1
|  6> C -1.74484813 1.4697467143 0.3083836617
|  7> C -1.2082994058 0.2690657285 -0.4643900103
|  8> C -0.2447018595 -0.607115998 0.346676738
|  9> H -0.7317170564 -0.8709798544 1.2916630968
| 10> C 0.0812603284 -1.8889163609 -0.4189284347
| 11> C 1.0596094249 0.120939912 0.713193835
| 12> O 1.844542835 0.4984938798 -0.3976086993
| 13> H -2.4752994641 2.0043946807 -0.2939853059
| 14> H -2.2303502199 1.1425910688 1.2251212027
| 15> H -0.9519434295 2.1645990947 0.5723966631
| 16> H -0.7161837967 0.6052969168 -1.3797402352
| 17> H -2.0527768326 -0.3538737074 -0.7672142006
| 18> H 0.6437637934 -1.651940231 -1.3192051838
| 19> H -0.8293484234 -2.4105250857 -0.702024286
| 20> H 0.6858744016 -2.5530762779 0.1937969111
| 21> H 1.695030687 -0.5541429491 1.2923291848
| 22> H 0.8410031785 0.9972326348 1.3367686218
| 23> H 1.3544145162 1.14979185 -0.91717817
| 24> *
| 25>
| 26>                          ****END OF INPUT****

CARTESIAN COORDINATES (ANGSTROEM)
---------------------------------
  C     -1.744848    1.469747    0.308384
  C     -1.208299    0.269066   -0.464390
  C     -0.244702   -0.607116    0.346677
  H     -0.731717   -0.870980    1.291663
  C      0.081260   -1.888916   -0.418928
  C      1.059609    0.120940    0.713194
  O      1.844543    0.498494   -0.397609
  H     -2.475299    2.004395   -0.293985
  H     -2.230350    1.142591    1.225121
  H     -0.951943    2.164599    0.572397
  H     -0.716184    0.605297   -1.379740
  H     -2.052777   -0.353874   -0.767214
  H      0.643764   -1.651940   -1.319205
  H     -0.829348   -2.410525   -0.702024
  H      0.685874   -2.553076    0.193797
  H      1.695031   -0.554143    1.292329
  H      0.841003    0.997233    1.336769
  H      1.354415    1.149792   -0.917178

 Total Charge           Charge          ....    0
 Multiplicity           Mult            ....    1
 Number of Electrons    NEL             ....   50
 Basis Dimension        Dim             ....  179

ORBITAL ENERGIES
----------------

  NO   OCC          E(Eh)            E(eV)
   0   2.0000     -18.947656      -515.5919
   1   2.0000     -10.070892      -274.0429
   2   2.0000     -10.033600      -273.0281
   3   2.0000     -10.030709      -272.9495
   4   2.0000     -10.022472      -272.7253
   5   2.0000     -10.011938      -272.4387
   6   2.0000      -0.984650       -26.7937
   7   2.0000      -0.775260       -21.0959
   8   2.0000      -0.703022       -19.1302
   9   2.0000      -0.641620       -17.4594
  10   2.0000      -0.597572       -16.2608
  11   2.0000      -0.532676       -14.4948
  12   2.0000      -0.465756       -12.6739
  13   2.0000      -0.445321       -12.1178
  14   2.0000      -0.423616       -11.5272
  15   2.0000      -0.390691       -10.6312
  16   2.0000      -0.386558       -10.5188
  17   2.0000      -0.374012       -10.1774
  18   2.0000      -0.342265        -9.3135
  19   2.0000      -0.331787        -9.0284
  20   2.0000      -0.314904        -8.5690
  21   2.0000      -0.306996        -8.3538
  22   2.0000      -0.294771        -8.0211
  23   2.0000      -0.281523        -7.6606
  24   2.0000      -0.233922        -6.3653
  25   0.0000       0.045167         1.2290
  26   0.0000       0.097699         2.6585
  27   0.0000       0.108430         2.9505
  28   0.0000       0.123172         3.3517
  29   0.0000       0.134645         3.6639

MULLIKEN ATOMIC CHARGES
-----------------------
   0 C :   -0.486876
   1 C :   -0.286974
   2 C :    0.014983
   3 H :    0.145538
   4 C :   -0.506561
   5 C :   -0.210898
   6 O :   -0.425466
   7 H :    0.149798
   8 H :    0.149720
   9 H :    0.146299
  10 H :    0.131143
  11 H :    0.145888
  12 H :    0.168953
  13 H :    0.141690
  14 H :    0.145575
  15 H :    0.141367
  16 H :    0.140286
  17 H :    0.295536
Sum of atomic charges:   -0.0000000

LOEWDIN ATOMIC CHARGES
----------------------
   0 C :   -0.422608
   1 C :   -0.311582
   2 C :   -0.234207
   3 H :    0.161408
   4 C :   -0.411678
   5 C :    0.005867
   6 O :   -0.619635
   7 H :    0.151978
   8 H :    0.152659
   9 H :    0.147452
  10 H :    0.150514
  11 H :    0.158076
  12 H :    0.163944
  13 H :    0.150915
  14 H :    0.154871
  15 H :    0.179388
  16 H :    0.158435
  17 H :    0.264203

  Mayer bond orders larger than 0.100000
B(  0-C ,  1-C ) :   0.8985 B(  0-C ,  7-H ) :   0.9727 B(  0-C ,  8-H ) :   0.9847
B(  0-C ,  9-H ) :   0.9789 B(  1-C ,  2-C ) :   0.8844 B(  1-C , 10-H ) :   0.9802
B(  1-C , 11-H ) :   0.9658 B(  2-C ,  3-H ) :   0.9563 B(  2-C ,  4-C ) :   0.9102
B(  2-C ,  5-C ) :   0.8816 B(  4-C , 12-H ) :   0.9816 B(  4-C , 13-H ) :   0.9789
B(  4-C , 14-H ) :   0.9746 B(  5-C ,  6-O ) :   0.9561 B(  5-C , 15-H ) :   0.9740
B(  5-C , 16-H ) :   0.9861 B(  6-O , 17-H ) :   0.8935

Dispersion correction           -0.004451479
FINAL SINGLE POINT ENERGY      -272.898318574020

DIPOLE MOMENT
-------------

Method             : SCF
Type of density    : Electron Density
Multiplicity       :   1
Irrep              :   0
Energy             :  -272.9038392646571083 Eh
Relativity type    :
Basis              : AO
                                X                 Y                 Z
Electronic contribution:      3.822780229       0.482105546      -0.394421690
Nuclear contribution   :     -4.445351876      -0.302788911       0.493885621
                        -----------------------------------------
Total Dipole Moment    :     -0.622571647       0.179316635       0.099463932
                        -----------------------------------------
Magnitude (a.u.)       :      0.655471574
Magnitude (Debye)      :      1.666076336

Rotational constants in cm-1:             0.137818             0.089726             0.065715
Rotational constants in MHz :          4131.678206          2689.914312          1970.084923

                             ****ORCA TERMINATED NORMALLY****
TOTAL RUN TIME: 0 days 0 hours 0 minutes 23 seconds 607 msec
