                         Program Version 6.0.0  -   RELEASE  -
|  1> ! r2scan-3c def2/J RI DEFGRID2 scfconv6 printgap
|  2> %output
|  3>     printlevel normal
|  4> end
|  5> %cpcm
|  6>     smd true
|  7>     smdsolvent "water"
|  8> end
|  9> * xyz 0 1
| 10> C -1.74484813 1.4697467143 0.3083836617
| 11> C -1.2082994058 0.2690657285 -0.4643900103
| 12> C -0.2447018595 -0.607115998 0.346676738
| 13> H -0.7317170564 -0.8709798544 1.2916630968
| 14> C 0.0812603284 -1.8889163609 -0.4189284347
| 15> C 1.0596094249 0.120939912 0.713193835
| 16> O 1.844542835 0.4984938798 -0.3976086993
| 17> H -2.4752994641 2.0043946807 -0.2939853059
| 18> H -2.2303502199 1.1425910688 1.2251212027
| 19> H -0.9519434295 2.1645990947 0.5723966631
| 20> H -0.7161837967 0.6052969168 -1.3797402352
| 21> H -2.0527768326 -0.3538737074 -0.7672142006
| 22> H 0.6437637934 -1.651940231 -1.3192051838
| 23> H -0.8293484234 -2.4105250857 -0.702024286
| 24> H 0.6858744016 -2.5530762779 0.1937969111
| 25> H 1.695030687 -0.5541429491 1.2923291848
| 26> H 0.8410031785 0.9972326348 1.3367686218
| 27> H 1.3544145162 1.14979185 -0.91717817
| 28> *
| 29>
| 30>                          ****END OF INPUT****

CARTESIAN COORDINATES (ANGSTROEM)
---------------------------------
  C     -1.744848    1.469747    0.308384
  C     -1.208299    0.269066   -0.464390
  C     -0.244702   -0.607116    0.346677
  H     -0.731717   -0.870980    1.291663
  C      0.081260   -1.888916   -0.418928
  C      1.059609    0.120940    0.713194
  O      1.844543    0.498494   -0.397609
  H     -2.475299    2.004395   -0.293985
  H     -2.230350    1.142591    1.225121
  H     -0.951943    2.164599    0.572397
  H     -0.716184    0.605297   -1.379740
  H     -2.052777   -0.353874   -0.767214
  H      0.643764   -1.651940   -1.319205
  H     -0.829348   -2.410525   -0.702024
  H      0.685874   -2.553076    0.193797
  H      1.695031   -0.554143    1.292329
  H      0.841003    0.997233    1.336769
  H      1.354415    1.149792   -0.917178

 Total Charge           Charge          ....    0
 Multiplicity           Mult            ....    1
 Number of Electrons    NEL             ....   50
 Basis Dimension        Dim             ....  179

ORBITAL ENERGIES
----------------

  NO   OCC          E(Eh)            E(eV)
   0   2.0000     -18.950350      -515.6652
   1   2.0000     -10.064344      -273.8647
   2   2.0000     -10.024146      -272.7709
   3   2.0000     -10.016622      -272.5661
   4   2.0000     -10.007879      -272.3282
   5   2.0000     -10.006064      -272.2788
   6   2.0000      -0.986231       -26.8367
   7   2.0000      -0.764924       -20.8146
   8   2.0000      -0.692043       -18.8315
   9   2.0000      -0.636181       -17.3114
  10   2.0000      -0.586676       -15.9643
  11   2.0000      -0.524416       -14.2701
  12   2.0000      -0.459605       -12.5065
  13   2.0000      -0.437477       -11.9044
  14   2.0000      -0.415570       -11.3082
  15   2.0000      -0.380376       -10.3505
  16   2.0000      -0.376594       -10.2476
  17   2.0000      -0.370003       -10.0683
  18   2.0000      -0.333229        -9.0676
  19   2.0000      -0.327067        -8.9000
  20   2.0000      -0.304355        -8.2819
  21   2.0000      -0.298205        -8.1146
  22   2.0000      -0.286606        -7.7990
  23   2.0000      -0.274624        -7.4729
  24   2.0000      -0.235881        -6.4187
  25   0.0000       0.061799         1.6816
  26   0.0000       0.110191         2.9984
  27   0.0000       0.118043         3.2121
  28   0.0000       0.132593         3.6080
  29   0.0000       0.147003         4.0001

MULLIKEN ATOMIC CHARGES
-----------------------
   0 C :   -0.532845
   1 C :   -0.281098
   2 C :    0.015440
   3 H :    0.159348
   4 C :   -0.558546
   5 C :   -0.207108
   6 O :   -0.514447
   7 H :    0.157381
   8 H :    0.158750
   9 H :    0.161561
  10 H :    0.148179
  11 H :    0.153601
  12 H :    0.163586
  13 H :    0.157956
  14 H :    0.160405
  15 H :    0.153404
  16 H :    0.152255
  17 H :    0.352178
Sum of atomic charges:   -0.0000000

LOEWDIN ATOMIC CHARGES
----------------------
   0 C :   -0.429666
   1 C :   -0.311688
   2 C :   -0.230184
   3 H :    0.167033
   4 C :   -0.421886
   5 C :    0.004172
   6 O :   -0.657188
   7 H :    0.153542
   8 H :    0.153940
   9 H :    0.152339
  10 H :    0.157131
  11 H :    0.159275
  12 H :    0.159339
  13 H :    0.155811
  14 H :    0.157362
  15 H :    0.181867
  16 H :    0.166130
  17 H :    0.282669

  Mayer bond orders larger than 0.100000
B(  0-C ,  1-C ) :   0.8899 B(  0-C ,  7-H ) :   0.9706 B(  0-C ,  8-H ) :   0.9835
B(  0-C ,  9-H ) :   0.9770 B(  1-C ,  2-C ) :   0.8930 B(  1-C , 10-H ) :   0.9728
B(  1-C , 11-H ) :   0.9676 B(  2-C ,  3-H ) :   0.9536 B(  2-C ,  4-C ) :   0.8901
B(  2-C ,  5-C ) :   0.8954 B(  4-C , 12-H ) :   0.9856 B(  4-C , 13-H ) :   0.9751
B(  4-C , 14-H ) :   0.9738 B(  5-C ,  6-O ) :   0.9400 B(  5-C , 15-H ) :   0.9724
B(  5-C , 16-H ) :   0.9758 B(  6-O , 17-H ) :   0.8661

Dispersion correction           -0.004451479
FINAL SINGLE POINT ENERGY      -272.904351969932

DIPOLE MOMENT
-------------

Method             : SCF
Type of density    : Electron Density
Multiplicity       :   1
Irrep              :   0
Energy             :  -272.9098726605695902 Eh
Relativity type    :
Basis              : AO
                                X                 Y                 Z
Electronic contribution:      3.593571085       0.591818858      -0.336985631
Nuclear contribution   :     -4.445351876      -0.302788911       0.493885621
                        -----------------------------------------
Total Dipole Moment    :     -0.851780791       0.289029947       0.156899990
                        -----------------------------------------
Magnitude (a.u.)       :      0.913064309
Magnitude (Debye)      :      2.320825036

Rotational constants in cm-1:             0.137818             0.089726             0.065715
Rotational constants in MHz :          4131.678206          2689.914312          1970.084923

                             ****ORCA TERMINATED NORMALLY****
TOTAL RUN TIME: 0 days 0 hours 0 minutes 27 seconds 997 msec
