                         Program Version 6.0.0  -   RELEASE  -
|  1> ! pbe def2-sv(p) def2/J RI DEFGRID1 loosescf d4 GCP(DFT/SV(P)) printgap
|  2> %output
|  3>     printlevel normal
|  4> end
|  5> * xyz 0 1
|  6> C 1.6052063063 0.6415172488 1.2656541539
|  7> C 1.2021017077 0.3925028678 -0.1861521706
|  8> H 0.9305044202 1.3502011074 -0.6571371028
|  9> C 0.03398698 -0.5906000286 -0.3159536848
| 10> C -1.2834858319 -0.1646539027 0.337816596
| 11> C -1.8193291529 1.1407974359 -0.2462779583
| 12> C -2.3149252792 -1.2777730028 0.1534753639
| 13> O 2.2728418569 -0.1846008644 -0.9243031382
| 14> H 0.7953832198 1.1240559011 1.8033691634
| 15> H 1.8439310925 -0.3017388068 1.751073063
| 16> H 2.478582118 1.2889183296 1.3102439765
| 17> H -0.1298667512 -0.7580854601 -1.3831962172
| 18> H 0.3607614006 -1.5404861539 0.1134519865
| 19> H -1.1199732146 -0.0284999266 1.4114185943
| 20> H -2.7992724532 1.362032682 0.1702306703
| 21> H -1.9156930757 1.0592603773 -1.3266236952
| 22> H -1.1599224836 1.9741646229 -0.0195588425
| 23> H -1.9526653361 -2.2113978695 0.576811399
| 24> H -3.2489397192 -1.0168068747 0.6451490814
| 25> H -2.5151856644 -1.4357509948 -0.9039013854
| 26> H 3.0564045985 0.3747878464 -0.8378394297
| 27> *
| 28>
| 29>                          ****END OF INPUT****

CARTESIAN COORDINATES (ANGSTROEM)
---------------------------------
  C      1.605206    0.641517    1.265654
  C      1.202102    0.392503   -0.186152
  H      0.930504    1.350201   -0.657137
  C      0.033987   -0.590600   -0.315954
  C     -1.283486   -0.164654    0.337817
  C     -1.819329    1.140797   -0.246278
  C     -2.314925   -1.277773    0.153475
  O      2.272842   -0.184601   -0.924303
  H      0.795383    1.124056    1.803369
  H      1.843931   -0.301739    1.751073
  H      2.478582    1.288918    1.310244
  H     -0.129867   -0.758085   -1.383196
  H      0.360761   -1.540486    0.113452
  H     -1.119973   -0.028500    1.411419
  H     -2.799272    1.362033    0.170231
  H     -1.915693    1.059260   -1.326624
  H     -1.159922    1.974165   -0.019559
  H     -1.952665   -2.211398    0.576811
  H     -3.248940   -1.016807    0.645149
  H     -2.515186   -1.435751   -0.903901
  H      3.056405    0.374788   -0.837839

 Total Charge           Charge          ....    0
 Multiplicity           Mult            ....    1
 Number of Electrons    NEL             ....   58
 Basis Dimension        Dim             ....  126

ORBITAL ENERGIES
----------------

  NO   OCC          E(Eh)            E(eV)
   0   2.0000     -18.734240      -509.7846
   1   2.0000      -9.933576      -270.3064
   2   2.0000      -9.894261      -269.2365
   3   2.0000      -9.875474      -268.7253
   4   2.0000      -9.875257      -268.7194
   5   2.0000      -9.871912      -268.6284
   6   2.0000      -9.869971      -268.5756
   7   2.0000      -0.911579       -24.8053
   8   2.0000      -0.731775       -19.9126
   9   2.0000      -0.673205       -18.3188
  10   2.0000      -0.612407       -16.6644
  11   2.0000      -0.608077       -16.5466
  12   2.0000      -0.535587       -14.5741
  13   2.0000      -0.486850       -13.2479
  14   2.0000      -0.453918       -12.3517
  15   2.0000      -0.421046       -11.4572
  16   2.0000      -0.393070       -10.6960
  17   2.0000      -0.386605       -10.5201
  18   2.0000      -0.378496       -10.2994
  19   2.0000      -0.356381        -9.6976
  20   2.0000      -0.341426        -9.2907
  21   2.0000      -0.333333        -9.0704
  22   2.0000      -0.313546        -8.5320
  23   2.0000      -0.310735        -8.4555
  24   2.0000      -0.293594        -7.9891
  25   2.0000      -0.283302        -7.7090
  26   2.0000      -0.279327        -7.6009
  27   2.0000      -0.259792        -7.0693
  28   2.0000      -0.208691        -5.6788
  29   0.0000       0.026641         0.7249
  30   0.0000       0.042181         1.1478
  31   0.0000       0.065120         1.7720
  32   0.0000       0.071531         1.9465
  33   0.0000       0.080125         2.1803

MULLIKEN ATOMIC CHARGES
-----------------------
   0 C :   -0.274122
   1 C :    0.024343
   2 H :    0.060679
   3 C :   -0.116253
   4 C :   -0.196240
   5 C :   -0.252869
   6 C :   -0.232586
   7 O :   -0.427300
   8 H :    0.107689
   9 H :    0.101869
  10 H :    0.090112
  11 H :    0.082964
  12 H :    0.079554
  13 H :    0.077025
  14 H :    0.096909
  15 H :    0.094554
  16 H :    0.106969
  17 H :    0.097163
  18 H :    0.096707
  19 H :    0.092661
  20 H :    0.290172
Sum of atomic charges:    0.0000000

LOEWDIN ATOMIC CHARGES
----------------------
   0 C :   -0.353446
   1 C :   -0.057362
   2 H :    0.094775
   3 C :   -0.218557
   4 C :   -0.158815
   5 C :   -0.331825
   6 C :   -0.326410
   7 O :   -0.336635
   8 H :    0.122666
   9 H :    0.122369
  10 H :    0.113828
  11 H :    0.119668
  12 H :    0.117930
  13 H :    0.113128
  14 H :    0.117600
  15 H :    0.118232
  16 H :    0.114194
  17 H :    0.117083
  18 H :    0.115768
  19 H :    0.116751
  20 H :    0.279057

  Mayer bond orders larger than 0.100000
B(  0-C ,  1-C ) :   1.1054 B(  0-C ,  8-H ) :   0.9296 B(  0-C ,  9-H ) :   0.9423
B(  0-C , 10-H ) :   0.9447 B(  1-C ,  2-H ) :   0.9030 B(  1-C ,  3-C ) :   1.0845
B(  1-C ,  7-O ) :   1.0627 B(  3-C ,  4-C ) :   1.0730 B(  3-C , 11-H ) :   0.9086
B(  3-C , 12-H ) :   0.9096 B(  4-C ,  5-C ) :   1.1031 B(  4-C ,  6-C ) :   1.1152
B(  4-C , 13-H ) :   0.8948 B(  5-C , 14-H ) :   0.9491 B(  5-C , 15-H ) :   0.9497
B(  5-C , 16-H ) :   0.9434 B(  6-C , 17-H ) :   0.9501 B(  6-C , 18-H ) :   0.9510
B(  6-C , 19-H ) :   0.9500 B(  7-O , 20-H ) :   0.8534

Dispersion correction           -0.016323899
FINAL SINGLE POINT ENERGY      -311.518219469075

DIPOLE MOMENT
-------------

Method             : SCF
Type of density    : Electron Density
Multiplicity       :   1
Irrep              :   0
Energy             :  -311.5976523615508427 Eh
Relativity type    :
Basis              : AO
                                X                 Y                 Z
Electronic contribution:      5.098820103      -0.671038058      -2.157788891
Nuclear contribution   :     -5.009791323       1.161197470       2.475691400
                        -----------------------------------------
Total Dipole Moment    :      0.089028780       0.490159412       0.317902509
                        -----------------------------------------
Magnitude (a.u.)       :      0.590969016
Magnitude (Debye)      :      1.502123864

Rotational constants in cm-1:             0.141995             0.046425             0.043610
Rotational constants in MHz :          4256.917171          1391.779505          1307.409791

                             ****ORCA TERMINATED NORMALLY****
TOTAL RUN TIME: 0 days 0 hours 0 minutes 10 seconds 205 msec
