                         Program Version 6.0.0  -   RELEASE  -
|  1> ! r2scan-3c def2/J RI DEFGRID2 scfconv6 printgap
|  2> %output
|  3>     printlevel normal
|  4> end
|  5> * xyz 0 1
|  6> C -0.2803154641 2.151388908 -0.942734492
|  7> N -0.1012434901 0.7249210327 -0.7599830591
|  8> C -1.2499671717 -0.1056500662 -0.9419797063
|  9> C -2.1268459604 -0.2179452397 0.3140216027
| 10> F -3.1240424367 -1.1111956523 0.1414651559
| 11> F -1.4606990105 -0.6085147372 1.4104453207
| 12> F -2.7265575722 0.942621985 0.6386221229
| 13> C 1.1348016162 0.2090627935 -0.4170085309
| 14> C 2.2831736809 1.0041857813 -0.5175865445
| 15> C 3.527235313 0.5000155337 -0.1937302763
| 16> C 3.6736624806 -0.8080580245 0.2347959445
| 17> C 2.5464080704 -1.6036585856 0.3406412341
| 18> C 1.2954823114 -1.1087625542 0.0256376803
| 19> H 0.1931409048 2.6998270645 -0.1282194422
| 20> H -1.3410287774 2.3870755594 -0.9311943796
| 21> H 0.1427415681 2.4843185093 -1.8944935771
| 22> H -1.8940600665 0.3039331833 -1.7269607877
| 23> H -0.9620763926 -1.1210638188 -1.2247557634
| 24> H 2.2130347208 2.0217320573 -0.861836377
| 25> H 4.3939869683 1.1382675626 -0.2832941353
| 26> H 4.6472866429 -1.1996439223 0.4855000547
| 27> H 2.6358746445 -2.6248020701 0.681442524
| 28> H 0.4469525353 -1.7613218752 0.1556985891
| 29> *
| 30>
| 31>                          ****END OF INPUT****

CARTESIAN COORDINATES (ANGSTROEM)
---------------------------------
  C     -0.280315    2.151389   -0.942734
  N     -0.101243    0.724921   -0.759983
  C     -1.249967   -0.105650   -0.941980
  C     -2.126846   -0.217945    0.314022
  F     -3.124042   -1.111196    0.141465
  F     -1.460699   -0.608515    1.410445
  F     -2.726558    0.942622    0.638622
  C      1.134802    0.209063   -0.417009
  C      2.283174    1.004186   -0.517587
  C      3.527235    0.500016   -0.193730
  C      3.673662   -0.808058    0.234796
  C      2.546408   -1.603659    0.340641
  C      1.295482   -1.108763    0.025638
  H      0.193141    2.699827   -0.128219
  H     -1.341029    2.387076   -0.931194
  H      0.142742    2.484319   -1.894494
  H     -1.894060    0.303933   -1.726961
  H     -0.962076   -1.121064   -1.224756
  H      2.213035    2.021732   -0.861836
  H      4.393987    1.138268   -0.283294
  H      4.647287   -1.199644    0.485500
  H      2.635875   -2.624802    0.681443
  H      0.446953   -1.761322    0.155699

 Total Charge           Charge          ....    0
 Multiplicity           Mult            ....    1
 Number of Electrons    NEL             ....   98
 Basis Dimension        Dim             ....  317

ORBITAL ENERGIES
----------------

  NO   OCC          E(Eh)            E(eV)
   0   2.0000     -24.520594      -667.2393
   1   2.0000     -24.519318      -667.2046
   2   2.0000     -24.518648      -667.1863
   3   2.0000     -14.198712      -386.3666
   4   2.0000     -10.281020      -279.7608
   5   2.0000     -10.104673      -274.9621
   6   2.0000     -10.080305      -274.2990
   7   2.0000     -10.073119      -274.1035
   8   2.0000     -10.032272      -272.9920
   9   2.0000     -10.032099      -272.9873
  10   2.0000     -10.029729      -272.9228
  11   2.0000     -10.029091      -272.9054
  12   2.0000     -10.021781      -272.7065
  13   2.0000      -1.277351       -34.7585
  14   2.0000      -1.187684       -32.3185
  15   2.0000      -1.186075       -32.2747
  16   2.0000      -0.939242       -25.5581
  17   2.0000      -0.819529       -22.3005
  18   2.0000      -0.755963       -20.5708
  19   2.0000      -0.722789       -19.6681
  20   2.0000      -0.711094       -19.3499
  21   2.0000      -0.664489       -18.0817
  22   2.0000      -0.633562       -17.2401
  23   2.0000      -0.576909       -15.6985
  24   2.0000      -0.567339       -15.4381
  25   2.0000      -0.558687       -15.2027
  26   2.0000      -0.553402       -15.0588
  27   2.0000      -0.525841       -14.3089
  28   2.0000      -0.505412       -13.7530
  29   2.0000      -0.465873       -12.6770
  30   2.0000      -0.453541       -12.3415
  31   2.0000      -0.432167       -11.7599
  32   2.0000      -0.430228       -11.7071
  33   2.0000      -0.425251       -11.5717
  34   2.0000      -0.423533       -11.5249
  35   2.0000      -0.402557       -10.9541
  36   2.0000      -0.398828       -10.8527
  37   2.0000      -0.390213       -10.6182
  38   2.0000      -0.385535       -10.4909
  39   2.0000      -0.373904       -10.1744
  40   2.0000      -0.370674       -10.0865
  41   2.0000      -0.368427       -10.0254
  42   2.0000      -0.361882        -9.8473
  43   2.0000      -0.346254        -9.4220
  44   2.0000      -0.326540        -8.8856
  45   2.0000      -0.308168        -8.3857
  46   2.0000      -0.272267        -7.4088
  47   2.0000      -0.235079        -6.3968
  48   2.0000      -0.183273        -4.9871
  49   0.0000      -0.030037        -0.8174
  50   0.0000      -0.014018        -0.3815
  51   0.0000       0.057996         1.5782
  52   0.0000       0.068768         1.8713
  53   0.0000       0.080065         2.1787

MULLIKEN ATOMIC CHARGES
-----------------------
   0 C :   -0.451049
   1 N :    0.222950
   2 C :   -0.464703
   3 C :    0.600945
   4 F :   -0.207188
   5 F :   -0.197170
   6 F :   -0.217368
   7 C :    0.217939
   8 C :   -0.305821
   9 C :   -0.146894
  10 C :   -0.188984
  11 C :   -0.166611
  12 C :   -0.291892
  13 H :    0.165946
  14 H :    0.157721
  15 H :    0.163947
  16 H :    0.187909
  17 H :    0.201115
  18 H :    0.139255
  19 H :    0.144272
  20 H :    0.145610
  21 H :    0.144866
  22 H :    0.145206
Sum of atomic charges:   -0.0000000

LOEWDIN ATOMIC CHARGES
----------------------
   0 C :   -0.117474
   1 N :   -0.885958
   2 C :    0.000696
   3 C :    0.518871
   4 F :   -0.220373
   5 F :   -0.199829
   6 F :   -0.214889
   7 C :    0.157332
   8 C :   -0.163388
   9 C :   -0.152703
  10 C :   -0.198907
  11 C :   -0.152317
  12 C :   -0.164529
  13 H :    0.182407
  14 H :    0.185306
  15 H :    0.167274
  16 H :    0.204581
  17 H :    0.208402
  18 H :    0.172982
  19 H :    0.166990
  20 H :    0.165631
  21 H :    0.167537
  22 H :    0.172359

  Mayer bond orders larger than 0.100000
B(  0-C ,  1-N ) :   0.8766 B(  0-C , 13-H ) :   0.9540 B(  0-C , 14-H ) :   0.9467
B(  0-C , 15-H ) :   0.9616 B(  1-N ,  2-C ) :   0.8831 B(  1-N ,  7-C ) :   1.1983
B(  2-C ,  3-C ) :   0.9854 B(  2-C , 16-H ) :   0.9367 B(  2-C , 17-H ) :   0.9512
B(  3-C ,  4-F ) :   1.0188 B(  3-C ,  5-F ) :   1.0382 B(  3-C ,  6-F ) :   1.0111
B(  7-C ,  8-C ) :   1.3001 B(  7-C , 12-C ) :   1.3084 B(  8-C ,  9-C ) :   1.4146
B(  8-C , 18-H ) :   0.9455 B(  9-C , 10-C ) :   1.4131 B(  9-C , 19-H ) :   0.9506
B( 10-C , 11-C ) :   1.4113 B( 10-C , 20-H ) :   0.9497 B( 11-C , 12-C ) :   1.4353
B( 11-C , 21-H ) :   0.9485 B( 12-C , 22-H ) :   0.9285

Dispersion correction           -0.008511200
FINAL SINGLE POINT ENERGY      -703.153638951276

DIPOLE MOMENT
-------------

Method             : SCF
Type of density    : Electron Density
Multiplicity       :   1
Irrep              :   0
Energy             :  -703.1636709139323784 Eh
Relativity type    :
Basis              : AO
                                X                 Y                 Z
Electronic contribution:    -16.552153562      -4.367618125       6.637807558
Nuclear contribution   :     16.601668299       4.784686830      -7.407709636
                        -----------------------------------------
Total Dipole Moment    :      0.049514738       0.417068705      -0.769902077
                        -----------------------------------------
Magnitude (a.u.)       :      0.877010389
Magnitude (Debye)      :      2.229183253

Rotational constants in cm-1:             0.054955             0.016005             0.013562
Rotational constants in MHz :          1647.495887           479.805807           406.575435

                             ****ORCA TERMINATED NORMALLY****
TOTAL RUN TIME: 0 days 0 hours 0 minutes 45 seconds 474 msec
