                         Program Version 6.0.0  -   RELEASE  -
|  1> ! r2scan-3c def2/J RI DEFGRID2 scfconv6 printgap
|  2> %output
|  3>     printlevel normal
|  4> end
|  5> %cpcm
|  6>     smd true
|  7>     smdsolvent "water"
|  8> end
|  9> * xyz 0 1
| 10> C -0.2803154641 2.151388908 -0.942734492
| 11> N -0.1012434901 0.7249210327 -0.7599830591
| 12> C -1.2499671717 -0.1056500662 -0.9419797063
| 13> C -2.1268459604 -0.2179452397 0.3140216027
| 14> F -3.1240424367 -1.1111956523 0.1414651559
| 15> F -1.4606990105 -0.6085147372 1.4104453207
| 16> F -2.7265575722 0.942621985 0.6386221229
| 17> C 1.1348016162 0.2090627935 -0.4170085309
| 18> C 2.2831736809 1.0041857813 -0.5175865445
| 19> C 3.527235313 0.5000155337 -0.1937302763
| 20> C 3.6736624806 -0.8080580245 0.2347959445
| 21> C 2.5464080704 -1.6036585856 0.3406412341
| 22> C 1.2954823114 -1.1087625542 0.0256376803
| 23> H 0.1931409048 2.6998270645 -0.1282194422
| 24> H -1.3410287774 2.3870755594 -0.9311943796
| 25> H 0.1427415681 2.4843185093 -1.8944935771
| 26> H -1.8940600665 0.3039331833 -1.7269607877
| 27> H -0.9620763926 -1.1210638188 -1.2247557634
| 28> H 2.2130347208 2.0217320573 -0.861836377
| 29> H 4.3939869683 1.1382675626 -0.2832941353
| 30> H 4.6472866429 -1.1996439223 0.4855000547
| 31> H 2.6358746445 -2.6248020701 0.681442524
| 32> H 0.4469525353 -1.7613218752 0.1556985891
| 33> *
| 34>
| 35>                          ****END OF INPUT****

CARTESIAN COORDINATES (ANGSTROEM)
---------------------------------
  C     -0.280315    2.151389   -0.942734
  N     -0.101243    0.724921   -0.759983
  C     -1.249967   -0.105650   -0.941980
  C     -2.126846   -0.217945    0.314022
  F     -3.124042   -1.111196    0.141465
  F     -1.460699   -0.608515    1.410445
  F     -2.726558    0.942622    0.638622
  C      1.134802    0.209063   -0.417009
  C      2.283174    1.004186   -0.517587
  C      3.527235    0.500016   -0.193730
  C      3.673662   -0.808058    0.234796
  C      2.546408   -1.603659    0.340641
  C      1.295482   -1.108763    0.025638
  H      0.193141    2.699827   -0.128219
  H     -1.341029    2.387076   -0.931194
  H      0.142742    2.484319   -1.894494
  H     -1.894060    0.303933   -1.726961
  H     -0.962076   -1.121064   -1.224756
  H      2.213035    2.021732   -0.861836
  H      4.393987    1.138268   -0.283294
  H      4.647287   -1.199644    0.485500
  H      2.635875   -2.624802    0.681443
  H      0.446953   -1.761322    0.155699

 Total Charge           Charge          ....    0
 Multiplicity           Mult            ....    1
 Number of Electrons    NEL             ....   98
 Basis Dimension        Dim             ....  317

ORBITAL ENERGIES
----------------

  NO   OCC          E(Eh)            E(eV)
   0   2.0000     -24.519945      -667.2216
   1   2.0000     -24.518330      -667.1777
   2   2.0000     -24.517421      -667.1530
   3   2.0000     -14.188682      -386.0937
   4   2.0000     -10.277835      -279.6741
   5   2.0000     -10.085847      -274.4499
   6   2.0000     -10.077400      -274.2200
   7   2.0000     -10.051971      -273.5280
   8   2.0000     -10.030257      -272.9372
   9   2.0000     -10.030226      -272.9363
  10   2.0000     -10.026274      -272.8288
  11   2.0000     -10.025192      -272.7993
  12   2.0000     -10.019501      -272.6445
  13   2.0000      -1.277037       -34.7499
  14   2.0000      -1.188076       -32.3292
  15   2.0000      -1.185496       -32.2590
  16   2.0000      -0.928208       -25.2578
  17   2.0000      -0.817945       -22.2574
  18   2.0000      -0.745458       -20.2849
  19   2.0000      -0.717475       -19.5235
  20   2.0000      -0.706395       -19.2220
  21   2.0000      -0.656728       -17.8705
  22   2.0000      -0.627137       -17.0653
  23   2.0000      -0.572662       -15.5829
  24   2.0000      -0.562494       -15.3063
  25   2.0000      -0.558228       -15.1902
  26   2.0000      -0.550855       -14.9895
  27   2.0000      -0.519141       -14.1265
  28   2.0000      -0.493743       -13.4354
  29   2.0000      -0.454209       -12.3596
  30   2.0000      -0.446435       -12.1481
  31   2.0000      -0.430827       -11.7234
  32   2.0000      -0.429773       -11.6947
  33   2.0000      -0.417151       -11.3513
  34   2.0000      -0.411483       -11.1970
  35   2.0000      -0.397246       -10.8096
  36   2.0000      -0.393328       -10.7030
  37   2.0000      -0.384395       -10.4599
  38   2.0000      -0.383527       -10.4363
  39   2.0000      -0.369461       -10.0535
  40   2.0000      -0.362318        -9.8592
  41   2.0000      -0.358726        -9.7614
  42   2.0000      -0.347678        -9.4608
  43   2.0000      -0.345328        -9.3968
  44   2.0000      -0.322226        -8.7682
  45   2.0000      -0.302329        -8.2268
  46   2.0000      -0.269065        -7.3216
  47   2.0000      -0.237217        -6.4550
  48   2.0000      -0.178382        -4.8540
  49   0.0000      -0.030718        -0.8359
  50   0.0000      -0.014027        -0.3817
  51   0.0000       0.069456         1.8900
  52   0.0000       0.083520         2.2727
  53   0.0000       0.095731         2.6050

MULLIKEN ATOMIC CHARGES
-----------------------
   0 C :   -0.460835
   1 N :    0.214183
   2 C :   -0.447613
   3 C :    0.580688
   4 F :   -0.215166
   5 F :   -0.208752
   6 F :   -0.221963
   7 C :    0.177226
   8 C :   -0.324982
   9 C :   -0.192891
  10 C :   -0.238336
  11 C :   -0.210541
  12 C :   -0.315063
  13 H :    0.176548
  14 H :    0.175601
  15 H :    0.177173
  16 H :    0.225127
  17 H :    0.229526
  18 H :    0.174548
  19 H :    0.175684
  20 H :    0.175058
  21 H :    0.175774
  22 H :    0.179006
Sum of atomic charges:   -0.0000000

LOEWDIN ATOMIC CHARGES
----------------------
   0 C :   -0.114595
   1 N :   -0.883669
   2 C :    0.007998
   3 C :    0.519166
   4 F :   -0.225475
   5 F :   -0.210166
   6 F :   -0.219571
   7 C :    0.147012
   8 C :   -0.172986
   9 C :   -0.168655
  10 C :   -0.223376
  11 C :   -0.169231
  12 C :   -0.176616
  13 H :    0.185411
  14 H :    0.192274
  15 H :    0.175157
  16 H :    0.220576
  17 H :    0.219521
  18 H :    0.185429
  19 H :    0.176975
  20 H :    0.173827
  21 H :    0.177158
  22 H :    0.183836

  Mayer bond orders larger than 0.100000
B(  0-C ,  1-N ) :   0.8798 B(  0-C , 13-H ) :   0.9503 B(  0-C , 14-H ) :   0.9429
B(  0-C , 15-H ) :   0.9539 B(  1-N ,  2-C ) :   0.8875 B(  1-N ,  7-C ) :   1.2072
B(  2-C ,  3-C ) :   0.9834 B(  2-C , 16-H ) :   0.9184 B(  2-C , 17-H ) :   0.9423
B(  3-C ,  4-F ) :   1.0192 B(  3-C ,  5-F ) :   1.0315 B(  3-C ,  6-F ) :   1.0136
B(  7-C ,  8-C ) :   1.2634 B(  7-C , 12-C ) :   1.2728 B(  8-C ,  9-C ) :   1.3848
B(  8-C , 18-H ) :   0.9560 B(  9-C , 10-C ) :   1.3638 B(  9-C , 19-H ) :   0.9637
B( 10-C , 11-C ) :   1.3630 B( 10-C , 20-H ) :   0.9616 B( 11-C , 12-C ) :   1.4008
B( 11-C , 21-H ) :   0.9625 B( 12-C , 22-H ) :   0.9393

Dispersion correction           -0.008511200
FINAL SINGLE POINT ENERGY      -703.159012091377

DIPOLE MOMENT
-------------

Method             : SCF
Type of density    : Electron Density
Multiplicity       :   1
Irrep              :   0
Energy             :  -703.1690440540332929 Eh
Relativity type    :
Basis              : AO
                                X                 Y                 Z
Electronic contribution:    -16.784498904      -4.219966600       6.295436529
Nuclear contribution   :     16.601668299       4.784686830      -7.407709636
                        -----------------------------------------
Total Dipole Moment    :     -0.182830605       0.564720230      -1.112273107
                        -----------------------------------------
Magnitude (a.u.)       :      1.260748759
Magnitude (Debye)      :      3.204568673

Rotational constants in cm-1:             0.054955             0.016005             0.013562
Rotational constants in MHz :          1647.495887           479.805807           406.575435

                             ****ORCA TERMINATED NORMALLY****
TOTAL RUN TIME: 0 days 0 hours 1 minutes 1 seconds 241 msec
