                         Program Version 6.0.0  -   RELEASE  -
|  1> ! r2scan-3c def2/J RI DEFGRID2 scfconv6 printgap
|  2> %output
|  3>     printlevel normal
|  4> end
|  5> * xyz 0 1
|  6> C -3.2179083908 1.3911398736 -0.0026111768
|  7> C -2.5641897108 0.0359088292 8.34437e-05
|  8> O -3.2378090924 -0.9879192679 0.002646107
|  9> C -1.092872288 -0.0167710324 -0.0001454102
| 10> C -0.2843437553 1.120016095 -0.0021155598
| 11> C 1.0920846063 1.0143964557 -0.0020100162
| 12> C 1.699976883 -0.2410516864 0.000189898
| 13> C 0.8962083469 -1.3876459999 0.0020046851
| 14> C -0.4712490906 -1.2724549579 0.0018303479
| 15> O 3.0342903733 -0.456380077 0.0008618704
| 16> C 3.9136772029 0.6562821564 -0.0007519584
| 17> H -2.9180668426 1.9489876514 0.8805452853
| 18> H -4.2974766365 1.2655054551 -0.0027095697
| 19> H -2.9174479746 1.9458749896 -0.8874918294
| 20> H -0.7238729653 2.1037836389 -0.0037351813
| 21> H 1.6860806966 1.9135697926 -0.0035969197
| 22> H 1.3790955786 -2.3515976749 0.0035239834
| 23> H -1.0990555452 -2.1510887854 0.0031252539
| 24> H 4.9133565298 0.2285148206 0.0016343744
| 25> H 3.773395996 1.269016071 0.8925030463
| 26> H 3.7756614984 1.2644695835 -0.8974682436
| 27> *
| 28>
| 29>                          ****END OF INPUT****

CARTESIAN COORDINATES (ANGSTROEM)
---------------------------------
  C     -3.217908    1.391140   -0.002611
  C     -2.564190    0.035909    0.000083
  O     -3.237809   -0.987919    0.002646
  C     -1.092872   -0.016771   -0.000145
  C     -0.284344    1.120016   -0.002116
  C      1.092085    1.014396   -0.002010
  C      1.699977   -0.241052    0.000190
  C      0.896208   -1.387646    0.002005
  C     -0.471249   -1.272455    0.001830
  O      3.034290   -0.456380    0.000862
  C      3.913677    0.656282   -0.000752
  H     -2.918067    1.948988    0.880545
  H     -4.297477    1.265505   -0.002710
  H     -2.917448    1.945875   -0.887492
  H     -0.723873    2.103784   -0.003735
  H      1.686081    1.913570   -0.003597
  H      1.379096   -2.351598    0.003524
  H     -1.099056   -2.151089    0.003125
  H      4.913357    0.228515    0.001634
  H      3.773396    1.269016    0.892503
  H      3.775661    1.264470   -0.897468

 Total Charge           Charge          ....    0
 Multiplicity           Mult            ....    1
 Number of Electrons    NEL             ....   80
 Basis Dimension        Dim             ....  269

ORBITAL ENERGIES
----------------

  NO   OCC          E(Eh)            E(eV)
   0   2.0000     -19.003531      -517.1124
   1   2.0000     -18.925328      -514.9844
   2   2.0000     -10.112789      -275.1830
   3   2.0000     -10.112457      -275.1740
   4   2.0000     -10.099753      -274.8282
   5   2.0000     -10.053871      -273.5797
   6   2.0000     -10.047105      -273.3956
   7   2.0000     -10.043876      -273.3078
   8   2.0000     -10.041818      -273.2518
   9   2.0000     -10.040803      -273.2241
  10   2.0000     -10.029460      -272.9155
  11   2.0000      -1.052395       -28.6371
  12   2.0000      -0.990697       -26.9582
  13   2.0000      -0.836991       -22.7757
  14   2.0000      -0.752475       -20.4759
  15   2.0000      -0.730903       -19.8889
  16   2.0000      -0.711940       -19.3729
  17   2.0000      -0.675837       -18.3905
  18   2.0000      -0.598431       -16.2841
  19   2.0000      -0.583974       -15.8907
  20   2.0000      -0.528610       -14.3842
  21   2.0000      -0.512399       -13.9431
  22   2.0000      -0.467686       -12.7264
  23   2.0000      -0.453237       -12.3332
  24   2.0000      -0.445286       -12.1168
  25   2.0000      -0.427216       -11.6251
  26   2.0000      -0.415251       -11.2996
  27   2.0000      -0.409515       -11.1435
  28   2.0000      -0.401541       -10.9265
  29   2.0000      -0.383134       -10.4256
  30   2.0000      -0.373540       -10.1645
  31   2.0000      -0.368114       -10.0169
  32   2.0000      -0.344402        -9.3717
  33   2.0000      -0.336302        -9.1512
  34   2.0000      -0.333011        -9.0617
  35   2.0000      -0.306237        -8.3331
  36   2.0000      -0.301361        -8.2004
  37   2.0000      -0.250312        -6.8113
  38   2.0000      -0.217539        -5.9195
  39   2.0000      -0.210439        -5.7263
  40   0.0000      -0.077206        -2.1009
  41   0.0000      -0.042158        -1.1472
  42   0.0000       0.019139         0.5208
  43   0.0000       0.053922         1.4673
  44   0.0000       0.072713         1.9786

MULLIKEN ATOMIC CHARGES
-----------------------
   0 C :   -0.568163
   1 C :    0.272636
   2 O :   -0.358913
   3 C :    0.114518
   4 C :   -0.176116
   5 C :   -0.300526
   6 C :    0.377045
   7 C :   -0.315643
   8 C :   -0.167527
   9 O :   -0.176871
  10 C :   -0.329078
  11 H :    0.167803
  12 H :    0.182838
  13 H :    0.167766
  14 H :    0.145393
  15 H :    0.148669
  16 H :    0.158015
  17 H :    0.186901
  18 H :    0.158916
  19 H :    0.156124
  20 H :    0.156213
Sum of atomic charges:    0.0000000

LOEWDIN ATOMIC CHARGES
----------------------
   0 C :   -0.385007
   1 C :    0.233632
   2 O :   -0.488326
   3 C :   -0.098862
   4 C :   -0.123133
   5 C :   -0.172356
   6 C :    0.205586
   7 C :   -0.125132
   8 C :   -0.089431
   9 O :   -0.668787
  10 C :   -0.051070
  11 H :    0.171589
  12 H :    0.176584
  13 H :    0.171552
  14 H :    0.174091
  15 H :    0.175732
  16 H :    0.182948
  17 H :    0.193458
  18 H :    0.182520
  19 H :    0.167203
  20 H :    0.167211

  Mayer bond orders larger than 0.100000
B(  0-C ,  1-C ) :   0.8779 B(  0-C , 11-H ) :   0.9628 B(  0-C , 12-H ) :   0.9802
B(  0-C , 13-H ) :   0.9629 B(  1-C ,  2-O ) :   1.8961 B(  1-C ,  3-C ) :   0.9392
B(  2-O ,  3-C ) :  -0.1207 B(  2-O ,  8-C ) :   0.1003 B(  3-C ,  4-C ) :   1.4027
B(  3-C ,  8-C ) :   1.3556 B(  4-C ,  5-C ) :   1.4295 B(  4-C , 14-H ) :   0.9246
B(  5-C ,  6-C ) :   1.3425 B(  5-C , 15-H ) :   0.9122 B(  6-C ,  7-C ) :   1.3407
B(  6-C ,  9-O ) :   1.0713 B(  7-C ,  8-C ) :   1.3466 B(  7-C , 16-H ) :   0.9614
B(  8-C , 17-H ) :   0.9649 B(  9-O , 10-C ) :   0.8513 B( 10-C , 18-H ) :   0.9670
B( 10-C , 19-H ) :   0.9623 B( 10-C , 20-H ) :   0.9623

Dispersion correction           -0.007185439
FINAL SINGLE POINT ENERGY      -499.304153447262

DIPOLE MOMENT
-------------

Method             : SCF
Type of density    : Electron Density
Multiplicity       :   1
Irrep              :   0
Energy             :  -499.3065255715957846 Eh
Relativity type    :
Basis              : AO
                                X                 Y                 Z
Electronic contribution:     -1.866819273      -5.634692811       0.010004165
Nuclear contribution   :      3.347819492       6.955808369      -0.012772630
                        -----------------------------------------
Total Dipole Moment    :      1.481000219       1.321115558      -0.002768465
                        -----------------------------------------
Magnitude (a.u.)       :      1.984619770
Magnitude (Debye)      :      5.044502561

Rotational constants in cm-1:             0.110762             0.019209             0.016472
Rotational constants in MHz :          3320.548043           575.879467           493.826166

                             ****ORCA TERMINATED NORMALLY****
TOTAL RUN TIME: 0 days 0 hours 0 minutes 37 seconds 971 msec
