                         Program Version 6.0.0  -   RELEASE  -
|  1> ! r2scan-3c def2/J RI DEFGRID2 scfconv6 printgap
|  2> %output
|  3>     printlevel normal
|  4> end
|  5> %cpcm
|  6>     smd true
|  7>     smdsolvent "water"
|  8> end
|  9> * xyz 0 1
| 10> C -3.2179083908 1.3911398736 -0.0026111768
| 11> C -2.5641897108 0.0359088292 8.34437e-05
| 12> O -3.2378090924 -0.9879192679 0.002646107
| 13> C -1.092872288 -0.0167710324 -0.0001454102
| 14> C -0.2843437553 1.120016095 -0.0021155598
| 15> C 1.0920846063 1.0143964557 -0.0020100162
| 16> C 1.699976883 -0.2410516864 0.000189898
| 17> C 0.8962083469 -1.3876459999 0.0020046851
| 18> C -0.4712490906 -1.2724549579 0.0018303479
| 19> O 3.0342903733 -0.456380077 0.0008618704
| 20> C 3.9136772029 0.6562821564 -0.0007519584
| 21> H -2.9180668426 1.9489876514 0.8805452853
| 22> H -4.2974766365 1.2655054551 -0.0027095697
| 23> H -2.9174479746 1.9458749896 -0.8874918294
| 24> H -0.7238729653 2.1037836389 -0.0037351813
| 25> H 1.6860806966 1.9135697926 -0.0035969197
| 26> H 1.3790955786 -2.3515976749 0.0035239834
| 27> H -1.0990555452 -2.1510887854 0.0031252539
| 28> H 4.9133565298 0.2285148206 0.0016343744
| 29> H 3.773395996 1.269016071 0.8925030463
| 30> H 3.7756614984 1.2644695835 -0.8974682436
| 31> *
| 32>
| 33>                          ****END OF INPUT****

CARTESIAN COORDINATES (ANGSTROEM)
---------------------------------
  C     -3.217908    1.391140   -0.002611
  C     -2.564190    0.035909    0.000083
  O     -3.237809   -0.987919    0.002646
  C     -1.092872   -0.016771   -0.000145
  C     -0.284344    1.120016   -0.002116
  C      1.092085    1.014396   -0.002010
  C      1.699977   -0.241052    0.000190
  C      0.896208   -1.387646    0.002005
  C     -0.471249   -1.272455    0.001830
  O      3.034290   -0.456380    0.000862
  C      3.913677    0.656282   -0.000752
  H     -2.918067    1.948988    0.880545
  H     -4.297477    1.265505   -0.002710
  H     -2.917448    1.945875   -0.887492
  H     -0.723873    2.103784   -0.003735
  H      1.686081    1.913570   -0.003597
  H      1.379096   -2.351598    0.003524
  H     -1.099056   -2.151089    0.003125
  H      4.913357    0.228515    0.001634
  H      3.773396    1.269016    0.892503
  H      3.775661    1.264470   -0.897468

 Total Charge           Charge          ....    0
 Multiplicity           Mult            ....    1
 Number of Electrons    NEL             ....   80
 Basis Dimension        Dim             ....  269

ORBITAL ENERGIES
----------------

  NO   OCC          E(Eh)            E(eV)
   0   2.0000     -18.998833      -516.9845
   1   2.0000     -18.940436      -515.3955
   2   2.0000     -10.123479      -275.4739
   3   2.0000     -10.110562      -275.1224
   4   2.0000     -10.076207      -274.1875
   5   2.0000     -10.049309      -273.4556
   6   2.0000     -10.044038      -273.3122
   7   2.0000     -10.041422      -273.2410
   8   2.0000     -10.040504      -273.2160
   9   2.0000     -10.038384      -273.1583
  10   2.0000     -10.022193      -272.7177
  11   2.0000      -1.046439       -28.4751
  12   2.0000      -1.008152       -27.4332
  13   2.0000      -0.835485       -22.7347
  14   2.0000      -0.749079       -20.3835
  15   2.0000      -0.727940       -19.8083
  16   2.0000      -0.705259       -19.1911
  17   2.0000      -0.665605       -18.1120
  18   2.0000      -0.594991       -16.1905
  19   2.0000      -0.578080       -15.7304
  20   2.0000      -0.525345       -14.2954
  21   2.0000      -0.504259       -13.7216
  22   2.0000      -0.462842       -12.5946
  23   2.0000      -0.449976       -12.2445
  24   2.0000      -0.439186       -11.9509
  25   2.0000      -0.419412       -11.4128
  26   2.0000      -0.414233       -11.2719
  27   2.0000      -0.405128       -11.0241
  28   2.0000      -0.397847       -10.8260
  29   2.0000      -0.379308       -10.3215
  30   2.0000      -0.374380       -10.1874
  31   2.0000      -0.361262        -9.8304
  32   2.0000      -0.343280        -9.3411
  33   2.0000      -0.336420        -9.1544
  34   2.0000      -0.329746        -8.9728
  35   2.0000      -0.300520        -8.1776
  36   2.0000      -0.299907        -8.1609
  37   2.0000      -0.249561        -6.7909
  38   2.0000      -0.227349        -6.1865
  39   2.0000      -0.217266        -5.9121
  40   0.0000      -0.082495        -2.2448
  41   0.0000      -0.040419        -1.0999
  42   0.0000       0.017146         0.4666
  43   0.0000       0.068456         1.8628
  44   0.0000       0.084036         2.2867

MULLIKEN ATOMIC CHARGES
-----------------------
   0 C :   -0.588466
   1 C :    0.306532
   2 O :   -0.462744
   3 C :    0.097980
   4 C :   -0.183399
   5 C :   -0.308645
   6 C :    0.376018
   7 C :   -0.366955
   8 C :   -0.192490
   9 O :   -0.208168
  10 C :   -0.339518
  11 H :    0.199518
  12 H :    0.183943
  13 H :    0.199472
  14 H :    0.182885
  15 H :    0.189768
  16 H :    0.186795
  17 H :    0.196868
  18 H :    0.176894
  19 H :    0.176828
  20 H :    0.176886
Sum of atomic charges:    0.0000000

LOEWDIN ATOMIC CHARGES
----------------------
   0 C :   -0.381308
   1 C :    0.243838
   2 O :   -0.569516
   3 C :   -0.112635
   4 C :   -0.112392
   5 C :   -0.163263
   6 C :    0.203353
   7 C :   -0.133929
   8 C :   -0.105410
   9 O :   -0.684743
  10 C :   -0.045784
  11 H :    0.186389
  12 H :    0.175908
  13 H :    0.186349
  14 H :    0.189592
  15 H :    0.192599
  16 H :    0.192088
  17 H :    0.193901
  18 H :    0.189309
  19 H :    0.177829
  20 H :    0.177826

  Mayer bond orders larger than 0.100000
B(  0-C ,  1-C ) :   0.8969 B(  0-C , 11-H ) :   0.9455 B(  0-C , 12-H ) :   0.9802
B(  0-C , 13-H ) :   0.9457 B(  1-C ,  2-O ) :   1.8210 B(  1-C ,  3-C ) :   0.9633
B(  2-O ,  3-C ) :  -0.1104 B(  3-C ,  4-C ) :   1.3835 B(  3-C ,  8-C ) :   1.2772
B(  4-C ,  5-C ) :   1.4240 B(  4-C , 14-H ) :   0.9325 B(  5-C ,  6-C ) :   1.3196
B(  5-C , 15-H ) :   0.9218 B(  6-C ,  7-C ) :   1.2966 B(  6-C ,  9-O ) :   1.0635
B(  7-C ,  8-C ) :   1.3820 B(  7-C , 16-H ) :   0.9634 B(  8-C , 17-H ) :   0.9659
B(  9-O , 10-C ) :   0.8426 B( 10-C , 18-H ) :   0.9592 B( 10-C , 19-H ) :   0.9540
B( 10-C , 20-H ) :   0.9539

Dispersion correction           -0.007185439
FINAL SINGLE POINT ENERGY      -499.314564527760

DIPOLE MOMENT
-------------

Method             : SCF
Type of density    : Electron Density
Multiplicity       :   1
Irrep              :   0
Energy             :  -499.3169366520936592 Eh
Relativity type    :
Basis              : AO
                                X                 Y                 Z
Electronic contribution:     -1.242765180      -4.855101053       0.008410932
Nuclear contribution   :      3.347819492       6.955808369      -0.012772630
                        -----------------------------------------
Total Dipole Moment    :      2.105054311       2.100707316      -0.004361698
                        -----------------------------------------
Magnitude (a.u.)       :      2.973927353
Magnitude (Debye)      :      7.559122599

Rotational constants in cm-1:             0.110762             0.019209             0.016472
Rotational constants in MHz :          3320.548043           575.879467           493.826166

                             ****ORCA TERMINATED NORMALLY****
TOTAL RUN TIME: 0 days 0 hours 0 minutes 44 seconds 326 msec
