                         Program Version 6.0.0  -   RELEASE  -
|  1> ! pbe def2-sv(p) def2/J RI DEFGRID1 loosescf d4 GCP(DFT/SV(P)) printgap
|  2> %output
|  3>     printlevel normal
|  4> end
|  5> * xyz 0 1
|  6> C 2.4070454424 -0.0050319332 -0.1533887314
|  7> O 1.1607041992 0.1169415029 0.4975735676
|  8> C 0.0597846959 -0.0744811072 -0.3661404758
|  9> C -1.2347489504 0.0793280132 0.4471161641
| 10> N -2.4525210118 -0.0956132708 -0.3201966549
| 11> H 2.5271209165 -1.0051497332 -0.5847101516
| 12> H 3.1647836489 0.161939893 0.6075940873
| 13> H 2.507870462 0.7417219328 -0.9489281018
| 14> H 0.0883827792 0.6682006306 -1.1804003133
| 15> H 0.1079019217 -1.078938992 -0.8180806348
| 16> H -1.2242865124 -0.6540558576 1.2565117405
| 17> H -1.2458808635 1.0750113794 0.8959745477
| 18> H -2.4644962972 -1.0183766315 -0.741403389
| 19> H -2.4861842696 0.584273803 -1.0722728038
| 20> *
| 21>
| 22>                          ****END OF INPUT****

CARTESIAN COORDINATES (ANGSTROEM)
---------------------------------
  C      2.407045   -0.005032   -0.153389
  O      1.160704    0.116942    0.497574
  C      0.059785   -0.074481   -0.366140
  C     -1.234749    0.079328    0.447116
  N     -2.452521   -0.095613   -0.320197
  H      2.527121   -1.005150   -0.584710
  H      3.164784    0.161940    0.607594
  H      2.507870    0.741722   -0.948928
  H      0.088383    0.668201   -1.180400
  H      0.107902   -1.078939   -0.818081
  H     -1.224287   -0.654056    1.256512
  H     -1.245881    1.075011    0.895975
  H     -2.464496   -1.018377   -0.741403
  H     -2.486184    0.584274   -1.072273

 Total Charge           Charge          ....    0
 Multiplicity           Mult            ....    1
 Number of Electrons    NEL             ....   42
 Basis Dimension        Dim             ....   88

ORBITAL ENERGIES
----------------

  NO   OCC          E(Eh)            E(eV)
   0   2.0000     -18.749949      -510.2121
   1   2.0000     -13.965796      -380.0286
   2   2.0000      -9.926975      -270.1267
   3   2.0000      -9.924621      -270.0627
   4   2.0000      -9.904625      -269.5186
   5   2.0000      -0.931430       -25.3455
   6   2.0000      -0.798299       -21.7228
   7   2.0000      -0.662426       -18.0255
   8   2.0000      -0.586581       -15.9617
   9   2.0000      -0.538361       -14.6496
  10   2.0000      -0.457533       -12.4501
  11   2.0000      -0.437146       -11.8954
  12   2.0000      -0.414575       -11.2812
  13   2.0000      -0.412865       -11.2346
  14   2.0000      -0.361805        -9.8452
  15   2.0000      -0.360670        -9.8143
  16   2.0000      -0.334769        -9.1095
  17   2.0000      -0.303375        -8.2553
  18   2.0000      -0.268159        -7.2970
  19   2.0000      -0.205361        -5.5882
  20   2.0000      -0.187445        -5.1006
  21   0.0000       0.029583         0.8050
  22   0.0000       0.042457         1.1553
  23   0.0000       0.072839         1.9821
  24   0.0000       0.086070         2.3421
  25   0.0000       0.095217         2.5910

MULLIKEN ATOMIC CHARGES
-----------------------
   0 C :   -0.101320
   1 O :   -0.338358
   2 C :   -0.024233
   3 C :   -0.077806
   4 N :   -0.449166
   5 H :    0.084299
   6 H :    0.115597
   7 H :    0.084366
   8 H :    0.055890
   9 H :    0.055918
  10 H :    0.096517
  11 H :    0.096512
  12 H :    0.200901
  13 H :    0.200883
Sum of atomic charges:   -0.0000000

LOEWDIN ATOMIC CHARGES
----------------------
   0 C :   -0.206262
   1 O :   -0.184571
   2 C :   -0.136438
   3 C :   -0.191128
   4 N :   -0.400881
   5 H :    0.095669
   6 H :    0.115569
   7 H :    0.095684
   8 H :    0.086920
   9 H :    0.086929
  10 H :    0.116858
  11 H :    0.116914
  12 H :    0.202357
  13 H :    0.202379

  Mayer bond orders larger than 0.100000
B(  0-C ,  1-O ) :   1.0206 B(  0-C ,  5-H ) :   0.9431 B(  0-C ,  6-H ) :   0.9645
B(  0-C ,  7-H ) :   0.9430 B(  1-O ,  2-C ) :   1.0204 B(  2-C ,  3-C ) :   1.0801
B(  2-C ,  8-H ) :   0.9116 B(  2-C ,  9-H ) :   0.9116 B(  3-C ,  4-N ) :   1.1261
B(  3-C , 10-H ) :   0.9289 B(  3-C , 11-H ) :   0.9289 B(  4-N , 12-H ) :   0.9104
B(  4-N , 13-H ) :   0.9104

Dispersion correction           -0.007883632
FINAL SINGLE POINT ENERGY      -249.093509470610

DIPOLE MOMENT
-------------

Method             : SCF
Type of density    : Electron Density
Multiplicity       :   1
Irrep              :   0
Energy             :  -249.1545932750174472 Eh
Relativity type    :
Basis              : AO
                                X                 Y                 Z
Electronic contribution:     -0.524060232       0.337502942       1.650480748
Nuclear contribution   :      0.918673320      -0.491678078      -2.420208467
                        -----------------------------------------
Total Dipole Moment    :      0.394613087      -0.154175136      -0.769727720
                        -----------------------------------------
Magnitude (a.u.)       :      0.878618361
Magnitude (Debye)      :      2.233270392

Rotational constants in cm-1:             0.709146             0.070641             0.067392
Rotational constants in MHz :         21259.675553          2117.770821          2020.349906

                             ****ORCA TERMINATED NORMALLY****
TOTAL RUN TIME: 0 days 0 hours 0 minutes 5 seconds 873 msec
