                         Program Version 6.0.0  -   RELEASE  -
|  1> ! pbe def2-sv(p) def2/J RI DEFGRID1 loosescf d4 GCP(DFT/SV(P)) printgap
|  2> %output
|  3>     printlevel normal
|  4> end
|  5> * xyz 0 1
|  6> C 2.0161526401 -0.9158658134 -0.1769135261
|  7> C 1.6114220239 0.3928146901 0.4954264986
|  8> C 0.5839055165 1.1880099566 -0.3219647627
|  9> C -0.8563916188 1.0018133779 0.1346648387
| 10> S -1.513488743 -0.6957485539 -0.0845121024
| 11> H 2.532419607 -0.7131087139 -1.1127995972
| 12> H 1.1478482045 -1.5311581944 -0.397115035
| 13> H 2.6861634013 -1.4814020239 0.4664215544
| 14> H 2.5074121613 1.0008403802 0.632857044
| 15> H 1.2063218617 0.1875728664 1.488892123
| 16> H 0.6647469377 0.913268767 -1.3752726605
| 17> H 0.7973185985 2.2563571424 -0.2409844757
| 18> H -0.9790083363 1.2597085968 1.1854608399
| 19> H -1.5246408202 1.6218550485 -0.4632480044
| 20> H -0.8708275526 -1.242105254 0.9407524751
| 21> *
| 22>
| 23>                          ****END OF INPUT****

CARTESIAN COORDINATES (ANGSTROEM)
---------------------------------
  C      2.016153   -0.915866   -0.176914
  C      1.611422    0.392815    0.495426
  C      0.583906    1.188010   -0.321965
  C     -0.856392    1.001813    0.134665
  S     -1.513489   -0.695749   -0.084512
  H      2.532420   -0.713109   -1.112800
  H      1.147848   -1.531158   -0.397115
  H      2.686163   -1.481402    0.466422
  H      2.507412    1.000840    0.632857
  H      1.206322    0.187573    1.488892
  H      0.664747    0.913269   -1.375273
  H      0.797319    2.256357   -0.240984
  H     -0.979008    1.259709    1.185461
  H     -1.524641    1.621855   -0.463248
  H     -0.870828   -1.242105    0.940752

 Total Charge           Charge          ....    0
 Multiplicity           Mult            ....    1
 Number of Electrons    NEL             ....   50
 Basis Dimension        Dim             ....   94

ORBITAL ENERGIES
----------------

  NO   OCC          E(Eh)            E(eV)
   0   2.0000     -88.014556     -2394.9978
   1   2.0000      -9.917957      -269.8813
   2   2.0000      -9.889199      -269.0988
   3   2.0000      -9.886915      -269.0366
   4   2.0000      -9.869277      -268.5567
   5   2.0000      -7.661042      -208.4675
   6   2.0000      -5.689337      -154.8147
   7   2.0000      -5.685572      -154.7123
   8   2.0000      -5.677283      -154.4867
   9   2.0000      -0.738163       -20.0864
  10   2.0000      -0.683319       -18.5940
  11   2.0000      -0.625767       -17.0280
  12   2.0000      -0.554749       -15.0955
  13   2.0000      -0.511060       -13.9067
  14   2.0000      -0.427203       -11.6248
  15   2.0000      -0.413662       -11.2563
  16   2.0000      -0.390352       -10.6220
  17   2.0000      -0.354100        -9.6356
  18   2.0000      -0.350268        -9.5313
  19   2.0000      -0.333338        -9.0706
  20   2.0000      -0.303688        -8.2638
  21   2.0000      -0.295548        -8.0423
  22   2.0000      -0.286855        -7.8057
  23   2.0000      -0.275498        -7.4967
  24   2.0000      -0.193988        -5.2787
  25   0.0000       0.005391         0.1467
  26   0.0000       0.035696         0.9713
  27   0.0000       0.047095         1.2815
  28   0.0000       0.066710         1.8153
  29   0.0000       0.080671         2.1952

MULLIKEN ATOMIC CHARGES
-----------------------
   0 C :   -0.287964
   1 C :   -0.197276
   2 C :   -0.105706
   3 C :   -0.310936
   4 S :   -0.170513
   5 H :    0.101364
   6 H :    0.099958
   7 H :    0.098295
   8 H :    0.088558
   9 H :    0.082812
  10 H :    0.094421
  11 H :    0.086952
  12 H :    0.133206
  13 H :    0.136848
  14 H :    0.149981
Sum of atomic charges:    0.0000000

LOEWDIN ATOMIC CHARGES
----------------------
   0 C :   -0.349287
   1 C :   -0.238435
   2 C :   -0.244682
   3 C :   -0.331774
   4 S :    0.024032
   5 H :    0.117480
   6 H :    0.108856
   7 H :    0.116734
   8 H :    0.118390
   9 H :    0.109603
  10 H :    0.119903
  11 H :    0.120804
  12 H :    0.122689
  13 H :    0.127285
  14 H :    0.078400

  Mayer bond orders larger than 0.100000
B(  0-C ,  1-C ) :   1.1584 B(  0-C ,  5-H ) :   0.9533 B(  0-C ,  6-H ) :   0.9376
B(  0-C ,  7-H ) :   0.9509 B(  1-C ,  2-C ) :   1.0861 B(  1-C ,  8-H ) :   0.9304
B(  1-C ,  9-H ) :   0.9325 B(  2-C ,  3-C ) :   1.0887 B(  2-C , 10-H ) :   0.9268
B(  2-C , 11-H ) :   0.9108 B(  3-C ,  4-S ) :   1.0867 B(  3-C , 12-H ) :   0.9254
B(  3-C , 13-H ) :   0.9288 B(  4-S , 14-H ) :   0.9023

Dispersion correction           -0.011737917
FINAL SINGLE POINT ENERGY      -555.909705623161

DIPOLE MOMENT
-------------

Method             : SCF
Type of density    : Electron Density
Multiplicity       :   1
Irrep              :   0
Energy             :  -555.9613405068790826 Eh
Relativity type    :
Basis              : AO
                                X                 Y                 Z
Electronic contribution:     -7.350439775      -1.754857721      -0.752351801
Nuclear contribution   :      7.705715102       2.151112391       1.057809039
                        -----------------------------------------
Total Dipole Moment    :      0.355275327       0.396254670       0.305457238
                        -----------------------------------------
Magnitude (a.u.)       :      0.613630545
Magnitude (Debye)      :      1.559724892

Rotational constants in cm-1:             0.194248             0.080544             0.062677
Rotational constants in MHz :          5823.423154          2414.648904          1879.015335

                             ****ORCA TERMINATED NORMALLY****
TOTAL RUN TIME: 0 days 0 hours 0 minutes 5 seconds 561 msec
