                         Program Version 6.0.0  -   RELEASE  -
|  1> ! r2scan-3c def2/J RI DEFGRID2 scfconv6 printgap
|  2> %output
|  3>     printlevel normal
|  4> end
|  5> * xyz 0 1
|  6> C 2.4899582493 0.7873522475 0.333078243
|  7> C 1.2446803061 -0.0895747716 0.2329007388
|  8> C 1.4121631597 -1.1359189453 -0.8669237507
|  9> C 0.006955494 0.7709448704 -0.0400297382
| 10> C -1.2956851274 0.0325185791 0.1415034426
| 11> O -1.3974642151 -0.9782953091 0.8091125461
| 12> C -2.469984937 0.6522371735 -0.5605982052
| 13> H 2.6455288228 1.330169486 -0.5965979278
| 14> H 2.3928369838 1.506462893 1.1429166082
| 15> H 3.367651924 0.1749964768 0.5233945508
| 16> H 1.0918171397 -0.6094974342 1.1850150593
| 17> H 1.5499532564 -0.6549256347 -1.8331181791
| 18> H 0.534172752 -1.7764796898 -0.9163637581
| 19> H 2.2782230948 -1.7618041252 -0.6671170949
| 20> H 0.0487845157 1.1940147527 -1.044229014
| 21> H -0.0175408789 1.6050867507 0.6671680632
| 22> H -2.4640673352 1.730542051 -0.4347060478
| 23> H -2.3862176243 0.4348590975 -1.6237238649
| 24> H -3.3994378488 0.229923897 -0.1888505915
| 25> *
| 26>
| 27>                          ****END OF INPUT****

CARTESIAN COORDINATES (ANGSTROEM)
---------------------------------
  C      2.489958    0.787352    0.333078
  C      1.244680   -0.089575    0.232901
  C      1.412163   -1.135919   -0.866924
  C      0.006955    0.770945   -0.040030
  C     -1.295685    0.032519    0.141503
  O     -1.397464   -0.978295    0.809113
  C     -2.469985    0.652237   -0.560598
  H      2.645529    1.330169   -0.596598
  H      2.392837    1.506463    1.142917
  H      3.367652    0.174996    0.523395
  H      1.091817   -0.609497    1.185015
  H      1.549953   -0.654926   -1.833118
  H      0.534173   -1.776480   -0.916364
  H      2.278223   -1.761804   -0.667117
  H      0.048785    1.194015   -1.044229
  H     -0.017541    1.605087    0.667168
  H     -2.464067    1.730542   -0.434706
  H     -2.386218    0.434859   -1.623724
  H     -3.399438    0.229924   -0.188851

 Total Charge           Charge          ....    0
 Multiplicity           Mult            ....    1
 Number of Electrons    NEL             ....   56
 Basis Dimension        Dim             ....  198

ORBITAL ENERGIES
----------------

  NO   OCC          E(Eh)            E(eV)
   0   2.0000     -18.938146      -515.3331
   1   2.0000     -10.119552      -275.3670
   2   2.0000     -10.037832      -273.1433
   3   2.0000     -10.036545      -273.1083
   4   2.0000     -10.034404      -273.0500
   5   2.0000     -10.018240      -272.6102
   6   2.0000     -10.014234      -272.5012
   7   2.0000      -1.004107       -27.3231
   8   2.0000      -0.782901       -21.3038
   9   2.0000      -0.728920       -19.8349
  10   2.0000      -0.666657       -18.1406
  11   2.0000      -0.651506       -17.7284
  12   2.0000      -0.542731       -14.7685
  13   2.0000      -0.495586       -13.4856
  14   2.0000      -0.450196       -12.2504
  15   2.0000      -0.436883       -11.8882
  16   2.0000      -0.418923       -11.3995
  17   2.0000      -0.409146       -11.1334
  18   2.0000      -0.389039       -10.5863
  19   2.0000      -0.379365       -10.3230
  20   2.0000      -0.363982        -9.9044
  21   2.0000      -0.355923        -9.6851
  22   2.0000      -0.340604        -9.2683
  23   2.0000      -0.324669        -8.8347
  24   2.0000      -0.303434        -8.2569
  25   2.0000      -0.299604        -8.1526
  26   2.0000      -0.295964        -8.0536
  27   2.0000      -0.214609        -5.8398
  28   0.0000      -0.044821        -1.2196
  29   0.0000       0.069584         1.8935
  30   0.0000       0.099247         2.7006
  31   0.0000       0.122616         3.3366
  32   0.0000       0.127226         3.4620

MULLIKEN ATOMIC CHARGES
-----------------------
   0 C :   -0.460935
   1 C :    0.001287
   2 C :   -0.535834
   3 C :   -0.307838
   4 C :    0.296148
   5 O :   -0.357316
   6 C :   -0.524772
   7 H :    0.142010
   8 H :    0.144092
   9 H :    0.149854
  10 H :    0.165670
  11 H :    0.143499
  12 H :    0.167437
  13 H :    0.146758
  14 H :    0.155957
  15 H :    0.168871
  16 H :    0.154416
  17 H :    0.172251
  18 H :    0.178446
Sum of atomic charges:   -0.0000000

LOEWDIN ATOMIC CHARGES
----------------------
   0 C :   -0.414089
   1 C :   -0.233545
   2 C :   -0.409390
   3 C :   -0.280804
   4 C :    0.219398
   5 O :   -0.473196
   6 C :   -0.387413
   7 H :    0.152621
   8 H :    0.152181
   9 H :    0.154696
  10 H :    0.172779
  11 H :    0.150190
  12 H :    0.163887
  13 H :    0.155258
  14 H :    0.172460
  15 H :    0.185446
  16 H :    0.168100
  17 H :    0.177439
  18 H :    0.173982

  Mayer bond orders larger than 0.100000
B(  0-C ,  1-C ) :   0.8839 B(  0-C ,  7-H ) :   0.9791 B(  0-C ,  8-H ) :   0.9826
B(  0-C ,  9-H ) :   0.9784 B(  1-C ,  2-C ) :   0.9143 B(  1-C ,  3-C ) :   0.9007
B(  1-C , 10-H ) :   0.9502 B(  2-C , 11-H ) :   0.9888 B(  2-C , 12-H ) :   0.9687
B(  2-C , 13-H ) :   0.9702 B(  3-C ,  4-C ) :   0.8890 B(  3-C , 14-H ) :   0.9682
B(  3-C , 15-H ) :   0.9278 B(  4-C ,  5-O ) :   1.9434 B(  4-C ,  6-C ) :   0.9125
B(  6-C , 16-H ) :   0.9526 B(  6-C , 17-H ) :   0.9484 B(  6-C , 18-H ) :   0.9877

Dispersion correction           -0.004966339
FINAL SINGLE POINT ENERGY      -311.006013994639

DIPOLE MOMENT
-------------

Method             : SCF
Type of density    : Electron Density
Multiplicity       :   1
Irrep              :   0
Energy             :  -311.0098848543644294 Eh
Relativity type    :
Basis              : AO
                                X                 Y                 Z
Electronic contribution:     -5.151057528      -2.289569556       2.976500144
Nuclear contribution   :      5.272120470       3.178390672      -3.540089745
                        -----------------------------------------
Total Dipole Moment    :      0.121062941       0.888821117      -0.563589601
                        -----------------------------------------
Magnitude (a.u.)       :      1.059383052
Magnitude (Debye)      :      2.692737723

Rotational constants in cm-1:             0.157358             0.050078             0.045839
Rotational constants in MHz :          4717.473831          1501.309897          1374.233017

                             ****ORCA TERMINATED NORMALLY****
TOTAL RUN TIME: 0 days 0 hours 0 minutes 28 seconds 295 msec
