                         Program Version 6.0.0  -   RELEASE  -
|  1> ! r2scan-3c def2/J RI DEFGRID2 scfconv6 printgap
|  2> %output
|  3>     printlevel normal
|  4> end
|  5> %cpcm
|  6>     smd true
|  7>     smdsolvent "water"
|  8> end
|  9> * xyz 0 1
| 10> C 2.4899582493 0.7873522475 0.333078243
| 11> C 1.2446803061 -0.0895747716 0.2329007388
| 12> C 1.4121631597 -1.1359189453 -0.8669237507
| 13> C 0.006955494 0.7709448704 -0.0400297382
| 14> C -1.2956851274 0.0325185791 0.1415034426
| 15> O -1.3974642151 -0.9782953091 0.8091125461
| 16> C -2.469984937 0.6522371735 -0.5605982052
| 17> H 2.6455288228 1.330169486 -0.5965979278
| 18> H 2.3928369838 1.506462893 1.1429166082
| 19> H 3.367651924 0.1749964768 0.5233945508
| 20> H 1.0918171397 -0.6094974342 1.1850150593
| 21> H 1.5499532564 -0.6549256347 -1.8331181791
| 22> H 0.534172752 -1.7764796898 -0.9163637581
| 23> H 2.2782230948 -1.7618041252 -0.6671170949
| 24> H 0.0487845157 1.1940147527 -1.044229014
| 25> H -0.0175408789 1.6050867507 0.6671680632
| 26> H -2.4640673352 1.730542051 -0.4347060478
| 27> H -2.3862176243 0.4348590975 -1.6237238649
| 28> H -3.3994378488 0.229923897 -0.1888505915
| 29> *
| 30>
| 31>                          ****END OF INPUT****

CARTESIAN COORDINATES (ANGSTROEM)
---------------------------------
  C      2.489958    0.787352    0.333078
  C      1.244680   -0.089575    0.232901
  C      1.412163   -1.135919   -0.866924
  C      0.006955    0.770945   -0.040030
  C     -1.295685    0.032519    0.141503
  O     -1.397464   -0.978295    0.809113
  C     -2.469985    0.652237   -0.560598
  H      2.645529    1.330169   -0.596598
  H      2.392837    1.506463    1.142917
  H      3.367652    0.174996    0.523395
  H      1.091817   -0.609497    1.185015
  H      1.549953   -0.654926   -1.833118
  H      0.534173   -1.776480   -0.916364
  H      2.278223   -1.761804   -0.667117
  H      0.048785    1.194015   -1.044229
  H     -0.017541    1.605087    0.667168
  H     -2.464067    1.730542   -0.434706
  H     -2.386218    0.434859   -1.623724
  H     -3.399438    0.229924   -0.188851

 Total Charge           Charge          ....    0
 Multiplicity           Mult            ....    1
 Number of Electrons    NEL             ....   56
 Basis Dimension        Dim             ....  198

ORBITAL ENERGIES
----------------

  NO   OCC          E(Eh)            E(eV)
   0   2.0000     -18.945837      -515.5424
   1   2.0000     -10.124175      -275.4928
   2   2.0000     -10.029540      -272.9176
   3   2.0000     -10.026111      -272.8244
   4   2.0000     -10.021747      -272.7056
   5   2.0000     -10.007927      -272.3295
   6   2.0000     -10.007373      -272.3145
   7   2.0000      -1.014375       -27.6025
   8   2.0000      -0.774581       -21.0774
   9   2.0000      -0.719974       -19.5915
  10   2.0000      -0.656544       -17.8655
  11   2.0000      -0.643605       -17.5134
  12   2.0000      -0.535395       -14.5688
  13   2.0000      -0.492350       -13.3975
  14   2.0000      -0.443636       -12.0719
  15   2.0000      -0.432495       -11.7688
  16   2.0000      -0.417580       -11.3629
  17   2.0000      -0.401868       -10.9354
  18   2.0000      -0.382868       -10.4184
  19   2.0000      -0.368293       -10.0218
  20   2.0000      -0.357483        -9.7276
  21   2.0000      -0.347149        -9.4464
  22   2.0000      -0.333137        -9.0651
  23   2.0000      -0.326206        -8.8765
  24   2.0000      -0.297101        -8.0845
  25   2.0000      -0.291697        -7.9375
  26   2.0000      -0.288062        -7.8386
  27   2.0000      -0.222922        -6.0660
  28   0.0000      -0.045464        -1.2371
  29   0.0000       0.080015         2.1773
  30   0.0000       0.113351         3.0844
  31   0.0000       0.134009         3.6466
  32   0.0000       0.139201         3.7878

MULLIKEN ATOMIC CHARGES
-----------------------
   0 C :   -0.512388
   1 C :    0.006057
   2 C :   -0.562183
   3 C :   -0.309847
   4 C :    0.334176
   5 O :   -0.461669
   6 C :   -0.558075
   7 H :    0.158259
   8 H :    0.158719
   9 H :    0.160060
  10 H :    0.153903
  11 H :    0.162473
  12 H :    0.161489
  13 H :    0.159641
  14 H :    0.183021
  15 H :    0.199758
  16 H :    0.184494
  17 H :    0.202745
  18 H :    0.179366
Sum of atomic charges:   -0.0000000

LOEWDIN ATOMIC CHARGES
----------------------
   0 C :   -0.420433
   1 C :   -0.233134
   2 C :   -0.417396
   3 C :   -0.274321
   4 C :    0.238623
   5 O :   -0.549447
   6 C :   -0.384928
   7 H :    0.157419
   8 H :    0.156530
   9 H :    0.156376
  10 H :    0.166261
  11 H :    0.157318
  12 H :    0.160107
  13 H :    0.156943
  14 H :    0.185398
  15 H :    0.198540
  16 H :    0.181726
  17 H :    0.190998
  18 H :    0.173419

  Mayer bond orders larger than 0.100000
B(  0-C ,  1-C ) :   0.8829 B(  0-C ,  7-H ) :   0.9788 B(  0-C ,  8-H ) :   0.9779
B(  0-C ,  9-H ) :   0.9767 B(  1-C ,  2-C ) :   0.9133 B(  1-C ,  3-C ) :   0.8841
B(  1-C , 10-H ) :   0.9585 B(  2-C , 11-H ) :   0.9830 B(  2-C , 12-H ) :   0.9679
B(  2-C , 13-H ) :   0.9705 B(  3-C ,  4-C ) :   0.9080 B(  3-C , 14-H ) :   0.9552
B(  3-C , 15-H ) :   0.9176 B(  4-C ,  5-O ) :   1.8688 B(  4-C ,  6-C ) :   0.9336
B(  6-C , 16-H ) :   0.9409 B(  6-C , 17-H ) :   0.9330 B(  6-C , 18-H ) :   0.9837

Dispersion correction           -0.004966339
FINAL SINGLE POINT ENERGY      -311.011824500748

DIPOLE MOMENT
-------------

Method             : SCF
Type of density    : Electron Density
Multiplicity       :   1
Irrep              :   0
Energy             :  -311.0156953604740124 Eh
Relativity type    :
Basis              : AO
                                X                 Y                 Z
Electronic contribution:     -5.090249330      -1.775264470       2.652598276
Nuclear contribution   :      5.272120470       3.178390672      -3.540089745
                        -----------------------------------------
Total Dipole Moment    :      0.181871139       1.403126202      -0.887491469
                        -----------------------------------------
Magnitude (a.u.)       :      1.670174050
Magnitude (Debye)      :      4.245245061

Rotational constants in cm-1:             0.157358             0.050078             0.045839
Rotational constants in MHz :          4717.473831          1501.309897          1374.233017

                             ****ORCA TERMINATED NORMALLY****
TOTAL RUN TIME: 0 days 0 hours 0 minutes 32 seconds 387 msec
