                         Program Version 6.0.0  -   RELEASE  -
|  1> ! pbe def2-sv(p) def2/J RI DEFGRID1 loosescf d4 GCP(DFT/SV(P)) printgap
|  2> %output
|  3>     printlevel normal
|  4> end
|  5> * xyz 0 1
|  6> C -2.9575027223 2.2249629727 -0.0532306066
|  7> O -2.6219018709 0.8454254877 0.0010907484
|  8> C -1.3310761413 0.4331551827 -0.0097758693
|  9> C -1.1464005918 -0.9554074479 0.0269535736
| 10> C 0.1026316052 -1.5309296198 0.0107712259
| 11> C 1.2327173854 -0.7258484285 -0.0361276956
| 12> C 1.1085559101 0.6573965769 -0.0473979834
| 13> C -0.1843932226 1.231457049 -0.0432128958
| 14> O -0.2765453626 2.5853204115 -0.0745229564
| 15> O 2.0911479669 1.6059292878 -0.0905154029
| 16> C 3.4071405454 1.3419580366 0.3737711738
| 17> Cl 2.7568814989 -1.5607178328 -0.1169588385
| 18> Cl -2.5522618292 -1.9588597436 0.0812142408
| 19> H -2.5731104075 2.7594945316 0.8153523662
| 20> H -4.0453244379 2.2390042863 -0.0481515246
| 21> H -2.5820988255 2.6871585912 -0.9661092837
| 22> H 0.2030745858 -2.6026528842 0.025807193
| 23> H 0.6240981938 2.9573981875 -0.0832230607
| 24> H 3.8498342814 2.3245891787 0.5255870118
| 25> H 3.9874743968 0.7925097005 -0.3677285596
| 26> H 3.3927851411 0.7935121786 1.3157158806
| 27> *
| 28>
| 29>                          ****END OF INPUT****

CARTESIAN COORDINATES (ANGSTROEM)
---------------------------------
  C     -2.957503    2.224963   -0.053231
  O     -2.621902    0.845425    0.001091
  C     -1.331076    0.433155   -0.009776
  C     -1.146401   -0.955407    0.026954
  C      0.102632   -1.530930    0.010771
  C      1.232717   -0.725848   -0.036128
  C      1.108556    0.657397   -0.047398
  C     -0.184393    1.231457   -0.043213
  O     -0.276545    2.585320   -0.074523
  O      2.091148    1.605929   -0.090515
  C      3.407141    1.341958    0.373771
  Cl     2.756881   -1.560718   -0.116959
  Cl    -2.552262   -1.958860    0.081214
  H     -2.573110    2.759495    0.815352
  H     -4.045324    2.239004   -0.048152
  H     -2.582099    2.687159   -0.966109
  H      0.203075   -2.602653    0.025807
  H      0.624098    2.957398   -0.083223
  H      3.849834    2.324589    0.525587
  H      3.987474    0.792510   -0.367729
  H      3.392785    0.793512    1.315716

 Total Charge           Charge          ....    0
 Multiplicity           Mult            ....    1
 Number of Electrons    NEL             ....  114
 Basis Dimension        Dim             ....  206

ORBITAL ENERGIES
----------------

  NO   OCC          E(Eh)            E(eV)
   0   2.0000    -100.646205     -2738.7225
   1   2.0000    -100.631148     -2738.3128
   2   2.0000     -18.809894      -511.8433
   3   2.0000     -18.789665      -511.2928
   4   2.0000     -18.788892      -511.2718
   5   2.0000      -9.966719      -271.2082
   6   2.0000      -9.963700      -271.1260
   7   2.0000      -9.961065      -271.0543
   8   2.0000      -9.951448      -270.7927
   9   2.0000      -9.949791      -270.7476
  10   2.0000      -9.943027      -270.5635
  11   2.0000      -9.932266      -270.2707
  12   2.0000      -9.899594      -269.3816
  13   2.0000      -9.181548      -249.8426
  14   2.0000      -9.166674      -249.4379
  15   2.0000      -7.013079      -190.8356
  16   2.0000      -7.001295      -190.5149
  17   2.0000      -7.001034      -190.5078
  18   2.0000      -6.998230      -190.4315
  19   2.0000      -6.986658      -190.1166
  20   2.0000      -6.985895      -190.0959
  21   2.0000      -0.997121       -27.1330
  22   2.0000      -0.973973       -26.5031
  23   2.0000      -0.956990       -26.0410
  24   2.0000      -0.818946       -22.2847
  25   2.0000      -0.791736       -21.5442
  26   2.0000      -0.746870       -20.3234
  27   2.0000      -0.689680       -18.7671
  28   2.0000      -0.676878       -18.4188
  29   2.0000      -0.638585       -17.3768
  30   2.0000      -0.611826       -16.6486
  31   2.0000      -0.565604       -15.3909
  32   2.0000      -0.542022       -14.7492
  33   2.0000      -0.509427       -13.8622
  34   2.0000      -0.489301       -13.3146
  35   2.0000      -0.467641       -12.7252
  36   2.0000      -0.449799       -12.2397
  37   2.0000      -0.436641       -11.8816
  38   2.0000      -0.423056       -11.5119
  39   2.0000      -0.418965       -11.4006
  40   2.0000      -0.411253       -11.1908
  41   2.0000      -0.384822       -10.4715
  42   2.0000      -0.377213       -10.2645
  43   2.0000      -0.375305       -10.2126
  44   2.0000      -0.357246        -9.7212
  45   2.0000      -0.338626        -9.2145
  46   2.0000      -0.333826        -9.0839
  47   2.0000      -0.327138        -8.9019
  48   2.0000      -0.318015        -8.6536
  49   2.0000      -0.295449        -8.0396
  50   2.0000      -0.283837        -7.7236
  51   2.0000      -0.282443        -7.6857
  52   2.0000      -0.267564        -7.2808
  53   2.0000      -0.253948        -6.9103
  54   2.0000      -0.245584        -6.6827
  55   2.0000      -0.187981        -5.1152
  56   2.0000      -0.180548        -4.9130
  57   0.0000      -0.030382        -0.8267
  58   0.0000      -0.027275        -0.7422
  59   0.0000      -0.013253        -0.3606
  60   0.0000       0.027658         0.7526
  61   0.0000       0.038489         1.0473

MULLIKEN ATOMIC CHARGES
-----------------------
   0 C :   -0.093620
   1 O :   -0.250995
   2 C :    0.152107
   3 C :    0.054451
   4 C :   -0.178220
   5 C :    0.007062
   6 C :    0.174344
   7 C :   -0.013808
   8 O :   -0.344310
   9 O :   -0.321178
  10 C :   -0.106459
  11 Cl:   -0.079373
  12 Cl:   -0.063067
  13 H :    0.113246
  14 H :    0.119002
  15 H :    0.113962
  16 H :    0.030681
  17 H :    0.323435
  18 H :    0.118272
  19 H :    0.124940
  20 H :    0.119528
Sum of atomic charges:   -0.0000000

LOEWDIN ATOMIC CHARGES
----------------------
   0 C :   -0.199533
   1 O :   -0.084748
   2 C :   -0.011863
   3 C :   -0.159506
   4 C :   -0.174257
   5 C :   -0.179421
   6 C :   -0.023538
   7 C :   -0.017141
   8 O :   -0.231590
   9 O :   -0.108563
  10 C :   -0.209922
  11 Cl:    0.142381
  12 Cl:    0.140890
  13 H :    0.112731
  14 H :    0.117616
  15 H :    0.113233
  16 H :    0.136343
  17 H :    0.295619
  18 H :    0.118011
  19 H :    0.109688
  20 H :    0.113571

  Mayer bond orders larger than 0.100000
B(  0-C ,  1-O ) :   0.9533 B(  0-C , 13-H ) :   0.9513 B(  0-C , 14-H ) :   0.9565
B(  0-C , 15-H ) :   0.9512 B(  1-O ,  2-C ) :   1.2489 B(  2-C ,  3-C ) :   1.3588
B(  2-C ,  7-C ) :   1.3119 B(  3-C ,  4-C ) :   1.3874 B(  3-C , 12-Cl) :   0.9836
B(  4-C ,  5-C ) :   1.2852 B(  4-C , 16-H ) :   0.9889 B(  5-C ,  6-C ) :   1.3811
B(  5-C , 11-Cl) :   0.9590 B(  6-C ,  7-C ) :   1.2570 B(  6-C ,  9-O ) :   1.1014
B(  7-C ,  8-O ) :   1.2378 B(  8-O , 17-H ) :   0.8005 B(  9-O , 10-C ) :   0.9437
B( 10-C , 18-H ) :   0.9547 B( 10-C , 19-H ) :   0.9455 B( 10-C , 20-H ) :   0.9471

Dispersion correction           -0.027588054
FINAL SINGLE POINT ENERGY     -1453.921754172250

DIPOLE MOMENT
-------------

Method             : SCF
Type of density    : Electron Density
Multiplicity       :   1
Irrep              :   0
Energy             : -1453.9922094108774218 Eh
Relativity type    :
Basis              : AO
                                X                 Y                 Z
Electronic contribution:     -1.529403752     -14.883165464      -1.008712670
Nuclear contribution   :      2.393524752      16.010669271       1.187543174
                        -----------------------------------------
Total Dipole Moment    :      0.864121001       1.127503807       0.178830504
                        -----------------------------------------
Magnitude (a.u.)       :      1.431764746
Magnitude (Debye)      :      3.639256767

Rotational constants in cm-1:             0.028911             0.015666             0.010241
Rotational constants in MHz :           866.721231           469.652229           307.007026

                             ****ORCA TERMINATED NORMALLY****
TOTAL RUN TIME: 0 days 0 hours 0 minutes 17 seconds 46 msec
