                         Program Version 6.0.0  -   RELEASE  -
|  1> ! r2scan-3c def2/J RI DEFGRID2 scfconv6 printgap
|  2> %output
|  3>     printlevel normal
|  4> end
|  5> * xyz 0 1
|  6> C 2.7088778091 -0.3897056615 0.2450384869
|  7> C 1.3704319876 -0.612983992 -0.4494521605
|  8> C 0.2465250296 0.1894740899 0.2143635788
|  9> H 0.2638625711 -0.003114571 1.2992056816
| 10> C -1.1470852618 -0.2022202433 -0.3298931956
| 11> C -1.5647018581 -1.5808284392 0.1783407065
| 12> C -2.2068563714 0.8260858928 0.0715440416
| 13> O 0.5461094927 1.5571842315 -0.0214305241
| 14> H 3.4989733075 -0.9232124228 -0.2766236655
| 15> H 2.6686804085 -0.7450237454 1.272425239
| 16> H 2.948785628 0.670447588 0.2527439227
| 17> H 1.4403075471 -0.2862847981 -1.488471138
| 18> H 1.1235065456 -1.6732545243 -0.4343738501
| 19> H -1.0842088972 -0.2243289101 -1.4231281212
| 20> H -2.5512186873 -1.8319608704 -0.2030910833
| 21> H -0.8729733575 -2.3538596363 -0.1428134434
| 22> H -1.6055325996 -1.5846709877 1.2655394794
| 23> H -2.2445755812 0.9317162699 1.1543628079
| 24> H -3.1850474984 0.4993248418 -0.2722459006
| 25> H -2.0006415853 1.793789068 -0.3783575111
| 26> H -0.0044414061 2.106659318 0.5498932425
| 27> *
| 28>
| 29>                          ****END OF INPUT****

CARTESIAN COORDINATES (ANGSTROEM)
---------------------------------
  C      2.708878   -0.389706    0.245038
  C      1.370432   -0.612984   -0.449452
  C      0.246525    0.189474    0.214364
  H      0.263863   -0.003115    1.299206
  C     -1.147085   -0.202220   -0.329893
  C     -1.564702   -1.580828    0.178341
  C     -2.206856    0.826086    0.071544
  O      0.546109    1.557184   -0.021431
  H      3.498973   -0.923212   -0.276624
  H      2.668680   -0.745024    1.272425
  H      2.948786    0.670448    0.252744
  H      1.440308   -0.286285   -1.488471
  H      1.123507   -1.673255   -0.434374
  H     -1.084209   -0.224329   -1.423128
  H     -2.551219   -1.831961   -0.203091
  H     -0.872973   -2.353860   -0.142813
  H     -1.605533   -1.584671    1.265539
  H     -2.244576    0.931716    1.154363
  H     -3.185047    0.499325   -0.272246
  H     -2.000642    1.793789   -0.378358
  H     -0.004441    2.106659    0.549893

 Total Charge           Charge          ....    0
 Multiplicity           Mult            ....    1
 Number of Electrons    NEL             ....   58
 Basis Dimension        Dim             ....  208

ORBITAL ENERGIES
----------------

  NO   OCC          E(Eh)            E(eV)
   0   2.0000     -18.944379      -515.5028
   1   2.0000     -10.076540      -274.1966
   2   2.0000     -10.032910      -273.0094
   3   2.0000     -10.021151      -272.6894
   4   2.0000     -10.020000      -272.6581
   5   2.0000     -10.018936      -272.6291
   6   2.0000     -10.009117      -272.3619
   7   2.0000      -0.982916       -26.7465
   8   2.0000      -0.772395       -21.0179
   9   2.0000      -0.730106       -19.8672
  10   2.0000      -0.653438       -17.7809
  11   2.0000      -0.635810       -17.3013
  12   2.0000      -0.556527       -15.1439
  13   2.0000      -0.530735       -14.4420
  14   2.0000      -0.491669       -13.3790
  15   2.0000      -0.425279       -11.5724
  16   2.0000      -0.419597       -11.4178
  17   2.0000      -0.393660       -10.7120
  18   2.0000      -0.386893       -10.5279
  19   2.0000      -0.371272       -10.1028
  20   2.0000      -0.358236        -9.7481
  21   2.0000      -0.351640        -9.5686
  22   2.0000      -0.327170        -8.9028
  23   2.0000      -0.314055        -8.5459
  24   2.0000      -0.308581        -8.3969
  25   2.0000      -0.304789        -8.2937
  26   2.0000      -0.298143        -8.1129
  27   2.0000      -0.276084        -7.5126
  28   2.0000      -0.231183        -6.2908
  29   0.0000       0.058364         1.5882
  30   0.0000       0.094138         2.5616
  31   0.0000       0.109805         2.9879
  32   0.0000       0.116515         3.1705
  33   0.0000       0.126902         3.4532

MULLIKEN ATOMIC CHARGES
-----------------------
   0 C :   -0.516008
   1 C :   -0.243841
   2 C :   -0.022379
   3 H :    0.128546
   4 C :    0.059575
   5 C :   -0.521722
   6 C :   -0.555307
   7 O :   -0.437274
   8 H :    0.144646
   9 H :    0.140720
  10 H :    0.172095
  11 H :    0.152650
  12 H :    0.129142
  13 H :    0.151565
  14 H :    0.148489
  15 H :    0.143988
  16 H :    0.150999
  17 H :    0.157852
  18 H :    0.150358
  19 H :    0.164973
  20 H :    0.300934
Sum of atomic charges:    0.0000000

LOEWDIN ATOMIC CHARGES
----------------------
   0 C :   -0.418271
   1 C :   -0.276481
   2 C :    0.061120
   3 H :    0.164634
   4 C :   -0.225090
   5 C :   -0.415202
   6 C :   -0.417493
   7 O :   -0.619367
   8 H :    0.149040
   9 H :    0.148809
  10 H :    0.163346
  11 H :    0.166275
  12 H :    0.156845
  13 H :    0.163685
  14 H :    0.154603
  15 H :    0.152351
  16 H :    0.154300
  17 H :    0.153431
  18 H :    0.156709
  19 H :    0.158026
  20 H :    0.268730

  Mayer bond orders larger than 0.100000
B(  0-C ,  1-C ) :   0.8979 B(  0-C ,  8-H ) :   0.9742 B(  0-C ,  9-H ) :   0.9865
B(  0-C , 10-H ) :   0.9793 B(  1-C ,  2-C ) :   0.9435 B(  1-C , 11-H ) :   0.9765
B(  1-C , 12-H ) :   0.9701 B(  2-C ,  3-H ) :   0.9770 B(  2-C ,  4-C ) :   0.8668
B(  2-C ,  7-O ) :   0.8530 B(  4-C ,  5-C ) :   0.8982 B(  4-C ,  6-C ) :   0.8433
B(  4-C , 13-H ) :   0.9472 B(  5-C , 14-H ) :   0.9709 B(  5-C , 15-H ) :   0.9709
B(  5-C , 16-H ) :   0.9879 B(  6-C , 17-H ) :   0.9917 B(  6-C , 18-H ) :   0.9700
B(  6-C , 19-H ) :   0.9777 B(  7-O , 20-H ) :   0.8930

Dispersion correction           -0.005551558
FINAL SINGLE POINT ENERGY      -312.203006065622

DIPOLE MOMENT
-------------

Method             : SCF
Type of density    : Electron Density
Multiplicity       :   1
Irrep              :   0
Energy             :  -312.2086714649143460 Eh
Relativity type    :
Basis              : AO
                                X                 Y                 Z
Electronic contribution:      1.075439483       3.195459393      -0.808596867
Nuclear contribution   :     -1.497200869      -3.376582270       1.102085722
                        -----------------------------------------
Total Dipole Moment    :     -0.421761387      -0.181122876       0.293488855
                        -----------------------------------------
Magnitude (a.u.)       :      0.544815447
Magnitude (Debye)      :      1.384810814

Rotational constants in cm-1:             0.133403             0.056379             0.043056
Rotational constants in MHz :          3999.316057          1690.208944          1290.789180

                             ****ORCA TERMINATED NORMALLY****
TOTAL RUN TIME: 0 days 0 hours 0 minutes 27 seconds 844 msec
