                         Program Version 6.0.0  -   RELEASE  -
|  1> ! r2scan-3c def2/J RI DEFGRID2 scfconv6 printgap
|  2> %output
|  3>     printlevel normal
|  4> end
|  5> %cpcm
|  6>     smd true
|  7>     smdsolvent "water"
|  8> end
|  9> * xyz 0 1
| 10> C 2.7088778091 -0.3897056615 0.2450384869
| 11> C 1.3704319876 -0.612983992 -0.4494521605
| 12> C 0.2465250296 0.1894740899 0.2143635788
| 13> H 0.2638625711 -0.003114571 1.2992056816
| 14> C -1.1470852618 -0.2022202433 -0.3298931956
| 15> C -1.5647018581 -1.5808284392 0.1783407065
| 16> C -2.2068563714 0.8260858928 0.0715440416
| 17> O 0.5461094927 1.5571842315 -0.0214305241
| 18> H 3.4989733075 -0.9232124228 -0.2766236655
| 19> H 2.6686804085 -0.7450237454 1.272425239
| 20> H 2.948785628 0.670447588 0.2527439227
| 21> H 1.4403075471 -0.2862847981 -1.488471138
| 22> H 1.1235065456 -1.6732545243 -0.4343738501
| 23> H -1.0842088972 -0.2243289101 -1.4231281212
| 24> H -2.5512186873 -1.8319608704 -0.2030910833
| 25> H -0.8729733575 -2.3538596363 -0.1428134434
| 26> H -1.6055325996 -1.5846709877 1.2655394794
| 27> H -2.2445755812 0.9317162699 1.1543628079
| 28> H -3.1850474984 0.4993248418 -0.2722459006
| 29> H -2.0006415853 1.793789068 -0.3783575111
| 30> H -0.0044414061 2.106659318 0.5498932425
| 31> *
| 32>
| 33>                          ****END OF INPUT****

CARTESIAN COORDINATES (ANGSTROEM)
---------------------------------
  C      2.708878   -0.389706    0.245038
  C      1.370432   -0.612984   -0.449452
  C      0.246525    0.189474    0.214364
  H      0.263863   -0.003115    1.299206
  C     -1.147085   -0.202220   -0.329893
  C     -1.564702   -1.580828    0.178341
  C     -2.206856    0.826086    0.071544
  O      0.546109    1.557184   -0.021431
  H      3.498973   -0.923212   -0.276624
  H      2.668680   -0.745024    1.272425
  H      2.948786    0.670448    0.252744
  H      1.440308   -0.286285   -1.488471
  H      1.123507   -1.673255   -0.434374
  H     -1.084209   -0.224329   -1.423128
  H     -2.551219   -1.831961   -0.203091
  H     -0.872973   -2.353860   -0.142813
  H     -1.605533   -1.584671    1.265539
  H     -2.244576    0.931716    1.154363
  H     -3.185047    0.499325   -0.272246
  H     -2.000642    1.793789   -0.378358
  H     -0.004441    2.106659    0.549893

 Total Charge           Charge          ....    0
 Multiplicity           Mult            ....    1
 Number of Electrons    NEL             ....   58
 Basis Dimension        Dim             ....  208

ORBITAL ENERGIES
----------------

  NO   OCC          E(Eh)            E(eV)
   0   2.0000     -18.947389      -515.5847
   1   2.0000     -10.071010      -274.0461
   2   2.0000     -10.024769      -272.7878
   3   2.0000     -10.016469      -272.5620
   4   2.0000     -10.007951      -272.3302
   5   2.0000     -10.007866      -272.3279
   6   2.0000     -10.007588      -272.3203
   7   2.0000      -0.984778       -26.7972
   8   2.0000      -0.764754       -20.8100
   9   2.0000      -0.725423       -19.7398
  10   2.0000      -0.643105       -17.4998
  11   2.0000      -0.631292       -17.1783
  12   2.0000      -0.551549       -15.0084
  13   2.0000      -0.524307       -14.2671
  14   2.0000      -0.487674       -13.2703
  15   2.0000      -0.419014       -11.4020
  16   2.0000      -0.410517       -11.1707
  17   2.0000      -0.391582       -10.6555
  18   2.0000      -0.382926       -10.4199
  19   2.0000      -0.364239        -9.9114
  20   2.0000      -0.347120        -9.4456
  21   2.0000      -0.344790        -9.3822
  22   2.0000      -0.325168        -8.8483
  23   2.0000      -0.310261        -8.4426
  24   2.0000      -0.304356        -8.2819
  25   2.0000      -0.296643        -8.0721
  26   2.0000      -0.292906        -7.9704
  27   2.0000      -0.272132        -7.4051
  28   2.0000      -0.233170        -6.3449
  29   0.0000       0.075098         2.0435
  30   0.0000       0.103847         2.8258
  31   0.0000       0.116332         3.1655
  32   0.0000       0.126076         3.4307
  33   0.0000       0.134013         3.6467

MULLIKEN ATOMIC CHARGES
-----------------------
   0 C :   -0.547315
   1 C :   -0.264019
   2 C :    0.001217
   3 H :    0.145099
   4 C :    0.032538
   5 C :   -0.566435
   6 C :   -0.562931
   7 O :   -0.521546
   8 H :    0.158773
   9 H :    0.158956
  10 H :    0.161399
  11 H :    0.159075
  12 H :    0.151174
  13 H :    0.157224
  14 H :    0.161675
  15 H :    0.157459
  16 H :    0.164875
  17 H :    0.171891
  18 H :    0.162409
  19 H :    0.165024
  20 H :    0.353457
Sum of atomic charges:    0.0000000

LOEWDIN ATOMIC CHARGES
----------------------
   0 C :   -0.426868
   1 C :   -0.280621
   2 C :    0.062198
   3 H :    0.173233
   4 C :   -0.223911
   5 C :   -0.421633
   6 C :   -0.421097
   7 O :   -0.654148
   8 H :    0.153031
   9 H :    0.154104
  10 H :    0.157199
  11 H :    0.165375
  12 H :    0.164766
  13 H :    0.163783
  14 H :    0.157814
  15 H :    0.155760
  16 H :    0.158206
  17 H :    0.159734
  18 H :    0.158611
  19 H :    0.158763
  20 H :    0.285701

  Mayer bond orders larger than 0.100000
B(  0-C ,  1-C ) :   0.8881 B(  0-C ,  8-H ) :   0.9715 B(  0-C ,  9-H ) :   0.9832
B(  0-C , 10-H ) :   0.9806 B(  1-C ,  2-C ) :   0.9341 B(  1-C , 11-H ) :   0.9781
B(  1-C , 12-H ) :   0.9641 B(  2-C ,  3-H ) :   0.9676 B(  2-C ,  4-C ) :   0.8850
B(  2-C ,  7-O ) :   0.8353 B(  4-C ,  5-C ) :   0.8938 B(  4-C ,  6-C ) :   0.8624
B(  4-C , 13-H ) :   0.9511 B(  5-C , 14-H ) :   0.9686 B(  5-C , 15-H ) :   0.9673
B(  5-C , 16-H ) :   0.9859 B(  6-C , 17-H ) :   0.9841 B(  6-C , 18-H ) :   0.9710
B(  6-C , 19-H ) :   0.9715 B(  7-O , 20-H ) :   0.8672

Dispersion correction           -0.005551558
FINAL SINGLE POINT ENERGY      -312.207925934167

DIPOLE MOMENT
-------------

Method             : SCF
Type of density    : Electron Density
Multiplicity       :   1
Irrep              :   0
Energy             :  -312.2135913334593624 Eh
Relativity type    :
Basis              : AO
                                X                 Y                 Z
Electronic contribution:      0.893973775       3.058249908      -0.608829410
Nuclear contribution   :     -1.497200869      -3.376582270       1.102085722
                        -----------------------------------------
Total Dipole Moment    :     -0.603227094      -0.318332362       0.493256312
                        -----------------------------------------
Magnitude (a.u.)       :      0.841736425
Magnitude (Debye)      :      2.139523961

Rotational constants in cm-1:             0.133403             0.056379             0.043056
Rotational constants in MHz :          3999.316057          1690.208944          1290.789180

                             ****ORCA TERMINATED NORMALLY****
TOTAL RUN TIME: 0 days 0 hours 0 minutes 33 seconds 123 msec
