                         Program Version 6.0.0  -   RELEASE  -
|  1> ! r2scan-3c def2/J RI DEFGRID2 scfconv6 printgap
|  2> %output
|  3>     printlevel normal
|  4> end
|  5> * xyz 0 1
|  6> C 1.7771037401 1.3089611032 0.7407430826
|  7> C 1.2766317056 -0.1199794109 0.4877271797
|  8> C 2.3283213898 -0.9381014506 -0.2556184928
|  9> C -4.99961e-05 0.0008577323 -0.3221452057
| 10> O -3.34349e-05 0.003412956 -1.5357640774
| 11> C -1.2767244491 0.1183042581 0.4881974166
| 12> C -1.7762999873 -1.3117593828 0.7366621482
| 13> C -2.328967998 0.9381933268 -0.252402718
| 14> H 1.9863425901 1.8010822919 -0.2065670874
| 15> H 2.6907503845 1.278962912 1.3278738007
| 16> H 1.0345651958 1.8930796384 1.2784928942
| 17> H 1.0488049974 -0.5886208925 1.4487570223
| 18> H 2.5022663971 -0.5094847487 -1.2399293215
| 19> H 3.263186402 -0.9454585056 0.2976590861
| 20> H 1.9887249859 -1.9629086016 -0.3874475537
| 21> H -1.049070398 0.5840071504 1.4507023452
| 22> H -1.0336689562 -1.8969794106 1.2730774695
| 23> H -2.6902979573 -1.2841577491 1.3233589319
| 24> H -1.9846682745 -1.8011934174 -0.2122365412
| 25> H -1.989367614 1.9632470439 -0.3823051912
| 26> H -2.5039012567 0.5117893453 -1.2374944117
| 27> H -3.2633074134 0.9444506014 0.3017645338
| 28> *
| 29>
| 30>                          ****END OF INPUT****

CARTESIAN COORDINATES (ANGSTROEM)
---------------------------------
  C      1.777104    1.308961    0.740743
  C      1.276632   -0.119979    0.487727
  C      2.328321   -0.938101   -0.255618
  C     -0.000050    0.000858   -0.322145
  O     -0.000033    0.003413   -1.535764
  C     -1.276724    0.118304    0.488197
  C     -1.776300   -1.311759    0.736662
  C     -2.328968    0.938193   -0.252403
  H      1.986343    1.801082   -0.206567
  H      2.690750    1.278963    1.327874
  H      1.034565    1.893080    1.278493
  H      1.048805   -0.588621    1.448757
  H      2.502266   -0.509485   -1.239929
  H      3.263186   -0.945459    0.297659
  H      1.988725   -1.962909   -0.387448
  H     -1.049070    0.584007    1.450702
  H     -1.033669   -1.896979    1.273077
  H     -2.690298   -1.284158    1.323359
  H     -1.984668   -1.801193   -0.212237
  H     -1.989368    1.963247   -0.382305
  H     -2.503901    0.511789   -1.237494
  H     -3.263307    0.944451    0.301765

 Total Charge           Charge          ....    0
 Multiplicity           Mult            ....    1
 Number of Electrons    NEL             ....   64
 Basis Dimension        Dim             ....  227

ORBITAL ENERGIES
----------------

  NO   OCC          E(Eh)            E(eV)
   0   2.0000     -18.935216      -515.2534
   1   2.0000     -10.110767      -275.1280
   2   2.0000     -10.045326      -273.3472
   3   2.0000     -10.045318      -273.3470
   4   2.0000     -10.032267      -272.9919
   5   2.0000     -10.032255      -272.9915
   6   2.0000     -10.018205      -272.6092
   7   2.0000     -10.018202      -272.6091
   8   2.0000      -1.003274       -27.3005
   9   2.0000      -0.784891       -21.3580
  10   2.0000      -0.761014       -20.7082
  11   2.0000      -0.660569       -17.9750
  12   2.0000      -0.656718       -17.8702
  13   2.0000      -0.623176       -16.9575
  14   2.0000      -0.554222       -15.0811
  15   2.0000      -0.484650       -13.1880
  16   2.0000      -0.465594       -12.6695
  17   2.0000      -0.431398       -11.7389
  18   2.0000      -0.416395       -11.3307
  19   2.0000      -0.402935       -10.9644
  20   2.0000      -0.400458       -10.8970
  21   2.0000      -0.376155       -10.2357
  22   2.0000      -0.363844        -9.9007
  23   2.0000      -0.357947        -9.7402
  24   2.0000      -0.350455        -9.5364
  25   2.0000      -0.335476        -9.1288
  26   2.0000      -0.329785        -8.9739
  27   2.0000      -0.315310        -8.5800
  28   2.0000      -0.310848        -8.4586
  29   2.0000      -0.308326        -8.3900
  30   2.0000      -0.304859        -8.2956
  31   2.0000      -0.208588        -5.6760
  32   0.0000      -0.044341        -1.2066
  33   0.0000       0.060254         1.6396
  34   0.0000       0.105327         2.8661
  35   0.0000       0.106826         2.9069
  36   0.0000       0.113453         3.0872

MULLIKEN ATOMIC CHARGES
-----------------------
   0 C :   -0.491307
   1 C :   -0.049720
   2 C :   -0.487867
   3 C :    0.235468
   4 O :   -0.365259
   5 C :   -0.049606
   6 C :   -0.491267
   7 C :   -0.487758
   8 H :    0.172375
   9 H :    0.156764
  10 H :    0.144883
  11 H :    0.152465
  12 H :    0.174533
  13 H :    0.144920
  14 H :    0.147768
  15 H :    0.152453
  16 H :    0.144892
  17 H :    0.156751
  18 H :    0.172385
  19 H :    0.147775
  20 H :    0.174417
  21 H :    0.144936
Sum of atomic charges:   -0.0000000

LOEWDIN ATOMIC CHARGES
----------------------
   0 C :   -0.386717
   1 C :   -0.222812
   2 C :   -0.395669
   3 C :    0.232765
   4 O :   -0.467243
   5 C :   -0.222800
   6 C :   -0.386721
   7 C :   -0.395672
   8 H :    0.164100
   9 H :    0.157113
  10 H :    0.155576
  11 H :    0.164498
  12 H :    0.170684
  13 H :    0.152067
  14 H :    0.158396
  15 H :    0.164518
  16 H :    0.155573
  17 H :    0.157124
  18 H :    0.164092
  19 H :    0.158420
  20 H :    0.170649
  21 H :    0.152060

  Mayer bond orders larger than 0.100000
B(  0-C ,  1-C ) :   0.8962 B(  0-C ,  8-H ) :   0.9838 B(  0-C ,  9-H ) :   0.9727
B(  0-C , 10-H ) :   0.9634 B(  1-C ,  2-C ) :   0.9207 B(  1-C ,  3-C ) :   0.8779
B(  1-C , 11-H ) :   0.9359 B(  2-C , 12-H ) :   0.9741 B(  2-C , 13-H ) :   0.9789
B(  2-C , 14-H ) :   0.9751 B(  3-C ,  4-O ) :   1.9343 B(  3-C ,  5-C ) :   0.8779
B(  5-C ,  6-C ) :   0.8961 B(  5-C ,  7-C ) :   0.9208 B(  5-C , 15-H ) :   0.9358
B(  6-C , 16-H ) :   0.9634 B(  6-C , 17-H ) :   0.9727 B(  6-C , 18-H ) :   0.9838
B(  7-C , 19-H ) :   0.9752 B(  7-C , 20-H ) :   0.9741 B(  7-C , 21-H ) :   0.9789

Dispersion correction           -0.006389173
FINAL SINGLE POINT ENERGY      -350.305636682329

DIPOLE MOMENT
-------------

Method             : SCF
Type of density    : Electron Density
Multiplicity       :   1
Irrep              :   0
Energy             :  -350.3095450812735407 Eh
Relativity type    :
Basis              : AO
                                X                 Y                 Z
Electronic contribution:     -0.000393980       0.009130795      -3.635202356
Nuclear contribution   :      0.000336383      -0.011380290       4.701538986
                        -----------------------------------------
Total Dipole Moment    :     -0.000057598      -0.002249495       1.066336630
                        -----------------------------------------
Magnitude (a.u.)       :      1.066339004
Magnitude (Debye)      :      2.710418349

Rotational constants in cm-1:             0.102359             0.043412             0.041640
Rotational constants in MHz :          3068.648694          1301.461821          1248.331810

                             ****ORCA TERMINATED NORMALLY****
TOTAL RUN TIME: 0 days 0 hours 0 minutes 38 seconds 586 msec
