                         Program Version 6.0.0  -   RELEASE  -
|  1> ! r2scan-3c def2/J RI DEFGRID2 scfconv6 printgap
|  2> %output
|  3>     printlevel normal
|  4> end
|  5> %cpcm
|  6>     smd true
|  7>     smdsolvent "water"
|  8> end
|  9> * xyz 0 1
| 10> C 1.7771037401 1.3089611032 0.7407430826
| 11> C 1.2766317056 -0.1199794109 0.4877271797
| 12> C 2.3283213898 -0.9381014506 -0.2556184928
| 13> C -4.99961e-05 0.0008577323 -0.3221452057
| 14> O -3.34349e-05 0.003412956 -1.5357640774
| 15> C -1.2767244491 0.1183042581 0.4881974166
| 16> C -1.7762999873 -1.3117593828 0.7366621482
| 17> C -2.328967998 0.9381933268 -0.252402718
| 18> H 1.9863425901 1.8010822919 -0.2065670874
| 19> H 2.6907503845 1.278962912 1.3278738007
| 20> H 1.0345651958 1.8930796384 1.2784928942
| 21> H 1.0488049974 -0.5886208925 1.4487570223
| 22> H 2.5022663971 -0.5094847487 -1.2399293215
| 23> H 3.263186402 -0.9454585056 0.2976590861
| 24> H 1.9887249859 -1.9629086016 -0.3874475537
| 25> H -1.049070398 0.5840071504 1.4507023452
| 26> H -1.0336689562 -1.8969794106 1.2730774695
| 27> H -2.6902979573 -1.2841577491 1.3233589319
| 28> H -1.9846682745 -1.8011934174 -0.2122365412
| 29> H -1.989367614 1.9632470439 -0.3823051912
| 30> H -2.5039012567 0.5117893453 -1.2374944117
| 31> H -3.2633074134 0.9444506014 0.3017645338
| 32> *
| 33>
| 34>                          ****END OF INPUT****

CARTESIAN COORDINATES (ANGSTROEM)
---------------------------------
  C      1.777104    1.308961    0.740743
  C      1.276632   -0.119979    0.487727
  C      2.328321   -0.938101   -0.255618
  C     -0.000050    0.000858   -0.322145
  O     -0.000033    0.003413   -1.535764
  C     -1.276724    0.118304    0.488197
  C     -1.776300   -1.311759    0.736662
  C     -2.328968    0.938193   -0.252403
  H      1.986343    1.801082   -0.206567
  H      2.690750    1.278963    1.327874
  H      1.034565    1.893080    1.278493
  H      1.048805   -0.588621    1.448757
  H      2.502266   -0.509485   -1.239929
  H      3.263186   -0.945459    0.297659
  H      1.988725   -1.962909   -0.387448
  H     -1.049070    0.584007    1.450702
  H     -1.033669   -1.896979    1.273077
  H     -2.690298   -1.284158    1.323359
  H     -1.984668   -1.801193   -0.212237
  H     -1.989368    1.963247   -0.382305
  H     -2.503901    0.511789   -1.237494
  H     -3.263307    0.944451    0.301765

 Total Charge           Charge          ....    0
 Multiplicity           Mult            ....    1
 Number of Electrons    NEL             ....   64
 Basis Dimension        Dim             ....  227

ORBITAL ENERGIES
----------------

  NO   OCC          E(Eh)            E(eV)
   0   2.0000     -18.946098      -515.5495
   1   2.0000     -10.117045      -275.2988
   2   2.0000     -10.037095      -273.1232
   3   2.0000     -10.037089      -273.1231
   4   2.0000     -10.019837      -272.6536
   5   2.0000     -10.019833      -272.6535
   6   2.0000     -10.012019      -272.4409
   7   2.0000     -10.012015      -272.4408
   8   2.0000      -1.015585       -27.6355
   9   2.0000      -0.777743       -21.1635
  10   2.0000      -0.752739       -20.4831
  11   2.0000      -0.651501       -17.7283
  12   2.0000      -0.648678       -17.6514
  13   2.0000      -0.616457       -16.7746
  14   2.0000      -0.546694       -14.8763
  15   2.0000      -0.482821       -13.1382
  16   2.0000      -0.460477       -12.5302
  17   2.0000      -0.423748       -11.5308
  18   2.0000      -0.412377       -11.2214
  19   2.0000      -0.409841       -11.1523
  20   2.0000      -0.390185       -10.6175
  21   2.0000      -0.368353       -10.0234
  22   2.0000      -0.356342        -9.6966
  23   2.0000      -0.349565        -9.5122
  24   2.0000      -0.341644        -9.2966
  25   2.0000      -0.334729        -9.1085
  26   2.0000      -0.326634        -8.8882
  27   2.0000      -0.306305        -8.3350
  28   2.0000      -0.302699        -8.2369
  29   2.0000      -0.302550        -8.2328
  30   2.0000      -0.299782        -8.1575
  31   2.0000      -0.217404        -5.9159
  32   0.0000      -0.047772        -1.2999
  33   0.0000       0.071077         1.9341
  34   0.0000       0.115461         3.1419
  35   0.0000       0.117623         3.2007
  36   0.0000       0.128360         3.4929

MULLIKEN ATOMIC CHARGES
-----------------------
   0 C :   -0.531059
   1 C :   -0.014102
   2 C :   -0.542813
   3 C :    0.254941
   4 O :   -0.464924
   5 C :   -0.013975
   6 C :   -0.531017
   7 C :   -0.542779
   8 H :    0.174481
   9 H :    0.174656
  10 H :    0.166774
  11 H :    0.179389
  12 H :    0.166241
  13 H :    0.165809
  14 H :    0.165535
  15 H :    0.179376
  16 H :    0.166781
  17 H :    0.174636
  18 H :    0.174515
  19 H :    0.165513
  20 H :    0.166197
  21 H :    0.165825
Sum of atomic charges:   -0.0000000

LOEWDIN ATOMIC CHARGES
----------------------
   0 C :   -0.388927
   1 C :   -0.214989
   2 C :   -0.404466
   3 C :    0.248904
   4 O :   -0.538779
   5 C :   -0.214975
   6 C :   -0.388927
   7 C :   -0.404479
   8 H :    0.163146
   9 H :    0.163729
  10 H :    0.163150
  11 H :    0.177349
  12 H :    0.164654
  13 H :    0.159974
  14 H :    0.161311
  15 H :    0.177370
  16 H :    0.163149
  17 H :    0.163736
  18 H :    0.163149
  19 H :    0.161314
  20 H :    0.164636
  21 H :    0.159970

  Mayer bond orders larger than 0.100000
B(  0-C ,  1-C ) :   0.8785 B(  0-C ,  8-H ) :   0.9811 B(  0-C ,  9-H ) :   0.9665
B(  0-C , 10-H ) :   0.9599 B(  1-C ,  2-C ) :   0.8914 B(  1-C ,  3-C ) :   0.8974
B(  1-C , 11-H ) :   0.9243 B(  2-C , 12-H ) :   0.9775 B(  2-C , 13-H ) :   0.9731
B(  2-C , 14-H ) :   0.9764 B(  3-C ,  4-O ) :   1.8591 B(  3-C ,  5-C ) :   0.8974
B(  5-C ,  6-C ) :   0.8785 B(  5-C ,  7-C ) :   0.8915 B(  5-C , 15-H ) :   0.9242
B(  6-C , 16-H ) :   0.9599 B(  6-C , 17-H ) :   0.9665 B(  6-C , 18-H ) :   0.9812
B(  7-C , 19-H ) :   0.9765 B(  7-C , 20-H ) :   0.9775 B(  7-C , 21-H ) :   0.9731

Dispersion correction           -0.006389173
FINAL SINGLE POINT ENERGY      -350.310149551092

DIPOLE MOMENT
-------------

Method             : SCF
Type of density    : Electron Density
Multiplicity       :   1
Irrep              :   0
Energy             :  -350.3140579500359308 Eh
Relativity type    :
Basis              : AO
                                X                 Y                 Z
Electronic contribution:     -0.000396332       0.007788826      -2.985469174
Nuclear contribution   :      0.000336383      -0.011380290       4.701538986
                        -----------------------------------------
Total Dipole Moment    :     -0.000059950      -0.003591464       1.716069812
                        -----------------------------------------
Magnitude (a.u.)       :      1.716073571
Magnitude (Debye)      :      4.361912371

Rotational constants in cm-1:             0.102359             0.043412             0.041640
Rotational constants in MHz :          3068.648694          1301.461821          1248.331810

                             ****ORCA TERMINATED NORMALLY****
TOTAL RUN TIME: 0 days 0 hours 0 minutes 40 seconds 214 msec
