                         Program Version 6.0.0  -   RELEASE  -
|  1> ! r2scan-3c def2/J RI DEFGRID2 scfconv6 printgap
|  2> %output
|  3>     printlevel normal
|  4> end
|  5> * xyz 0 1
|  6> C 2.5521857282 -0.186525239 0.681138158
|  7> C 1.1306094115 -0.6494441779 0.3811880058
|  8> C 0.2366655479 0.5264785818 -0.0291245366
|  9> H 0.3752259021 1.3425194568 0.6910029993
| 10> C -1.2707957153 0.1869585452 -0.0765497853
| 11> C -1.5742166808 -1.0848945004 -0.8680804017
| 12> C -1.8621714439 0.0884029365 1.3279252472
| 13> O 0.6678265259 1.0884752748 -1.2582566822
| 14> H 2.9503450548 0.3703592679 -0.1640661782
| 15> H 3.1986917342 -1.0384135992 0.8755905638
| 16> H 2.5637992898 0.4646316124 1.5522467691
| 17> H 1.1537400959 -1.380868173 -0.4289430914
| 18> H 0.7091605619 -1.1285149722 1.264486398
| 19> H -1.7459858276 1.0327576253 -0.5886531816
| 20> H -1.1392047408 -1.0457878353 -1.8639482364
| 21> H -1.1926510891 -1.96178284 -0.3516728062
| 22> H -2.6501624212 -1.197465591 -0.9780512278
| 23> H -2.9380329364 -0.0555420118 1.267987628
| 24> H -1.6676398571 0.9971420107 1.8922579963
| 25> H -1.4369424014 -0.7524347352 1.8699882594
| 26> H 0.6057654405 0.4101952956 -1.9448532883
| 27> *
| 28>
| 29>                          ****END OF INPUT****

CARTESIAN COORDINATES (ANGSTROEM)
---------------------------------
  C      2.552186   -0.186525    0.681138
  C      1.130609   -0.649444    0.381188
  C      0.236666    0.526479   -0.029125
  H      0.375226    1.342519    0.691003
  C     -1.270796    0.186959   -0.076550
  C     -1.574217   -1.084895   -0.868080
  C     -1.862171    0.088403    1.327925
  O      0.667827    1.088475   -1.258257
  H      2.950345    0.370359   -0.164066
  H      3.198692   -1.038414    0.875591
  H      2.563799    0.464632    1.552247
  H      1.153740   -1.380868   -0.428943
  H      0.709161   -1.128515    1.264486
  H     -1.745986    1.032758   -0.588653
  H     -1.139205   -1.045788   -1.863948
  H     -1.192651   -1.961783   -0.351673
  H     -2.650162   -1.197466   -0.978051
  H     -2.938033   -0.055542    1.267988
  H     -1.667640    0.997142    1.892258
  H     -1.436942   -0.752435    1.869988
  H      0.605765    0.410195   -1.944853

 Total Charge           Charge          ....    0
 Multiplicity           Mult            ....    1
 Number of Electrons    NEL             ....   58
 Basis Dimension        Dim             ....  208

ORBITAL ENERGIES
----------------

  NO   OCC          E(Eh)            E(eV)
   0   2.0000     -18.943358      -515.4750
   1   2.0000     -10.075263      -274.1619
   2   2.0000     -10.033011      -273.0121
   3   2.0000     -10.026145      -272.8253
   4   2.0000     -10.021834      -272.7080
   5   2.0000     -10.019022      -272.6315
   6   2.0000     -10.013483      -272.4807
   7   2.0000      -0.982299       -26.7297
   8   2.0000      -0.773601       -21.0508
   9   2.0000      -0.730115       -19.8674
  10   2.0000      -0.656019       -17.8512
  11   2.0000      -0.636314       -17.3150
  12   2.0000      -0.575502       -15.6602
  13   2.0000      -0.531175       -14.4540
  14   2.0000      -0.455326       -12.3901
  15   2.0000      -0.435288       -11.8448
  16   2.0000      -0.421763       -11.4768
  17   2.0000      -0.418267       -11.3816
  18   2.0000      -0.391252       -10.6465
  19   2.0000      -0.360867        -9.8197
  20   2.0000      -0.358638        -9.7590
  21   2.0000      -0.348298        -9.4777
  22   2.0000      -0.332481        -9.0473
  23   2.0000      -0.329183        -8.9575
  24   2.0000      -0.312381        -8.5003
  25   2.0000      -0.304227        -8.2784
  26   2.0000      -0.293611        -7.9896
  27   2.0000      -0.275496        -7.4966
  28   2.0000      -0.230109        -6.2616
  29   0.0000       0.061625         1.6769
  30   0.0000       0.089238         2.4283
  31   0.0000       0.109819         2.9883
  32   0.0000       0.113644         3.0924
  33   0.0000       0.120699         3.2844

MULLIKEN ATOMIC CHARGES
-----------------------
   0 C :   -0.512369
   1 C :   -0.244156
   2 C :   -0.024743
   3 H :    0.142517
   4 C :   -0.020000
   5 C :   -0.517076
   6 C :   -0.509540
   7 O :   -0.417093
   8 H :    0.169214
   9 H :    0.145255
  10 H :    0.144623
  11 H :    0.142555
  12 H :    0.147206
  13 H :    0.167676
  14 H :    0.136421
  15 H :    0.160858
  16 H :    0.152689
  17 H :    0.148617
  18 H :    0.148892
  19 H :    0.149993
  20 H :    0.288460
Sum of atomic charges:   -0.0000000

LOEWDIN ATOMIC CHARGES
----------------------
   0 C :   -0.418628
   1 C :   -0.291386
   2 C :    0.054998
   3 H :    0.184952
   4 C :   -0.226782
   5 C :   -0.414365
   6 C :   -0.413083
   7 O :   -0.610807
   8 H :    0.161823
   9 H :    0.148633
  10 H :    0.151503
  11 H :    0.157603
  12 H :    0.158578
  13 H :    0.168849
  14 H :    0.148151
  15 H :    0.156000
  16 H :    0.156429
  17 H :    0.154999
  18 H :    0.155134
  19 H :    0.151664
  20 H :    0.265735

  Mayer bond orders larger than 0.100000
B(  0-C ,  1-C ) :   0.9070 B(  0-C ,  8-H ) :   0.9797 B(  0-C ,  9-H ) :   0.9758
B(  0-C , 10-H ) :   0.9837 B(  1-C ,  2-C ) :   0.9016 B(  1-C , 11-H ) :   0.9573
B(  1-C , 12-H ) :   0.9717 B(  2-C ,  3-H ) :   0.9900 B(  2-C ,  4-C ) :   0.8810
B(  2-C ,  7-O ) :   0.9099 B(  4-C ,  5-C ) :   0.8728 B(  4-C ,  6-C ) :   0.9102
B(  4-C , 13-H ) :   0.9848 B(  5-C , 14-H ) :   0.9780 B(  5-C , 15-H ) :   0.9777
B(  5-C , 16-H ) :   0.9692 B(  6-C , 17-H ) :   0.9704 B(  6-C , 18-H ) :   0.9760
B(  6-C , 19-H ) :   0.9815 B(  7-O , 20-H ) :   0.8938

Dispersion correction           -0.005676770
FINAL SINGLE POINT ENERGY      -312.202471639942

DIPOLE MOMENT
-------------

Method             : SCF
Type of density    : Electron Density
Multiplicity       :   1
Irrep              :   0
Energy             :  -312.2080213658948082 Eh
Relativity type    :
Basis              : AO
                                X                 Y                 Z
Electronic contribution:      0.885851985       3.134282933      -2.792366398
Nuclear contribution   :     -1.128917406      -3.683216895       2.883415912
                        -----------------------------------------
Total Dipole Moment    :     -0.243065422      -0.548933962       0.091049514
                        -----------------------------------------
Magnitude (a.u.)       :      0.607206149
Magnitude (Debye)      :      1.543395376

Rotational constants in cm-1:             0.118115             0.056026             0.049856
Rotational constants in MHz :          3540.983816          1679.608939          1494.652457

                             ****ORCA TERMINATED NORMALLY****
TOTAL RUN TIME: 0 days 0 hours 0 minutes 25 seconds 555 msec
