                         Program Version 6.0.0  -   RELEASE  -
|  1> ! r2scan-3c def2/J RI DEFGRID2 scfconv6 printgap
|  2> %output
|  3>     printlevel normal
|  4> end
|  5> %cpcm
|  6>     smd true
|  7>     smdsolvent "water"
|  8> end
|  9> * xyz 0 1
| 10> C 2.5521857282 -0.186525239 0.681138158
| 11> C 1.1306094115 -0.6494441779 0.3811880058
| 12> C 0.2366655479 0.5264785818 -0.0291245366
| 13> H 0.3752259021 1.3425194568 0.6910029993
| 14> C -1.2707957153 0.1869585452 -0.0765497853
| 15> C -1.5742166808 -1.0848945004 -0.8680804017
| 16> C -1.8621714439 0.0884029365 1.3279252472
| 17> O 0.6678265259 1.0884752748 -1.2582566822
| 18> H 2.9503450548 0.3703592679 -0.1640661782
| 19> H 3.1986917342 -1.0384135992 0.8755905638
| 20> H 2.5637992898 0.4646316124 1.5522467691
| 21> H 1.1537400959 -1.380868173 -0.4289430914
| 22> H 0.7091605619 -1.1285149722 1.264486398
| 23> H -1.7459858276 1.0327576253 -0.5886531816
| 24> H -1.1392047408 -1.0457878353 -1.8639482364
| 25> H -1.1926510891 -1.96178284 -0.3516728062
| 26> H -2.6501624212 -1.197465591 -0.9780512278
| 27> H -2.9380329364 -0.0555420118 1.267987628
| 28> H -1.6676398571 0.9971420107 1.8922579963
| 29> H -1.4369424014 -0.7524347352 1.8699882594
| 30> H 0.6057654405 0.4101952956 -1.9448532883
| 31> *
| 32>
| 33>                          ****END OF INPUT****

CARTESIAN COORDINATES (ANGSTROEM)
---------------------------------
  C      2.552186   -0.186525    0.681138
  C      1.130609   -0.649444    0.381188
  C      0.236666    0.526479   -0.029125
  H      0.375226    1.342519    0.691003
  C     -1.270796    0.186959   -0.076550
  C     -1.574217   -1.084895   -0.868080
  C     -1.862171    0.088403    1.327925
  O      0.667827    1.088475   -1.258257
  H      2.950345    0.370359   -0.164066
  H      3.198692   -1.038414    0.875591
  H      2.563799    0.464632    1.552247
  H      1.153740   -1.380868   -0.428943
  H      0.709161   -1.128515    1.264486
  H     -1.745986    1.032758   -0.588653
  H     -1.139205   -1.045788   -1.863948
  H     -1.192651   -1.961783   -0.351673
  H     -2.650162   -1.197466   -0.978051
  H     -2.938033   -0.055542    1.267988
  H     -1.667640    0.997142    1.892258
  H     -1.436942   -0.752435    1.869988
  H      0.605765    0.410195   -1.944853

 Total Charge           Charge          ....    0
 Multiplicity           Mult            ....    1
 Number of Electrons    NEL             ....   58
 Basis Dimension        Dim             ....  208

ORBITAL ENERGIES
----------------

  NO   OCC          E(Eh)            E(eV)
   0   2.0000     -18.946948      -515.5727
   1   2.0000     -10.069783      -274.0127
   2   2.0000     -10.024783      -272.7882
   3   2.0000     -10.016118      -272.5524
   4   2.0000     -10.008002      -272.3316
   5   2.0000     -10.007976      -272.3309
   6   2.0000     -10.007820      -272.3266
   7   2.0000      -0.984659       -26.7939
   8   2.0000      -0.764699       -20.8085
   9   2.0000      -0.722129       -19.6501
  10   2.0000      -0.644139       -17.5279
  11   2.0000      -0.630423       -17.1547
  12   2.0000      -0.568176       -15.4608
  13   2.0000      -0.524627       -14.2758
  14   2.0000      -0.448595       -12.2069
  15   2.0000      -0.429465       -11.6863
  16   2.0000      -0.414760       -11.2862
  17   2.0000      -0.408056       -11.1038
  18   2.0000      -0.383925       -10.4471
  19   2.0000      -0.354716        -9.6523
  20   2.0000      -0.348167        -9.4741
  21   2.0000      -0.339265        -9.2319
  22   2.0000      -0.326287        -8.8787
  23   2.0000      -0.323971        -8.8157
  24   2.0000      -0.302187        -8.2229
  25   2.0000      -0.296096        -8.0572
  26   2.0000      -0.286976        -7.8090
  27   2.0000      -0.271532        -7.3888
  28   2.0000      -0.232470        -6.3258
  29   0.0000       0.078227         2.1287
  30   0.0000       0.101246         2.7550
  31   0.0000       0.117779         3.2049
  32   0.0000       0.123153         3.3512
  33   0.0000       0.130811         3.5596

MULLIKEN ATOMIC CHARGES
-----------------------
   0 C :   -0.553368
   1 C :   -0.258572
   2 C :   -0.003200
   3 H :    0.153634
   4 C :   -0.019387
   5 C :   -0.549863
   6 C :   -0.553752
   7 O :   -0.509725
   8 H :    0.160897
   9 H :    0.158532
  10 H :    0.159852
  11 H :    0.162434
  12 H :    0.164174
  13 H :    0.162146
  14 H :    0.160440
  15 H :    0.168702
  16 H :    0.163070
  17 H :    0.161024
  18 H :    0.158945
  19 H :    0.166267
  20 H :    0.347750
Sum of atomic charges:   -0.0000000

LOEWDIN ATOMIC CHARGES
----------------------
   0 C :   -0.427514
   1 C :   -0.290160
   2 C :    0.054285
   3 H :    0.187728
   4 C :   -0.223612
   5 C :   -0.420630
   6 C :   -0.420105
   7 O :   -0.649428
   8 H :    0.156361
   9 H :    0.152766
  10 H :    0.154460
  11 H :    0.164743
  12 H :    0.165236
  13 H :    0.166597
  14 H :    0.156651
  15 H :    0.158673
  16 H :    0.157914
  17 H :    0.157821
  18 H :    0.157269
  19 H :    0.156615
  20 H :    0.284331

  Mayer bond orders larger than 0.100000
B(  0-C ,  1-C ) :   0.8873 B(  0-C ,  8-H ) :   0.9826 B(  0-C ,  9-H ) :   0.9719
B(  0-C , 10-H ) :   0.9826 B(  1-C ,  2-C ) :   0.8971 B(  1-C , 11-H ) :   0.9580
B(  1-C , 12-H ) :   0.9670 B(  2-C ,  3-H ) :   0.9883 B(  2-C ,  4-C ) :   0.8872
B(  2-C ,  7-O ) :   0.8894 B(  4-C ,  5-C ) :   0.8780 B(  4-C ,  6-C ) :   0.9062
B(  4-C , 13-H ) :   0.9873 B(  5-C , 14-H ) :   0.9706 B(  5-C , 15-H ) :   0.9750
B(  5-C , 16-H ) :   0.9690 B(  6-C , 17-H ) :   0.9686 B(  6-C , 18-H ) :   0.9731
B(  6-C , 19-H ) :   0.9787 B(  7-O , 20-H ) :   0.8664

Dispersion correction           -0.005676770
FINAL SINGLE POINT ENERGY      -312.208229877090

DIPOLE MOMENT
-------------

Method             : SCF
Type of density    : Electron Density
Multiplicity       :   1
Irrep              :   0
Energy             :  -312.2137796030426671 Eh
Relativity type    :
Basis              : AO
                                X                 Y                 Z
Electronic contribution:      0.803502470       2.842261068      -2.758479073
Nuclear contribution   :     -1.128917406      -3.683216895       2.883415912
                        -----------------------------------------
Total Dipole Moment    :     -0.325414937      -0.840955827       0.124936839
                        -----------------------------------------
Magnitude (a.u.)       :      0.910335541
Magnitude (Debye)      :      2.313889058

Rotational constants in cm-1:             0.118115             0.056026             0.049856
Rotational constants in MHz :          3540.983816          1679.608939          1494.652457

                             ****ORCA TERMINATED NORMALLY****
TOTAL RUN TIME: 0 days 0 hours 0 minutes 33 seconds 436 msec
