                         Program Version 6.0.0  -   RELEASE  -
|  1> ! r2scan-3c def2/J RI DEFGRID2 scfconv6 printgap
|  2> %output
|  3>     printlevel normal
|  4> end
|  5> * xyz 0 1
|  6> C -0.358882048 -2.6794809731 -0.1443446784
|  7> C 0.4705390555 -1.4404804542 -0.0316377581
|  8> C 1.840609581 -1.4049572147 -0.3355748184
|  9> N 2.560592776 -0.3053400386 -0.2085221312
| 10> C 1.9548959582 0.8133299352 0.2202711229
| 11> N 0.6373721675 0.8931645205 0.4916675011
| 12> C -0.0585570682 -0.2154056631 0.3543835032
| 13> O -1.4061655328 -0.0879339645 0.6766925661
| 14> C -2.2849230566 -0.1169230423 -0.3672008415
| 15> O -1.9205609796 -0.250718684 -1.5264264391
| 16> N -3.5531119754 0.012784332 0.0246709853
| 17> C -4.6177983586 -0.0084199296 -0.9560108381
| 18> C -3.9674963671 0.179922999 1.4009702484
| 19> N 2.6982824152 1.912239782 0.3809795388
| 20> C 4.1125459018 1.9227602531 0.0946378041
| 21> C 2.1330607334 3.16429932 0.8198046139
| 22> C 2.5598449395 -2.6200480364 -0.8222506729
| 23> H 0.2101701195 -3.5517992358 0.1653205881
| 24> H -1.2468626181 -2.5956885434 0.4793368769
| 25> H -0.6820524578 -2.8196455493 -1.1768006868
| 26> H -5.3028756425 -0.8273105722 -0.7360909467
| 27> H -4.1797499192 -0.1511338548 -1.9407921213
| 28> H -5.1618046813 0.9358721044 -0.9313416776
| 29> H -4.5762792108 1.0803037267 1.4842644712
| 30> H -3.0956398529 0.2723743504 2.0404499679
| 31> H -4.5599051516 -0.681651819 1.7124524053
| 32> H 4.3238394073 2.6392794444 -0.7009508998
| 33> H 4.4141168303 0.9286001922 -0.2185894477
| 34> H 4.6657172467 2.2128050192 0.989181482
| 35> H 1.0719101097 3.0273387638 1.0010046048
| 36> H 2.2781545926 3.9261537037 0.0516837769
| 37> H 2.6251246825 3.4883737961 1.7383313654
| 38> H 2.5679010662 -3.3835436934 -0.0469826024
| 39> H 2.0555432814 -3.0254675626 -1.6960586424
| 40> H 3.5810246782 -2.3550905925 -1.0750803521
| 41> *
| 42>
| 43>                          ****END OF INPUT****

CARTESIAN COORDINATES (ANGSTROEM)
---------------------------------
  C     -0.358882   -2.679481   -0.144345
  C      0.470539   -1.440480   -0.031638
  C      1.840610   -1.404957   -0.335575
  N      2.560593   -0.305340   -0.208522
  C      1.954896    0.813330    0.220271
  N      0.637372    0.893165    0.491668
  C     -0.058557   -0.215406    0.354384
  O     -1.406166   -0.087934    0.676693
  C     -2.284923   -0.116923   -0.367201
  O     -1.920561   -0.250719   -1.526426
  N     -3.553112    0.012784    0.024671
  C     -4.617798   -0.008420   -0.956011
  C     -3.967496    0.179923    1.400970
  N      2.698282    1.912240    0.380980
  C      4.112546    1.922760    0.094638
  C      2.133061    3.164299    0.819805
  C      2.559845   -2.620048   -0.822251
  H      0.210170   -3.551799    0.165321
  H     -1.246863   -2.595689    0.479337
  H     -0.682052   -2.819646   -1.176801
  H     -5.302876   -0.827311   -0.736091
  H     -4.179750   -0.151134   -1.940792
  H     -5.161805    0.935872   -0.931342
  H     -4.576279    1.080304    1.484264
  H     -3.095640    0.272374    2.040450
  H     -4.559905   -0.681652    1.712452
  H      4.323839    2.639279   -0.700951
  H      4.414117    0.928600   -0.218589
  H      4.665717    2.212805    0.989181
  H      1.071910    3.027339    1.001005
  H      2.278155    3.926154    0.051684
  H      2.625125    3.488374    1.738331
  H      2.567901   -3.383544   -0.046983
  H      2.055543   -3.025468   -1.696059
  H      3.581025   -2.355091   -1.075080

 Total Charge           Charge          ....    0
 Multiplicity           Mult            ....    1
 Number of Electrons    NEL             ....  128
 Basis Dimension        Dim             ....  443

ORBITAL ENERGIES
----------------

  NO   OCC          E(Eh)            E(eV)
   0   2.0000     -18.995559      -516.8954
   1   2.0000     -18.907927      -514.5108
   2   2.0000     -14.198573      -386.3628
   3   2.0000     -14.184004      -385.9664
   4   2.0000     -14.139844      -384.7647
   5   2.0000     -14.134149      -384.6098
   6   2.0000     -10.168823      -276.7077
   7   2.0000     -10.122592      -275.4497
   8   2.0000     -10.118835      -275.3475
   9   2.0000     -10.074373      -274.1376
  10   2.0000     -10.067406      -273.9480
  11   2.0000     -10.063576      -273.8438
  12   2.0000     -10.051577      -273.5173
  13   2.0000     -10.051122      -273.5049
  14   2.0000     -10.030078      -272.9323
  15   2.0000     -10.022878      -272.7364
  16   2.0000     -10.022793      -272.7341
  17   2.0000      -1.076767       -29.3003
  18   2.0000      -0.979634       -26.6572
  19   2.0000      -0.961945       -26.1759
  20   2.0000      -0.915870       -24.9221
  21   2.0000      -0.893630       -24.3169
  22   2.0000      -0.844860       -22.9898
  23   2.0000      -0.768121       -20.9016
  24   2.0000      -0.706049       -19.2126
  25   2.0000      -0.699573       -19.0364
  26   2.0000      -0.692379       -18.8406
  27   2.0000      -0.682305       -18.5665
  28   2.0000      -0.673022       -18.3139
  29   2.0000      -0.623715       -16.9722
  30   2.0000      -0.601668       -16.3722
  31   2.0000      -0.553605       -15.0644
  32   2.0000      -0.528434       -14.3794
  33   2.0000      -0.504934       -13.7400
  34   2.0000      -0.503335       -13.6964
  35   2.0000      -0.473728       -12.8908
  36   2.0000      -0.457449       -12.4478
  37   2.0000      -0.453263       -12.3339
  38   2.0000      -0.443941       -12.0802
  39   2.0000      -0.420645       -11.4463
  40   2.0000      -0.415004       -11.2928
  41   2.0000      -0.410659       -11.1746
  42   2.0000      -0.393632       -10.7113
  43   2.0000      -0.388770       -10.5790
  44   2.0000      -0.383519       -10.4361
  45   2.0000      -0.378987       -10.3128
  46   2.0000      -0.374703       -10.1962
  47   2.0000      -0.372739       -10.1427
  48   2.0000      -0.369543       -10.0558
  49   2.0000      -0.366042        -9.9605
  50   2.0000      -0.361438        -9.8352
  51   2.0000      -0.356418        -9.6986
  52   2.0000      -0.353268        -9.6129
  53   2.0000      -0.350600        -9.5403
  54   2.0000      -0.344422        -9.3722
  55   2.0000      -0.338526        -9.2118
  56   2.0000      -0.279934        -7.6174
  57   2.0000      -0.268895        -7.3170
  58   2.0000      -0.265976        -7.2376
  59   2.0000      -0.258022        -7.0211
  60   2.0000      -0.234174        -6.3722
  61   2.0000      -0.219204        -5.9648
  62   2.0000      -0.205525        -5.5926
  63   2.0000      -0.176957        -4.8152
  64   0.0000      -0.039887        -1.0854
  65   0.0000      -0.007669        -0.2087
  66   0.0000       0.029931         0.8145
  67   0.0000       0.060327         1.6416
  68   0.0000       0.078804         2.1444

MULLIKEN ATOMIC CHARGES
-----------------------
   0 C :   -0.626412
   1 C :    0.042723
   2 C :    0.256916
   3 N :   -0.244049
   4 C :    0.067406
   5 N :   -0.268141
   6 C :    0.148580
   7 O :   -0.125111
   8 C :    0.244961
   9 O :   -0.485422
  10 N :    0.081647
  11 C :   -0.385486
  12 C :   -0.378792
  13 N :    0.158855
  14 C :   -0.381650
  15 C :   -0.384630
  16 C :   -0.660008
  17 H :    0.145187
  18 H :    0.163993
  19 H :    0.203986
  20 H :    0.141175
  21 H :    0.201440
  22 H :    0.144164
  23 H :    0.143025
  24 H :    0.186652
  25 H :    0.146737
  26 H :    0.140611
  27 H :    0.198377
  28 H :    0.138844
  29 H :    0.198413
  30 H :    0.140510
  31 H :    0.139130
  32 H :    0.166360
  33 H :    0.163666
  34 H :    0.176345
Sum of atomic charges:    0.0000000

LOEWDIN ATOMIC CHARGES
----------------------
   0 C :   -0.373085
   1 C :   -0.063869
   2 C :    0.178400
   3 N :   -0.569099
   4 C :    0.435099
   5 N :   -0.478479
   6 C :    0.395669
   7 O :   -0.466935
   8 C :    0.476208
   9 O :   -0.424082
  10 N :   -0.785582
  11 C :   -0.097657
  12 C :   -0.096838
  13 N :   -0.793691
  14 C :   -0.104921
  15 C :   -0.103951
  16 C :   -0.355635
  17 H :    0.159009
  18 H :    0.171494
  19 H :    0.174768
  20 H :    0.172271
  21 H :    0.209581
  22 H :    0.172738
  23 H :    0.173658
  24 H :    0.205959
  25 H :    0.171448
  26 H :    0.170782
  27 H :    0.210561
  28 H :    0.170410
  29 H :    0.210613
  30 H :    0.171172
  31 H :    0.170461
  32 H :    0.168458
  33 H :    0.169636
  34 H :    0.175431

  Mayer bond orders larger than 0.100000
B(  0-C ,  1-C ) :   0.6680 B(  0-C , 17-H ) :   0.9636 B(  0-C , 18-H ) :   0.9998
B(  0-C , 19-H ) :   0.9861 B(  1-C ,  2-C ) :   1.3347 B(  1-C ,  6-C ) :   1.3833
B(  2-C ,  3-N ) :   1.3514 B(  2-C , 16-C ) :   0.7564 B(  3-N ,  4-C ) :   1.3453
B(  4-C ,  5-N ) :   1.3507 B(  4-C ,  6-C ) :   0.1001 B(  4-C , 13-N ) :   1.3274
B(  5-N ,  6-C ) :   1.5595 B(  6-C ,  7-O ) :   1.0674 B(  7-O ,  8-C ) :   1.0136
B(  8-C ,  9-O ) :   1.7973 B(  8-C , 10-N ) :   1.3284 B( 10-N , 11-C ) :   0.9188
B( 10-N , 12-C ) :   0.9027 B( 11-C , 20-H ) :   0.9542 B( 11-C , 21-H ) :   0.9551
B( 11-C , 22-H ) :   0.9564 B( 12-C , 23-H ) :   0.9572 B( 12-C , 24-H ) :   0.9575
B( 12-C , 25-H ) :   0.9570 B( 13-N , 14-C ) :   0.9127 B( 13-N , 15-C ) :   0.9115
B( 14-C , 26-H ) :   0.9562 B( 14-C , 27-H ) :   0.9539 B( 14-C , 28-H ) :   0.9578
B( 15-C , 29-H ) :   0.9551 B( 15-C , 30-H ) :   0.9553 B( 15-C , 31-H ) :   0.9580
B( 16-C , 32-H ) :   0.9792 B( 16-C , 33-H ) :   0.9642 B( 16-C , 34-H ) :   1.0124

Dispersion correction           -0.013617996
FINAL SINGLE POINT ENERGY      -799.295971409996

DIPOLE MOMENT
-------------

Method             : SCF
Type of density    : Electron Density
Multiplicity       :   1
Irrep              :   0
Energy             :  -799.3200243150458846 Eh
Relativity type    :
Basis              : AO
                                X                 Y                 Z
Electronic contribution:      0.470561280       0.848119679      -0.337017118
Nuclear contribution   :     -0.985557091      -0.817039337       1.060079238
                        -----------------------------------------
Total Dipole Moment    :     -0.514995811       0.031080342       0.723062120
                        -----------------------------------------
Magnitude (a.u.)       :      0.888259817
Magnitude (Debye)      :      2.257777026

Rotational constants in cm-1:             0.025457             0.009564             0.007595
Rotational constants in MHz :           763.180411           286.732389           227.704974

                             ****ORCA TERMINATED NORMALLY****
TOTAL RUN TIME: 0 days 0 hours 1 minutes 22 seconds 810 msec
