                         Program Version 6.0.0  -   RELEASE  -
|  1> ! r2scan-3c def2/J RI DEFGRID2 scfconv6 printgap
|  2> %output
|  3>     printlevel normal
|  4> end
|  5> %cpcm
|  6>     smd true
|  7>     smdsolvent "water"
|  8> end
|  9> * xyz 0 1
| 10> C -0.358882048 -2.6794809731 -0.1443446784
| 11> C 0.4705390555 -1.4404804542 -0.0316377581
| 12> C 1.840609581 -1.4049572147 -0.3355748184
| 13> N 2.560592776 -0.3053400386 -0.2085221312
| 14> C 1.9548959582 0.8133299352 0.2202711229
| 15> N 0.6373721675 0.8931645205 0.4916675011
| 16> C -0.0585570682 -0.2154056631 0.3543835032
| 17> O -1.4061655328 -0.0879339645 0.6766925661
| 18> C -2.2849230566 -0.1169230423 -0.3672008415
| 19> O -1.9205609796 -0.250718684 -1.5264264391
| 20> N -3.5531119754 0.012784332 0.0246709853
| 21> C -4.6177983586 -0.0084199296 -0.9560108381
| 22> C -3.9674963671 0.179922999 1.4009702484
| 23> N 2.6982824152 1.912239782 0.3809795388
| 24> C 4.1125459018 1.9227602531 0.0946378041
| 25> C 2.1330607334 3.16429932 0.8198046139
| 26> C 2.5598449395 -2.6200480364 -0.8222506729
| 27> H 0.2101701195 -3.5517992358 0.1653205881
| 28> H -1.2468626181 -2.5956885434 0.4793368769
| 29> H -0.6820524578 -2.8196455493 -1.1768006868
| 30> H -5.3028756425 -0.8273105722 -0.7360909467
| 31> H -4.1797499192 -0.1511338548 -1.9407921213
| 32> H -5.1618046813 0.9358721044 -0.9313416776
| 33> H -4.5762792108 1.0803037267 1.4842644712
| 34> H -3.0956398529 0.2723743504 2.0404499679
| 35> H -4.5599051516 -0.681651819 1.7124524053
| 36> H 4.3238394073 2.6392794444 -0.7009508998
| 37> H 4.4141168303 0.9286001922 -0.2185894477
| 38> H 4.6657172467 2.2128050192 0.989181482
| 39> H 1.0719101097 3.0273387638 1.0010046048
| 40> H 2.2781545926 3.9261537037 0.0516837769
| 41> H 2.6251246825 3.4883737961 1.7383313654
| 42> H 2.5679010662 -3.3835436934 -0.0469826024
| 43> H 2.0555432814 -3.0254675626 -1.6960586424
| 44> H 3.5810246782 -2.3550905925 -1.0750803521
| 45> *
| 46>
| 47>                          ****END OF INPUT****

CARTESIAN COORDINATES (ANGSTROEM)
---------------------------------
  C     -0.358882   -2.679481   -0.144345
  C      0.470539   -1.440480   -0.031638
  C      1.840610   -1.404957   -0.335575
  N      2.560593   -0.305340   -0.208522
  C      1.954896    0.813330    0.220271
  N      0.637372    0.893165    0.491668
  C     -0.058557   -0.215406    0.354384
  O     -1.406166   -0.087934    0.676693
  C     -2.284923   -0.116923   -0.367201
  O     -1.920561   -0.250719   -1.526426
  N     -3.553112    0.012784    0.024671
  C     -4.617798   -0.008420   -0.956011
  C     -3.967496    0.179923    1.400970
  N      2.698282    1.912240    0.380980
  C      4.112546    1.922760    0.094638
  C      2.133061    3.164299    0.819805
  C      2.559845   -2.620048   -0.822251
  H      0.210170   -3.551799    0.165321
  H     -1.246863   -2.595689    0.479337
  H     -0.682052   -2.819646   -1.176801
  H     -5.302876   -0.827311   -0.736091
  H     -4.179750   -0.151134   -1.940792
  H     -5.161805    0.935872   -0.931342
  H     -4.576279    1.080304    1.484264
  H     -3.095640    0.272374    2.040450
  H     -4.559905   -0.681652    1.712452
  H      4.323839    2.639279   -0.700951
  H      4.414117    0.928600   -0.218589
  H      4.665717    2.212805    0.989181
  H      1.071910    3.027339    1.001005
  H      2.278155    3.926154    0.051684
  H      2.625125    3.488374    1.738331
  H      2.567901   -3.383544   -0.046983
  H      2.055543   -3.025468   -1.696059
  H      3.581025   -2.355091   -1.075080

 Total Charge           Charge          ....    0
 Multiplicity           Mult            ....    1
 Number of Electrons    NEL             ....  128
 Basis Dimension        Dim             ....  443

ORBITAL ENERGIES
----------------

  NO   OCC          E(Eh)            E(eV)
   0   2.0000     -19.009503      -517.2749
   1   2.0000     -18.930789      -515.1330
   2   2.0000     -14.201943      -386.4545
   3   2.0000     -14.188638      -386.0925
   4   2.0000     -14.152873      -385.1192
   5   2.0000     -14.145029      -384.9058
   6   2.0000     -10.184635      -277.1380
   7   2.0000     -10.134447      -275.7723
   8   2.0000     -10.128754      -275.6174
   9   2.0000     -10.083541      -274.3871
  10   2.0000     -10.054617      -273.6000
  11   2.0000     -10.053909      -273.5808
  12   2.0000     -10.047240      -273.3993
  13   2.0000     -10.046483      -273.3787
  14   2.0000     -10.038309      -273.1563
  15   2.0000     -10.022457      -272.7249
  16   2.0000     -10.020306      -272.6664
  17   2.0000      -1.092046       -29.7161
  18   2.0000      -0.997818       -27.1520
  19   2.0000      -0.972618       -26.4663
  20   2.0000      -0.920131       -25.0380
  21   2.0000      -0.899760       -24.4837
  22   2.0000      -0.857001       -23.3202
  23   2.0000      -0.774648       -21.0792
  24   2.0000      -0.708012       -19.2660
  25   2.0000      -0.700880       -19.0719
  26   2.0000      -0.687031       -18.6951
  27   2.0000      -0.680659       -18.5217
  28   2.0000      -0.673299       -18.3214
  29   2.0000      -0.626576       -17.0500
  30   2.0000      -0.607480       -16.5304
  31   2.0000      -0.558349       -15.1935
  32   2.0000      -0.533853       -14.5269
  33   2.0000      -0.511888       -13.9292
  34   2.0000      -0.503541       -13.7021
  35   2.0000      -0.480305       -13.0698
  36   2.0000      -0.462851       -12.5948
  37   2.0000      -0.455243       -12.3878
  38   2.0000      -0.446352       -12.1459
  39   2.0000      -0.420841       -11.4517
  40   2.0000      -0.416159       -11.3243
  41   2.0000      -0.415679       -11.3112
  42   2.0000      -0.399832       -10.8800
  43   2.0000      -0.393344       -10.7034
  44   2.0000      -0.390259       -10.6195
  45   2.0000      -0.372777       -10.1438
  46   2.0000      -0.371341       -10.1047
  47   2.0000      -0.370438       -10.0801
  48   2.0000      -0.365404        -9.9432
  49   2.0000      -0.364064        -9.9067
  50   2.0000      -0.359901        -9.7934
  51   2.0000      -0.357018        -9.7150
  52   2.0000      -0.352946        -9.6041
  53   2.0000      -0.350192        -9.5292
  54   2.0000      -0.343942        -9.3592
  55   2.0000      -0.340653        -9.2696
  56   2.0000      -0.296715        -8.0740
  57   2.0000      -0.281607        -7.6629
  58   2.0000      -0.279954        -7.6179
  59   2.0000      -0.264681        -7.2023
  60   2.0000      -0.258899        -7.0450
  61   2.0000      -0.223799        -6.0899
  62   2.0000      -0.218748        -5.9524
  63   2.0000      -0.183708        -4.9989
  64   0.0000      -0.051846        -1.4108
  65   0.0000      -0.017088        -0.4650
  66   0.0000       0.015903         0.4327
  67   0.0000       0.056333         1.5329
  68   0.0000       0.075133         2.0445

MULLIKEN ATOMIC CHARGES
-----------------------
   0 C :   -0.648572
   1 C :    0.007887
   2 C :    0.258706
   3 N :   -0.277122
   4 C :    0.069876
   5 N :   -0.290893
   6 C :    0.125964
   7 O :   -0.129496
   8 C :    0.264672
   9 O :   -0.570799
  10 N :    0.088747
  11 C :   -0.407334
  12 C :   -0.403321
  13 N :    0.159141
  14 C :   -0.411361
  15 C :   -0.414050
  16 C :   -0.672762
  17 H :    0.173531
  18 H :    0.186685
  19 H :    0.205118
  20 H :    0.172385
  21 H :    0.190114
  22 H :    0.174123
  23 H :    0.171325
  24 H :    0.189430
  25 H :    0.174202
  26 H :    0.166711
  27 H :    0.193734
  28 H :    0.166250
  29 H :    0.192039
  30 H :    0.166992
  31 H :    0.166971
  32 H :    0.195011
  33 H :    0.184278
  34 H :    0.181818
Sum of atomic charges:    0.0000000

LOEWDIN ATOMIC CHARGES
----------------------
   0 C :   -0.374793
   1 C :   -0.070773
   2 C :    0.181721
   3 N :   -0.589750
   4 C :    0.428883
   5 N :   -0.507741
   6 C :    0.382882
   7 O :   -0.470681
   8 C :    0.475151
   9 O :   -0.493612
  10 N :   -0.770495
  11 C :   -0.093859
  12 C :   -0.091276
  13 N :   -0.790632
  14 C :   -0.104327
  15 C :   -0.103465
  16 C :   -0.356965
  17 H :    0.170407
  18 H :    0.177645
  19 H :    0.174771
  20 H :    0.185776
  21 H :    0.204015
  22 H :    0.185373
  23 H :    0.186089
  24 H :    0.206180
  25 H :    0.184443
  26 H :    0.181132
  27 H :    0.206929
  28 H :    0.181575
  29 H :    0.206326
  30 H :    0.181582
  31 H :    0.181900
  32 H :    0.180866
  33 H :    0.178499
  34 H :    0.176225

  Mayer bond orders larger than 0.100000
B(  0-C ,  1-C ) :   0.6918 B(  0-C , 17-H ) :   0.9569 B(  0-C , 18-H ) :   0.9943
B(  0-C , 19-H ) :   0.9767 B(  1-C ,  2-C ) :   1.3122 B(  1-C ,  6-C ) :   1.3867
B(  2-C ,  3-N ) :   1.3551 B(  2-C , 16-C ) :   0.7832 B(  3-N ,  4-C ) :   1.3438
B(  4-C ,  5-N ) :   1.3387 B(  4-C , 13-N ) :   1.3525 B(  5-N ,  6-C ) :   1.5618
B(  6-C ,  7-O ) :   1.0518 B(  7-O ,  8-C ) :   1.0179 B(  8-C ,  9-O ) :   1.7251
B(  8-C , 10-N ) :   1.3842 B( 10-N , 11-C ) :   0.9083 B( 10-N , 12-C ) :   0.8937
B( 11-C , 20-H ) :   0.9455 B( 11-C , 21-H ) :   0.9561 B( 11-C , 22-H ) :   0.9473
B( 12-C , 23-H ) :   0.9488 B( 12-C , 24-H ) :   0.9537 B( 12-C , 25-H ) :   0.9472
B( 13-N , 14-C ) :   0.9002 B( 13-N , 15-C ) :   0.8991 B( 14-C , 26-H ) :   0.9491
B( 14-C , 27-H ) :   0.9554 B( 14-C , 28-H ) :   0.9501 B( 15-C , 29-H ) :   0.9571
B( 15-C , 30-H ) :   0.9484 B( 15-C , 31-H ) :   0.9502 B( 16-C , 32-H ) :   0.9621
B( 16-C , 33-H ) :   0.9521 B( 16-C , 34-H ) :   1.0081

Dispersion correction           -0.013617996
FINAL SINGLE POINT ENERGY      -799.310001622133

DIPOLE MOMENT
-------------

Method             : SCF
Type of density    : Electron Density
Multiplicity       :   1
Irrep              :   0
Energy             :  -799.3340545271819337 Eh
Relativity type    :
Basis              : AO
                                X                 Y                 Z
Electronic contribution:      0.258017627       0.790483855       0.112605775
Nuclear contribution   :     -0.985557091      -0.817039337       1.060079238
                        -----------------------------------------
Total Dipole Moment    :     -0.727539464      -0.026555482       1.172685012
                        -----------------------------------------
Magnitude (a.u.)       :      1.380293086
Magnitude (Debye)      :      3.508426206

Rotational constants in cm-1:             0.025457             0.009564             0.007595
Rotational constants in MHz :           763.180411           286.732389           227.704974

                             ****ORCA TERMINATED NORMALLY****
TOTAL RUN TIME: 0 days 0 hours 2 minutes 1 seconds 124 msec
