                         Program Version 6.0.0  -   RELEASE  -
|  1> ! r2scan-3c def2/J RI DEFGRID2 scfconv6 printgap
|  2> %output
|  3>     printlevel normal
|  4> end
|  5> * xyz 0 1
|  6> C -2.1575227177 -0.7767046285 0.3790207777
|  7> C -1.2383782496 -0.2102816502 -0.6860278706
|  8> S 8.94687e-05 0.9505445113 -0.0009689526
|  9> C 1.238393139 -0.208933734 0.6865970976
| 10> C 2.1573025318 -0.7774535929 -0.3775502527
| 11> H -1.5979124892 -1.3552370898 1.1108169831
| 12> H -2.6716494248 0.0290949388 0.8972381491
| 13> H -2.896720448 -1.4274568236 -0.0822475834
| 14> H -1.7968796236 0.383956008 -1.4076605038
| 15> H -0.6957312448 -0.9930585965 -1.2133988928
| 16> H 1.7970561315 0.3868803688 1.4068041199
| 17> H 0.6957651252 -0.990606633 1.2156468647
| 18> H 2.6713368107 0.0272204248 -0.8976435268
| 19> H 2.8965905922 -1.4271065634 0.0850227405
| 20> H 1.5977447113 -1.357631335 -1.108059776
| 21> *
| 22>
| 23>                          ****END OF INPUT****

CARTESIAN COORDINATES (ANGSTROEM)
---------------------------------
  C     -2.157523   -0.776705    0.379021
  C     -1.238378   -0.210282   -0.686028
  S      0.000089    0.950545   -0.000969
  C      1.238393   -0.208934    0.686597
  C      2.157303   -0.777454   -0.377550
  H     -1.597912   -1.355237    1.110817
  H     -2.671649    0.029095    0.897238
  H     -2.896720   -1.427457   -0.082248
  H     -1.796880    0.383956   -1.407661
  H     -0.695731   -0.993059   -1.213399
  H      1.797056    0.386880    1.406804
  H      0.695765   -0.990607    1.215647
  H      2.671337    0.027220   -0.897644
  H      2.896591   -1.427107    0.085023
  H      1.597745   -1.357631   -1.108060

 Total Charge           Charge          ....    0
 Multiplicity           Mult            ....    1
 Number of Electrons    NEL             ....   50
 Basis Dimension        Dim             ....  153

ORBITAL ENERGIES
----------------

  NO   OCC          E(Eh)            E(eV)
   0   2.0000     -88.539854     -2409.2919
   1   2.0000     -10.060113      -273.7496
   2   2.0000     -10.060104      -273.7493
   3   2.0000     -10.025137      -272.7978
   4   2.0000     -10.025130      -272.7977
   5   2.0000      -7.833925      -213.1719
   6   2.0000      -5.781559      -157.3242
   7   2.0000      -5.777631      -157.2173
   8   2.0000      -5.770447      -157.0218
   9   2.0000      -0.778920       -21.1955
  10   2.0000      -0.732617       -19.9355
  11   2.0000      -0.653438       -17.7810
  12   2.0000      -0.596073       -16.2200
  13   2.0000      -0.532995       -14.5035
  14   2.0000      -0.444737       -12.1019
  15   2.0000      -0.428446       -11.6586
  16   2.0000      -0.401209       -10.9175
  17   2.0000      -0.382505       -10.4085
  18   2.0000      -0.366411        -9.9705
  19   2.0000      -0.351238        -9.5577
  20   2.0000      -0.335766        -9.1367
  21   2.0000      -0.329060        -8.9542
  22   2.0000      -0.304902        -8.2968
  23   2.0000      -0.269407        -7.3309
  24   2.0000      -0.189117        -5.1461
  25   0.0000       0.025937         0.7058
  26   0.0000       0.051534         1.4023
  27   0.0000       0.079583         2.1656
  28   0.0000       0.115642         3.1468
  29   0.0000       0.116746         3.1768

MULLIKEN ATOMIC CHARGES
-----------------------
   0 C :   -0.423029
   1 C :   -0.235447
   2 S :   -0.147810
   3 C :   -0.235432
   4 C :   -0.423062
   5 H :    0.136421
   6 H :    0.155993
   7 H :    0.140816
   8 H :    0.155969
   9 H :    0.143172
  10 H :    0.155973
  11 H :    0.143194
  12 H :    0.156002
  13 H :    0.140808
  14 H :    0.136431
Sum of atomic charges:   -0.0000000

LOEWDIN ATOMIC CHARGES
----------------------
   0 C :   -0.430195
   1 C :   -0.363411
   2 S :    0.024052
   3 C :   -0.363399
   4 C :   -0.430197
   5 H :    0.148643
   6 H :    0.157307
   7 H :    0.150145
   8 H :    0.167464
   9 H :    0.158012
  10 H :    0.167474
  11 H :    0.158023
  12 H :    0.157310
  13 H :    0.150131
  14 H :    0.148640

  Mayer bond orders larger than 0.100000
B(  0-C ,  1-C ) :   0.9001 B(  0-C ,  5-H ) :   0.9776 B(  0-C ,  6-H ) :   0.9752
B(  0-C ,  7-H ) :   0.9628 B(  1-C ,  2-S ) :   0.9502 B(  1-C ,  8-H ) :   0.9448
B(  1-C ,  9-H ) :   0.9539 B(  2-S ,  3-C ) :   0.9502 B(  3-C ,  4-C ) :   0.9001
B(  3-C , 10-H ) :   0.9448 B(  3-C , 11-H ) :   0.9539 B(  4-C , 12-H ) :   0.9752
B(  4-C , 13-H ) :   0.9629 B(  4-C , 14-H ) :   0.9776

Dispersion correction           -0.003662395
FINAL SINGLE POINT ENERGY      -556.554487321327

DIPOLE MOMENT
-------------

Method             : SCF
Type of density    : Electron Density
Multiplicity       :   1
Irrep              :   0
Energy             :  -556.5615990100620820 Eh
Relativity type    :
Basis              : AO
                                X                 Y                 Z
Electronic contribution:      0.000418491       5.640853419      -0.005448442
Nuclear contribution   :     -0.000377676      -6.335197165       0.006143046
                        -----------------------------------------
Total Dipole Moment    :      0.000040815      -0.694343746       0.000694604
                        -----------------------------------------
Magnitude (a.u.)       :      0.694344095
Magnitude (Debye)      :      1.764882432

Rotational constants in cm-1:             0.209500             0.077179             0.068190
Rotational constants in MHz :          6280.649753          2313.768449          2044.296172

                             ****ORCA TERMINATED NORMALLY****
TOTAL RUN TIME: 0 days 0 hours 0 minutes 14 seconds 217 msec
