                         Program Version 6.0.0  -   RELEASE  -
|  1> ! r2scan-3c def2/J RI DEFGRID2 scfconv6 printgap
|  2> %output
|  3>     printlevel normal
|  4> end
|  5> %cpcm
|  6>     smd true
|  7>     smdsolvent "water"
|  8> end
|  9> * xyz 0 1
| 10> C -2.1575227177 -0.7767046285 0.3790207777
| 11> C -1.2383782496 -0.2102816502 -0.6860278706
| 12> S 8.94687e-05 0.9505445113 -0.0009689526
| 13> C 1.238393139 -0.208933734 0.6865970976
| 14> C 2.1573025318 -0.7774535929 -0.3775502527
| 15> H -1.5979124892 -1.3552370898 1.1108169831
| 16> H -2.6716494248 0.0290949388 0.8972381491
| 17> H -2.896720448 -1.4274568236 -0.0822475834
| 18> H -1.7968796236 0.383956008 -1.4076605038
| 19> H -0.6957312448 -0.9930585965 -1.2133988928
| 20> H 1.7970561315 0.3868803688 1.4068041199
| 21> H 0.6957651252 -0.990606633 1.2156468647
| 22> H 2.6713368107 0.0272204248 -0.8976435268
| 23> H 2.8965905922 -1.4271065634 0.0850227405
| 24> H 1.5977447113 -1.357631335 -1.108059776
| 25> *
| 26>
| 27>                          ****END OF INPUT****

CARTESIAN COORDINATES (ANGSTROEM)
---------------------------------
  C     -2.157523   -0.776705    0.379021
  C     -1.238378   -0.210282   -0.686028
  S      0.000089    0.950545   -0.000969
  C      1.238393   -0.208934    0.686597
  C      2.157303   -0.777454   -0.377550
  H     -1.597912   -1.355237    1.110817
  H     -2.671649    0.029095    0.897238
  H     -2.896720   -1.427457   -0.082248
  H     -1.796880    0.383956   -1.407661
  H     -0.695731   -0.993059   -1.213399
  H      1.797056    0.386880    1.406804
  H      0.695765   -0.990607    1.215647
  H      2.671337    0.027220   -0.897644
  H      2.896591   -1.427107    0.085023
  H      1.597745   -1.357631   -1.108060

 Total Charge           Charge          ....    0
 Multiplicity           Mult            ....    1
 Number of Electrons    NEL             ....   50
 Basis Dimension        Dim             ....  153

ORBITAL ENERGIES
----------------

  NO   OCC          E(Eh)            E(eV)
   0   2.0000     -88.538740     -2409.2616
   1   2.0000     -10.049981      -273.4739
   2   2.0000     -10.049974      -273.4737
   3   2.0000     -10.013955      -272.4936
   4   2.0000     -10.013949      -272.4934
   5   2.0000      -7.832872      -213.1433
   6   2.0000      -5.780256      -157.2888
   7   2.0000      -5.776473      -157.1858
   8   2.0000      -5.769818      -157.0047
   9   2.0000      -0.771260       -20.9870
  10   2.0000      -0.722225       -19.6527
  11   2.0000      -0.645780       -17.5726
  12   2.0000      -0.585989       -15.9456
  13   2.0000      -0.524470       -14.2715
  14   2.0000      -0.433291       -11.7904
  15   2.0000      -0.418516       -11.3884
  16   2.0000      -0.389950       -10.6111
  17   2.0000      -0.372814       -10.1448
  18   2.0000      -0.357452        -9.7268
  19   2.0000      -0.340792        -9.2734
  20   2.0000      -0.324716        -8.8360
  21   2.0000      -0.318200        -8.6587
  22   2.0000      -0.295292        -8.0353
  23   2.0000      -0.266000        -7.2382
  24   2.0000      -0.189652        -5.1607
  25   0.0000       0.028376         0.7721
  26   0.0000       0.055743         1.5168
  27   0.0000       0.092512         2.5174
  28   0.0000       0.121163         3.2970
  29   0.0000       0.126087         3.4310

MULLIKEN ATOMIC CHARGES
-----------------------
   0 C :   -0.476673
   1 C :   -0.222955
   2 S :   -0.223945
   3 C :   -0.222937
   4 C :   -0.476699
   5 H :    0.158619
   6 H :    0.158840
   7 H :    0.156899
   8 H :    0.170029
   9 H :    0.167202
  10 H :    0.170029
  11 H :    0.167233
  12 H :    0.158849
  13 H :    0.156884
  14 H :    0.158626
Sum of atomic charges:   -0.0000000

LOEWDIN ATOMIC CHARGES
----------------------
   0 C :   -0.436766
   1 C :   -0.359456
   2 S :   -0.018473
   3 C :   -0.359440
   4 C :   -0.436766
   5 H :    0.154360
   6 H :    0.155768
   7 H :    0.156272
   8 H :    0.171861
   9 H :    0.167187
  10 H :    0.171870
  11 H :    0.167202
  12 H :    0.155771
  13 H :    0.156254
  14 H :    0.154356

  Mayer bond orders larger than 0.100000
B(  0-C ,  1-C ) :   0.8905 B(  0-C ,  5-H ) :   0.9755 B(  0-C ,  6-H ) :   0.9765
B(  0-C ,  7-H ) :   0.9590 B(  1-C ,  2-S ) :   0.9360 B(  1-C ,  8-H ) :   0.9395
B(  1-C ,  9-H ) :   0.9479 B(  2-S ,  3-C ) :   0.9360 B(  3-C ,  4-C ) :   0.8906
B(  3-C , 10-H ) :   0.9395 B(  3-C , 11-H ) :   0.9478 B(  4-C , 12-H ) :   0.9765
B(  4-C , 13-H ) :   0.9590 B(  4-C , 14-H ) :   0.9755

Dispersion correction           -0.003662395
FINAL SINGLE POINT ENERGY      -556.556458565282

DIPOLE MOMENT
-------------

Method             : SCF
Type of density    : Electron Density
Multiplicity       :   1
Irrep              :   0
Energy             :  -556.5635702540168950 Eh
Relativity type    :
Basis              : AO
                                X                 Y                 Z
Electronic contribution:      0.000429331       5.331419680      -0.005127261
Nuclear contribution   :     -0.000377676      -6.335197165       0.006143046
                        -----------------------------------------
Total Dipole Moment    :      0.000051655      -1.003777485       0.001015786
                        -----------------------------------------
Magnitude (a.u.)       :      1.003778000
Magnitude (Debye)      :      2.551400914

Rotational constants in cm-1:             0.209500             0.077179             0.068190
Rotational constants in MHz :          6280.649753          2313.768449          2044.296172

                             ****ORCA TERMINATED NORMALLY****
TOTAL RUN TIME: 0 days 0 hours 0 minutes 17 seconds 32 msec
