                         Program Version 6.0.0  -   RELEASE  -
|  1> ! pbe def2-sv(p) def2/J RI DEFGRID1 loosescf d4 GCP(DFT/SV(P)) printgap
|  2> %output
|  3>     printlevel normal
|  4> end
|  5> * xyz 0 1
|  6> C -1.849815643 0.9707573238 0.0048156547
|  7> C -1.8128077133 -0.5247272236 0.2961484156
|  8> C -0.5745399955 -1.2327699897 -0.2579809257
|  9> C 0.7277678453 -0.8667288349 0.4378719742
| 10> Cl 1.4525059675 0.6544795539 -0.2010237509
| 11> H -2.7894478675 1.3967947182 0.3485738354
| 12> H -1.0382867826 1.4890920054 0.5076064556
| 13> H -1.7605954711 1.1536527362 -1.0638724542
| 14> H -2.6939408845 -0.9904069514 -0.1498023715
| 15> H -1.8639995179 -0.6850451789 1.3749692848
| 16> H -0.7096952187 -2.3086391873 -0.1278520872
| 17> H -0.484415052 -1.0354606479 -1.3273314422
| 18> H 1.4867960123 -1.6291588893 0.2735750247
| 19> H 0.5820271019 -0.7083317436 1.5049453604
| 20> *
| 21>
| 22>                          ****END OF INPUT****

CARTESIAN COORDINATES (ANGSTROEM)
---------------------------------
  C     -1.849816    0.970757    0.004816
  C     -1.812808   -0.524727    0.296148
  C     -0.574540   -1.232770   -0.257981
  C      0.727768   -0.866729    0.437872
  Cl     1.452506    0.654480   -0.201024
  H     -2.789448    1.396795    0.348574
  H     -1.038287    1.489092    0.507606
  H     -1.760595    1.153653   -1.063872
  H     -2.693941   -0.990407   -0.149802
  H     -1.864000   -0.685045    1.374969
  H     -0.709695   -2.308639   -0.127852
  H     -0.484415   -1.035461   -1.327331
  H      1.486796   -1.629159    0.273575
  H      0.582027   -0.708332    1.504945

 Total Charge           Charge          ....    0
 Multiplicity           Mult            ....    1
 Number of Electrons    NEL             ....   50
 Basis Dimension        Dim             ....   92

ORBITAL ENERGIES
----------------

  NO   OCC          E(Eh)            E(eV)
   0   2.0000    -100.616415     -2737.9118
   1   2.0000      -9.939995      -270.4810
   2   2.0000      -9.896017      -269.2843
   3   2.0000      -9.888496      -269.0796
   4   2.0000      -9.868411      -268.5331
   5   2.0000      -9.152008      -249.0388
   6   2.0000      -6.983563      -190.0324
   7   2.0000      -6.971696      -189.7095
   8   2.0000      -6.971604      -189.7070
   9   2.0000      -0.775213       -21.0946
  10   2.0000      -0.707999       -19.2656
  11   2.0000      -0.640437       -17.4272
  12   2.0000      -0.565003       -15.3745
  13   2.0000      -0.513877       -13.9833
  14   2.0000      -0.430824       -11.7233
  15   2.0000      -0.416018       -11.3204
  16   2.0000      -0.394377       -10.7315
  17   2.0000      -0.360066        -9.7979
  18   2.0000      -0.351891        -9.5755
  19   2.0000      -0.335617        -9.1326
  20   2.0000      -0.302885        -8.2419
  21   2.0000      -0.296732        -8.0745
  22   2.0000      -0.292785        -7.9671
  23   2.0000      -0.244075        -6.6416
  24   2.0000      -0.237980        -6.4758
  25   0.0000       0.009122         0.2482
  26   0.0000       0.035973         0.9789
  27   0.0000       0.064391         1.7522
  28   0.0000       0.072508         1.9730
  29   0.0000       0.089773         2.4428

MULLIKEN ATOMIC CHARGES
-----------------------
   0 C :   -0.282205
   1 C :   -0.191556
   2 C :   -0.152728
   3 C :   -0.172371
   4 Cl:   -0.152801
   5 H :    0.099542
   6 H :    0.109588
   7 H :    0.099008
   8 H :    0.090003
   9 H :    0.085316
  10 H :    0.094239
  11 H :    0.102091
  12 H :    0.137364
  13 H :    0.134509
Sum of atomic charges:   -0.0000000

LOEWDIN ATOMIC CHARGES
----------------------
   0 C :   -0.350320
   1 C :   -0.233621
   2 C :   -0.248801
   3 C :   -0.269830
   4 Cl:    0.027189
   5 H :    0.117132
   6 H :    0.112638
   7 H :    0.117711
   8 H :    0.117214
   9 H :    0.113314
  10 H :    0.125391
  11 H :    0.122705
  12 H :    0.125464
  13 H :    0.123814

  Mayer bond orders larger than 0.100000
B(  0-C ,  1-C ) :   1.1587 B(  0-C ,  5-H ) :   0.9496 B(  0-C ,  6-H ) :   0.9455
B(  0-C ,  7-H ) :   0.9542 B(  1-C ,  2-C ) :   1.1292 B(  1-C ,  8-H ) :   0.9276
B(  1-C ,  9-H ) :   0.9271 B(  2-C ,  3-C ) :   1.0906 B(  2-C , 10-H ) :   0.9093
B(  2-C , 11-H ) :   0.9188 B(  3-C ,  4-Cl) :   1.0295 B(  3-C , 12-H ) :   0.9334
B(  3-C , 13-H ) :   0.9281

Dispersion correction           -0.010550107
FINAL SINGLE POINT ENERGY      -617.297398532470

DIPOLE MOMENT
-------------

Method             : SCF
Type of density    : Electron Density
Multiplicity       :   1
Irrep              :   0
Energy             :  -617.3447117776827326 Eh
Relativity type    :
Basis              : AO
                                X                 Y                 Z
Electronic contribution:     10.329368110       3.382331894      -1.321792163
Nuclear contribution   :    -10.647814797      -3.990805092       1.527718529
                        -----------------------------------------
Total Dipole Moment    :     -0.318446687      -0.608473198       0.205926365
                        -----------------------------------------
Magnitude (a.u.)       :      0.716975309
Magnitude (Debye)      :      1.822406406

Rotational constants in cm-1:             0.203757             0.081106             0.063133
Rotational constants in MHz :          6108.493581          2431.491078          1892.681463

                             ****ORCA TERMINATED NORMALLY****
TOTAL RUN TIME: 0 days 0 hours 0 minutes 7 seconds 794 msec
