                         Program Version 6.0.0  -   RELEASE  -
|  1> ! pbe def2-sv(p) def2/J RI DEFGRID1 loosescf d4 GCP(DFT/SV(P)) printgap
|  2> %output
|  3>     printlevel normal
|  4> end
|  5> * xyz 0 1
|  6> C -1.6343173927 0.1517559383 1.5144976597
|  7> C -1.2702017077 -0.4630942079 0.1623772539
|  8> C -2.4948208326 -0.3980839798 -0.7533046353
|  9> C -0.0464243889 0.1827334961 -0.5351772011
| 10> C 0.065604255 1.6812207825 -0.2592079709
| 11> C 1.2631990223 -0.5902623996 -0.2584055601
| 12> C 2.4045922691 -0.0798674433 -1.1403786826
| 13> C 1.7090443275 -0.5859954557 1.2020678985
| 14> H -2.4055935452 -0.4512977628 1.9899535083
| 15> H -0.7801457578 0.1949813746 2.1822139526
| 16> H -2.0259312428 1.1574699211 1.3885832488
| 17> H -1.0363050155 -1.5217289823 0.3257486381
| 18> H -2.3117777247 -0.9308325636 -1.6838600486
| 19> H -2.7390142446 0.6350512643 -0.9907759098
| 20> H -3.3571904441 -0.8482412039 -0.266583655
| 21> H -0.217965412 0.0737928733 -1.6137874654
| 22> H -0.879118106 2.1710861277 -0.4821655908
| 23> H 0.8262258779 2.1260033787 -0.8948544733
| 24> H 0.3200615886 1.8824505575 0.7765786494
| 25> H 1.0712976291 -1.6328850568 -0.5434400092
| 26> H 2.7386576752 0.9012530852 -0.8134761164
| 27> H 3.2521072375 -0.7593807305 -1.0830722148
| 28> H 2.0909339531 -0.0131545658 -2.1798041598
| 29> H 0.9769875305 -1.0760430903 1.8373043687
| 30> H 1.8672617614 0.4280389518 1.5594149546
| 31> H 2.6491252098 -1.1258911337 1.2967824162
| 32> *
| 33>
| 34>                          ****END OF INPUT****

CARTESIAN COORDINATES (ANGSTROEM)
---------------------------------
  C     -1.634317    0.151756    1.514498
  C     -1.270202   -0.463094    0.162377
  C     -2.494821   -0.398084   -0.753305
  C     -0.046424    0.182733   -0.535177
  C      0.065604    1.681221   -0.259208
  C      1.263199   -0.590262   -0.258406
  C      2.404592   -0.079867   -1.140379
  C      1.709044   -0.585995    1.202068
  H     -2.405594   -0.451298    1.989954
  H     -0.780146    0.194981    2.182214
  H     -2.025931    1.157470    1.388583
  H     -1.036305   -1.521729    0.325749
  H     -2.311778   -0.930833   -1.683860
  H     -2.739014    0.635051   -0.990776
  H     -3.357190   -0.848241   -0.266584
  H     -0.217965    0.073793   -1.613787
  H     -0.879118    2.171086   -0.482166
  H      0.826226    2.126003   -0.894854
  H      0.320062    1.882451    0.776579
  H      1.071298   -1.632885   -0.543440
  H      2.738658    0.901253   -0.813476
  H      3.252107   -0.759381   -1.083072
  H      2.090934   -0.013155   -2.179804
  H      0.976988   -1.076043    1.837304
  H      1.867262    0.428039    1.559415
  H      2.649125   -1.125891    1.296782

 Total Charge           Charge          ....    0
 Multiplicity           Mult            ....    1
 Number of Electrons    NEL             ....   66
 Basis Dimension        Dim             ....  148

ORBITAL ENERGIES
----------------

  NO   OCC          E(Eh)            E(eV)
   0   2.0000      -9.888680      -269.0847
   1   2.0000      -9.887977      -269.0655
   2   2.0000      -9.885718      -269.0041
   3   2.0000      -9.868244      -268.5286
   4   2.0000      -9.868157      -268.5262
   5   2.0000      -9.867743      -268.5149
   6   2.0000      -9.867648      -268.5124
   7   2.0000      -9.866961      -268.4936
   8   2.0000      -0.745434       -20.2843
   9   2.0000      -0.697267       -18.9736
  10   2.0000      -0.643227       -17.5031
  11   2.0000      -0.610286       -16.6067
  12   2.0000      -0.602166       -16.3858
  13   2.0000      -0.570600       -15.5268
  14   2.0000      -0.501477       -13.6459
  15   2.0000      -0.467911       -12.7325
  16   2.0000      -0.424213       -11.5434
  17   2.0000      -0.413208       -11.2440
  18   2.0000      -0.401081       -10.9140
  19   2.0000      -0.378049       -10.2872
  20   2.0000      -0.359306        -9.7772
  21   2.0000      -0.352760        -9.5991
  22   2.0000      -0.343424        -9.3450
  23   2.0000      -0.336376        -9.1533
  24   2.0000      -0.332074        -9.0362
  25   2.0000      -0.322702        -8.7812
  26   2.0000      -0.321662        -8.7529
  27   2.0000      -0.305077        -8.3016
  28   2.0000      -0.289433        -7.8759
  29   2.0000      -0.282870        -7.6973
  30   2.0000      -0.266580        -7.2540
  31   2.0000      -0.261943        -7.1278
  32   2.0000      -0.252881        -6.8813
  33   0.0000       0.028279         0.7695
  34   0.0000       0.056362         1.5337
  35   0.0000       0.061013         1.6602
  36   0.0000       0.066560         1.8112
  37   0.0000       0.087329         2.3764

MULLIKEN ATOMIC CHARGES
-----------------------
   0 C :   -0.246462
   1 C :   -0.149175
   2 C :   -0.248832
   3 C :   -0.109274
   4 C :   -0.256920
   5 C :   -0.156070
   6 C :   -0.245060
   7 C :   -0.258442
   8 H :    0.096335
   9 H :    0.103876
  10 H :    0.093867
  11 H :    0.065124
  12 H :    0.098347
  13 H :    0.094785
  14 H :    0.094578
  15 H :    0.056588
  16 H :    0.098449
  17 H :    0.102114
  18 H :    0.104429
  19 H :    0.065366
  20 H :    0.100160
  21 H :    0.095866
  22 H :    0.095114
  23 H :    0.112592
  24 H :    0.097893
  25 H :    0.094753
Sum of atomic charges:   -0.0000000

LOEWDIN ATOMIC CHARGES
----------------------
   0 C :   -0.331784
   1 C :   -0.149132
   2 C :   -0.327711
   3 C :   -0.135057
   4 C :   -0.331638
   5 C :   -0.148536
   6 C :   -0.330800
   7 C :   -0.332406
   8 H :    0.118130
   9 H :    0.115571
  10 H :    0.116406
  11 H :    0.111995
  12 H :    0.115101
  13 H :    0.115038
  14 H :    0.115286
  15 H :    0.112481
  16 H :    0.117963
  17 H :    0.118990
  18 H :    0.117355
  19 H :    0.112066
  20 H :    0.115858
  21 H :    0.117330
  22 H :    0.115395
  23 H :    0.117690
  24 H :    0.116105
  25 H :    0.118305

  Mayer bond orders larger than 0.100000
B(  0-C ,  1-C ) :   1.1282 B(  0-C ,  8-H ) :   0.9465 B(  0-C ,  9-H ) :   0.9400
B(  0-C , 10-H ) :   0.9361 B(  1-C ,  2-C ) :   1.1091 B(  1-C ,  3-C ) :   1.0188
B(  1-C , 11-H ) :   0.8986 B(  2-C , 12-H ) :   0.9476 B(  2-C , 13-H ) :   0.9464
B(  2-C , 14-H ) :   0.9496 B(  3-C ,  4-C ) :   1.1239 B(  3-C ,  5-C ) :   1.0476
B(  3-C , 15-H ) :   0.8936 B(  4-C , 16-H ) :   0.9417 B(  4-C , 17-H ) :   0.9400
B(  4-C , 18-H ) :   0.9308 B(  5-C ,  6-C ) :   1.1136 B(  5-C ,  7-C ) :   1.1110
B(  5-C , 19-H ) :   0.8951 B(  6-C , 20-H ) :   0.9439 B(  6-C , 21-H ) :   0.9475
B(  6-C , 22-H ) :   0.9477 B(  7-C , 23-H ) :   0.9381 B(  7-C , 24-H ) :   0.9440
B(  7-C , 25-H ) :   0.9466

Dispersion correction           -0.023643671
FINAL SINGLE POINT ENERGY      -314.869769578376

DIPOLE MOMENT
-------------

Method             : SCF
Type of density    : Electron Density
Multiplicity       :   1
Irrep              :   0
Energy             :  -314.9566041319784517 Eh
Relativity type    :
Basis              : AO
                                X                 Y                 Z
Electronic contribution:     -0.026331393      -1.183056134      -0.766079255
Nuclear contribution   :      0.037167122       1.135806438       0.754995044
                        -----------------------------------------
Total Dipole Moment    :      0.010835729      -0.047249696      -0.011084212
                        -----------------------------------------
Magnitude (a.u.)       :      0.049727322
Magnitude (Debye)      :      0.126396807

Rotational constants in cm-1:             0.095813             0.042495             0.039048
Rotational constants in MHz :          2872.396530          1273.956342          1170.639520

                             ****ORCA TERMINATED NORMALLY****
TOTAL RUN TIME: 0 days 0 hours 0 minutes 11 seconds 591 msec
