                         Program Version 6.0.0  -   RELEASE  -
|  1> ! r2scan-3c def2/J RI DEFGRID2 scfconv6 printgap
|  2> %output
|  3>     printlevel normal
|  4> end
|  5> * xyz 0 1
|  6> C -4.2703768607 -1.9512481085 -1.3474121107
|  7> C -3.2981877985 -0.7905545935 -1.1763434504
|  8> C -2.4835139097 -0.9109228513 0.1155300183
|  9> H -2.0583147556 -1.9189544178 0.1713082802
| 10> C -3.3006663195 -0.6418264298 1.3739103308
| 11> N -1.3082395 -0.0192866263 0.0683221798
| 12> C -0.0513887101 -0.6205033997 0.121359675
| 13> O 0.0717527009 -1.8312088695 0.2018594937
| 14> C 1.0677297889 0.2952151478 0.0739500184
| 15> C 0.9105525093 1.639787696 -0.0166897277
| 16> N -0.3688508927 2.1078921359 -0.0628665478
| 17> C -1.5052184527 1.3372595802 -0.0262331633
| 18> O -2.5996073268 1.8665290786 -0.0765387302
| 19> C 1.9908540237 2.6544416274 -0.0700696686
| 20> Br 2.7763405467 -0.5360476041 0.1491911715
| 21> H -5.0251415874 -1.9452975273 -0.5669195664
| 22> H -4.7725248293 -1.8708882748 -2.3074318387
| 23> H -3.7402141196 -2.900249508 -1.3131258553
| 24> H -2.6024976211 -0.7813851785 -2.0197948394
| 25> H -3.8415152066 0.1547904418 -1.1753216808
| 26> H -2.6632026347 -0.6995197808 2.2535491165
| 27> H -3.7575559682 0.3428875173 1.3278496032
| 28> H -4.0793913978 -1.3914568316 1.464423222
| 29> H -0.5271221462 3.1087408755 -0.1315450202
| 30> H 1.8985748168 3.3350503757 0.7739135586
| 31> H 1.9048027534 3.2368905448 -0.9850191175
| 32> H 2.968711672 2.1844990674 -0.0397525875
| 33> *
| 34>
| 35>                          ****END OF INPUT****

CARTESIAN COORDINATES (ANGSTROEM)
---------------------------------
  C     -4.270377   -1.951248   -1.347412
  C     -3.298188   -0.790555   -1.176343
  C     -2.483514   -0.910923    0.115530
  H     -2.058315   -1.918954    0.171308
  C     -3.300666   -0.641826    1.373910
  N     -1.308239   -0.019287    0.068322
  C     -0.051389   -0.620503    0.121360
  O      0.071753   -1.831209    0.201859
  C      1.067730    0.295215    0.073950
  C      0.910553    1.639788   -0.016690
  N     -0.368851    2.107892   -0.062867
  C     -1.505218    1.337260   -0.026233
  O     -2.599607    1.866529   -0.076539
  C      1.990854    2.654442   -0.070070
  Br     2.776341   -0.536048    0.149191
  H     -5.025142   -1.945298   -0.566920
  H     -4.772525   -1.870888   -2.307432
  H     -3.740214   -2.900250   -1.313126
  H     -2.602498   -0.781385   -2.019795
  H     -3.841515    0.154790   -1.175322
  H     -2.663203   -0.699520    2.253549
  H     -3.757556    0.342888    1.327850
  H     -4.079391   -1.391457    1.464423
  H     -0.527122    3.108741   -0.131545
  H      1.898575    3.335050    0.773914
  H      1.904803    3.236891   -0.985019
  H      2.968712    2.184499   -0.039753

 Total Charge           Charge          ....    0
 Multiplicity           Mult            ....    1
 Number of Electrons    NEL             ....  132
 Basis Dimension        Dim             ....  368

ORBITAL ENERGIES
----------------

  NO   OCC          E(Eh)            E(eV)
   0   2.0000    -482.235183    -13122.2865
   1   2.0000     -62.306366     -1695.4424
   2   2.0000     -56.086978     -1526.2043
   3   2.0000     -56.084137     -1526.1269
   4   2.0000     -56.083965     -1526.1223
   5   2.0000     -18.932470      -515.1787
   6   2.0000     -18.927682      -515.0484
   7   2.0000     -14.238960      -387.4618
   8   2.0000     -14.227121      -387.1396
   9   2.0000     -10.182782      -277.0876
  10   2.0000     -10.151702      -276.2419
  11   2.0000     -10.130547      -275.6662
  12   2.0000     -10.101380      -274.8725
  13   2.0000     -10.076947      -274.2077
  14   2.0000     -10.068795      -273.9858
  15   2.0000     -10.027228      -272.8548
  16   2.0000     -10.019869      -272.6545
  17   2.0000     -10.019353      -272.6405
  18   2.0000      -8.638200      -235.0574
  19   2.0000      -6.446471      -175.4174
  20   2.0000      -6.431855      -175.0197
  21   2.0000      -6.431179      -175.0013
  22   2.0000      -2.543853       -69.2218
  23   2.0000      -2.540269       -69.1242
  24   2.0000      -2.539790       -69.1112
  25   2.0000      -2.528915       -68.8153
  26   2.0000      -2.528899       -68.8148
  27   2.0000      -1.054343       -28.6901
  28   2.0000      -1.015513       -27.6335
  29   2.0000      -0.958618       -26.0853
  30   2.0000      -0.918639       -24.9974
  31   2.0000      -0.814048       -22.1514
  32   2.0000      -0.776021       -21.1166
  33   2.0000      -0.750748       -20.4289
  34   2.0000      -0.709806       -19.3148
  35   2.0000      -0.692493       -18.8437
  36   2.0000      -0.648030       -17.6338
  37   2.0000      -0.633118       -17.2280
  38   2.0000      -0.603660       -16.4264
  39   2.0000      -0.567027       -15.4296
  40   2.0000      -0.548914       -14.9367
  41   2.0000      -0.518163       -14.0999
  42   2.0000      -0.472375       -12.8540
  43   2.0000      -0.458295       -12.4708
  44   2.0000      -0.438313       -11.9271
  45   2.0000      -0.433450       -11.7948
  46   2.0000      -0.430278       -11.7085
  47   2.0000      -0.412730       -11.2309
  48   2.0000      -0.408425       -11.1138
  49   2.0000      -0.400882       -10.9085
  50   2.0000      -0.393094       -10.6966
  51   2.0000      -0.385684       -10.4950
  52   2.0000      -0.380667       -10.3585
  53   2.0000      -0.369198       -10.0464
  54   2.0000      -0.360051        -9.7975
  55   2.0000      -0.340969        -9.2783
  56   2.0000      -0.336541        -9.1577
  57   2.0000      -0.327508        -8.9120
  58   2.0000      -0.307366        -8.3639
  59   2.0000      -0.302199        -8.2233
  60   2.0000      -0.291687        -7.9372
  61   2.0000      -0.269755        -7.3404
  62   2.0000      -0.255346        -6.9483
  63   2.0000      -0.253067        -6.8863
  64   2.0000      -0.235334        -6.4038
  65   2.0000      -0.219143        -5.9632
  66   0.0000      -0.073842        -2.0093
  67   0.0000      -0.033980        -0.9246
  68   0.0000      -0.025286        -0.6881
  69   0.0000       0.039169         1.0658
  70   0.0000       0.063047         1.7156

MULLIKEN ATOMIC CHARGES
-----------------------
   0 C :   -0.505971
   1 C :   -0.251259
   2 C :   -0.075055
   3 H :    0.218441
   4 C :   -0.562853
   5 N :    0.144892
   6 C :    0.216379
   7 O :   -0.434663
   8 C :   -0.147120
   9 C :    0.213048
  10 N :   -0.028318
  11 C :    0.254399
  12 O :   -0.461375
  13 C :   -0.605919
  14 Br:   -0.081091
  15 H :    0.146814
  16 H :    0.151626
  17 H :    0.153355
  18 H :    0.145920
  19 H :    0.182267
  20 H :    0.154202
  21 H :    0.197369
  22 H :    0.153503
  23 H :    0.280509
  24 H :    0.177473
  25 H :    0.176089
  26 H :    0.187339
Sum of atomic charges:   -0.0000000

LOEWDIN ATOMIC CHARGES
----------------------
   0 C :   -0.415376
   1 C :   -0.264401
   2 C :    0.044605
   3 H :    0.223034
   4 C :   -0.363666
   5 N :   -0.625299
   6 C :    0.357415
   7 O :   -0.472071
   8 C :   -0.194861
   9 C :    0.155698
  10 N :   -0.517507
  11 C :    0.459659
  12 O :   -0.423625
  13 C :   -0.350961
  14 Br:    0.256332
  15 H :    0.150719
  16 H :    0.154536
  17 H :    0.153118
  18 H :    0.163545
  19 H :    0.178765
  20 H :    0.162110
  21 H :    0.178415
  22 H :    0.158672
  23 H :    0.299018
  24 H :    0.176240
  25 H :    0.175760
  26 H :    0.180126

  Mayer bond orders larger than 0.100000
B(  0-C ,  1-C ) :   0.8930 B(  0-C , 15-H ) :   0.9817 B(  0-C , 16-H ) :   0.9705
B(  0-C , 17-H ) :   0.9886 B(  1-C ,  2-C ) :   0.8760 B(  1-C , 18-H ) :   0.9712
B(  1-C , 19-H ) :   0.9443 B(  2-C ,  3-H ) :   0.9697 B(  2-C ,  4-C ) :   0.8612
B(  2-C ,  5-N ) :   0.8644 B(  4-C , 20-H ) :   0.9718 B(  4-C , 21-H ) :   0.9746
B(  4-C , 22-H ) :   0.9691 B(  5-N ,  6-C ) :   1.0969 B(  5-N , 11-C ) :   1.1550
B(  6-C ,  7-O ) :   1.9210 B(  6-C ,  8-C ) :   0.9644 B(  6-C , 14-Br) :  -0.1247
B(  8-C ,  9-C ) :   1.4759 B(  8-C , 14-Br) :   1.2141 B(  9-C , 10-N ) :   1.1555
B(  9-C , 13-C ) :   0.8454 B( 10-N , 11-C ) :   1.0335 B( 10-N , 23-H ) :   0.9051
B( 11-C , 12-O ) :   1.8939 B( 13-C , 24-H ) :   0.9661 B( 13-C , 25-H ) :   0.9677
B( 13-C , 26-H ) :   0.9547

Dispersion correction           -0.011216002
FINAL SINGLE POINT ENERGY     -3184.785909931598

DIPOLE MOMENT
-------------

Method             : SCF
Type of density    : Electron Density
Multiplicity       :   1
Irrep              :   0
Energy             : -3184.7961923556499642 Eh
Relativity type    :
Basis              : AO
                                X                 Y                 Z
Electronic contribution:     50.811990254      -4.247280463       3.644737217
Nuclear contribution   :    -50.494520718       5.791437324      -3.773695534
                        -----------------------------------------
Total Dipole Moment    :      0.317469535       1.544156860      -0.128958316
                        -----------------------------------------
Magnitude (a.u.)       :      1.581719812
Magnitude (Debye)      :      4.020412254

Rotational constants in cm-1:             0.031338             0.010265             0.008347
Rotational constants in MHz :           939.481248           307.746740           250.228754

                             ****ORCA TERMINATED NORMALLY****
TOTAL RUN TIME: 0 days 0 hours 1 minutes 14 seconds 17 msec
