                         Program Version 6.0.0  -   RELEASE  -
|  1> ! r2scan-3c def2/J RI DEFGRID2 scfconv6 printgap
|  2> %output
|  3>     printlevel normal
|  4> end
|  5> %cpcm
|  6>     smd true
|  7>     smdsolvent "water"
|  8> end
|  9> * xyz 0 1
| 10> C -4.2703768607 -1.9512481085 -1.3474121107
| 11> C -3.2981877985 -0.7905545935 -1.1763434504
| 12> C -2.4835139097 -0.9109228513 0.1155300183
| 13> H -2.0583147556 -1.9189544178 0.1713082802
| 14> C -3.3006663195 -0.6418264298 1.3739103308
| 15> N -1.3082395 -0.0192866263 0.0683221798
| 16> C -0.0513887101 -0.6205033997 0.121359675
| 17> O 0.0717527009 -1.8312088695 0.2018594937
| 18> C 1.0677297889 0.2952151478 0.0739500184
| 19> C 0.9105525093 1.639787696 -0.0166897277
| 20> N -0.3688508927 2.1078921359 -0.0628665478
| 21> C -1.5052184527 1.3372595802 -0.0262331633
| 22> O -2.5996073268 1.8665290786 -0.0765387302
| 23> C 1.9908540237 2.6544416274 -0.0700696686
| 24> Br 2.7763405467 -0.5360476041 0.1491911715
| 25> H -5.0251415874 -1.9452975273 -0.5669195664
| 26> H -4.7725248293 -1.8708882748 -2.3074318387
| 27> H -3.7402141196 -2.900249508 -1.3131258553
| 28> H -2.6024976211 -0.7813851785 -2.0197948394
| 29> H -3.8415152066 0.1547904418 -1.1753216808
| 30> H -2.6632026347 -0.6995197808 2.2535491165
| 31> H -3.7575559682 0.3428875173 1.3278496032
| 32> H -4.0793913978 -1.3914568316 1.464423222
| 33> H -0.5271221462 3.1087408755 -0.1315450202
| 34> H 1.8985748168 3.3350503757 0.7739135586
| 35> H 1.9048027534 3.2368905448 -0.9850191175
| 36> H 2.968711672 2.1844990674 -0.0397525875
| 37> *
| 38>
| 39>                          ****END OF INPUT****

CARTESIAN COORDINATES (ANGSTROEM)
---------------------------------
  C     -4.270377   -1.951248   -1.347412
  C     -3.298188   -0.790555   -1.176343
  C     -2.483514   -0.910923    0.115530
  H     -2.058315   -1.918954    0.171308
  C     -3.300666   -0.641826    1.373910
  N     -1.308239   -0.019287    0.068322
  C     -0.051389   -0.620503    0.121360
  O      0.071753   -1.831209    0.201859
  C      1.067730    0.295215    0.073950
  C      0.910553    1.639788   -0.016690
  N     -0.368851    2.107892   -0.062867
  C     -1.505218    1.337260   -0.026233
  O     -2.599607    1.866529   -0.076539
  C      1.990854    2.654442   -0.070070
  Br     2.776341   -0.536048    0.149191
  H     -5.025142   -1.945298   -0.566920
  H     -4.772525   -1.870888   -2.307432
  H     -3.740214   -2.900250   -1.313126
  H     -2.602498   -0.781385   -2.019795
  H     -3.841515    0.154790   -1.175322
  H     -2.663203   -0.699520    2.253549
  H     -3.757556    0.342888    1.327850
  H     -4.079391   -1.391457    1.464423
  H     -0.527122    3.108741   -0.131545
  H      1.898575    3.335050    0.773914
  H      1.904803    3.236891   -0.985019
  H      2.968712    2.184499   -0.039753

 Total Charge           Charge          ....    0
 Multiplicity           Mult            ....    1
 Number of Electrons    NEL             ....  132
 Basis Dimension        Dim             ....  368

ORBITAL ENERGIES
----------------

  NO   OCC          E(Eh)            E(eV)
   0   2.0000    -482.234927    -13122.2795
   1   2.0000     -62.306163     -1695.4369
   2   2.0000     -56.086731     -1526.1975
   3   2.0000     -56.083947     -1526.1218
   4   2.0000     -56.083787     -1526.1174
   5   2.0000     -18.937236      -515.3084
   6   2.0000     -18.935562      -515.2628
   7   2.0000     -14.227116      -387.1395
   8   2.0000     -14.226489      -387.1225
   9   2.0000     -10.183494      -277.1070
  10   2.0000     -10.156466      -276.3715
  11   2.0000     -10.121754      -275.4269
  12   2.0000     -10.095135      -274.7026
  13   2.0000     -10.073686      -274.1189
  14   2.0000     -10.040457      -273.2147
  15   2.0000     -10.022582      -272.7283
  16   2.0000     -10.014216      -272.5007
  17   2.0000     -10.011401      -272.4241
  18   2.0000      -8.638055      -235.0534
  19   2.0000      -6.446105      -175.4074
  20   2.0000      -6.431823      -175.0188
  21   2.0000      -6.431158      -175.0007
  22   2.0000      -2.543557       -69.2137
  23   2.0000      -2.540050       -69.1183
  24   2.0000      -2.539580       -69.1055
  25   2.0000      -2.528948       -68.8162
  26   2.0000      -2.528932       -68.8157
  27   2.0000      -1.055152       -28.7122
  28   2.0000      -1.023360       -27.8471
  29   2.0000      -0.952480       -25.9183
  30   2.0000      -0.916568       -24.9411
  31   2.0000      -0.808350       -21.9963
  32   2.0000      -0.769282       -20.9332
  33   2.0000      -0.739527       -20.1235
  34   2.0000      -0.702951       -19.1283
  35   2.0000      -0.683598       -18.6016
  36   2.0000      -0.643192       -17.5021
  37   2.0000      -0.624743       -17.0001
  38   2.0000      -0.595991       -16.2177
  39   2.0000      -0.561478       -15.2786
  40   2.0000      -0.541987       -14.7482
  41   2.0000      -0.507921       -13.8212
  42   2.0000      -0.465621       -12.6702
  43   2.0000      -0.451859       -12.2957
  44   2.0000      -0.439702       -11.9649
  45   2.0000      -0.428592       -11.6626
  46   2.0000      -0.416364       -11.3298
  47   2.0000      -0.411900       -11.2084
  48   2.0000      -0.400201       -10.8900
  49   2.0000      -0.394867       -10.7449
  50   2.0000      -0.387534       -10.5453
  51   2.0000      -0.382854       -10.4180
  52   2.0000      -0.372200       -10.1281
  53   2.0000      -0.362307        -9.8589
  54   2.0000      -0.352404        -9.5894
  55   2.0000      -0.334836        -9.1114
  56   2.0000      -0.331711        -9.0263
  57   2.0000      -0.321133        -8.7385
  58   2.0000      -0.305125        -8.3029
  59   2.0000      -0.297187        -8.0869
  60   2.0000      -0.291305        -7.9268
  61   2.0000      -0.270654        -7.3649
  62   2.0000      -0.259867        -7.0713
  63   2.0000      -0.256045        -6.9673
  64   2.0000      -0.244829        -6.6621
  65   2.0000      -0.215961        -5.8766
  66   0.0000      -0.067028        -1.8239
  67   0.0000      -0.030888        -0.8405
  68   0.0000      -0.025851        -0.7034
  69   0.0000       0.057676         1.5694
  70   0.0000       0.078947         2.1483

MULLIKEN ATOMIC CHARGES
-----------------------
   0 C :   -0.544400
   1 C :   -0.256004
   2 C :   -0.064593
   3 H :    0.215703
   4 C :   -0.590087
   5 N :    0.169660
   6 C :    0.204185
   7 O :   -0.510328
   8 C :   -0.149292
   9 C :    0.238227
  10 N :   -0.029099
  11 C :    0.280802
  12 O :   -0.532132
  13 C :   -0.614784
  14 Br:   -0.111380
  15 H :    0.162040
  16 H :    0.163583
  17 H :    0.162729
  18 H :    0.165112
  19 H :    0.171397
  20 H :    0.170543
  21 H :    0.187318
  22 H :    0.175540
  23 H :    0.337125
  24 H :    0.209215
  25 H :    0.207992
  26 H :    0.180927
Sum of atomic charges:   -0.0000000

LOEWDIN ATOMIC CHARGES
----------------------
   0 C :   -0.421218
   1 C :   -0.264789
   2 C :    0.045924
   3 H :    0.222186
   4 C :   -0.366951
   5 N :   -0.613646
   6 C :    0.359303
   7 O :   -0.539028
   8 C :   -0.205432
   9 C :    0.182296
  10 N :   -0.478124
  11 C :    0.466503
  12 O :   -0.475093
  13 C :   -0.344534
  14 Br:    0.236328
  15 H :    0.155278
  16 H :    0.157355
  17 H :    0.155844
  18 H :    0.168575
  19 H :    0.174292
  20 H :    0.166741
  21 H :    0.174085
  22 H :    0.165864
  23 H :    0.317580
  24 H :    0.192539
  25 H :    0.192170
  26 H :    0.175953

  Mayer bond orders larger than 0.100000
B(  0-C ,  1-C ) :   0.8893 B(  0-C , 15-H ) :   0.9765 B(  0-C , 16-H ) :   0.9679
B(  0-C , 17-H ) :   0.9865 B(  1-C ,  2-C ) :   0.8701 B(  1-C , 18-H ) :   0.9725
B(  1-C , 19-H ) :   0.9469 B(  2-C ,  3-H ) :   0.9652 B(  2-C ,  4-C ) :   0.8648
B(  2-C ,  5-N ) :   0.8532 B(  4-C , 20-H ) :   0.9681 B(  4-C , 21-H ) :   0.9750
B(  4-C , 22-H ) :   0.9639 B(  5-N ,  6-C ) :   1.1056 B(  5-N , 11-C ) :   1.1661
B(  6-C ,  7-O ) :   1.8786 B(  6-C ,  8-C ) :   0.9794 B(  8-C ,  9-C ) :   1.4496
B(  8-C , 14-Br) :   1.1383 B(  9-C , 10-N ) :   1.1646 B(  9-C , 13-C ) :   0.8595
B( 10-N , 11-C ) :   1.0565 B( 10-N , 23-H ) :   0.8803 B( 11-C , 12-O ) :   1.8306
B( 13-C , 24-H ) :   0.9454 B( 13-C , 25-H ) :   0.9468 B( 13-C , 26-H ) :   0.9662

Dispersion correction           -0.011216002
FINAL SINGLE POINT ENERGY     -3184.801801920849

DIPOLE MOMENT
-------------

Method             : SCF
Type of density    : Electron Density
Multiplicity       :   1
Irrep              :   0
Energy             : -3184.8120843449009953 Eh
Relativity type    :
Basis              : AO
                                X                 Y                 Z
Electronic contribution:     50.991342608      -3.444173545       3.598544974
Nuclear contribution   :    -50.494520718       5.791437324      -3.773695534
                        -----------------------------------------
Total Dipole Moment    :      0.496821890       2.347263779      -0.175150560
                        -----------------------------------------
Magnitude (a.u.)       :      2.405651046
Magnitude (Debye)      :      6.114679018

Rotational constants in cm-1:             0.031338             0.010265             0.008347
Rotational constants in MHz :           939.481248           307.746740           250.228754

                             ****ORCA TERMINATED NORMALLY****
TOTAL RUN TIME: 0 days 0 hours 1 minutes 33 seconds 662 msec
