                         Program Version 6.0.0  -   RELEASE  -
|  1> ! pbe def2-sv(p) def2/J RI DEFGRID1 loosescf d4 GCP(DFT/SV(P)) printgap
|  2> %output
|  3>     printlevel normal
|  4> end
|  5> * xyz 0 1
|  6> C -0.1296781811 2.2214318484 -1.7175424988
|  7> N -0.3381467864 1.2395842892 -0.6660880828
|  8> C -1.4494548146 0.3581737309 -0.9519459852
|  9> C -1.7966581324 -0.4714347174 0.2708816935
| 10> F -0.9353062573 -1.4780374098 0.5065006293
| 11> F -1.8590615725 0.2418612484 1.402313464
| 12> F -3.0047006741 -1.0611874973 0.1346183476
| 13> C 0.8713197655 0.5533900261 -0.304327268
| 14> C 1.5198072744 -0.3255248927 -1.1630846274
| 15> C 2.6833426917 -0.954439086 -0.7580436891
| 16> C 3.2044975962 -0.7100297949 0.5011963631
| 17> C 2.5607098117 0.167785823 1.3569893912
| 18> C 1.3965765373 0.7994285539 0.9560801123
| 19> H 0.0865082683 1.7676205996 -2.6928041836
| 20> H 0.7077875121 2.8510491864 -1.4286504184
| 21> H -1.0227421482 2.8374131595 -1.8021819655
| 22> H -2.3273436741 0.9681481713 -1.1822396705
| 23> H -1.2798093503 -0.3525845906 -1.779391426
| 24> H 1.1201317881 -0.5201546472 -2.1479148489
| 25> H 3.1834841166 -1.6377311119 -1.4277045889
| 26> H 4.1108597694 -1.2047315016 0.8148973478
| 27> H 2.9631467914 0.3588480333 2.3399941649
| 28> H 0.8777883996 1.4807326597 1.6119931356
| 29> *
| 30>
| 31>                          ****END OF INPUT****

CARTESIAN COORDINATES (ANGSTROEM)
---------------------------------
  C     -0.129678    2.221432   -1.717542
  N     -0.338147    1.239584   -0.666088
  C     -1.449455    0.358174   -0.951946
  C     -1.796658   -0.471435    0.270882
  F     -0.935306   -1.478037    0.506501
  F     -1.859062    0.241861    1.402313
  F     -3.004701   -1.061187    0.134618
  C      0.871320    0.553390   -0.304327
  C      1.519807   -0.325525   -1.163085
  C      2.683343   -0.954439   -0.758044
  C      3.204498   -0.710030    0.501196
  C      2.560710    0.167786    1.356989
  C      1.396577    0.799429    0.956080
  H      0.086508    1.767621   -2.692804
  H      0.707788    2.851049   -1.428650
  H     -1.022742    2.837413   -1.802182
  H     -2.327344    0.968148   -1.182240
  H     -1.279809   -0.352585   -1.779391
  H      1.120132   -0.520155   -2.147915
  H      3.183484   -1.637731   -1.427705
  H      4.110860   -1.204732    0.814897
  H      2.963147    0.358848    2.339994
  H      0.877788    1.480733    1.611993

 Total Charge           Charge          ....    0
 Multiplicity           Mult            ....    1
 Number of Electrons    NEL             ....   98
 Basis Dimension        Dim             ....  202

ORBITAL ENERGIES
----------------

  NO   OCC          E(Eh)            E(eV)
   0   2.0000     -24.278234      -660.6443
   1   2.0000     -24.276646      -660.6011
   2   2.0000     -24.275258      -660.5634
   3   2.0000     -14.008945      -381.2028
   4   2.0000     -10.117210      -275.3033
   5   2.0000      -9.941443      -270.5204
   6   2.0000      -9.926945      -270.1259
   7   2.0000      -9.916633      -269.8453
   8   2.0000      -9.896322      -269.2926
   9   2.0000      -9.895601      -269.2730
  10   2.0000      -9.895153      -269.2608
  11   2.0000      -9.894769      -269.2503
  12   2.0000      -9.890929      -269.1459
  13   2.0000      -1.181972       -32.1631
  14   2.0000      -1.088846       -29.6290
  15   2.0000      -1.085640       -29.5418
  16   2.0000      -0.866492       -23.5784
  17   2.0000      -0.773643       -21.0519
  18   2.0000      -0.698119       -18.9968
  19   2.0000      -0.674784       -18.3618
  20   2.0000      -0.670719       -18.2512
  21   2.0000      -0.605184       -16.4679
  22   2.0000      -0.583876       -15.8881
  23   2.0000      -0.549007       -14.9392
  24   2.0000      -0.532660       -14.4944
  25   2.0000      -0.518559       -14.1107
  26   2.0000      -0.515353       -14.0235
  27   2.0000      -0.495223       -13.4757
  28   2.0000      -0.463295       -12.6069
  29   2.0000      -0.433805       -11.8044
  30   2.0000      -0.431597       -11.7443
  31   2.0000      -0.414281       -11.2731
  32   2.0000      -0.399176       -10.8621
  33   2.0000      -0.390038       -10.6135
  34   2.0000      -0.389141       -10.5891
  35   2.0000      -0.381510       -10.3814
  36   2.0000      -0.377648       -10.2763
  37   2.0000      -0.374481       -10.1901
  38   2.0000      -0.355322        -9.6688
  39   2.0000      -0.343947        -9.3593
  40   2.0000      -0.339429        -9.2363
  41   2.0000      -0.331644        -9.0245
  42   2.0000      -0.326133        -8.8745
  43   2.0000      -0.318128        -8.6567
  44   2.0000      -0.311388        -8.4733
  45   2.0000      -0.307262        -8.3610
  46   2.0000      -0.233224        -6.3464
  47   2.0000      -0.228618        -6.2210
  48   2.0000      -0.193183        -5.2568
  49   0.0000      -0.040609        -1.1050
  50   0.0000      -0.037316        -1.0154
  51   0.0000       0.027562         0.7500
  52   0.0000       0.045588         1.2405
  53   0.0000       0.061732         1.6798

MULLIKEN ATOMIC CHARGES
-----------------------
   0 C :   -0.147634
   1 N :   -0.289957
   2 C :   -0.102922
   3 C :    0.399934
   4 F :   -0.138490
   5 F :   -0.133650
   6 F :   -0.150199
   7 C :    0.099239
   8 C :   -0.087948
   9 C :   -0.058033
  10 C :   -0.031644
  11 C :   -0.059031
  12 C :   -0.054400
  13 H :    0.082777
  14 H :    0.119317
  15 H :    0.107551
  16 H :    0.112478
  17 H :    0.097825
  18 H :    0.036662
  19 H :    0.052208
  20 H :    0.054799
  21 H :    0.055021
  22 H :    0.036097
Sum of atomic charges:    0.0000000

LOEWDIN ATOMIC CHARGES
----------------------
   0 C :   -0.247794
   1 N :   -0.121262
   2 C :   -0.185323
   3 C :    0.109909
   4 F :   -0.045312
   5 F :   -0.040164
   6 F :   -0.058806
   7 C :   -0.013653
   8 C :   -0.128475
   9 C :   -0.117900
  10 C :   -0.122203
  11 C :   -0.117769
  12 C :   -0.117275
  13 H :    0.093856
  14 H :    0.123830
  15 H :    0.116142
  16 H :    0.135877
  17 H :    0.111913
  18 H :    0.122479
  19 H :    0.124040
  20 H :    0.124441
  21 H :    0.125226
  22 H :    0.128225

  Mayer bond orders larger than 0.100000
B(  0-C ,  1-N ) :   1.0290 B(  0-C , 13-H ) :   0.9317 B(  0-C , 14-H ) :   0.9535
B(  0-C , 15-H ) :   0.9522 B(  1-N ,  2-C ) :   1.0429 B(  1-N ,  7-C ) :   0.9663
B(  2-C ,  3-C ) :   1.0421 B(  2-C , 16-H ) :   0.9000 B(  2-C , 17-H ) :   0.8744
B(  3-C ,  4-F ) :   1.1489 B(  3-C ,  5-F ) :   1.1806 B(  3-C ,  6-F ) :   1.1504
B(  7-C ,  8-C ) :   1.3672 B(  7-C , 12-C ) :   1.4374 B(  8-C ,  9-C ) :   1.3580
B(  8-C , 18-H ) :   0.9593 B(  9-C , 10-C ) :   1.3792 B(  9-C , 19-H ) :   0.9593
B( 10-C , 11-C ) :   1.3785 B( 10-C , 20-H ) :   0.9655 B( 11-C , 12-C ) :   1.3291
B( 11-C , 21-H ) :   0.9613 B( 12-C , 22-H ) :   0.9641

Dispersion correction           -0.026343366
FINAL SINGLE POINT ENERGY      -701.820742227361

DIPOLE MOMENT
-------------

Method             : SCF
Type of density    : Electron Density
Multiplicity       :   1
Irrep              :   0
Energy             :  -701.9108867716460054 Eh
Relativity type    :
Basis              : AO
                                X                 Y                 Z
Electronic contribution:    -12.899784223      -7.893573930       8.366086574
Nuclear contribution   :     13.270332459       8.279094454      -9.115246342
                        -----------------------------------------
Total Dipole Moment    :      0.370548236       0.385520525      -0.749159768
                        -----------------------------------------
Magnitude (a.u.)       :      0.920419702
Magnitude (Debye)      :      2.339520958

Rotational constants in cm-1:             0.042778             0.019828             0.017252
Rotational constants in MHz :          1282.461103           594.432870           517.205367

                             ****ORCA TERMINATED NORMALLY****
TOTAL RUN TIME: 0 days 0 hours 0 minutes 15 seconds 207 msec
