                         Program Version 6.0.0  -   RELEASE  -
|  1> ! pbe def2-sv(p) def2/J RI DEFGRID1 loosescf d4 GCP(DFT/SV(P)) printgap
|  2> %output
|  3>     printlevel normal
|  4> end
|  5> * xyz 0 1
|  6> C 1.4782211514 -1.3622231482 -0.9493675565
|  7> O 1.4481943941 -0.2743954568 -0.0128073047
|  8> S 0.0732283062 0.4559552107 0.1036927056
|  9> O -0.4364776976 0.7829857814 -1.1972584917
| 10> O 0.2765871439 1.5257843869 1.0282307958
| 11> O -0.8242926264 -0.6445445596 0.7742754789
| 12> C -2.072168568 -1.0200163528 0.1699458521
| 13> H 2.5282897557 -1.5528197146 -1.1560802123
| 14> H 0.9487327183 -1.0587923081 -1.8517929567
| 15> H 1.0046066272 -2.233578791 -0.4986046295
| 16> H -2.0929242093 -2.1074193481 0.1232647645
| 17> H -2.1236628445 -0.5817444515 -0.8249368606
| 18> H -2.8824655536 -0.6448094613 0.7931164041
| 19> *
| 20>
| 21>                          ****END OF INPUT****

CARTESIAN COORDINATES (ANGSTROEM)
---------------------------------
  C      1.478221   -1.362223   -0.949368
  O      1.448194   -0.274395   -0.012807
  S      0.073228    0.455955    0.103693
  O     -0.436478    0.782986   -1.197258
  O      0.276587    1.525784    1.028231
  O     -0.824293   -0.644545    0.774275
  C     -2.072169   -1.020016    0.169946
  H      2.528290   -1.552820   -1.156080
  H      0.948733   -1.058792   -1.851793
  H      1.004607   -2.233579   -0.498605
  H     -2.092924   -2.107419    0.123265
  H     -2.123663   -0.581744   -0.824937
  H     -2.882466   -0.644809    0.793116

 Total Charge           Charge          ....    0
 Multiplicity           Mult            ....    1
 Number of Electrons    NEL             ....   66
 Basis Dimension        Dim             ....  114

ORBITAL ENERGIES
----------------

  NO   OCC          E(Eh)            E(eV)
   0   2.0000     -88.285988     -2402.3839
   1   2.0000     -18.821817      -512.1677
   2   2.0000     -18.820558      -512.1334
   3   2.0000     -18.758208      -510.4368
   4   2.0000     -18.745691      -510.0962
   5   2.0000      -9.962839      -271.1026
   6   2.0000      -9.962667      -271.0980
   7   2.0000      -7.896459      -214.8736
   8   2.0000      -5.924244      -161.2069
   9   2.0000      -5.923481      -161.1861
  10   2.0000      -5.920524      -161.1057
  11   2.0000      -1.101620       -29.9766
  12   2.0000      -0.986018       -26.8309
  13   2.0000      -0.956907       -26.0388
  14   2.0000      -0.925279       -25.1781
  15   2.0000      -0.702797       -19.1241
  16   2.0000      -0.667066       -18.1518
  17   2.0000      -0.555701       -15.1214
  18   2.0000      -0.524630       -14.2759
  19   2.0000      -0.467349       -12.7172
  20   2.0000      -0.462099       -12.5743
  21   2.0000      -0.438208       -11.9242
  22   2.0000      -0.437852       -11.9145
  23   2.0000      -0.426832       -11.6147
  24   2.0000      -0.389237       -10.5917
  25   2.0000      -0.354572        -9.6484
  26   2.0000      -0.344334        -9.3698
  27   2.0000      -0.314801        -8.5662
  28   2.0000      -0.312607        -8.5065
  29   2.0000      -0.310895        -8.4599
  30   2.0000      -0.277990        -7.5645
  31   2.0000      -0.266403        -7.2492
  32   2.0000      -0.250518        -6.8169
  33   0.0000       0.012574         0.3422
  34   0.0000       0.028231         0.7682
  35   0.0000       0.053600         1.4585
  36   0.0000       0.062916         1.7120
  37   0.0000       0.066876         1.8198

MULLIKEN ATOMIC CHARGES
-----------------------
   0 C :   -0.133018
   1 O :   -0.353630
   2 S :    0.941366
   3 O :   -0.394329
   4 O :   -0.362025
   5 O :   -0.387462
   6 C :   -0.134577
   7 H :    0.144938
   8 H :    0.136078
   9 H :    0.125215
  10 H :    0.128655
  11 H :    0.150800
  12 H :    0.137988
Sum of atomic charges:    0.0000000

LOEWDIN ATOMIC CHARGES
----------------------
   0 C :   -0.228151
   1 O :   -0.253273
   2 S :    1.117740
   3 O :   -0.449347
   4 O :   -0.432270
   5 O :   -0.274929
   6 C :   -0.219257
   7 H :    0.133450
   8 H :    0.119272
   9 H :    0.115648
  10 H :    0.121253
  11 H :    0.124431
  12 H :    0.125432

  Mayer bond orders larger than 0.100000
B(  0-C ,  1-O ) :   0.9053 B(  0-C ,  7-H ) :   0.9560 B(  0-C ,  8-H ) :   0.9349
B(  0-C ,  9-H ) :   0.9512 B(  1-O ,  2-S ) :   1.0528 B(  2-S ,  3-O ) :   1.7498
B(  2-S ,  4-O ) :   1.8643 B(  2-S ,  5-O ) :   1.0221 B(  5-O ,  6-C ) :   0.9011
B(  6-C , 10-H ) :   0.9559 B(  6-C , 11-H ) :   0.9283 B(  6-C , 12-H ) :   0.9562

Dispersion correction           -0.011769821
FINAL SINGLE POINT ENERGY      -777.741389935778

DIPOLE MOMENT
-------------

Method             : SCF
Type of density    : Electron Density
Multiplicity       :   1
Irrep              :   0
Energy             :  -777.8006656828497398 Eh
Relativity type    :
Basis              : AO
                                X                 Y                 Z
Electronic contribution:      2.071405664       5.966839038       2.648542581
Nuclear contribution   :     -2.450824353      -7.665970626      -3.198092577
                        -----------------------------------------
Total Dipole Moment    :     -0.379418689      -1.699131588      -0.549549996
                        -----------------------------------------
Magnitude (a.u.)       :      1.825653826
Magnitude (Debye)      :      4.640443244

Rotational constants in cm-1:             0.098584             0.079903             0.060666
Rotational constants in MHz :          2955.486218          2395.433552          1818.731434

                             ****ORCA TERMINATED NORMALLY****
TOTAL RUN TIME: 0 days 0 hours 0 minutes 7 seconds 487 msec
