                         Program Version 6.0.0  -   RELEASE  -
|  1> ! wb97x-v def2-tzvp def2/J RIJCOSX DEFGRID2 scfconv7 GCP(DFT/TZ) printgap
|  2> %output
|  3>     printlevel normal
|  4> end
|  5> * xyz 0 1
|  6> C -2.747472786587601 -0.33623056047839955 0.007026581515140472
|  7> C -1.3353473586281137 -0.02201809054664442 0.48800659620938286
|  8> C -0.30785733270387755 -0.1513997083664941 -0.6546824600308248
|  9> C 1.0689749607001455 0.16923002894454967 -0.1381192174411597
| 10> O 1.487328925466191 1.3249417290143006 -0.1262694105230515
| 11> C 1.8833386679660336 -0.9707606599663898 0.3904408727961123
| 12> H -3.4677819238514536 -0.24315517483724086 0.8258725993859889
| 13> H -2.810121721930053 -1.3571878447170969 -0.38420074316699304
| 14> H -3.0514513006279147 0.34984791687367384 -0.7906358739104665
| 15> H -1.0591277506794015 -0.7007835751291852 1.3033987048831521
| 16> H -1.2927264402467968 0.9972214454191736 0.888970433280518
| 17> H -0.33466563399094706 -1.172616397707807 -1.0498960990633435
| 18> H -0.5619298261331983 0.5525214382355221 -1.4537456139861031
| 19> H 1.2694309407619153 -1.6154936781506004 1.02815385297105
| 20> H 2.7620608968660476 -0.6164900116223262 0.9312835916501722
| 21> H 2.2007374868128418 -1.587648672600581 -0.45994206829050194
| 22> *
| 23>
| 24>                          ****END OF INPUT****

CARTESIAN COORDINATES (ANGSTROEM)
---------------------------------
  C     -2.747473   -0.336231    0.007027
  C     -1.335347   -0.022018    0.488007
  C     -0.307857   -0.151400   -0.654682
  C      1.068975    0.169230   -0.138119
  O      1.487329    1.324942   -0.126269
  C      1.883339   -0.970761    0.390441
  H     -3.467782   -0.243155    0.825873
  H     -2.810122   -1.357188   -0.384201
  H     -3.051451    0.349848   -0.790636
  H     -1.059128   -0.700784    1.303399
  H     -1.292726    0.997221    0.888970
  H     -0.334666   -1.172616   -1.049896
  H     -0.561930    0.552521   -1.453746
  H      1.269431   -1.615494    1.028154
  H      2.762061   -0.616490    0.931284
  H      2.200737   -1.587649   -0.459942

 Total Charge           Charge          ....    0
 Multiplicity           Mult            ....    1
 Number of Electrons    NEL             ....   48
 Basis Dimension        Dim             ....  246

ORBITAL ENERGIES
----------------

  NO   OCC          E(Eh)            E(eV)
   0   2.0000     -21.656255      -589.2966
   1   2.0000     -12.136469      -330.2501
   2   2.0000     -12.058354      -328.1245
   3   2.0000     -12.054323      -328.0148
   4   2.0000     -12.053053      -327.9803
   5   2.0000     -12.043548      -327.7216
   6   2.0000      -1.698414       -46.2162
   7   2.0000      -1.320517       -35.9331
   8   2.0000      -1.264036       -34.3962
   9   2.0000      -1.201493       -32.6943
  10   2.0000      -1.097878       -29.8748
  11   2.0000      -1.065317       -28.9887
  12   2.0000      -0.966661       -26.3042
  13   2.0000      -0.961597       -26.1664
  14   2.0000      -0.908617       -24.7247
  15   2.0000      -0.895086       -24.3565
  16   2.0000      -0.854634       -23.2558
  17   2.0000      -0.843656       -22.9570
  18   2.0000      -0.837271       -22.7833
  19   2.0000      -0.830685       -22.6041
  20   2.0000      -0.821408       -22.3516
  21   2.0000      -0.785087       -21.3633
  22   2.0000      -0.781570       -21.2676
  23   2.0000      -0.765372       -20.8268
  24   0.0000      -0.310186        -8.4406
  25   0.0000      -0.051034        -1.3887
  26   0.0000      -0.032010        -0.8710
  27   0.0000      -0.021526        -0.5857
  28   0.0000      -0.004733        -0.1288

MULLIKEN ATOMIC CHARGES
-----------------------
   0 C :   -0.331633
   1 C :   -0.192527
   2 C :   -0.164645
   3 C :    0.220466
   4 O :   -0.321845
   5 C :   -0.355673
   6 H :    0.118265
   7 H :    0.104143
   8 H :    0.111734
   9 H :    0.088427
  10 H :    0.118247
  11 H :    0.099697
  12 H :    0.115113
  13 H :    0.122470
  14 H :    0.136013
  15 H :    0.131747
Sum of atomic charges:    0.0000000

LOEWDIN ATOMIC CHARGES
----------------------
   0 C :   -0.305046
   1 C :   -0.274626
   2 C :   -0.225421
   3 C :   -0.343473
   4 O :    0.101143
   5 C :   -0.260582
   6 H :    0.118218
   7 H :    0.116193
   8 H :    0.118714
   9 H :    0.130235
  10 H :    0.138959
  11 H :    0.139529
  12 H :    0.146819
  13 H :    0.130743
  14 H :    0.130320
  15 H :    0.138275

  Mayer bond orders larger than 0.100000
B(  0-C ,  1-C ) :   0.9802 B(  0-C ,  6-H ) :   0.9828 B(  0-C ,  7-H ) :   0.9797
B(  0-C ,  8-H ) :   0.9814 B(  1-C ,  2-C ) :   0.9720 B(  1-C ,  9-H ) :   0.9666
B(  1-C , 10-H ) :   0.9757 B(  2-C ,  3-C ) :   0.9343 B(  2-C , 11-H ) :   0.9585
B(  2-C , 12-H ) :   0.9591 B(  3-C ,  4-O ) :   2.1396 B(  3-C ,  5-C ) :   0.9762
B(  5-C , 13-H ) :   0.9598 B(  5-C , 14-H ) :   0.9783 B(  5-C , 15-H ) :   0.9489

FINAL SINGLE POINT ENERGY      -271.792216574613

DIPOLE MOMENT
-------------

Method             : SCF
Type of density    : Electron Density
Multiplicity       :   1
Irrep              :   0
Energy             :  -271.8028138582125735 Eh
Relativity type    :
Basis              : AO
                                X                 Y                 Z
Electronic contribution:      5.423507554       3.929243860      -0.748191022
Nuclear contribution   :     -5.944717858      -5.042061472       0.792173471
                        -----------------------------------------
Total Dipole Moment    :     -0.521210304      -1.112817612       0.043982449
                        -----------------------------------------
Magnitude (a.u.)       :      1.229616881
Magnitude (Debye)      :      3.125437729

Rotational constants in cm-1:             0.240953             0.062049             0.055127
Rotational constants in MHz :          7223.579263          1860.190644          1652.677713

                             ****ORCA TERMINATED NORMALLY****
TOTAL RUN TIME: 0 days 0 hours 2 minutes 5 seconds 69 msec
