                         Program Version 6.0.0  -   RELEASE  -
|  1> ! wb97x-v def2-tzvp def2/J RIJCOSX DEFGRID2 scfconv7 GCP(DFT/TZ) printgap
|  2> %output
|  3>     printlevel normal
|  4> end
|  5> %cpcm
|  6>     smd true
|  7>     smdsolvent "water"
|  8> end
|  9> * xyz 0 1
| 10> C -2.747472786587601 -0.33623056047839955 0.007026581515140472
| 11> C -1.3353473586281137 -0.02201809054664442 0.48800659620938286
| 12> C -0.30785733270387755 -0.1513997083664941 -0.6546824600308248
| 13> C 1.0689749607001455 0.16923002894454967 -0.1381192174411597
| 14> O 1.487328925466191 1.3249417290143006 -0.1262694105230515
| 15> C 1.8833386679660336 -0.9707606599663898 0.3904408727961123
| 16> H -3.4677819238514536 -0.24315517483724086 0.8258725993859889
| 17> H -2.810121721930053 -1.3571878447170969 -0.38420074316699304
| 18> H -3.0514513006279147 0.34984791687367384 -0.7906358739104665
| 19> H -1.0591277506794015 -0.7007835751291852 1.3033987048831521
| 20> H -1.2927264402467968 0.9972214454191736 0.888970433280518
| 21> H -0.33466563399094706 -1.172616397707807 -1.0498960990633435
| 22> H -0.5619298261331983 0.5525214382355221 -1.4537456139861031
| 23> H 1.2694309407619153 -1.6154936781506004 1.02815385297105
| 24> H 2.7620608968660476 -0.6164900116223262 0.9312835916501722
| 25> H 2.2007374868128418 -1.587648672600581 -0.45994206829050194
| 26> *
| 27>
| 28>                          ****END OF INPUT****

CARTESIAN COORDINATES (ANGSTROEM)
---------------------------------
  C     -2.747473   -0.336231    0.007027
  C     -1.335347   -0.022018    0.488007
  C     -0.307857   -0.151400   -0.654682
  C      1.068975    0.169230   -0.138119
  O      1.487329    1.324942   -0.126269
  C      1.883339   -0.970761    0.390441
  H     -3.467782   -0.243155    0.825873
  H     -2.810122   -1.357188   -0.384201
  H     -3.051451    0.349848   -0.790636
  H     -1.059128   -0.700784    1.303399
  H     -1.292726    0.997221    0.888970
  H     -0.334666   -1.172616   -1.049896
  H     -0.561930    0.552521   -1.453746
  H      1.269431   -1.615494    1.028154
  H      2.762061   -0.616490    0.931284
  H      2.200737   -1.587649   -0.459942

 Total Charge           Charge          ....    0
 Multiplicity           Mult            ....    1
 Number of Electrons    NEL             ....   48
 Basis Dimension        Dim             ....  246

ORBITAL ENERGIES
----------------

  NO   OCC          E(Eh)            E(eV)
   0   2.0000     -21.666970      -589.5882
   1   2.0000     -12.143359      -330.4376
   2   2.0000     -12.044289      -327.7418
   3   2.0000     -12.042524      -327.6937
   4   2.0000     -12.039411      -327.6090
   5   2.0000     -12.027908      -327.2960
   6   2.0000      -1.712801       -46.6077
   7   2.0000      -1.310134       -35.6505
   8   2.0000      -1.253699       -34.1149
   9   2.0000      -1.190002       -32.3816
  10   2.0000      -1.098187       -29.8832
  11   2.0000      -1.063845       -28.9487
  12   2.0000      -0.966418       -26.2976
  13   2.0000      -0.960072       -26.1249
  14   2.0000      -0.919650       -25.0249
  15   2.0000      -0.881606       -23.9897
  16   2.0000      -0.843041       -22.9403
  17   2.0000      -0.833224       -22.6732
  18   2.0000      -0.827945       -22.5295
  19   2.0000      -0.819376       -22.2963
  20   2.0000      -0.808216       -21.9927
  21   2.0000      -0.779403       -21.2086
  22   2.0000      -0.769226       -20.9317
  23   2.0000      -0.750257       -20.4155
  24   0.0000      -0.307452        -8.3662
  25   0.0000      -0.043015        -1.1705
  26   0.0000      -0.015426        -0.4198
  27   0.0000      -0.006239        -0.1698
  28   0.0000       0.005615         0.1528

MULLIKEN ATOMIC CHARGES
-----------------------
   0 C :   -0.382407
   1 C :   -0.198619
   2 C :   -0.193519
   3 C :    0.309487
   4 O :   -0.466394
   5 C :   -0.398411
   6 H :    0.131710
   7 H :    0.123212
   8 H :    0.123557
   9 H :    0.115804
  10 H :    0.113075
  11 H :    0.131238
  12 H :    0.127055
  13 H :    0.159597
  14 H :    0.139194
  15 H :    0.165424
Sum of atomic charges:    0.0000000

LOEWDIN ATOMIC CHARGES
----------------------
   0 C :   -0.309627
   1 C :   -0.272513
   2 C :   -0.219578
   3 C :   -0.321843
   4 O :    0.017790
   5 C :   -0.253780
   6 H :    0.120153
   7 H :    0.120088
   8 H :    0.120207
   9 H :    0.137620
  10 H :    0.136700
  11 H :    0.151427
  12 H :    0.148537
  13 H :    0.144031
  14 H :    0.130085
  15 H :    0.150703

  Mayer bond orders larger than 0.100000
B(  0-C ,  1-C ) :   0.9750 B(  0-C ,  6-H ) :   0.9794 B(  0-C ,  7-H ) :   0.9784
B(  0-C ,  8-H ) :   0.9788 B(  1-C ,  2-C ) :   0.9639 B(  1-C ,  9-H ) :   0.9663
B(  1-C , 10-H ) :   0.9733 B(  2-C ,  3-C ) :   0.9506 B(  2-C , 11-H ) :   0.9506
B(  2-C , 12-H ) :   0.9598 B(  3-C ,  4-O ) :   1.9739 B(  3-C ,  5-C ) :   1.0028
B(  5-C , 13-H ) :   0.9485 B(  5-C , 14-H ) :   0.9703 B(  5-C , 15-H ) :   0.9367

FINAL SINGLE POINT ENERGY      -271.799887557527

DIPOLE MOMENT
-------------

Method             : SCF
Type of density    : Electron Density
Multiplicity       :   1
Irrep              :   0
Energy             :  -271.8104848411273338 Eh
Relativity type    :
Basis              : AO
                                X                 Y                 Z
Electronic contribution:      5.247191861       3.374899492      -0.745821920
Nuclear contribution   :     -5.944717858      -5.042061472       0.792173471
                        -----------------------------------------
Total Dipole Moment    :     -0.697525997      -1.667161980       0.046351551
                        -----------------------------------------
Magnitude (a.u.)       :      1.807794250
Magnitude (Debye)      :      4.595047810

Rotational constants in cm-1:             0.240953             0.062049             0.055127
Rotational constants in MHz :          7223.579263          1860.190644          1652.677713

                             ****ORCA TERMINATED NORMALLY****
TOTAL RUN TIME: 0 days 0 hours 2 minutes 6 seconds 624 msec
