                         Program Version 6.0.0  -   RELEASE  -
|  1> ! r2scan-3c def2/J RI DEFGRID2 scfconv6 printgap
|  2> %output
|  3>     printlevel normal
|  4> end
|  5> * xyz 0 1
|  6> C -2.6447341073 -0.7965333269 1.0149894777
|  7> C -2.2056603646 0.1586963346 -0.0929267366
|  8> C -3.1330139133 0.0089461544 -1.2988364332
|  9> C -0.7523485445 -0.0908179751 -0.5174507447
| 10> C 0.2597898263 0.3621656664 0.5336301885
| 11> C 1.7418746477 0.1521008908 0.1698264946
| 12> C 2.0582190496 -1.3369735637 0.0094741521
| 13> C 2.1072839045 0.8938298091 -1.1183001926
| 14> C 2.5891283444 0.7141885955 1.3178402286
| 15> H -2.0410303626 -0.6670876989 1.9090041803
| 16> H -2.5518392202 -1.8280583655 0.6814726274
| 17> H -3.6837223774 -0.6145793624 1.2804672381
| 18> H -2.2870914447 1.1864626589 0.279684193
| 19> H -2.8676145422 0.7178528898 -2.0798299593
| 20> H -3.060047422 -0.9965140751 -1.708066934
| 21> H -4.1664603815 0.1878310451 -1.0111154217
| 22> H -0.6283595502 -1.1549544194 -0.7237668122
| 23> H -0.5706597589 0.4549797431 -1.4446414211
| 24> H 0.0678120936 -0.1696751255 1.4676032761
| 25> H 0.1014956479 1.4268881897 0.726037115
| 26> H 1.5372104871 -1.7576674701 -0.8462563987
| 27> H 3.1258159651 -1.4786178658 -0.1437002103
| 28> H 1.7639118886 -1.8882700488 0.8997442818
| 29> H 3.1810799639 0.8449430302 -1.2853336457
| 30> H 1.6134097628 0.4508391801 -1.9788922506
| 31> H 1.8184798017 1.9404200587 -1.052193716
| 32> H 3.6484985527 0.5758233373 1.1139378713
| 33> H 2.352300929 0.2096029033 2.2519545025
| 34> H 2.4020515181 1.7780047821 1.4464513385
| 35> *
| 36>
| 37>                          ****END OF INPUT****

CARTESIAN COORDINATES (ANGSTROEM)
---------------------------------
  C     -2.644734   -0.796533    1.014989
  C     -2.205660    0.158696   -0.092927
  C     -3.133014    0.008946   -1.298836
  C     -0.752349   -0.090818   -0.517451
  C      0.259790    0.362166    0.533630
  C      1.741875    0.152101    0.169826
  C      2.058219   -1.336974    0.009474
  C      2.107284    0.893830   -1.118300
  C      2.589128    0.714189    1.317840
  H     -2.041030   -0.667088    1.909004
  H     -2.551839   -1.828058    0.681473
  H     -3.683722   -0.614579    1.280467
  H     -2.287091    1.186463    0.279684
  H     -2.867615    0.717853   -2.079830
  H     -3.060047   -0.996514   -1.708067
  H     -4.166460    0.187831   -1.011115
  H     -0.628360   -1.154954   -0.723767
  H     -0.570660    0.454980   -1.444641
  H      0.067812   -0.169675    1.467603
  H      0.101496    1.426888    0.726037
  H      1.537210   -1.757667   -0.846256
  H      3.125816   -1.478618   -0.143700
  H      1.763912   -1.888270    0.899744
  H      3.181080    0.844943   -1.285334
  H      1.613410    0.450839   -1.978892
  H      1.818480    1.940420   -1.052194
  H      3.648499    0.575823    1.113938
  H      2.352301    0.209603    2.251955
  H      2.402052    1.778005    1.446451

 Total Charge           Charge          ....    0
 Multiplicity           Mult            ....    1
 Number of Electrons    NEL             ....   74
 Basis Dimension        Dim             ....  271

ORBITAL ENERGIES
----------------

  NO   OCC          E(Eh)            E(eV)
   0   2.0000     -10.038556      -273.1630
   1   2.0000     -10.030149      -272.9342
   2   2.0000     -10.018048      -272.6050
   3   2.0000     -10.017697      -272.5954
   4   2.0000     -10.012282      -272.4480
   5   2.0000     -10.012000      -272.4404
   6   2.0000     -10.011468      -272.4259
   7   2.0000     -10.011410      -272.4243
   8   2.0000     -10.011117      -272.4163
   9   2.0000      -0.795157       -21.6373
  10   2.0000      -0.766373       -20.8541
  11   2.0000      -0.686044       -18.6682
  12   2.0000      -0.649629       -17.6773
  13   2.0000      -0.649005       -17.6603
  14   2.0000      -0.646634       -17.5958
  15   2.0000      -0.592750       -16.1295
  16   2.0000      -0.523229       -14.2378
  17   2.0000      -0.494177       -13.4472
  18   2.0000      -0.438511       -11.9325
  19   2.0000      -0.425237       -11.5713
  20   2.0000      -0.418291       -11.3823
  21   2.0000      -0.406907       -11.0725
  22   2.0000      -0.392519       -10.6810
  23   2.0000      -0.388270       -10.5654
  24   2.0000      -0.367475        -9.9995
  25   2.0000      -0.355657        -9.6779
  26   2.0000      -0.349919        -9.5218
  27   2.0000      -0.341462        -9.2917
  28   2.0000      -0.330291        -8.9877
  29   2.0000      -0.324562        -8.8318
  30   2.0000      -0.314891        -8.5686
  31   2.0000      -0.309511        -8.4222
  32   2.0000      -0.296572        -8.0701
  33   2.0000      -0.291339        -7.9277
  34   2.0000      -0.282086        -7.6759
  35   2.0000      -0.275399        -7.4940
  36   2.0000      -0.266174        -7.2429
  37   0.0000       0.074166         2.0182
  38   0.0000       0.088221         2.4006
  39   0.0000       0.110703         3.0124
  40   0.0000       0.117273         3.1911
  41   0.0000       0.121281         3.3002

MULLIKEN ATOMIC CHARGES
-----------------------
   0 C :   -0.519675
   1 C :   -0.004318
   2 C :   -0.477091
   3 C :   -0.298473
   4 C :   -0.345439
   5 C :    0.179256
   6 C :   -0.523805
   7 C :   -0.524597
   8 C :   -0.489336
   9 H :    0.146752
  10 H :    0.151236
  11 H :    0.145826
  12 H :    0.140064
  13 H :    0.145483
  14 H :    0.144601
  15 H :    0.146401
  16 H :    0.148436
  17 H :    0.145404
  18 H :    0.146183
  19 H :    0.154269
  20 H :    0.156907
  21 H :    0.152658
  22 H :    0.154154
  23 H :    0.152511
  24 H :    0.157750
  25 H :    0.155109
  26 H :    0.155219
  27 H :    0.152134
  28 H :    0.152381
Sum of atomic charges:   -0.0000000

LOEWDIN ATOMIC CHARGES
----------------------
   0 C :   -0.417756
   1 C :   -0.246129
   2 C :   -0.418062
   3 C :   -0.298496
   4 C :   -0.293313
   5 C :   -0.213942
   6 C :   -0.408588
   7 C :   -0.408810
   8 C :   -0.409157
   9 H :    0.151558
  10 H :    0.153393
  11 H :    0.152933
  12 H :    0.154787
  13 H :    0.151808
  14 H :    0.153639
  15 H :    0.151686
  16 H :    0.158866
  17 H :    0.159672
  18 H :    0.160340
  19 H :    0.160711
  20 H :    0.155073
  21 H :    0.156610
  22 H :    0.157177
  23 H :    0.156619
  24 H :    0.155525
  25 H :    0.157279
  26 H :    0.154454
  27 H :    0.156090
  28 H :    0.156035

  Mayer bond orders larger than 0.100000
B(  0-C ,  1-C ) :   0.9056 B(  0-C ,  9-H ) :   0.9750 B(  0-C , 10-H ) :   0.9895
B(  0-C , 11-H ) :   0.9729 B(  1-C ,  2-C ) :   0.8968 B(  1-C ,  3-C ) :   0.8882
B(  1-C , 12-H ) :   0.9668 B(  2-C , 13-H ) :   0.9818 B(  2-C , 14-H ) :   0.9827
B(  2-C , 15-H ) :   0.9791 B(  3-C ,  4-C ) :   0.8943 B(  3-C , 16-H ) :   0.9780
B(  3-C , 17-H ) :   0.9767 B(  4-C ,  5-C ) :   0.8756 B(  4-C , 18-H ) :   0.9866
B(  4-C , 19-H ) :   0.9952 B(  5-C ,  6-C ) :   0.9225 B(  5-C ,  7-C ) :   0.9124
B(  5-C ,  8-C ) :   0.9279 B(  6-C , 20-H ) :   0.9772 B(  6-C , 21-H ) :   0.9732
B(  6-C , 22-H ) :   0.9743 B(  7-C , 23-H ) :   0.9727 B(  7-C , 24-H ) :   0.9764
B(  7-C , 25-H ) :   0.9761 B(  8-C , 26-H ) :   0.9808 B(  8-C , 27-H ) :   0.9789
B(  8-C , 28-H ) :   0.9790

Dispersion correction           -0.008904713
FINAL SINGLE POINT ENERGY      -354.889767952175

DIPOLE MOMENT
-------------

Method             : SCF
Type of density    : Electron Density
Multiplicity       :   1
Irrep              :   0
Energy             :  -354.8949407246198575 Eh
Relativity type    :
Basis              : AO
                                X                 Y                 Z
Electronic contribution:      0.220465627       0.767243249       0.208670514
Nuclear contribution   :     -0.229623024      -0.733432945      -0.203994036
                        -----------------------------------------
Total Dipole Moment    :     -0.009157397       0.033810304       0.004676479
                        -----------------------------------------
Magnitude (a.u.)       :      0.035339271
Magnitude (Debye)      :      0.089825287

Rotational constants in cm-1:             0.094778             0.024569             0.023022
Rotational constants in MHz :          2841.380782           736.554149           690.183484

                             ****ORCA TERMINATED NORMALLY****
TOTAL RUN TIME: 0 days 0 hours 0 minutes 32 seconds 897 msec
