                         Program Version 6.0.0  -   RELEASE  -
|  1> ! r2scan-3c def2/J RI DEFGRID2 scfconv6 printgap
|  2> %output
|  3>     printlevel normal
|  4> end
|  5> %cpcm
|  6>     smd true
|  7>     smdsolvent "water"
|  8> end
|  9> * xyz 0 1
| 10> C -2.6447341073 -0.7965333269 1.0149894777
| 11> C -2.2056603646 0.1586963346 -0.0929267366
| 12> C -3.1330139133 0.0089461544 -1.2988364332
| 13> C -0.7523485445 -0.0908179751 -0.5174507447
| 14> C 0.2597898263 0.3621656664 0.5336301885
| 15> C 1.7418746477 0.1521008908 0.1698264946
| 16> C 2.0582190496 -1.3369735637 0.0094741521
| 17> C 2.1072839045 0.8938298091 -1.1183001926
| 18> C 2.5891283444 0.7141885955 1.3178402286
| 19> H -2.0410303626 -0.6670876989 1.9090041803
| 20> H -2.5518392202 -1.8280583655 0.6814726274
| 21> H -3.6837223774 -0.6145793624 1.2804672381
| 22> H -2.2870914447 1.1864626589 0.279684193
| 23> H -2.8676145422 0.7178528898 -2.0798299593
| 24> H -3.060047422 -0.9965140751 -1.708066934
| 25> H -4.1664603815 0.1878310451 -1.0111154217
| 26> H -0.6283595502 -1.1549544194 -0.7237668122
| 27> H -0.5706597589 0.4549797431 -1.4446414211
| 28> H 0.0678120936 -0.1696751255 1.4676032761
| 29> H 0.1014956479 1.4268881897 0.726037115
| 30> H 1.5372104871 -1.7576674701 -0.8462563987
| 31> H 3.1258159651 -1.4786178658 -0.1437002103
| 32> H 1.7639118886 -1.8882700488 0.8997442818
| 33> H 3.1810799639 0.8449430302 -1.2853336457
| 34> H 1.6134097628 0.4508391801 -1.9788922506
| 35> H 1.8184798017 1.9404200587 -1.052193716
| 36> H 3.6484985527 0.5758233373 1.1139378713
| 37> H 2.352300929 0.2096029033 2.2519545025
| 38> H 2.4020515181 1.7780047821 1.4464513385
| 39> *
| 40>
| 41>                          ****END OF INPUT****

CARTESIAN COORDINATES (ANGSTROEM)
---------------------------------
  C     -2.644734   -0.796533    1.014989
  C     -2.205660    0.158696   -0.092927
  C     -3.133014    0.008946   -1.298836
  C     -0.752349   -0.090818   -0.517451
  C      0.259790    0.362166    0.533630
  C      1.741875    0.152101    0.169826
  C      2.058219   -1.336974    0.009474
  C      2.107284    0.893830   -1.118300
  C      2.589128    0.714189    1.317840
  H     -2.041030   -0.667088    1.909004
  H     -2.551839   -1.828058    0.681473
  H     -3.683722   -0.614579    1.280467
  H     -2.287091    1.186463    0.279684
  H     -2.867615    0.717853   -2.079830
  H     -3.060047   -0.996514   -1.708067
  H     -4.166460    0.187831   -1.011115
  H     -0.628360   -1.154954   -0.723767
  H     -0.570660    0.454980   -1.444641
  H      0.067812   -0.169675    1.467603
  H      0.101496    1.426888    0.726037
  H      1.537210   -1.757667   -0.846256
  H      3.125816   -1.478618   -0.143700
  H      1.763912   -1.888270    0.899744
  H      3.181080    0.844943   -1.285334
  H      1.613410    0.450839   -1.978892
  H      1.818480    1.940420   -1.052194
  H      3.648499    0.575823    1.113938
  H      2.352301    0.209603    2.251955
  H      2.402052    1.778005    1.446451

 Total Charge           Charge          ....    0
 Multiplicity           Mult            ....    1
 Number of Electrons    NEL             ....   74
 Basis Dimension        Dim             ....  271

ORBITAL ENERGIES
----------------

  NO   OCC          E(Eh)            E(eV)
   0   2.0000     -10.031076      -272.9595
   1   2.0000     -10.022477      -272.7255
   2   2.0000     -10.009073      -272.3607
   3   2.0000     -10.008822      -272.3539
   4   2.0000     -10.004621      -272.2396
   5   2.0000     -10.004480      -272.2357
   6   2.0000     -10.003386      -272.2060
   7   2.0000     -10.003352      -272.2050
   8   2.0000     -10.003329      -272.2044
   9   2.0000      -0.787096       -21.4180
  10   2.0000      -0.758692       -20.6450
  11   2.0000      -0.678077       -18.4514
  12   2.0000      -0.642312       -17.4782
  13   2.0000      -0.641689       -17.4612
  14   2.0000      -0.639667       -17.4062
  15   2.0000      -0.584869       -15.9151
  16   2.0000      -0.515565       -14.0292
  17   2.0000      -0.486692       -13.2435
  18   2.0000      -0.430256       -11.7079
  19   2.0000      -0.417382       -11.3576
  20   2.0000      -0.410436       -11.1685
  21   2.0000      -0.399233       -10.8637
  22   2.0000      -0.384901       -10.4737
  23   2.0000      -0.380524       -10.3546
  24   2.0000      -0.359838        -9.7917
  25   2.0000      -0.348119        -9.4728
  26   2.0000      -0.342648        -9.3239
  27   2.0000      -0.333610        -9.0780
  28   2.0000      -0.322542        -8.7768
  29   2.0000      -0.316682        -8.6174
  30   2.0000      -0.306809        -8.3487
  31   2.0000      -0.301638        -8.2080
  32   2.0000      -0.288966        -7.8632
  33   2.0000      -0.283490        -7.7141
  34   2.0000      -0.273775        -7.4498
  35   2.0000      -0.267452        -7.2777
  36   2.0000      -0.258268        -7.0278
  37   0.0000       0.083155         2.2628
  38   0.0000       0.096387         2.6228
  39   0.0000       0.118807         3.2329
  40   0.0000       0.124749         3.3946
  41   0.0000       0.129217         3.5162

MULLIKEN ATOMIC CHARGES
-----------------------
   0 C :   -0.564345
   1 C :    0.015453
   2 C :   -0.525177
   3 C :   -0.316723
   4 C :   -0.370502
   5 C :    0.230835
   6 C :   -0.571962
   7 C :   -0.571154
   8 C :   -0.541538
   9 H :    0.158400
  10 H :    0.162410
  11 H :    0.156759
  12 H :    0.146841
  13 H :    0.156781
  14 H :    0.155879
  15 H :    0.157415
  16 H :    0.158308
  17 H :    0.153185
  18 H :    0.158451
  19 H :    0.162795
  20 H :    0.168202
  21 H :    0.163644
  22 H :    0.164817
  23 H :    0.163491
  24 H :    0.167970
  25 H :    0.165825
  26 H :    0.166878
  27 H :    0.163454
  28 H :    0.163610
Sum of atomic charges:   -0.0000000

LOEWDIN ATOMIC CHARGES
----------------------
   0 C :   -0.426882
   1 C :   -0.244887
   2 C :   -0.427423
   3 C :   -0.300761
   4 C :   -0.296245
   5 C :   -0.209332
   6 C :   -0.417258
   7 C :   -0.417220
   8 C :   -0.418436
   9 H :    0.154230
  10 H :    0.155866
  11 H :    0.154886
  12 H :    0.156471
  13 H :    0.154184
  14 H :    0.155738
  15 H :    0.153894
  16 H :    0.161143
  17 H :    0.161378
  18 H :    0.163013
  19 H :    0.162565
  20 H :    0.157705
  21 H :    0.158579
  22 H :    0.159392
  23 H :    0.158564
  24 H :    0.157869
  25 H :    0.159616
  26 H :    0.156953
  27 H :    0.158214
  28 H :    0.158184

  Mayer bond orders larger than 0.100000
B(  0-C ,  1-C ) :   0.8965 B(  0-C ,  9-H ) :   0.9720 B(  0-C , 10-H ) :   0.9873
B(  0-C , 11-H ) :   0.9714 B(  1-C ,  2-C ) :   0.8855 B(  1-C ,  3-C ) :   0.8826
B(  1-C , 12-H ) :   0.9680 B(  2-C , 13-H ) :   0.9789 B(  2-C , 14-H ) :   0.9823
B(  2-C , 15-H ) :   0.9770 B(  3-C ,  4-C ) :   0.8994 B(  3-C , 16-H ) :   0.9764
B(  3-C , 17-H ) :   0.9753 B(  4-C ,  5-C ) :   0.8747 B(  4-C , 18-H ) :   0.9840
B(  4-C , 19-H ) :   0.9927 B(  5-C ,  6-C ) :   0.9118 B(  5-C ,  7-C ) :   0.9026
B(  5-C ,  8-C ) :   0.9096 B(  6-C , 20-H ) :   0.9742 B(  6-C , 21-H ) :   0.9727
B(  6-C , 22-H ) :   0.9730 B(  7-C , 23-H ) :   0.9723 B(  7-C , 24-H ) :   0.9737
B(  7-C , 25-H ) :   0.9743 B(  8-C , 26-H ) :   0.9791 B(  8-C , 27-H ) :   0.9782
B(  8-C , 28-H ) :   0.9781

Dispersion correction           -0.008904713
FINAL SINGLE POINT ENERGY      -354.885376187591

DIPOLE MOMENT
-------------

Method             : SCF
Type of density    : Electron Density
Multiplicity       :   1
Irrep              :   0
Energy             :  -354.8905489600358578 Eh
Relativity type    :
Basis              : AO
                                X                 Y                 Z
Electronic contribution:      0.219960299       0.773330895       0.209541727
Nuclear contribution   :     -0.229623024      -0.733432945      -0.203994036
                        -----------------------------------------
Total Dipole Moment    :     -0.009662725       0.039897950       0.005547691
                        -----------------------------------------
Magnitude (a.u.)       :      0.041424528
Magnitude (Debye)      :      0.105292783

Rotational constants in cm-1:             0.094778             0.024569             0.023022
Rotational constants in MHz :          2841.380782           736.554149           690.183484

                             ****ORCA TERMINATED NORMALLY****
TOTAL RUN TIME: 0 days 0 hours 0 minutes 41 seconds 364 msec
