                         Program Version 6.0.0  -   RELEASE  -
|  1> ! r2scan-3c def2/J RI DEFGRID2 scfconv6 printgap
|  2> %output
|  3>     printlevel normal
|  4> end
|  5> * xyz 0 1
|  6> C -2.4328454288 0.1027132508 1.0038534195
|  7> C -1.7827742792 0.5582759855 -0.3050817545
|  8> C -0.4415108554 -0.1116563666 -0.4595356723
|  9> O -0.2824746649 -1.2909528298 -0.697942876
| 10> O 0.5553753414 0.7464262972 -0.2884120079
| 11> C 1.905623433 0.2559324854 -0.3491153294
| 12> C 2.3798279766 -0.2021653192 1.0215053696
| 13> H -2.5186359138 -0.9812313914 1.0185609065
| 14> H -1.8339735107 0.4164818608 1.8551264779
| 15> H -3.4239564933 0.5365958458 1.0936559124
| 16> H -1.639824057 1.6375111641 -0.3087126532
| 17> H -2.4105357225 0.2608825691 -1.1452841329
| 18> H 1.9444487115 -0.5686963305 -1.0673171126
| 19> H 2.4915641626 1.1017492381 -0.7100356841
| 20> H 1.7826240671 -1.0463122687 1.3592730963
| 21> H 3.4189173372 -0.5083861808 0.95894152
| 22> H 2.2865945882 0.6081604042 1.7394676771
| 23> *
| 24>
| 25>                          ****END OF INPUT****

CARTESIAN COORDINATES (ANGSTROEM)
---------------------------------
  C     -2.432845    0.102713    1.003853
  C     -1.782774    0.558276   -0.305082
  C     -0.441511   -0.111656   -0.459536
  O     -0.282475   -1.290953   -0.697943
  O      0.555375    0.746426   -0.288412
  C      1.905623    0.255932   -0.349115
  C      2.379828   -0.202165    1.021505
  H     -2.518636   -0.981231    1.018561
  H     -1.833974    0.416482    1.855126
  H     -3.423956    0.536596    1.093656
  H     -1.639824    1.637511   -0.308713
  H     -2.410536    0.260883   -1.145284
  H      1.944449   -0.568696   -1.067317
  H      2.491564    1.101749   -0.710036
  H      1.782624   -1.046312    1.359273
  H      3.418917   -0.508386    0.958942
  H      2.286595    0.608160    1.739468

 Total Charge           Charge          ....    0
 Multiplicity           Mult            ....    1
 Number of Electrons    NEL             ....   56
 Basis Dimension        Dim             ....  193

ORBITAL ENERGIES
----------------

  NO   OCC          E(Eh)            E(eV)
   0   2.0000     -18.996872      -516.9312
   1   2.0000     -18.926712      -515.0220
   2   2.0000     -10.151055      -276.2242
   3   2.0000     -10.090778      -274.5840
   4   2.0000     -10.042844      -273.2797
   5   2.0000     -10.030147      -272.9342
   6   2.0000     -10.029528      -272.9173
   7   2.0000      -1.071180       -29.1483
   8   2.0000      -0.974775       -26.5250
   9   2.0000      -0.764394       -20.8002
  10   2.0000      -0.730998       -19.8915
  11   2.0000      -0.643216       -17.5028
  12   2.0000      -0.597104       -16.2480
  13   2.0000      -0.521737       -14.1972
  14   2.0000      -0.472183       -12.8487
  15   2.0000      -0.453713       -12.3462
  16   2.0000      -0.441104       -12.0030
  17   2.0000      -0.410240       -11.1632
  18   2.0000      -0.406036       -11.0488
  19   2.0000      -0.380957       -10.3664
  20   2.0000      -0.371419       -10.1068
  21   2.0000      -0.354470        -9.6456
  22   2.0000      -0.336801        -9.1648
  23   2.0000      -0.326726        -8.8907
  24   2.0000      -0.323851        -8.8124
  25   2.0000      -0.305340        -8.3087
  26   2.0000      -0.270669        -7.3653
  27   2.0000      -0.234800        -6.3892
  28   0.0000      -0.014437        -0.3929
  29   0.0000       0.076027         2.0688
  30   0.0000       0.093095         2.5333
  31   0.0000       0.117411         3.1949
  32   0.0000       0.125544         3.4162

MULLIKEN ATOMIC CHARGES
-----------------------
   0 C :   -0.464979
   1 C :   -0.301925
   2 C :    0.413574
   3 O :   -0.435768
   4 O :   -0.176869
   5 C :   -0.140824
   6 C :   -0.466439
   7 H :    0.169087
   8 H :    0.146330
   9 H :    0.152363
  10 H :    0.159824
  11 H :    0.159936
  12 H :    0.169922
  13 H :    0.147428
  14 H :    0.168990
  15 H :    0.147448
  16 H :    0.151903
Sum of atomic charges:   -0.0000000

LOEWDIN ATOMIC CHARGES
----------------------
   0 C :   -0.393267
   1 C :   -0.236635
   2 C :    0.357545
   3 O :   -0.436528
   4 O :   -0.595834
   5 C :    0.027060
   6 C :   -0.390195
   7 H :    0.163043
   8 H :    0.154808
   9 H :    0.152606
  10 H :    0.173728
  11 H :    0.176365
  12 H :    0.189461
  13 H :    0.177453
  14 H :    0.164197
  15 H :    0.159300
  16 H :    0.156892

  Mayer bond orders larger than 0.100000
B(  0-C ,  1-C ) :   0.8962 B(  0-C ,  7-H ) :   0.9746 B(  0-C ,  8-H ) :   0.9742
B(  0-C ,  9-H ) :   0.9720 B(  1-C ,  2-C ) :   0.9489 B(  1-C , 10-H ) :   0.9843
B(  1-C , 11-H ) :   0.9610 B(  2-C ,  3-O ) :   1.8270 B(  2-C ,  4-O ) :   1.0562
B(  4-O ,  5-C ) :   0.8112 B(  5-C ,  6-C ) :   0.9399 B(  5-C , 12-H ) :   0.9645
B(  5-C , 13-H ) :   0.9614 B(  6-C , 14-H ) :   0.9713 B(  6-C , 15-H ) :   0.9658
B(  6-C , 16-H ) :   0.9742

Dispersion correction           -0.004009865
FINAL SINGLE POINT ENERGY      -346.936196282453

DIPOLE MOMENT
-------------

Method             : SCF
Type of density    : Electron Density
Multiplicity       :   1
Irrep              :   0
Energy             :  -346.9426041214508132 Eh
Relativity type    :
Basis              : AO
                                X                 Y                 Z
Electronic contribution:      0.116268078      -0.666221457      -4.198184984
Nuclear contribution   :      0.095257657       1.358606442       4.482645753
                        -----------------------------------------
Total Dipole Moment    :      0.211525735       0.692384985       0.284460768
                        -----------------------------------------
Magnitude (a.u.)       :      0.777854763
Magnitude (Debye)      :      1.977149682

Rotational constants in cm-1:             0.165697             0.050377             0.048538
Rotational constants in MHz :          4967.469912          1510.273158          1455.144505

                             ****ORCA TERMINATED NORMALLY****
TOTAL RUN TIME: 0 days 0 hours 0 minutes 21 seconds 229 msec
