                         Program Version 6.0.0  -   RELEASE  -
|  1> ! r2scan-3c def2/J RI DEFGRID2 scfconv6 printgap
|  2> %output
|  3>     printlevel normal
|  4> end
|  5> * xyz 0 1
|  6> C -1.0621111937 -0.134807694 0.7215116416
|  7> C 0.2283463777 0.6134953187 0.3431804067
|  8> C 1.200714171 -0.2983078038 -0.4357204218
|  9> O 1.5832756485 -1.4388110989 0.2951585127
| 10> O -0.0673932273 1.7672650715 -0.4105350638
| 11> O -1.8471369587 -0.4159669725 -0.4172087433
| 12> H -1.6751792555 0.5095312359 1.3557147788
| 13> H -0.8080073535 -1.0464229732 1.2697242571
| 14> H 0.7175017238 0.9613795171 1.2603446439
| 15> H 2.0700140692 0.2977760648 -0.7376093619
| 16> H 0.7155199523 -0.6677514645 -1.3426449311
| 17> H 2.1575007469 -1.1761504185 1.0269923073
| 18> H -0.8059068701 1.5506577122 -1.0029412717
| 19> H -1.4859309566 -1.1893207824 -0.8705600759
| 20> *
| 21>
| 22>                          ****END OF INPUT****

CARTESIAN COORDINATES (ANGSTROEM)
---------------------------------
  C     -1.062111   -0.134808    0.721512
  C      0.228346    0.613495    0.343180
  C      1.200714   -0.298308   -0.435720
  O      1.583276   -1.438811    0.295159
  O     -0.067393    1.767265   -0.410535
  O     -1.847137   -0.415967   -0.417209
  H     -1.675179    0.509531    1.355715
  H     -0.808007   -1.046423    1.269724
  H      0.717502    0.961380    1.260345
  H      2.070014    0.297776   -0.737609
  H      0.715520   -0.667751   -1.342645
  H      2.157501   -1.176150    1.026992
  H     -0.805907    1.550658   -1.002941
  H     -1.485931   -1.189321   -0.870560

 Total Charge           Charge          ....    0
 Multiplicity           Mult            ....    1
 Number of Electrons    NEL             ....   50
 Basis Dimension        Dim             ....  169

ORBITAL ENERGIES
----------------

  NO   OCC          E(Eh)            E(eV)
   0   2.0000     -18.966107      -516.0940
   1   2.0000     -18.962863      -516.0057
   2   2.0000     -18.950086      -515.6581
   3   2.0000     -10.085299      -274.4349
   4   2.0000     -10.081937      -274.3434
   5   2.0000     -10.081143      -274.3218
   6   2.0000      -1.011112       -27.5138
   7   2.0000      -0.998206       -27.1626
   8   2.0000      -0.981629       -26.7115
   9   2.0000      -0.721773       -19.6404
  10   2.0000      -0.654659       -17.8142
  11   2.0000      -0.581169       -15.8144
  12   2.0000      -0.501487       -13.6462
  13   2.0000      -0.480144       -13.0654
  14   2.0000      -0.465605       -12.6697
  15   2.0000      -0.442359       -12.0372
  16   2.0000      -0.426219       -11.5980
  17   2.0000      -0.383984       -10.4487
  18   2.0000      -0.367210        -9.9923
  19   2.0000      -0.329144        -8.9565
  20   2.0000      -0.309103        -8.4111
  21   2.0000      -0.306118        -8.3299
  22   2.0000      -0.273051        -7.4301
  23   2.0000      -0.259332        -7.0568
  24   2.0000      -0.223850        -6.0913
  25   0.0000       0.035688         0.9711
  26   0.0000       0.046138         1.2555
  27   0.0000       0.093791         2.5522
  28   0.0000       0.117227         3.1899
  29   0.0000       0.133020         3.6197

MULLIKEN ATOMIC CHARGES
-----------------------
   0 C :   -0.199840
   1 C :    0.056375
   2 C :   -0.220959
   3 O :   -0.418483
   4 O :   -0.416244
   5 O :   -0.455618
   6 H :    0.152864
   7 H :    0.150442
   8 H :    0.138623
   9 H :    0.149514
  10 H :    0.131280
  11 H :    0.301729
  12 H :    0.318174
  13 H :    0.312142
Sum of atomic charges:    0.0000000

LOEWDIN ATOMIC CHARGES
----------------------
   0 C :    0.021895
   1 C :    0.063031
   2 C :    0.020432
   3 O :   -0.612581
   4 O :   -0.582752
   5 O :   -0.609924
   6 H :    0.182479
   7 H :    0.175002
   8 H :    0.180665
   9 H :    0.168917
  10 H :    0.175514
  11 H :    0.267560
  12 H :    0.280375
  13 H :    0.269387

  Mayer bond orders larger than 0.100000
B(  0-C ,  1-C ) :   0.9029 B(  0-C ,  5-O ) :   0.9814 B(  0-C ,  6-H ) :   0.9758
B(  0-C ,  7-H ) :   0.9745 B(  1-C ,  2-C ) :   0.9011 B(  1-C ,  4-O ) :   0.9434
B(  1-C ,  8-H ) :   0.9512 B(  2-C ,  3-O ) :   0.9700 B(  2-C ,  9-H ) :   0.9750
B(  2-C , 10-H ) :   0.9777 B(  3-O , 11-H ) :   0.8945 B(  4-O , 12-H ) :   0.8647
B(  5-O , 13-H ) :   0.8895

Dispersion correction           -0.003087225
FINAL SINGLE POINT ENERGY      -344.725212020529

DIPOLE MOMENT
-------------

Method             : SCF
Type of density    : Electron Density
Multiplicity       :   1
Irrep              :   0
Energy             :  -344.7327160373724269 Eh
Relativity type    :
Basis              : AO
                                X                 Y                 Z
Electronic contribution:     -0.486983074       0.348253794      -0.610261116
Nuclear contribution   :      0.825844264      -0.714593943       0.891817754
                        -----------------------------------------
Total Dipole Moment    :      0.338861190      -0.366340148       0.281556638
                        -----------------------------------------
Magnitude (a.u.)       :      0.572980061
Magnitude (Debye)      :      1.456399574

Rotational constants in cm-1:             0.150438             0.092494             0.068881
Rotational constants in MHz :          4510.030513          2772.904432          2065.000851

                             ****ORCA TERMINATED NORMALLY****
TOTAL RUN TIME: 0 days 0 hours 0 minutes 20 seconds 850 msec
