                         Program Version 6.0.0  -   RELEASE  -
|  1> ! r2scan-3c def2/J RI DEFGRID2 scfconv6 printgap
|  2> %output
|  3>     printlevel normal
|  4> end
|  5> %cpcm
|  6>     smd true
|  7>     smdsolvent "water"
|  8> end
|  9> * xyz 0 1
| 10> C -1.0621111937 -0.134807694 0.7215116416
| 11> C 0.2283463777 0.6134953187 0.3431804067
| 12> C 1.200714171 -0.2983078038 -0.4357204218
| 13> O 1.5832756485 -1.4388110989 0.2951585127
| 14> O -0.0673932273 1.7672650715 -0.4105350638
| 15> O -1.8471369587 -0.4159669725 -0.4172087433
| 16> H -1.6751792555 0.5095312359 1.3557147788
| 17> H -0.8080073535 -1.0464229732 1.2697242571
| 18> H 0.7175017238 0.9613795171 1.2603446439
| 19> H 2.0700140692 0.2977760648 -0.7376093619
| 20> H 0.7155199523 -0.6677514645 -1.3426449311
| 21> H 2.1575007469 -1.1761504185 1.0269923073
| 22> H -0.8059068701 1.5506577122 -1.0029412717
| 23> H -1.4859309566 -1.1893207824 -0.8705600759
| 24> *
| 25>
| 26>                          ****END OF INPUT****

CARTESIAN COORDINATES (ANGSTROEM)
---------------------------------
  C     -1.062111   -0.134808    0.721512
  C      0.228346    0.613495    0.343180
  C      1.200714   -0.298308   -0.435720
  O      1.583276   -1.438811    0.295159
  O     -0.067393    1.767265   -0.410535
  O     -1.847137   -0.415967   -0.417209
  H     -1.675179    0.509531    1.355715
  H     -0.808007   -1.046423    1.269724
  H      0.717502    0.961380    1.260345
  H      2.070014    0.297776   -0.737609
  H      0.715520   -0.667751   -1.342645
  H      2.157501   -1.176150    1.026992
  H     -0.805907    1.550658   -1.002941
  H     -1.485931   -1.189321   -0.870560

 Total Charge           Charge          ....    0
 Multiplicity           Mult            ....    1
 Number of Electrons    NEL             ....   50
 Basis Dimension        Dim             ....  169

ORBITAL ENERGIES
----------------

  NO   OCC          E(Eh)            E(eV)
   0   2.0000     -18.958464      -515.8860
   1   2.0000     -18.955764      -515.8126
   2   2.0000     -18.955069      -515.7937
   3   2.0000     -10.076741      -274.2021
   4   2.0000     -10.071405      -274.0569
   5   2.0000     -10.070021      -274.0192
   6   2.0000      -1.006664       -27.3927
   7   2.0000      -0.990047       -26.9406
   8   2.0000      -0.981120       -26.6976
   9   2.0000      -0.713305       -19.4100
  10   2.0000      -0.644066       -17.5259
  11   2.0000      -0.573394       -15.6029
  12   2.0000      -0.492739       -13.4081
  13   2.0000      -0.472659       -12.8617
  14   2.0000      -0.458579       -12.4786
  15   2.0000      -0.434892       -11.8340
  16   2.0000      -0.418276       -11.3819
  17   2.0000      -0.378261       -10.2930
  18   2.0000      -0.362098        -9.8532
  19   2.0000      -0.329077        -8.9546
  20   2.0000      -0.304467        -8.2850
  21   2.0000      -0.302937        -8.2433
  22   2.0000      -0.272448        -7.4137
  23   2.0000      -0.254704        -6.9308
  24   2.0000      -0.222790        -6.0624
  25   0.0000       0.056164         1.5283
  26   0.0000       0.062932         1.7125
  27   0.0000       0.113080         3.0771
  28   0.0000       0.135317         3.6822
  29   0.0000       0.144541         3.9332

MULLIKEN ATOMIC CHARGES
-----------------------
   0 C :   -0.208526
   1 C :    0.058192
   2 C :   -0.214429
   3 O :   -0.494851
   4 O :   -0.494009
   5 O :   -0.512550
   6 H :    0.164451
   7 H :    0.159184
   8 H :    0.161547
   9 H :    0.152935
  10 H :    0.158775
  11 H :    0.354937
  12 H :    0.353145
  13 H :    0.361198
Sum of atomic charges:   -0.0000000

LOEWDIN ATOMIC CHARGES
----------------------
   0 C :    0.022456
   1 C :    0.066947
   2 C :    0.020850
   3 O :   -0.636805
   4 O :   -0.619080
   5 O :   -0.632902
   6 H :    0.185677
   7 H :    0.180588
   8 H :    0.191535
   9 H :    0.172079
  10 H :    0.184763
  11 H :    0.286225
  12 H :    0.290836
  13 H :    0.286832

  Mayer bond orders larger than 0.100000
B(  0-C ,  1-C ) :   0.9177 B(  0-C ,  5-O ) :   0.9690 B(  0-C ,  6-H ) :   0.9710
B(  0-C ,  7-H ) :   0.9680 B(  1-C ,  2-C ) :   0.9121 B(  1-C ,  4-O ) :   0.9230
B(  1-C ,  8-H ) :   0.9452 B(  2-C ,  3-O ) :   0.9675 B(  2-C ,  9-H ) :   0.9664
B(  2-C , 10-H ) :   0.9705 B(  3-O , 11-H ) :   0.8660 B(  4-O , 12-H ) :   0.8472
B(  5-O , 13-H ) :   0.8626

Dispersion correction           -0.003087225
FINAL SINGLE POINT ENERGY      -344.745610082712

DIPOLE MOMENT
-------------

Method             : SCF
Type of density    : Electron Density
Multiplicity       :   1
Irrep              :   0
Energy             :  -344.7531140995552619 Eh
Relativity type    :
Basis              : AO
                                X                 Y                 Z
Electronic contribution:     -0.344050121       0.215155493      -0.510070290
Nuclear contribution   :      0.825844264      -0.714593943       0.891817754
                        -----------------------------------------
Total Dipole Moment    :      0.481794143      -0.499438450       0.381747464
                        -----------------------------------------
Magnitude (a.u.)       :      0.792019878
Magnitude (Debye)      :      2.013154542

Rotational constants in cm-1:             0.150438             0.092494             0.068881
Rotational constants in MHz :          4510.030513          2772.904432          2065.000851

                             ****ORCA TERMINATED NORMALLY****
TOTAL RUN TIME: 0 days 0 hours 0 minutes 23 seconds 704 msec
