                         Program Version 6.0.0  -   RELEASE  -
|  1> ! r2scan-3c def2/J RI DEFGRID2 scfconv6 printgap
|  2> %output
|  3>     printlevel normal
|  4> end
|  5> * xyz 0 1
|  6> C 3.6001362628 0.4168389342 -0.7120191179
|  7> C 2.5736904785 -0.023868115 0.2851877312
|  8> C 2.9024660675 -0.4421787321 1.4973866328
|  9> C 1.1381977249 0.0400133552 -0.1891783833
| 10> H 1.131064388 0.3705458133 -1.232320113
| 11> C 0.4508029903 -1.3286594746 -0.1272827609
| 12> C -0.9176011195 -1.2562573338 -0.7990202534
| 13> C -1.7117516941 -0.094043143 -0.2727244568
| 14> C -1.1340860847 0.9311470049 0.3760102601
| 15> C 0.3213944043 1.0448887684 0.6328417272
| 16> C -3.1487208429 -0.0968928238 -0.4816221801
| 17> O -3.9254912101 0.7731353067 -0.1274899465
| 18> H 3.409661712 1.445341148 -1.0155597811
| 19> H 4.6027333255 0.3527736323 -0.298782978
| 20> H 3.5472325667 -0.2073396156 -1.6030486262
| 21> H 2.1693031566 -0.7635691168 2.2172611488
| 22> H 3.9279391608 -0.4854155386 1.8220015355
| 23> H 1.0692833163 -2.0781910819 -0.6224381374
| 24> H 0.3290421947 -1.6266316768 0.9143919632
| 25> H -0.7968032325 -1.143052105 -1.8802761646
| 26> H -1.4703947083 -2.1823340904 -0.629034212
| 27> H -1.7687443836 1.7258132121 0.7469291495
| 28> H 0.6484617574 2.065710599 0.4226371608
| 29> H 0.4934212732 0.8796232672 1.7010334172
| 30> H -3.5345400323 -0.9851458461 -1.0165448424
| 31> *
| 32>
| 33>                          ****END OF INPUT****

CARTESIAN COORDINATES (ANGSTROEM)
---------------------------------
  C      3.600136    0.416839   -0.712019
  C      2.573690   -0.023868    0.285188
  C      2.902466   -0.442179    1.497387
  C      1.138198    0.040013   -0.189178
  H      1.131064    0.370546   -1.232320
  C      0.450803   -1.328659   -0.127283
  C     -0.917601   -1.256257   -0.799020
  C     -1.711752   -0.094043   -0.272724
  C     -1.134086    0.931147    0.376010
  C      0.321394    1.044889    0.632842
  C     -3.148721   -0.096893   -0.481622
  O     -3.925491    0.773135   -0.127490
  H      3.409662    1.445341   -1.015560
  H      4.602733    0.352774   -0.298783
  H      3.547233   -0.207340   -1.603049
  H      2.169303   -0.763569    2.217261
  H      3.927939   -0.485416    1.822002
  H      1.069283   -2.078191   -0.622438
  H      0.329042   -1.626632    0.914392
  H     -0.796803   -1.143052   -1.880276
  H     -1.470395   -2.182334   -0.629034
  H     -1.768744    1.725813    0.746929
  H      0.648462    2.065711    0.422637
  H      0.493421    0.879623    1.701033
  H     -3.534540   -0.985146   -1.016545

 Total Charge           Charge          ....    0
 Multiplicity           Mult            ....    1
 Number of Electrons    NEL             ....   82
 Basis Dimension        Dim             ....  284

ORBITAL ENERGIES
----------------

  NO   OCC          E(Eh)            E(eV)
   0   2.0000     -18.936656      -515.2926
   1   2.0000     -10.108784      -275.0740
   2   2.0000     -10.053767      -273.5769
   3   2.0000     -10.050097      -273.4771
   4   2.0000     -10.047588      -273.4088
   5   2.0000     -10.047361      -273.4026
   6   2.0000     -10.044988      -273.3380
   7   2.0000     -10.044126      -273.3146
   8   2.0000     -10.040074      -273.2043
   9   2.0000     -10.032622      -273.0015
  10   2.0000     -10.018854      -272.6269
  11   2.0000      -0.997327       -27.1386
  12   2.0000      -0.832384       -22.6503
  13   2.0000      -0.782857       -21.3026
  14   2.0000      -0.730574       -19.8799
  15   2.0000      -0.722352       -19.6562
  16   2.0000      -0.661710       -18.0060
  17   2.0000      -0.623604       -16.9691
  18   2.0000      -0.606135       -16.4938
  19   2.0000      -0.560005       -15.2385
  20   2.0000      -0.509497       -13.8641
  21   2.0000      -0.488722       -13.2988
  22   2.0000      -0.467466       -12.7204
  23   2.0000      -0.444733       -12.1018
  24   2.0000      -0.425263       -11.5720
  25   2.0000      -0.414258       -11.2725
  26   2.0000      -0.409725       -11.1492
  27   2.0000      -0.399688       -10.8761
  28   2.0000      -0.391746       -10.6599
  29   2.0000      -0.378702       -10.3050
  30   2.0000      -0.371017       -10.0959
  31   2.0000      -0.367273        -9.9940
  32   2.0000      -0.356576        -9.7029
  33   2.0000      -0.346844        -9.4381
  34   2.0000      -0.339304        -9.2329
  35   2.0000      -0.313693        -8.5360
  36   2.0000      -0.304708        -8.2915
  37   2.0000      -0.288604        -7.8533
  38   2.0000      -0.238755        -6.4968
  39   2.0000      -0.230782        -6.2799
  40   2.0000      -0.216632        -5.8948
  41   0.0000      -0.091676        -2.4946
  42   0.0000      -0.018555        -0.5049
  43   0.0000       0.034172         0.9299
  44   0.0000       0.068236         1.8568
  45   0.0000       0.088842         2.4175

MULLIKEN ATOMIC CHARGES
-----------------------
   0 C :   -0.512967
   1 C :    0.069849
   2 C :   -0.382478
   3 C :   -0.017296
   4 H :    0.172026
   5 C :   -0.338953
   6 C :   -0.350383
   7 C :    0.114036
   8 C :   -0.081470
   9 C :   -0.402793
  10 C :    0.021051
  11 O :   -0.352075
  12 H :    0.157658
  13 H :    0.149873
  14 H :    0.159316
  15 H :    0.138987
  16 H :    0.147292
  17 H :    0.165897
  18 H :    0.171009
  19 H :    0.174856
  20 H :    0.156548
  21 H :    0.186445
  22 H :    0.160858
  23 H :    0.188587
  24 H :    0.104124
Sum of atomic charges:    0.0000000

LOEWDIN ATOMIC CHARGES
----------------------
   0 C :   -0.389907
   1 C :   -0.121370
   2 C :   -0.322758
   3 C :   -0.200796
   4 H :    0.169973
   5 C :   -0.266638
   6 C :   -0.279839
   7 C :   -0.136985
   8 C :   -0.084417
   9 C :   -0.263498
  10 C :    0.206342
  11 O :   -0.472795
  12 H :    0.161666
  13 H :    0.158798
  14 H :    0.161780
  15 H :    0.157468
  16 H :    0.159445
  17 H :    0.164321
  18 H :    0.165777
  19 H :    0.168979
  20 H :    0.167848
  21 H :    0.186151
  22 H :    0.173441
  23 H :    0.182142
  24 H :    0.154873

  Mayer bond orders larger than 0.100000
B(  0-C ,  1-C ) :   0.9013 B(  0-C , 12-H ) :   0.9684 B(  0-C , 13-H ) :   0.9852
B(  0-C , 14-H ) :   0.9747 B(  1-C ,  2-C ) :   1.8591 B(  1-C ,  3-C ) :   0.8316
B(  2-C , 15-H ) :   0.9903 B(  2-C , 16-H ) :   0.9680 B(  3-C ,  4-H ) :   0.9921
B(  3-C ,  5-C ) :   0.8733 B(  3-C ,  9-C ) :   0.9065 B(  5-C ,  6-C ) :   0.8920
B(  5-C , 17-H ) :   0.9780 B(  5-C , 18-H ) :   0.9851 B(  6-C ,  7-C ) :   0.8822
B(  6-C , 19-H ) :   0.9921 B(  6-C , 20-H ) :   0.9704 B(  7-C ,  8-C ) :   1.7369
B(  7-C , 10-C ) :   0.8940 B(  7-C , 11-O ) :  -0.1272 B(  7-C , 24-H ) :  -0.1019
B(  8-C ,  9-C ) :   0.9052 B(  8-C , 11-O ) :   0.1367 B(  8-C , 21-H ) :   0.9552
B(  9-C , 22-H ) :   0.9654 B(  9-C , 23-H ) :   0.9765 B( 10-C , 11-O ) :   1.9410
B( 10-C , 24-H ) :   1.0292

Dispersion correction           -0.008849334
FINAL SINGLE POINT ENERGY      -464.549926729625

DIPOLE MOMENT
-------------

Method             : SCF
Type of density    : Electron Density
Multiplicity       :   1
Irrep              :   0
Energy             :  -464.5505282369933866 Eh
Relativity type    :
Basis              : AO
                                X                 Y                 Z
Electronic contribution:    -11.512770120       2.003843028       0.184096579
Nuclear contribution   :     12.848799493      -2.457675442      -0.446347331
                        -----------------------------------------
Total Dipole Moment    :      1.336029373      -0.453832414      -0.262250752
                        -----------------------------------------
Magnitude (a.u.)       :      1.435170304
Magnitude (Debye)      :      3.647913009

Rotational constants in cm-1:             0.098120             0.017983             0.017035
Rotational constants in MHz :          2941.566164           539.110915           510.682609

                             ****ORCA TERMINATED NORMALLY****
TOTAL RUN TIME: 0 days 0 hours 0 minutes 55 seconds 952 msec
