                         Program Version 6.0.0  -   RELEASE  -
|  1> ! r2scan-3c def2/J RI DEFGRID2 scfconv6 printgap
|  2> %output
|  3>     printlevel normal
|  4> end
|  5> %cpcm
|  6>     smd true
|  7>     smdsolvent "water"
|  8> end
|  9> * xyz 0 1
| 10> C 3.6001362628 0.4168389342 -0.7120191179
| 11> C 2.5736904785 -0.023868115 0.2851877312
| 12> C 2.9024660675 -0.4421787321 1.4973866328
| 13> C 1.1381977249 0.0400133552 -0.1891783833
| 14> H 1.131064388 0.3705458133 -1.232320113
| 15> C 0.4508029903 -1.3286594746 -0.1272827609
| 16> C -0.9176011195 -1.2562573338 -0.7990202534
| 17> C -1.7117516941 -0.094043143 -0.2727244568
| 18> C -1.1340860847 0.9311470049 0.3760102601
| 19> C 0.3213944043 1.0448887684 0.6328417272
| 20> C -3.1487208429 -0.0968928238 -0.4816221801
| 21> O -3.9254912101 0.7731353067 -0.1274899465
| 22> H 3.409661712 1.445341148 -1.0155597811
| 23> H 4.6027333255 0.3527736323 -0.298782978
| 24> H 3.5472325667 -0.2073396156 -1.6030486262
| 25> H 2.1693031566 -0.7635691168 2.2172611488
| 26> H 3.9279391608 -0.4854155386 1.8220015355
| 27> H 1.0692833163 -2.0781910819 -0.6224381374
| 28> H 0.3290421947 -1.6266316768 0.9143919632
| 29> H -0.7968032325 -1.143052105 -1.8802761646
| 30> H -1.4703947083 -2.1823340904 -0.629034212
| 31> H -1.7687443836 1.7258132121 0.7469291495
| 32> H 0.6484617574 2.065710599 0.4226371608
| 33> H 0.4934212732 0.8796232672 1.7010334172
| 34> H -3.5345400323 -0.9851458461 -1.0165448424
| 35> *
| 36>
| 37>                          ****END OF INPUT****

CARTESIAN COORDINATES (ANGSTROEM)
---------------------------------
  C      3.600136    0.416839   -0.712019
  C      2.573690   -0.023868    0.285188
  C      2.902466   -0.442179    1.497387
  C      1.138198    0.040013   -0.189178
  H      1.131064    0.370546   -1.232320
  C      0.450803   -1.328659   -0.127283
  C     -0.917601   -1.256257   -0.799020
  C     -1.711752   -0.094043   -0.272724
  C     -1.134086    0.931147    0.376010
  C      0.321394    1.044889    0.632842
  C     -3.148721   -0.096893   -0.481622
  O     -3.925491    0.773135   -0.127490
  H      3.409662    1.445341   -1.015560
  H      4.602733    0.352774   -0.298783
  H      3.547233   -0.207340   -1.603049
  H      2.169303   -0.763569    2.217261
  H      3.927939   -0.485416    1.822002
  H      1.069283   -2.078191   -0.622438
  H      0.329042   -1.626632    0.914392
  H     -0.796803   -1.143052   -1.880276
  H     -1.470395   -2.182334   -0.629034
  H     -1.768744    1.725813    0.746929
  H      0.648462    2.065711    0.422637
  H      0.493421    0.879623    1.701033
  H     -3.534540   -0.985146   -1.016545

 Total Charge           Charge          ....    0
 Multiplicity           Mult            ....    1
 Number of Electrons    NEL             ....   82
 Basis Dimension        Dim             ....  284

ORBITAL ENERGIES
----------------

  NO   OCC          E(Eh)            E(eV)
   0   2.0000     -18.948706      -515.6205
   1   2.0000     -10.115655      -275.2610
   2   2.0000     -10.049814      -273.4694
   3   2.0000     -10.038499      -273.1615
   4   2.0000     -10.037063      -273.1224
   5   2.0000     -10.033644      -273.0293
   6   2.0000     -10.033030      -273.0126
   7   2.0000     -10.028665      -272.8939
   8   2.0000     -10.023196      -272.7450
   9   2.0000     -10.015775      -272.5431
  10   2.0000     -10.006132      -272.2807
  11   2.0000      -1.011978       -27.5373
  12   2.0000      -0.820329       -22.3223
  13   2.0000      -0.772561       -21.0225
  14   2.0000      -0.717008       -19.5108
  15   2.0000      -0.711830       -19.3699
  16   2.0000      -0.648018       -17.6335
  17   2.0000      -0.615242       -16.7416
  18   2.0000      -0.594474       -16.1764
  19   2.0000      -0.550479       -14.9793
  20   2.0000      -0.496912       -13.5217
  21   2.0000      -0.477091       -12.9823
  22   2.0000      -0.463288       -12.6067
  23   2.0000      -0.433312       -11.7910
  24   2.0000      -0.422216       -11.4891
  25   2.0000      -0.410009       -11.1569
  26   2.0000      -0.398549       -10.8451
  27   2.0000      -0.390177       -10.6173
  28   2.0000      -0.378928       -10.3112
  29   2.0000      -0.373638       -10.1672
  30   2.0000      -0.367039        -9.9876
  31   2.0000      -0.355140        -9.6638
  32   2.0000      -0.345973        -9.4144
  33   2.0000      -0.339191        -9.2299
  34   2.0000      -0.325345        -8.8531
  35   2.0000      -0.296844        -8.0775
  36   2.0000      -0.290420        -7.9027
  37   2.0000      -0.275331        -7.4921
  38   2.0000      -0.234995        -6.3945
  39   2.0000      -0.229819        -6.2537
  40   2.0000      -0.221911        -6.0385
  41   0.0000      -0.093233        -2.5370
  42   0.0000      -0.009302        -0.2531
  43   0.0000       0.038772         1.0550
  44   0.0000       0.082152         2.2355
  45   0.0000       0.102997         2.8027

MULLIKEN ATOMIC CHARGES
-----------------------
   0 C :   -0.548216
   1 C :    0.030620
   2 C :   -0.461736
   3 C :    0.044388
   4 H :    0.188648
   5 C :   -0.364007
   6 C :   -0.357737
   7 C :    0.084883
   8 C :   -0.089793
   9 C :   -0.433651
  10 C :    0.062741
  11 O :   -0.460475
  12 H :    0.175230
  13 H :    0.163566
  14 H :    0.176649
  15 H :    0.167157
  16 H :    0.169344
  17 H :    0.174447
  18 H :    0.185277
  19 H :    0.193471
  20 H :    0.175747
  21 H :    0.194877
  22 H :    0.185215
  23 H :    0.207362
  24 H :    0.135995
Sum of atomic charges:    0.0000000

LOEWDIN ATOMIC CHARGES
----------------------
   0 C :   -0.397459
   1 C :   -0.119497
   2 C :   -0.352478
   3 C :   -0.197686
   4 H :    0.176390
   5 C :   -0.269214
   6 C :   -0.276180
   7 C :   -0.140405
   8 C :   -0.072521
   9 C :   -0.262334
  10 C :    0.222894
  11 O :   -0.557754
  12 H :    0.168260
  13 H :    0.161367
  14 H :    0.168402
  15 H :    0.164849
  16 H :    0.163739
  17 H :    0.167010
  18 H :    0.169050
  19 H :    0.176228
  20 H :    0.175110
  21 H :    0.186881
  22 H :    0.182449
  23 H :    0.190435
  24 H :    0.172466

  Mayer bond orders larger than 0.100000
B(  0-C ,  1-C ) :   0.9076 B(  0-C , 12-H ) :   0.9618 B(  0-C , 13-H ) :   0.9832
B(  0-C , 14-H ) :   0.9670 B(  1-C ,  2-C ) :   1.8409 B(  1-C ,  3-C ) :   0.8094
B(  2-C , 15-H ) :   0.9855 B(  2-C , 16-H ) :   0.9692 B(  3-C ,  4-H ) :   0.9870
B(  3-C ,  5-C ) :   0.8518 B(  3-C ,  9-C ) :   0.8887 B(  5-C ,  6-C ) :   0.8841
B(  5-C , 17-H ) :   0.9729 B(  5-C , 18-H ) :   0.9843 B(  6-C ,  7-C ) :   0.8890
B(  6-C , 19-H ) :   0.9899 B(  6-C , 20-H ) :   0.9689 B(  7-C ,  8-C ) :   1.6744
B(  7-C , 10-C ) :   0.9559 B(  7-C , 11-O ) :  -0.1193 B(  8-C ,  9-C ) :   0.9302
B(  8-C , 11-O ) :   0.1372 B(  8-C , 21-H ) :   0.9523 B(  9-C , 22-H ) :   0.9588
B(  9-C , 23-H ) :   0.9669 B( 10-C , 11-O ) :   1.8616 B( 10-C , 24-H ) :   1.0036

Dispersion correction           -0.008849334
FINAL SINGLE POINT ENERGY      -464.556668997034

DIPOLE MOMENT
-------------

Method             : SCF
Type of density    : Electron Density
Multiplicity       :   1
Irrep              :   0
Energy             :  -464.5572705044020836 Eh
Relativity type    :
Basis              : AO
                                X                 Y                 Z
Electronic contribution:    -11.087585339       1.797582329       0.000476876
Nuclear contribution   :     12.848799493      -2.457675442      -0.446347331
                        -----------------------------------------
Total Dipole Moment    :      1.761214154      -0.660093113      -0.445870455
                        -----------------------------------------
Magnitude (a.u.)       :      1.932976637
Magnitude (Debye)      :      4.913236149

Rotational constants in cm-1:             0.098120             0.017983             0.017035
Rotational constants in MHz :          2941.566164           539.110915           510.682609

                             ****ORCA TERMINATED NORMALLY****
TOTAL RUN TIME: 0 days 0 hours 1 minutes 12 seconds 140 msec
