                         Program Version 6.0.0  -   RELEASE  -
|  1> ! pbe def2-sv(p) def2/J RI DEFGRID1 loosescf d4 GCP(DFT/SV(P)) printgap
|  2> %output
|  3>     printlevel normal
|  4> end
|  5> * xyz 0 1
|  6> C -1.971058341 -0.2635013221 0.4657695566
|  7> O -1.0033024073 -0.2136009287 -0.5640366079
|  8> C -0.0402327489 0.8159568204 -0.4214244922
|  9> C 1.1064987041 0.4192334 0.5148028877
| 10> O 1.8764489834 -0.6369992008 -0.013140862
| 11> H -2.5143840155 0.6847810327 0.5307799358
| 12> H -1.5215296535 -0.4863724753 1.4375875542
| 13> H -2.6565285233 -1.0614147734 0.1910413436
| 14> H 0.3590398736 0.9791067796 -1.4254916882
| 15> H -0.5132532732 1.7373042682 -0.0618140032
| 16> H 0.7103781341 0.1385210081 1.5005185222
| 17> H 1.7871732702 1.2630489332 0.6383812156
| 18> H 1.2709438533 -1.3318486746 -0.3121281497
| 19> *
| 20>
| 21>                          ****END OF INPUT****

CARTESIAN COORDINATES (ANGSTROEM)
---------------------------------
  C     -1.971058   -0.263501    0.465770
  O     -1.003302   -0.213601   -0.564037
  C     -0.040233    0.815957   -0.421424
  C      1.106499    0.419233    0.514803
  O      1.876449   -0.636999   -0.013141
  H     -2.514384    0.684781    0.530780
  H     -1.521530   -0.486372    1.437588
  H     -2.656529   -1.061415    0.191041
  H      0.359040    0.979107   -1.425492
  H     -0.513253    1.737304   -0.061814
  H      0.710378    0.138521    1.500519
  H      1.787173    1.263049    0.638381
  H      1.270944   -1.331849   -0.312128

 Total Charge           Charge          ....    0
 Multiplicity           Mult            ....    1
 Number of Electrons    NEL             ....   42
 Basis Dimension        Dim             ....   86

ORBITAL ENERGIES
----------------

  NO   OCC          E(Eh)            E(eV)
   0   2.0000     -18.761829      -510.5353
   1   2.0000     -18.738609      -509.9035
   2   2.0000      -9.932936      -270.2889
   3   2.0000      -9.932409      -270.2746
   4   2.0000      -9.929450      -270.1941
   5   2.0000      -0.942742       -25.6533
   6   2.0000      -0.911633       -24.8068
   7   2.0000      -0.675285       -18.3754
   8   2.0000      -0.615179       -16.7399
   9   2.0000      -0.542384       -14.7590
  10   2.0000      -0.459192       -12.4952
  11   2.0000      -0.445809       -12.1311
  12   2.0000      -0.434242       -11.8163
  13   2.0000      -0.396279       -10.7833
  14   2.0000      -0.374891       -10.2013
  15   2.0000      -0.369100       -10.0437
  16   2.0000      -0.336046        -9.1443
  17   2.0000      -0.278892        -7.5890
  18   2.0000      -0.270593        -7.3632
  19   2.0000      -0.229206        -6.2370
  20   2.0000      -0.200732        -5.4622
  21   0.0000       0.029885         0.8132
  22   0.0000       0.060347         1.6421
  23   0.0000       0.068526         1.8647
  24   0.0000       0.078980         2.1492
  25   0.0000       0.089023         2.4224

MULLIKEN ATOMIC CHARGES
-----------------------
   0 C :   -0.114237
   1 O :   -0.349154
   2 C :   -0.029702
   3 C :    0.009811
   4 O :   -0.444392
   5 H :    0.091502
   6 H :    0.094130
   7 H :    0.118480
   8 H :    0.098169
   9 H :    0.067329
  10 H :    0.075081
  11 H :    0.088343
  12 H :    0.294641
Sum of atomic charges:    0.0000000

LOEWDIN ATOMIC CHARGES
----------------------
   0 C :   -0.209206
   1 O :   -0.185980
   2 C :   -0.138853
   3 C :   -0.141914
   4 O :   -0.345503
   5 H :    0.100110
   6 H :    0.096589
   7 H :    0.117937
   8 H :    0.116543
   9 H :    0.099400
  10 H :    0.095869
  11 H :    0.115998
  12 H :    0.279011

  Mayer bond orders larger than 0.100000
B(  0-C ,  1-O ) :   1.0141 B(  0-C ,  5-H ) :   0.9432 B(  0-C ,  6-H ) :   0.9378
B(  0-C ,  7-H ) :   0.9629 B(  1-O ,  2-C ) :   1.0171 B(  2-C ,  3-C ) :   1.0989
B(  2-C ,  8-H ) :   0.9234 B(  2-C ,  9-H ) :   0.9040 B(  3-C ,  4-O ) :   1.0642
B(  3-C , 10-H ) :   0.9097 B(  3-C , 11-H ) :   0.9218 B(  4-O , 12-H ) :   0.8452

Dispersion correction           -0.007565766
FINAL SINGLE POINT ENERGY      -268.935478802729

DIPOLE MOMENT
-------------

Method             : SCF
Type of density    : Electron Density
Multiplicity       :   1
Irrep              :   0
Energy             :  -268.9961968482393218 Eh
Relativity type    :
Basis              : AO
                                X                 Y                 Z
Electronic contribution:      2.187716863      -1.557418230      -1.974044059
Nuclear contribution   :     -2.874867476       1.791580973       2.335796864
                        -----------------------------------------
Total Dipole Moment    :     -0.687150613       0.234162743       0.361752805
                        -----------------------------------------
Magnitude (a.u.)       :      0.811093859
Magnitude (Debye)      :      2.061636747

Rotational constants in cm-1:             0.354055             0.096123             0.092030
Rotational constants in MHz :         10614.287074          2881.690542          2758.989974

                             ****ORCA TERMINATED NORMALLY****
TOTAL RUN TIME: 0 days 0 hours 0 minutes 6 seconds 457 msec
