                         Program Version 6.0.0  -   RELEASE  -
|  1> ! r2scan-3c def2/J RI DEFGRID2 scfconv6 printgap
|  2> %output
|  3>     printlevel normal
|  4> end
|  5> * xyz 0 1
|  6> C 2.7644493786 0.326261399 -1.4479388386
|  7> C 2.2127281754 0.9914244929 -0.188443362
|  8> C 1.3282113608 0.1052158543 0.7064893434
|  9> H 1.3735132156 0.5341382926 1.7157775119
| 10> C 1.8554100002 -1.3319605223 0.7990944193
| 11> C -0.1362885273 0.0721572124 0.3266129775
| 12> C -1.0557603725 -0.3055357521 1.3024894004
| 13> C -2.407213045 -0.3839188782 1.0252971194
| 14> C -2.8727915892 -0.0806401743 -0.2433861703
| 15> C -1.9730612469 0.3046119772 -1.2200982959
| 16> C -0.6185721478 0.3805946677 -0.9379106163
| 17> H 1.9814660087 -0.1430717395 -2.0366079843
| 18> H 3.2563792288 1.07364172 -2.067091831
| 19> H 3.4978681424 -0.4338028282 -1.1932728442
| 20> H 3.0641719137 1.3280273861 0.4082052127
| 21> H 1.6427589587 1.8819175357 -0.4628045241
| 22> H 1.2914440854 -1.8905475174 1.5422403118
| 23> H 1.7525397822 -1.841504011 -0.1550258692
| 24> H 2.9031056787 -1.3313168271 1.0898322706
| 25> H -0.7045808005 -0.5356999231 2.2988352763
| 26> H -3.0997365045 -0.6777920736 1.8005587152
| 27> H -3.927876355 -0.139596714 -0.4655446839
| 28> H -2.3250365674 0.549606108 -2.2117173627
| 29> H 0.053570407 0.6939799226 -1.7196953279
| 30> *
| 31>
| 32>                          ****END OF INPUT****

CARTESIAN COORDINATES (ANGSTROEM)
---------------------------------
  C      2.764449    0.326261   -1.447939
  C      2.212728    0.991424   -0.188443
  C      1.328211    0.105216    0.706489
  H      1.373513    0.534138    1.715778
  C      1.855410   -1.331961    0.799094
  C     -0.136289    0.072157    0.326613
  C     -1.055760   -0.305536    1.302489
  C     -2.407213   -0.383919    1.025297
  C     -2.872792   -0.080640   -0.243386
  C     -1.973061    0.304612   -1.220098
  C     -0.618572    0.380595   -0.937911
  H      1.981466   -0.143072   -2.036608
  H      3.256379    1.073642   -2.067092
  H      3.497868   -0.433803   -1.193273
  H      3.064172    1.328027    0.408205
  H      1.642759    1.881918   -0.462805
  H      1.291444   -1.890548    1.542240
  H      1.752540   -1.841504   -0.155026
  H      2.903106   -1.331317    1.089832
  H     -0.704581   -0.535700    2.298835
  H     -3.099737   -0.677792    1.800559
  H     -3.927876   -0.139597   -0.465545
  H     -2.325037    0.549606   -2.211717
  H      0.053570    0.693980   -1.719695

 Total Charge           Charge          ....    0
 Multiplicity           Mult            ....    1
 Number of Electrons    NEL             ....   74
 Basis Dimension        Dim             ....  260

ORBITAL ENERGIES
----------------

  NO   OCC          E(Eh)            E(eV)
   0   2.0000     -10.040331      -273.2113
   1   2.0000     -10.038890      -273.1721
   2   2.0000     -10.030629      -272.9473
   3   2.0000     -10.030564      -272.9455
   4   2.0000     -10.028683      -272.8943
   5   2.0000     -10.028342      -272.8851
   6   2.0000     -10.028155      -272.8800
   7   2.0000     -10.027727      -272.8683
   8   2.0000     -10.019172      -272.6355
   9   2.0000     -10.017996      -272.6035
  10   2.0000      -0.828287       -22.5388
  11   2.0000      -0.776398       -21.1269
  12   2.0000      -0.716529       -19.4978
  13   2.0000      -0.710305       -19.3284
  14   2.0000      -0.682099       -18.5609
  15   2.0000      -0.617847       -16.8125
  16   2.0000      -0.575278       -15.6541
  17   2.0000      -0.568127       -15.4595
  18   2.0000      -0.522125       -14.2077
  19   2.0000      -0.478467       -13.0197
  20   2.0000      -0.441921       -12.0253
  21   2.0000      -0.426370       -11.6021
  22   2.0000      -0.418227       -11.3805
  23   2.0000      -0.405262       -11.0277
  24   2.0000      -0.390305       -10.6207
  25   2.0000      -0.380244       -10.3470
  26   2.0000      -0.367868       -10.0102
  27   2.0000      -0.350901        -9.5485
  28   2.0000      -0.348867        -9.4932
  29   2.0000      -0.336133        -9.1466
  30   2.0000      -0.324251        -8.8233
  31   2.0000      -0.312025        -8.4906
  32   2.0000      -0.301342        -8.1999
  33   2.0000      -0.287112        -7.8127
  34   2.0000      -0.283450        -7.7131
  35   2.0000      -0.233301        -6.3484
  36   2.0000      -0.222837        -6.0637
  37   0.0000      -0.028925        -0.7871
  38   0.0000      -0.025522        -0.6945
  39   0.0000       0.072955         1.9852
  40   0.0000       0.096570         2.6278
  41   0.0000       0.102645         2.7931

MULLIKEN ATOMIC CHARGES
-----------------------
   0 C :   -0.491095
   1 C :   -0.316246
   2 C :   -0.053405
   3 H :    0.163231
   4 C :   -0.490230
   5 C :    0.140917
   6 C :   -0.251331
   7 C :   -0.154461
   8 C :   -0.151405
   9 C :   -0.179010
  10 C :   -0.186980
  11 H :    0.155824
  12 H :    0.150227
  13 H :    0.152148
  14 H :    0.154681
  15 H :    0.162174
  16 H :    0.150247
  17 H :    0.167454
  18 H :    0.153913
  19 H :    0.146230
  20 H :    0.143915
  21 H :    0.145165
  22 H :    0.143738
  23 H :    0.144298
Sum of atomic charges:    0.0000000

LOEWDIN ATOMIC CHARGES
----------------------
   0 C :   -0.426295
   1 C :   -0.307735
   2 C :   -0.214308
   3 H :    0.167948
   4 C :   -0.395650
   5 C :   -0.079469
   6 C :   -0.161734
   7 C :   -0.162312
   8 C :   -0.174044
   9 C :   -0.162389
  10 C :   -0.164218
  11 H :    0.149707
  12 H :    0.153006
  13 H :    0.151956
  14 H :    0.157508
  15 H :    0.160538
  16 H :    0.156958
  17 H :    0.159511
  18 H :    0.153180
  19 H :    0.168740
  20 H :    0.166239
  21 H :    0.165928
  22 H :    0.165921
  23 H :    0.171012

  Mayer bond orders larger than 0.100000
B(  0-C ,  1-C ) :   0.8699 B(  0-C , 11-H ) :   0.9912 B(  0-C , 12-H ) :   0.9701
B(  0-C , 13-H ) :   0.9667 B(  1-C ,  2-C ) :   0.8602 B(  1-C , 14-H ) :   0.9675
B(  1-C , 15-H ) :   1.0038 B(  2-C ,  3-H ) :   1.0143 B(  2-C ,  4-C ) :   0.9005
B(  2-C ,  5-C ) :   0.8123 B(  4-C , 16-H ) :   0.9650 B(  4-C , 17-H ) :   0.9707
B(  4-C , 18-H ) :   0.9795 B(  5-C ,  6-C ) :   1.3961 B(  5-C , 10-C ) :   1.4338
B(  6-C ,  7-C ) :   1.4463 B(  6-C , 19-H ) :   0.9481 B(  7-C ,  8-C ) :   1.4151
B(  7-C , 20-H ) :   0.9465 B(  8-C ,  9-C ) :   1.4293 B(  8-C , 21-H ) :   0.9494
B(  9-C , 10-C ) :   1.4381 B(  9-C , 22-H ) :   0.9481 B( 10-C , 23-H ) :   0.9422

Dispersion correction           -0.008453072
FINAL SINGLE POINT ENERGY      -389.374285171946

DIPOLE MOMENT
-------------

Method             : SCF
Type of density    : Electron Density
Multiplicity       :   1
Irrep              :   0
Energy             :  -389.3743547662192555 Eh
Relativity type    :
Basis              : AO
                                X                 Y                 Z
Electronic contribution:     -9.894074338       0.883830760       1.420714422
Nuclear contribution   :     10.094285665      -0.874390691      -1.366262505
                        -----------------------------------------
Total Dipole Moment    :      0.200211327       0.009440070       0.054451917
                        -----------------------------------------
Magnitude (a.u.)       :      0.207698584
Magnitude (Debye)      :      0.527927845

Rotational constants in cm-1:             0.088657             0.029477             0.024399
Rotational constants in MHz :          2657.855705           883.713015           731.452498

                             ****ORCA TERMINATED NORMALLY****
TOTAL RUN TIME: 0 days 0 hours 0 minutes 31 seconds 447 msec
