                         Program Version 6.0.0  -   RELEASE  -
|  1> ! r2scan-3c def2/J RI DEFGRID2 scfconv6 printgap
|  2> %output
|  3>     printlevel normal
|  4> end
|  5> %cpcm
|  6>     smd true
|  7>     smdsolvent "water"
|  8> end
|  9> * xyz 0 1
| 10> C 2.7644493786 0.326261399 -1.4479388386
| 11> C 2.2127281754 0.9914244929 -0.188443362
| 12> C 1.3282113608 0.1052158543 0.7064893434
| 13> H 1.3735132156 0.5341382926 1.7157775119
| 14> C 1.8554100002 -1.3319605223 0.7990944193
| 15> C -0.1362885273 0.0721572124 0.3266129775
| 16> C -1.0557603725 -0.3055357521 1.3024894004
| 17> C -2.407213045 -0.3839188782 1.0252971194
| 18> C -2.8727915892 -0.0806401743 -0.2433861703
| 19> C -1.9730612469 0.3046119772 -1.2200982959
| 20> C -0.6185721478 0.3805946677 -0.9379106163
| 21> H 1.9814660087 -0.1430717395 -2.0366079843
| 22> H 3.2563792288 1.07364172 -2.067091831
| 23> H 3.4978681424 -0.4338028282 -1.1932728442
| 24> H 3.0641719137 1.3280273861 0.4082052127
| 25> H 1.6427589587 1.8819175357 -0.4628045241
| 26> H 1.2914440854 -1.8905475174 1.5422403118
| 27> H 1.7525397822 -1.841504011 -0.1550258692
| 28> H 2.9031056787 -1.3313168271 1.0898322706
| 29> H -0.7045808005 -0.5356999231 2.2988352763
| 30> H -3.0997365045 -0.6777920736 1.8005587152
| 31> H -3.927876355 -0.139596714 -0.4655446839
| 32> H -2.3250365674 0.549606108 -2.2117173627
| 33> H 0.053570407 0.6939799226 -1.7196953279
| 34> *
| 35>
| 36>                          ****END OF INPUT****

CARTESIAN COORDINATES (ANGSTROEM)
---------------------------------
  C      2.764449    0.326261   -1.447939
  C      2.212728    0.991424   -0.188443
  C      1.328211    0.105216    0.706489
  H      1.373513    0.534138    1.715778
  C      1.855410   -1.331961    0.799094
  C     -0.136289    0.072157    0.326613
  C     -1.055760   -0.305536    1.302489
  C     -2.407213   -0.383919    1.025297
  C     -2.872792   -0.080640   -0.243386
  C     -1.973061    0.304612   -1.220098
  C     -0.618572    0.380595   -0.937911
  H      1.981466   -0.143072   -2.036608
  H      3.256379    1.073642   -2.067092
  H      3.497868   -0.433803   -1.193273
  H      3.064172    1.328027    0.408205
  H      1.642759    1.881918   -0.462805
  H      1.291444   -1.890548    1.542240
  H      1.752540   -1.841504   -0.155026
  H      2.903106   -1.331317    1.089832
  H     -0.704581   -0.535700    2.298835
  H     -3.099737   -0.677792    1.800559
  H     -3.927876   -0.139597   -0.465545
  H     -2.325037    0.549606   -2.211717
  H      0.053570    0.693980   -1.719695

 Total Charge           Charge          ....    0
 Multiplicity           Mult            ....    1
 Number of Electrons    NEL             ....   74
 Basis Dimension        Dim             ....  260

ORBITAL ENERGIES
----------------

  NO   OCC          E(Eh)            E(eV)
   0   2.0000     -10.038324      -273.1567
   1   2.0000     -10.033099      -273.0145
   2   2.0000     -10.029822      -272.9253
   3   2.0000     -10.029780      -272.9242
   4   2.0000     -10.027477      -272.8615
   5   2.0000     -10.027312      -272.8570
   6   2.0000     -10.026909      -272.8461
   7   2.0000     -10.018519      -272.6178
   8   2.0000     -10.011137      -272.4169
   9   2.0000     -10.007713      -272.3237
  10   2.0000      -0.828549       -22.5460
  11   2.0000      -0.770924       -20.9779
  12   2.0000      -0.714111       -19.4320
  13   2.0000      -0.708122       -19.2690
  14   2.0000      -0.676034       -18.3958
  15   2.0000      -0.610580       -16.6147
  16   2.0000      -0.572371       -15.5750
  17   2.0000      -0.565022       -15.3750
  18   2.0000      -0.516961       -14.0672
  19   2.0000      -0.474000       -12.8982
  20   2.0000      -0.436577       -11.8799
  21   2.0000      -0.419912       -11.4264
  22   2.0000      -0.412052       -11.2125
  23   2.0000      -0.401219       -10.9177
  24   2.0000      -0.385751       -10.4968
  25   2.0000      -0.375600       -10.2206
  26   2.0000      -0.361813        -9.8454
  27   2.0000      -0.343845        -9.3565
  28   2.0000      -0.341346        -9.2885
  29   2.0000      -0.335983        -9.1426
  30   2.0000      -0.317880        -8.6500
  31   2.0000      -0.307083        -8.3562
  32   2.0000      -0.293948        -7.9987
  33   2.0000      -0.279629        -7.6091
  34   2.0000      -0.277168        -7.5421
  35   2.0000      -0.236621        -6.4388
  36   2.0000      -0.224835        -6.1181
  37   0.0000      -0.030972        -0.8428
  38   0.0000      -0.027454        -0.7471
  39   0.0000       0.082171         2.2360
  40   0.0000       0.103176         2.8076
  41   0.0000       0.109145         2.9700

MULLIKEN ATOMIC CHARGES
-----------------------
   0 C :   -0.523384
   1 C :   -0.320417
   2 C :   -0.009654
   3 H :    0.178047
   4 C :   -0.536335
   5 C :    0.076861
   6 C :   -0.264841
   7 C :   -0.196586
   8 C :   -0.186360
   9 C :   -0.223269
  10 C :   -0.198807
  11 H :    0.166526
  12 H :    0.159080
  13 H :    0.161530
  14 H :    0.166023
  15 H :    0.165868
  16 H :    0.163096
  17 H :    0.174266
  18 H :    0.169073
  19 H :    0.177500
  20 H :    0.175381
  21 H :    0.176887
  22 H :    0.174996
  23 H :    0.174517
Sum of atomic charges:    0.0000000

LOEWDIN ATOMIC CHARGES
----------------------
   0 C :   -0.432191
   1 C :   -0.308374
   2 C :   -0.212540
   3 H :    0.173755
   4 C :   -0.401891
   5 C :   -0.087510
   6 C :   -0.170301
   7 C :   -0.175580
   8 C :   -0.188698
   9 C :   -0.175516
  10 C :   -0.172830
  11 H :    0.152601
  12 H :    0.155161
  13 H :    0.153896
  14 H :    0.161043
  15 H :    0.161161
  16 H :    0.159236
  17 H :    0.160046
  18 H :    0.158886
  19 H :    0.180003
  20 H :    0.176519
  21 H :    0.175817
  22 H :    0.176170
  23 H :    0.181136

  Mayer bond orders larger than 0.100000
B(  0-C ,  1-C ) :   0.8602 B(  0-C , 11-H ) :   0.9877 B(  0-C , 12-H ) :   0.9675
B(  0-C , 13-H ) :   0.9661 B(  1-C ,  2-C ) :   0.8467 B(  1-C , 14-H ) :   0.9664
B(  1-C , 15-H ) :   1.0052 B(  2-C ,  3-H ) :   1.0108 B(  2-C ,  4-C ) :   0.8844
B(  2-C ,  5-C ) :   0.8124 B(  4-C , 16-H ) :   0.9655 B(  4-C , 17-H ) :   0.9714
B(  4-C , 18-H ) :   0.9736 B(  5-C ,  6-C ) :   1.3781 B(  5-C , 10-C ) :   1.3993
B(  6-C ,  7-C ) :   1.4084 B(  6-C , 19-H ) :   0.9557 B(  7-C ,  8-C ) :   1.3731
B(  7-C , 20-H ) :   0.9590 B(  8-C ,  9-C ) :   1.3893 B(  8-C , 21-H ) :   0.9578
B(  9-C , 10-C ) :   1.4037 B(  9-C , 22-H ) :   0.9602 B( 10-C , 23-H ) :   0.9468

Dispersion correction           -0.008453072
FINAL SINGLE POINT ENERGY      -389.375066725232

DIPOLE MOMENT
-------------

Method             : SCF
Type of density    : Electron Density
Multiplicity       :   1
Irrep              :   0
Energy             :  -389.3751363195052591 Eh
Relativity type    :
Basis              : AO
                                X                 Y                 Z
Electronic contribution:     -9.780653755       0.890838684       1.465679851
Nuclear contribution   :     10.094285665      -0.874390691      -1.366262505
                        -----------------------------------------
Total Dipole Moment    :      0.313631910       0.016447994       0.099417346
                        -----------------------------------------
Magnitude (a.u.)       :      0.329422707
Magnitude (Debye)      :      0.837325979

Rotational constants in cm-1:             0.088657             0.029477             0.024399
Rotational constants in MHz :          2657.855705           883.713015           731.452498

                             ****ORCA TERMINATED NORMALLY****
TOTAL RUN TIME: 0 days 0 hours 0 minutes 38 seconds 478 msec
