                         Program Version 6.0.0  -   RELEASE  -
|  1> ! pbe def2-sv(p) def2/J RI DEFGRID1 loosescf d4 GCP(DFT/SV(P)) printgap
|  2> %output
|  3>     printlevel normal
|  4> end
|  5> * xyz 0 1
|  6> C -2.8318908576 -0.1879161244 -0.4206210646
|  7> C -1.6812846853 0.7399470511 -0.0539083971
|  8> C -0.4057314775 -0.0162305347 0.2174891285
|  9> O -0.328952219 -1.2044057009 0.4446889125
| 10> O 0.6451008836 0.7995526747 0.2027954021
| 11> C 1.9464324504 0.2430387552 0.4552999773
| 12> C 2.5686672172 -0.3001853987 -0.8219741428
| 13> H -3.7502384728 0.3798728405 -0.5319343045
| 14> H -2.6210330086 -0.7045066606 -1.3533826755
| 15> H -2.9682807057 -0.9375579345 0.3545403604
| 16> H -1.9180328469 1.295740365 0.856332809
| 17> H -1.4842515673 1.4677159316 -0.8411307646
| 18> H 2.5263454165 1.0741056093 0.8576183334
| 19> H 1.8480882112 -0.5499956109 1.2028439908
| 20> H 2.6084265393 0.4782234281 -1.5791726074
| 21> H 3.5745602297 -0.6488100134 -0.6122041305
| 22> H 1.9779881558 -1.132201058 -1.198957682
| 23> *
| 24>
| 25>                          ****END OF INPUT****

CARTESIAN COORDINATES (ANGSTROEM)
---------------------------------
  C     -2.831891   -0.187916   -0.420621
  C     -1.681285    0.739947   -0.053908
  C     -0.405731   -0.016231    0.217489
  O     -0.328952   -1.204406    0.444689
  O      0.645101    0.799553    0.202795
  C      1.946432    0.243039    0.455300
  C      2.568667   -0.300185   -0.821974
  H     -3.750238    0.379873   -0.531934
  H     -2.621033   -0.704507   -1.353383
  H     -2.968281   -0.937558    0.354540
  H     -1.918033    1.295740    0.856333
  H     -1.484252    1.467716   -0.841131
  H      2.526345    1.074106    0.857618
  H      1.848088   -0.549996    1.202844
  H      2.608427    0.478223   -1.579173
  H      3.574560   -0.648810   -0.612204
  H      1.977988   -1.132201   -1.198958

 Total Charge           Charge          ....    0
 Multiplicity           Mult            ....    1
 Number of Electrons    NEL             ....   56
 Basis Dimension        Dim             ....  118

ORBITAL ENERGIES
----------------

  NO   OCC          E(Eh)            E(eV)
   0   2.0000     -18.795510      -511.4518
   1   2.0000     -18.733088      -509.7532
   2   2.0000     -10.005471      -272.2627
   3   2.0000      -9.945862      -270.6407
   4   2.0000      -9.899844      -269.3885
   5   2.0000      -9.886177      -269.0165
   6   2.0000      -9.878278      -268.8016
   7   2.0000      -1.002732       -27.2857
   8   2.0000      -0.909630       -24.7523
   9   2.0000      -0.718019       -19.5383
  10   2.0000      -0.685984       -18.6666
  11   2.0000      -0.608530       -16.5589
  12   2.0000      -0.557293       -15.1647
  13   2.0000      -0.491705       -13.3800
  14   2.0000      -0.451391       -12.2830
  15   2.0000      -0.434117       -11.8129
  16   2.0000      -0.421978       -11.4826
  17   2.0000      -0.392519       -10.6810
  18   2.0000      -0.387276       -10.5383
  19   2.0000      -0.358735        -9.7617
  20   2.0000      -0.347186        -9.4474
  21   2.0000      -0.338680        -9.2160
  22   2.0000      -0.324887        -8.8406
  23   2.0000      -0.317133        -8.6296
  24   2.0000      -0.304653        -8.2900
  25   2.0000      -0.289141        -7.8679
  26   2.0000      -0.255343        -6.9482
  27   2.0000      -0.219432        -5.9711
  28   0.0000      -0.018640        -0.5072
  29   0.0000       0.040781         1.1097
  30   0.0000       0.058823         1.6007
  31   0.0000       0.080344         2.1863
  32   0.0000       0.090443         2.4611

MULLIKEN ATOMIC CHARGES
-----------------------
   0 C :   -0.270421
   1 C :   -0.186948
   2 C :    0.112224
   3 O :   -0.208165
   4 O :   -0.242048
   5 C :   -0.011775
   6 C :   -0.303582
   7 H :    0.101803
   8 H :    0.108212
   9 H :    0.117795
  10 H :    0.117934
  11 H :    0.108688
  12 H :    0.100461
  13 H :    0.106314
  14 H :    0.111927
  15 H :    0.111365
  16 H :    0.126218
Sum of atomic charges:   -0.0000000

LOEWDIN ATOMIC CHARGES
----------------------
   0 C :   -0.337133
   1 C :   -0.259007
   2 C :    0.038520
   3 O :   -0.168254
   4 O :   -0.072861
   5 C :   -0.112736
   6 C :   -0.356388
   7 H :    0.120468
   8 H :    0.123349
   9 H :    0.127313
  10 H :    0.143514
  11 H :    0.134831
  12 H :    0.116374
  13 H :    0.118418
  14 H :    0.123743
  15 H :    0.129744
  16 H :    0.130104

  Mayer bond orders larger than 0.100000
B(  0-C ,  1-C ) :   1.1531 B(  0-C ,  7-H ) :   0.9493 B(  0-C ,  8-H ) :   0.9595
B(  0-C ,  9-H ) :   0.9487 B(  1-C ,  2-C ) :   1.0188 B(  1-C , 10-H ) :   0.8955
B(  1-C , 11-H ) :   0.9111 B(  2-C ,  3-O ) :   2.0451 B(  2-C ,  4-O ) :   1.2107
B(  4-O ,  5-C ) :   0.9244 B(  5-C ,  6-C ) :   1.1727 B(  5-C , 12-H ) :   0.9376
B(  5-C , 13-H ) :   0.9145 B(  6-C , 14-H ) :   0.9492 B(  6-C , 15-H ) :   0.9446
B(  6-C , 16-H ) :   0.9466

Dispersion correction           -0.011916950
FINAL SINGLE POINT ENERGY      -346.246135749567

DIPOLE MOMENT
-------------

Method             : SCF
Type of density    : Electron Density
Multiplicity       :   1
Irrep              :   0
Energy             :  -346.3109678865496903 Eh
Relativity type    :
Basis              : AO
                                X                 Y                 Z
Electronic contribution:      0.482634496      -0.067235379       2.546460557
Nuclear contribution   :     -0.188976755       0.671904913      -2.659905036
                        -----------------------------------------
Total Dipole Moment    :      0.293657740       0.604669534      -0.113444479
                        -----------------------------------------
Magnitude (a.u.)       :      0.681710909
Magnitude (Debye)      :      1.732771426

Rotational constants in cm-1:             0.214900             0.046534             0.043682
Rotational constants in MHz :          6442.540038          1395.042519          1309.566828

                             ****ORCA TERMINATED NORMALLY****
TOTAL RUN TIME: 0 days 0 hours 0 minutes 9 seconds 419 msec
