                         Program Version 6.0.0  -   RELEASE  -
|  1> ! r2scan-3c def2/J RI DEFGRID2 scfconv6 printgap
|  2> %output
|  3>     printlevel normal
|  4> end
|  5> * xyz 0 1
|  6> C 1.8259602734 -0.5352662401 1.2974452956
|  7> C 1.4897139111 -0.0264100881 -0.1062784105
|  8> C 1.7518151075 1.4765168141 -0.2288149889
|  9> C 0.0531996827 -0.3502406862 -0.463550411
| 10> O -0.2064776264 -1.0738443505 -1.4058497815
| 11> C -1.048916625 0.2537371083 0.3864430177
| 12> C -1.8658473547 -0.8816754331 1.0095974166
| 13> C -1.9357504452 1.1251362609 -0.5075297628
| 14> H 1.2474043361 -0.0132237938 2.0541005605
| 15> H 2.8814524944 -0.3709699721 1.4971179504
| 16> H 1.6222863576 -1.6008612034 1.3738622352
| 17> H 2.1178537029 -0.5543623208 -0.832700148
| 18> H 2.8057764302 1.6741483298 -0.0526023916
| 19> H 1.4975299542 1.826068788 -1.2268051633
| 20> H 1.1705080557 2.0375531164 0.4972215522
| 21> H -0.622758186 0.8686046812 1.1800679749
| 22> H -1.2502387548 -1.4723117212 1.6838686591
| 23> H -2.704948501 -0.4742268395 1.5668136044
| 24> H -2.2453725484 -1.535047147 0.2270458624
| 25> H -2.317795761 0.5333818351 -1.3364912112
| 26> H -2.7739290712 1.5132909415 0.0646545449
| 27> H -1.3697750407 1.9608640231 -0.9121013655
| 28> *
| 29>
| 30>                          ****END OF INPUT****

CARTESIAN COORDINATES (ANGSTROEM)
---------------------------------
  C      1.825960   -0.535266    1.297445
  C      1.489714   -0.026410   -0.106278
  C      1.751815    1.476517   -0.228815
  C      0.053200   -0.350241   -0.463550
  O     -0.206478   -1.073844   -1.405850
  C     -1.048917    0.253737    0.386443
  C     -1.865847   -0.881675    1.009597
  C     -1.935750    1.125136   -0.507530
  H      1.247404   -0.013224    2.054101
  H      2.881452   -0.370970    1.497118
  H      1.622286   -1.600861    1.373862
  H      2.117854   -0.554362   -0.832700
  H      2.805776    1.674148   -0.052602
  H      1.497530    1.826069   -1.226805
  H      1.170508    2.037553    0.497222
  H     -0.622758    0.868605    1.180068
  H     -1.250239   -1.472312    1.683869
  H     -2.704949   -0.474227    1.566814
  H     -2.245373   -1.535047    0.227046
  H     -2.317796    0.533382   -1.336491
  H     -2.773929    1.513291    0.064655
  H     -1.369775    1.960864   -0.912101

 Total Charge           Charge          ....    0
 Multiplicity           Mult            ....    1
 Number of Electrons    NEL             ....   64
 Basis Dimension        Dim             ....  227

ORBITAL ENERGIES
----------------

  NO   OCC          E(Eh)            E(eV)
   0   2.0000     -18.933255      -515.2001
   1   2.0000     -10.110281      -275.1147
   2   2.0000     -10.045010      -273.3386
   3   2.0000     -10.044451      -273.3234
   4   2.0000     -10.032455      -272.9970
   5   2.0000     -10.032442      -272.9966
   6   2.0000     -10.024514      -272.7809
   7   2.0000     -10.024462      -272.7795
   8   2.0000      -1.000600       -27.2277
   9   2.0000      -0.787159       -21.4197
  10   2.0000      -0.760111       -20.6837
  11   2.0000      -0.667346       -18.1594
  12   2.0000      -0.656146       -17.8546
  13   2.0000      -0.616835       -16.7849
  14   2.0000      -0.568917       -15.4810
  15   2.0000      -0.483152       -13.1472
  16   2.0000      -0.459624       -12.5070
  17   2.0000      -0.432195       -11.7606
  18   2.0000      -0.413404       -11.2493
  19   2.0000      -0.408131       -11.1058
  20   2.0000      -0.400794       -10.9062
  21   2.0000      -0.382377       -10.4050
  22   2.0000      -0.364635        -9.9222
  23   2.0000      -0.360236        -9.8025
  24   2.0000      -0.348718        -9.4891
  25   2.0000      -0.345896        -9.4123
  26   2.0000      -0.338552        -9.2125
  27   2.0000      -0.316423        -8.6103
  28   2.0000      -0.309625        -8.4253
  29   2.0000      -0.304229        -8.2785
  30   2.0000      -0.304201        -8.2777
  31   2.0000      -0.206214        -5.6114
  32   0.0000      -0.046075        -1.2538
  33   0.0000       0.064327         1.7504
  34   0.0000       0.104924         2.8551
  35   0.0000       0.114900         3.1266
  36   0.0000       0.115380         3.1397

MULLIKEN ATOMIC CHARGES
-----------------------
   0 C :   -0.501070
   1 C :   -0.042349
   2 C :   -0.500806
   3 C :    0.235275
   4 O :   -0.353891
   5 C :   -0.039837
   6 C :   -0.512441
   7 C :   -0.512004
   8 H :    0.153085
   9 H :    0.153510
  10 H :    0.161909
  11 H :    0.174826
  12 H :    0.153451
  13 H :    0.161886
  14 H :    0.153081
  15 H :    0.155629
  16 H :    0.149484
  17 H :    0.149642
  18 H :    0.180734
  19 H :    0.180658
  20 H :    0.149661
  21 H :    0.149565
Sum of atomic charges:   -0.0000000

LOEWDIN ATOMIC CHARGES
----------------------
   0 C :   -0.397116
   1 C :   -0.213849
   2 C :   -0.397061
   3 C :    0.234015
   4 O :   -0.467164
   5 C :   -0.226756
   6 C :   -0.387759
   7 C :   -0.387726
   8 H :    0.154754
   9 H :    0.158546
  10 H :    0.160584
  11 H :    0.177422
  12 H :    0.158529
  13 H :    0.160583
  14 H :    0.154763
  15 H :    0.158536
  16 H :    0.156115
  17 H :    0.154040
  18 H :    0.169706
  19 H :    0.169656
  20 H :    0.154058
  21 H :    0.156123

  Mayer bond orders larger than 0.100000
B(  0-C ,  1-C ) :   0.8764 B(  0-C ,  8-H ) :   0.9723 B(  0-C ,  9-H ) :   0.9649
B(  0-C , 10-H ) :   0.9739 B(  1-C ,  2-C ) :   0.8760 B(  1-C ,  3-C ) :   0.8891
B(  1-C , 11-H ) :   0.9966 B(  2-C , 12-H ) :   0.9649 B(  2-C , 13-H ) :   0.9738
B(  2-C , 14-H ) :   0.9723 B(  3-C ,  4-O ) :   1.9416 B(  3-C ,  5-C ) :   0.8303
B(  5-C ,  6-C ) :   0.8859 B(  5-C ,  7-C ) :   0.8858 B(  5-C , 15-H ) :   0.9516
B(  6-C , 16-H ) :   0.9722 B(  6-C , 17-H ) :   0.9772 B(  6-C , 18-H ) :   0.9801
B(  7-C , 19-H ) :   0.9802 B(  7-C , 20-H ) :   0.9772 B(  7-C , 21-H ) :   0.9721

Dispersion correction           -0.006591108
FINAL SINGLE POINT ENERGY      -350.303469060428

DIPOLE MOMENT
-------------

Method             : SCF
Type of density    : Electron Density
Multiplicity       :   1
Irrep              :   0
Energy             :  -350.3073087165656148 Eh
Relativity type    :
Basis              : AO
                                X                 Y                 Z
Electronic contribution:      0.216052669      -3.449410249      -4.553522737
Nuclear contribution   :      0.051344267       4.105341904       5.405538907
                        -----------------------------------------
Total Dipole Moment    :      0.267396935       0.655931656       0.852016170
                        -----------------------------------------
Magnitude (a.u.)       :      1.108006774
Magnitude (Debye)      :      2.816329403

Rotational constants in cm-1:             0.088424             0.048556             0.045195
Rotational constants in MHz :          2650.881286          1455.670583          1354.901658

                             ****ORCA TERMINATED NORMALLY****
TOTAL RUN TIME: 0 days 0 hours 0 minutes 39 seconds 296 msec
