                         Program Version 6.0.0  -   RELEASE  -
|  1> ! r2scan-3c def2/J RI DEFGRID2 scfconv6 printgap
|  2> %output
|  3>     printlevel normal
|  4> end
|  5> %cpcm
|  6>     smd true
|  7>     smdsolvent "water"
|  8> end
|  9> * xyz 0 1
| 10> C 1.8259602734 -0.5352662401 1.2974452956
| 11> C 1.4897139111 -0.0264100881 -0.1062784105
| 12> C 1.7518151075 1.4765168141 -0.2288149889
| 13> C 0.0531996827 -0.3502406862 -0.463550411
| 14> O -0.2064776264 -1.0738443505 -1.4058497815
| 15> C -1.048916625 0.2537371083 0.3864430177
| 16> C -1.8658473547 -0.8816754331 1.0095974166
| 17> C -1.9357504452 1.1251362609 -0.5075297628
| 18> H 1.2474043361 -0.0132237938 2.0541005605
| 19> H 2.8814524944 -0.3709699721 1.4971179504
| 20> H 1.6222863576 -1.6008612034 1.3738622352
| 21> H 2.1178537029 -0.5543623208 -0.832700148
| 22> H 2.8057764302 1.6741483298 -0.0526023916
| 23> H 1.4975299542 1.826068788 -1.2268051633
| 24> H 1.1705080557 2.0375531164 0.4972215522
| 25> H -0.622758186 0.8686046812 1.1800679749
| 26> H -1.2502387548 -1.4723117212 1.6838686591
| 27> H -2.704948501 -0.4742268395 1.5668136044
| 28> H -2.2453725484 -1.535047147 0.2270458624
| 29> H -2.317795761 0.5333818351 -1.3364912112
| 30> H -2.7739290712 1.5132909415 0.0646545449
| 31> H -1.3697750407 1.9608640231 -0.9121013655
| 32> *
| 33>
| 34>                          ****END OF INPUT****

CARTESIAN COORDINATES (ANGSTROEM)
---------------------------------
  C      1.825960   -0.535266    1.297445
  C      1.489714   -0.026410   -0.106278
  C      1.751815    1.476517   -0.228815
  C      0.053200   -0.350241   -0.463550
  O     -0.206478   -1.073844   -1.405850
  C     -1.048917    0.253737    0.386443
  C     -1.865847   -0.881675    1.009597
  C     -1.935750    1.125136   -0.507530
  H      1.247404   -0.013224    2.054101
  H      2.881452   -0.370970    1.497118
  H      1.622286   -1.600861    1.373862
  H      2.117854   -0.554362   -0.832700
  H      2.805776    1.674148   -0.052602
  H      1.497530    1.826069   -1.226805
  H      1.170508    2.037553    0.497222
  H     -0.622758    0.868605    1.180068
  H     -1.250239   -1.472312    1.683869
  H     -2.704949   -0.474227    1.566814
  H     -2.245373   -1.535047    0.227046
  H     -2.317796    0.533382   -1.336491
  H     -2.773929    1.513291    0.064655
  H     -1.369775    1.960864   -0.912101

 Total Charge           Charge          ....    0
 Multiplicity           Mult            ....    1
 Number of Electrons    NEL             ....   64
 Basis Dimension        Dim             ....  227

ORBITAL ENERGIES
----------------

  NO   OCC          E(Eh)            E(eV)
   0   2.0000     -18.945579      -515.5354
   1   2.0000     -10.117787      -275.3190
   2   2.0000     -10.037667      -273.1388
   3   2.0000     -10.036960      -273.1196
   4   2.0000     -10.017700      -272.5955
   5   2.0000     -10.017675      -272.5948
   6   2.0000     -10.016493      -272.5626
   7   2.0000     -10.016470      -272.5620
   8   2.0000      -1.014415       -27.6036
   9   2.0000      -0.779467       -21.2104
  10   2.0000      -0.751395       -20.4465
  11   2.0000      -0.654492       -17.8096
  12   2.0000      -0.646919       -17.6036
  13   2.0000      -0.611059       -16.6278
  14   2.0000      -0.561045       -15.2668
  15   2.0000      -0.480190       -13.0666
  16   2.0000      -0.452060       -12.3012
  17   2.0000      -0.430209       -11.7066
  18   2.0000      -0.409539       -11.1441
  19   2.0000      -0.402990       -10.9659
  20   2.0000      -0.397173       -10.8076
  21   2.0000      -0.370283       -10.0759
  22   2.0000      -0.355856        -9.6833
  23   2.0000      -0.348697        -9.4885
  24   2.0000      -0.341487        -9.2923
  25   2.0000      -0.340587        -9.2678
  26   2.0000      -0.333650        -9.0791
  27   2.0000      -0.305647        -8.3171
  28   2.0000      -0.303350        -8.2546
  29   2.0000      -0.301773        -8.2117
  30   2.0000      -0.295389        -8.0379
  31   2.0000      -0.216610        -5.8943
  32   0.0000      -0.050674        -1.3789
  33   0.0000       0.076036         2.0690
  34   0.0000       0.116172         3.1612
  35   0.0000       0.126071         3.4306
  36   0.0000       0.129242         3.5169

MULLIKEN ATOMIC CHARGES
-----------------------
   0 C :   -0.530499
   1 C :   -0.040654
   2 C :   -0.530187
   3 C :    0.269472
   4 O :   -0.457785
   5 C :   -0.019342
   6 C :   -0.550888
   7 C :   -0.550410
   8 H :    0.173502
   9 H :    0.170398
  10 H :    0.169288
  11 H :    0.173539
  12 H :    0.170355
  13 H :    0.169200
  14 H :    0.173495
  15 H :    0.187726
  16 H :    0.169533
  17 H :    0.169610
  18 H :    0.172132
  19 H :    0.172276
  20 H :    0.169678
  21 H :    0.169563
Sum of atomic charges:   -0.0000000

LOEWDIN ATOMIC CHARGES
----------------------
   0 C :   -0.398541
   1 C :   -0.209612
   2 C :   -0.398486
   3 C :    0.249586
   4 O :   -0.541146
   5 C :   -0.220331
   6 C :   -0.392429
   7 C :   -0.392413
   8 H :    0.162159
   9 H :    0.164253
  10 H :    0.162771
  11 H :    0.177002
  12 H :    0.164263
  13 H :    0.162745
  14 H :    0.162164
  15 H :    0.172164
  16 H :    0.162117
  17 H :    0.161469
  18 H :    0.164312
  19 H :    0.164333
  20 H :    0.161498
  21 H :    0.162123

  Mayer bond orders larger than 0.100000
B(  0-C ,  1-C ) :   0.8689 B(  0-C ,  8-H ) :   0.9686 B(  0-C ,  9-H ) :   0.9609
B(  0-C , 10-H ) :   0.9690 B(  1-C ,  2-C ) :   0.8686 B(  1-C ,  3-C ) :   0.9002
B(  1-C , 11-H ) :   1.0002 B(  2-C , 12-H ) :   0.9609 B(  2-C , 13-H ) :   0.9689
B(  2-C , 14-H ) :   0.9686 B(  3-C ,  4-O ) :   1.8611 B(  3-C ,  5-C ) :   0.8501
B(  5-C ,  6-C ) :   0.8678 B(  5-C ,  7-C ) :   0.8676 B(  5-C , 15-H ) :   0.9402
B(  6-C , 16-H ) :   0.9694 B(  6-C , 17-H ) :   0.9713 B(  6-C , 18-H ) :   0.9810
B(  7-C , 19-H ) :   0.9811 B(  7-C , 20-H ) :   0.9713 B(  7-C , 21-H ) :   0.9692

Dispersion correction           -0.006591108
FINAL SINGLE POINT ENERGY      -350.308524822773

DIPOLE MOMENT
-------------

Method             : SCF
Type of density    : Electron Density
Multiplicity       :   1
Irrep              :   0
Energy             :  -350.3123644789104674 Eh
Relativity type    :
Basis              : AO
                                X                 Y                 Z
Electronic contribution:      0.328154493      -3.080820468      -4.073036960
Nuclear contribution   :      0.051344267       4.105341904       5.405538907
                        -----------------------------------------
Total Dipole Moment    :      0.379498760       1.024521437       1.332501948
                        -----------------------------------------
Magnitude (a.u.)       :      1.723143907
Magnitude (Debye)      :      4.379883736

Rotational constants in cm-1:             0.088424             0.048556             0.045195
Rotational constants in MHz :          2650.881286          1455.670583          1354.901658

                             ****ORCA TERMINATED NORMALLY****
TOTAL RUN TIME: 0 days 0 hours 0 minutes 40 seconds 995 msec
