                         Program Version 6.0.0  -   RELEASE  -
|  1> ! pbe def2-sv(p) def2/J RI DEFGRID1 loosescf d4 GCP(DFT/SV(P)) printgap
|  2> %output
|  3>     printlevel normal
|  4> end
|  5> * xyz 0 1
|  6> C -2.4219972881 0.7582351063 0.6168272571
|  7> C -1.2847838884 -0.1709334277 0.1918822964
|  8> C -1.6757961506 -0.9138493111 -1.0839906018
|  9> C -0.0001620705 0.6450925662 0.0028398933
| 10> C 1.2836355763 -0.1711920632 -0.1908718445
| 11> C 2.4200465162 0.7570710496 -0.6197622182
| 12> C 1.6789138201 -0.9144780934 1.083433675
| 13> H -3.3420892395 0.1959151679 0.7585421486
| 14> H -2.1803992114 1.2604115199 1.5508060438
| 15> H -2.5964416537 1.5151270845 -0.1450921939
| 16> H -1.130237313 -0.9044133454 0.9894691838
| 17> H -1.8072765675 -0.2113620811 -1.9044455035
| 18> H -0.9158683346 -1.6368022779 -1.3676801501
| 19> H -2.611551501 -1.4484812754 -0.93721658
| 20> H 0.1358341178 1.2901980422 0.8748125956
| 21> H -0.1357209981 1.294941633 -0.8657005655
| 22> H 1.125792499 -0.9043994191 -0.9879786488
| 23> H 2.6002419085 1.5115776343 0.1431559988
| 24> H 3.3382619668 0.1934952745 -0.7683466568
| 25> H 2.173968085 1.2622881956 -1.5509176773
| 26> H 2.6080366526 -1.458707369 0.9296820591
| 27> H 1.8247885793 -0.2109637012 1.9005710904
| 28> H 0.9143709002 -1.6290109378 1.3760671716
| 29> *
| 30>
| 31>                          ****END OF INPUT****

CARTESIAN COORDINATES (ANGSTROEM)
---------------------------------
  C     -2.421997    0.758235    0.616827
  C     -1.284784   -0.170933    0.191882
  C     -1.675796   -0.913849   -1.083991
  C     -0.000162    0.645093    0.002840
  C      1.283636   -0.171192   -0.190872
  C      2.420047    0.757071   -0.619762
  C      1.678914   -0.914478    1.083434
  H     -3.342089    0.195915    0.758542
  H     -2.180399    1.260412    1.550806
  H     -2.596442    1.515127   -0.145092
  H     -1.130237   -0.904413    0.989469
  H     -1.807277   -0.211362   -1.904446
  H     -0.915868   -1.636802   -1.367680
  H     -2.611552   -1.448481   -0.937217
  H      0.135834    1.290198    0.874813
  H     -0.135721    1.294942   -0.865701
  H      1.125792   -0.904399   -0.987979
  H      2.600242    1.511578    0.143156
  H      3.338262    0.193495   -0.768347
  H      2.173968    1.262288   -1.550918
  H      2.608037   -1.458707    0.929682
  H      1.824789   -0.210964    1.900571
  H      0.914371   -1.629011    1.376067

 Total Charge           Charge          ....    0
 Multiplicity           Mult            ....    1
 Number of Electrons    NEL             ....   58
 Basis Dimension        Dim             ....  130

ORBITAL ENERGIES
----------------

  NO   OCC          E(Eh)            E(eV)
   0   2.0000      -9.889563      -269.1087
   1   2.0000      -9.889510      -269.1072
   2   2.0000      -9.875557      -268.7276
   3   2.0000      -9.868687      -268.5406
   4   2.0000      -9.868680      -268.5404
   5   2.0000      -9.867940      -268.5203
   6   2.0000      -9.867917      -268.5197
   7   2.0000      -0.739153       -20.1134
   8   2.0000      -0.698007       -18.9937
   9   2.0000      -0.607771       -16.5383
  10   2.0000      -0.606403       -16.5011
  11   2.0000      -0.599831       -16.3222
  12   2.0000      -0.508402       -13.8343
  13   2.0000      -0.485941       -13.2231
  14   2.0000      -0.426902       -11.6166
  15   2.0000      -0.400057       -10.8861
  16   2.0000      -0.391941       -10.6653
  17   2.0000      -0.376860       -10.2549
  18   2.0000      -0.360959        -9.8222
  19   2.0000      -0.349606        -9.5133
  20   2.0000      -0.336586        -9.1590
  21   2.0000      -0.335831        -9.1384
  22   2.0000      -0.315844        -8.5946
  23   2.0000      -0.305951        -8.3254
  24   2.0000      -0.297501        -8.0954
  25   2.0000      -0.290132        -7.8949
  26   2.0000      -0.274837        -7.4787
  27   2.0000      -0.267631        -7.2826
  28   2.0000      -0.261779        -7.1234
  29   0.0000       0.032219         0.8767
  30   0.0000       0.056163         1.5283
  31   0.0000       0.064202         1.7470
  32   0.0000       0.064881         1.7655
  33   0.0000       0.091893         2.5005

MULLIKEN ATOMIC CHARGES
-----------------------
   0 C :   -0.234006
   1 C :   -0.172342
   2 C :   -0.253603
   3 C :   -0.118045
   4 C :   -0.171961
   5 C :   -0.234051
   6 C :   -0.253593
   7 H :    0.095368
   8 H :    0.096024
   9 H :    0.090370
  10 H :    0.074274
  11 H :    0.090710
  12 H :    0.106627
  13 H :    0.096329
  14 H :    0.069217
  15 H :    0.069226
  16 H :    0.074204
  17 H :    0.090352
  18 H :    0.095330
  19 H :    0.096020
  20 H :    0.096378
  21 H :    0.090741
  22 H :    0.106432
Sum of atomic charges:   -0.0000000

LOEWDIN ATOMIC CHARGES
----------------------
   0 C :   -0.327385
   1 C :   -0.158985
   2 C :   -0.329903
   3 C :   -0.208007
   4 C :   -0.159023
   5 C :   -0.327368
   6 C :   -0.329837
   7 H :    0.115358
   8 H :    0.115599
   9 H :    0.115438
  10 H :    0.113327
  11 H :    0.116001
  12 H :    0.115618
  13 H :    0.117166
  14 H :    0.111801
  15 H :    0.111760
  16 H :    0.113365
  17 H :    0.115416
  18 H :    0.115389
  19 H :    0.115561
  20 H :    0.117178
  21 H :    0.115979
  22 H :    0.115554

  Mayer bond orders larger than 0.100000
B(  0-C ,  1-C ) :   1.1135 B(  0-C ,  7-H ) :   0.9510 B(  0-C ,  8-H ) :   0.9496
B(  0-C ,  9-H ) :   0.9497 B(  1-C ,  2-C ) :   1.1069 B(  1-C ,  3-C ) :   1.0841
B(  1-C , 10-H ) :   0.8949 B(  2-C , 11-H ) :   0.9494 B(  2-C , 12-H ) :   0.9452
B(  2-C , 13-H ) :   0.9496 B(  3-C ,  4-C ) :   1.0838 B(  3-C , 14-H ) :   0.9140
B(  3-C , 15-H ) :   0.9139 B(  4-C ,  5-C ) :   1.1134 B(  4-C ,  6-C ) :   1.1069
B(  4-C , 16-H ) :   0.8950 B(  5-C , 17-H ) :   0.9497 B(  5-C , 18-H ) :   0.9511
B(  5-C , 19-H ) :   0.9495 B(  6-C , 20-H ) :   0.9497 B(  6-C , 21-H ) :   0.9493
B(  6-C , 22-H ) :   0.9453

Dispersion correction           -0.018365708
FINAL SINGLE POINT ENERGY      -275.663436996020

DIPOLE MOMENT
-------------

Method             : SCF
Type of density    : Electron Density
Multiplicity       :   1
Irrep              :   0
Energy             :  -275.7411419276701281 Eh
Relativity type    :
Basis              : AO
                                X                 Y                 Z
Electronic contribution:     -0.001983350      -0.165302867       0.004009866
Nuclear contribution   :      0.001604153       0.112405010      -0.004007529
                        -----------------------------------------
Total Dipole Moment    :     -0.000379197      -0.052897857       0.000002337
                        -----------------------------------------
Magnitude (a.u.)       :      0.052899216
Magnitude (Debye)      :      0.134459122

Rotational constants in cm-1:             0.137209             0.044477             0.044295
Rotational constants in MHz :          4113.432417          1333.381012          1327.924284

                             ****ORCA TERMINATED NORMALLY****
TOTAL RUN TIME: 0 days 0 hours 0 minutes 10 seconds 559 msec
