                         Program Version 6.0.0  -   RELEASE  -
|  1> ! r2scan-3c def2/J RI DEFGRID2 scfconv6 printgap
|  2> %output
|  3>     printlevel normal
|  4> end
|  5> * xyz 0 1
|  6> C -2.1784866411 0.3133540653 -1.135288958
|  7> C -2.1596428363 -0.6031968518 0.0818602553
|  8> C -1.224052155 -0.1742910715 1.2171852275
|  9> C 0.2874686839 -0.0805967159 0.9457540883
| 10> C 0.8963758867 -1.1790741124 0.0458217186
| 11> C 1.7681767922 -0.4541379429 -0.9891951456
| 12> C 2.0578130749 0.9062089442 -0.3600140356
| 13> C 0.7375668172 1.2502340261 0.3208560821
| 14> H -2.9688234804 0.0054357875 -1.8171391118
| 15> H -2.3687079679 1.3421793717 -0.837149621
| 16> H -1.2361742675 0.2693196466 -1.6732456115
| 17> H -3.1683317378 -0.6393675586 0.5025859749
| 18> H -1.9165841749 -1.6184533751 -0.2370178029
| 19> H -1.549771627 0.802303331 1.5847690266
| 20> H -1.3735571101 -0.8899334482 2.0304878744
| 21> H 0.7717423927 -0.1469275822 1.9267684569
| 22> H 1.5042321502 -1.8565828565 0.6460464255
| 23> H 0.1327512064 -1.7772941849 -0.4443569832
| 24> H 2.6765932182 -1.0080612075 -1.2222643578
| 25> H 1.2127458087 -0.3136801505 -1.9180232801
| 26> H 2.8494722861 0.8120550755 0.3854195576
| 27> H 2.3609897112 1.6515736225 -1.0941389552
| 28> H 0.8462249633 2.029852611 1.0746499349
| 29> H 0.0199629032 1.5937892747 -0.4205848625
| 30> *
| 31>
| 32>                          ****END OF INPUT****

CARTESIAN COORDINATES (ANGSTROEM)
---------------------------------
  C     -2.178487    0.313354   -1.135289
  C     -2.159643   -0.603197    0.081860
  C     -1.224052   -0.174291    1.217185
  C      0.287469   -0.080597    0.945754
  C      0.896376   -1.179074    0.045822
  C      1.768177   -0.454138   -0.989195
  C      2.057813    0.906209   -0.360014
  C      0.737567    1.250234    0.320856
  H     -2.968823    0.005436   -1.817139
  H     -2.368708    1.342179   -0.837150
  H     -1.236174    0.269320   -1.673246
  H     -3.168332   -0.639368    0.502586
  H     -1.916584   -1.618453   -0.237018
  H     -1.549772    0.802303    1.584769
  H     -1.373557   -0.889933    2.030488
  H      0.771742   -0.146928    1.926768
  H      1.504232   -1.856583    0.646046
  H      0.132751   -1.777294   -0.444357
  H      2.676593   -1.008061   -1.222264
  H      1.212746   -0.313680   -1.918023
  H      2.849472    0.812055    0.385420
  H      2.360990    1.651574   -1.094139
  H      0.846225    2.029853    1.074650
  H      0.019963    1.593789   -0.420585

 Total Charge           Charge          ....    0
 Multiplicity           Mult            ....    1
 Number of Electrons    NEL             ....   64
 Basis Dimension        Dim             ....  232

ORBITAL ENERGIES
----------------

  NO   OCC          E(Eh)            E(eV)
   0   2.0000     -10.024766      -272.7877
   1   2.0000     -10.022189      -272.7176
   2   2.0000     -10.019129      -272.6344
   3   2.0000     -10.018039      -272.6047
   4   2.0000     -10.017265      -272.5836
   5   2.0000     -10.015503      -272.5357
   6   2.0000     -10.013965      -272.4938
   7   2.0000     -10.013926      -272.4928
   8   2.0000      -0.803387       -21.8613
   9   2.0000      -0.747224       -20.3330
  10   2.0000      -0.686554       -18.6821
  11   2.0000      -0.670765       -18.2524
  12   2.0000      -0.625339       -17.0163
  13   2.0000      -0.555329       -15.1113
  14   2.0000      -0.532819       -14.4987
  15   2.0000      -0.497445       -13.5362
  16   2.0000      -0.454086       -12.3563
  17   2.0000      -0.438269       -11.9259
  18   2.0000      -0.409490       -11.1428
  19   2.0000      -0.404244       -11.0000
  20   2.0000      -0.381732       -10.3874
  21   2.0000      -0.370182       -10.0732
  22   2.0000      -0.360700        -9.8152
  23   2.0000      -0.328484        -8.9385
  24   2.0000      -0.318201        -8.6587
  25   2.0000      -0.308418        -8.3925
  26   2.0000      -0.300311        -8.1719
  27   2.0000      -0.299155        -8.1404
  28   2.0000      -0.285284        -7.7630
  29   2.0000      -0.275908        -7.5078
  30   2.0000      -0.271428        -7.3859
  31   2.0000      -0.263356        -7.1663
  32   0.0000       0.076535         2.0826
  33   0.0000       0.090221         2.4550
  34   0.0000       0.096172         2.6170
  35   0.0000       0.119105         3.2410
  36   0.0000       0.128526         3.4974

MULLIKEN ATOMIC CHARGES
-----------------------
   0 C :   -0.501449
   1 C :   -0.225166
   2 C :   -0.343882
   3 C :   -0.004833
   4 C :   -0.385865
   5 C :   -0.286677
   6 C :   -0.266837
   7 C :   -0.380921
   8 H :    0.145410
   9 H :    0.148833
  10 H :    0.150945
  11 H :    0.142144
  12 H :    0.135395
  13 H :    0.149230
  14 H :    0.143925
  15 H :    0.158127
  16 H :    0.155047
  17 H :    0.152876
  18 H :    0.148756
  19 H :    0.149868
  20 H :    0.146984
  21 H :    0.150641
  22 H :    0.151607
  23 H :    0.165840
Sum of atomic charges:   -0.0000000

LOEWDIN ATOMIC CHARGES
----------------------
   0 C :   -0.430482
   1 C :   -0.317300
   2 C :   -0.298697
   3 C :   -0.224260
   4 C :   -0.299490
   5 C :   -0.304058
   6 C :   -0.302170
   7 C :   -0.301124
   8 H :    0.149854
   9 H :    0.149862
  10 H :    0.149035
  11 H :    0.152965
  12 H :    0.148281
  13 H :    0.158875
  14 H :    0.156958
  15 H :    0.161196
  16 H :    0.157317
  17 H :    0.158135
  18 H :    0.154774
  19 H :    0.152440
  20 H :    0.155042
  21 H :    0.155167
  22 H :    0.156386
  23 H :    0.161295

  Mayer bond orders larger than 0.100000
B(  0-C ,  1-C ) :   0.8719 B(  0-C ,  8-H ) :   0.9678 B(  0-C ,  9-H ) :   0.9808
B(  0-C , 10-H ) :   0.9808 B(  1-C ,  2-C ) :   0.9246 B(  1-C , 11-H ) :   0.9627
B(  1-C , 12-H ) :   0.9843 B(  2-C ,  3-C ) :   0.8453 B(  2-C , 13-H ) :   0.9999
B(  2-C , 14-H ) :   0.9704 B(  3-C ,  4-C ) :   0.9252 B(  3-C ,  7-C ) :   0.9310
B(  3-C , 15-H ) :   0.9704 B(  4-C ,  5-C ) :   0.9174 B(  4-C , 16-H ) :   0.9743
B(  4-C , 17-H ) :   0.9818 B(  5-C ,  6-C ) :   0.9036 B(  5-C , 18-H ) :   0.9510
B(  5-C , 19-H ) :   0.9963 B(  6-C ,  7-C ) :   0.8770 B(  6-C , 20-H ) :   0.9886
B(  6-C , 21-H ) :   0.9586 B(  7-C , 22-H ) :   0.9527 B(  7-C , 23-H ) :   0.9928

Dispersion correction           -0.007416807
FINAL SINGLE POINT ENERGY      -314.376348567914

DIPOLE MOMENT
-------------

Method             : SCF
Type of density    : Electron Density
Multiplicity       :   1
Irrep              :   0
Energy             :  -314.3794514025003082 Eh
Relativity type    :
Basis              : AO
                                X                 Y                 Z
Electronic contribution:      2.046208083      -0.258470709       1.465719808
Nuclear contribution   :     -2.070746977       0.240365211      -1.419622059
                        -----------------------------------------
Total Dipole Moment    :     -0.024538894      -0.018105498       0.046097749
                        -----------------------------------------
Magnitude (a.u.)       :      0.055271773
Magnitude (Debye)      :      0.140489682

Rotational constants in cm-1:             0.105833             0.044879             0.043801
Rotational constants in MHz :          3172.793372          1345.440051          1313.125058

                             ****ORCA TERMINATED NORMALLY****
TOTAL RUN TIME: 0 days 0 hours 0 minutes 23 seconds 578 msec
