                         Program Version 6.0.0  -   RELEASE  -
|  1> ! r2scan-3c def2/J RI DEFGRID2 scfconv6 printgap
|  2> %output
|  3>     printlevel normal
|  4> end
|  5> %cpcm
|  6>     smd true
|  7>     smdsolvent "water"
|  8> end
|  9> * xyz 0 1
| 10> C -2.1784866411 0.3133540653 -1.135288958
| 11> C -2.1596428363 -0.6031968518 0.0818602553
| 12> C -1.224052155 -0.1742910715 1.2171852275
| 13> C 0.2874686839 -0.0805967159 0.9457540883
| 14> C 0.8963758867 -1.1790741124 0.0458217186
| 15> C 1.7681767922 -0.4541379429 -0.9891951456
| 16> C 2.0578130749 0.9062089442 -0.3600140356
| 17> C 0.7375668172 1.2502340261 0.3208560821
| 18> H -2.9688234804 0.0054357875 -1.8171391118
| 19> H -2.3687079679 1.3421793717 -0.837149621
| 20> H -1.2361742675 0.2693196466 -1.6732456115
| 21> H -3.1683317378 -0.6393675586 0.5025859749
| 22> H -1.9165841749 -1.6184533751 -0.2370178029
| 23> H -1.549771627 0.802303331 1.5847690266
| 24> H -1.3735571101 -0.8899334482 2.0304878744
| 25> H 0.7717423927 -0.1469275822 1.9267684569
| 26> H 1.5042321502 -1.8565828565 0.6460464255
| 27> H 0.1327512064 -1.7772941849 -0.4443569832
| 28> H 2.6765932182 -1.0080612075 -1.2222643578
| 29> H 1.2127458087 -0.3136801505 -1.9180232801
| 30> H 2.8494722861 0.8120550755 0.3854195576
| 31> H 2.3609897112 1.6515736225 -1.0941389552
| 32> H 0.8462249633 2.029852611 1.0746499349
| 33> H 0.0199629032 1.5937892747 -0.4205848625
| 34> *
| 35>
| 36>                          ****END OF INPUT****

CARTESIAN COORDINATES (ANGSTROEM)
---------------------------------
  C     -2.178487    0.313354   -1.135289
  C     -2.159643   -0.603197    0.081860
  C     -1.224052   -0.174291    1.217185
  C      0.287469   -0.080597    0.945754
  C      0.896376   -1.179074    0.045822
  C      1.768177   -0.454138   -0.989195
  C      2.057813    0.906209   -0.360014
  C      0.737567    1.250234    0.320856
  H     -2.968823    0.005436   -1.817139
  H     -2.368708    1.342179   -0.837150
  H     -1.236174    0.269320   -1.673246
  H     -3.168332   -0.639368    0.502586
  H     -1.916584   -1.618453   -0.237018
  H     -1.549772    0.802303    1.584769
  H     -1.373557   -0.889933    2.030488
  H      0.771742   -0.146928    1.926768
  H      1.504232   -1.856583    0.646046
  H      0.132751   -1.777294   -0.444357
  H      2.676593   -1.008061   -1.222264
  H      1.212746   -0.313680   -1.918023
  H      2.849472    0.812055    0.385420
  H      2.360990    1.651574   -1.094139
  H      0.846225    2.029853    1.074650
  H      0.019963    1.593789   -0.420585

 Total Charge           Charge          ....    0
 Multiplicity           Mult            ....    1
 Number of Electrons    NEL             ....   64
 Basis Dimension        Dim             ....  232

ORBITAL ENERGIES
----------------

  NO   OCC          E(Eh)            E(eV)
   0   2.0000     -10.017671      -272.5947
   1   2.0000     -10.014408      -272.5059
   2   2.0000     -10.012014      -272.4407
   3   2.0000     -10.011195      -272.4185
   4   2.0000     -10.010888      -272.4101
   5   2.0000     -10.008335      -272.3407
   6   2.0000     -10.007189      -272.3095
   7   2.0000     -10.005651      -272.2676
   8   2.0000      -0.796577       -21.6760
   9   2.0000      -0.739995       -20.1363
  10   2.0000      -0.679572       -18.4921
  11   2.0000      -0.664315       -18.0769
  12   2.0000      -0.618443       -16.8287
  13   2.0000      -0.548263       -14.9190
  14   2.0000      -0.526423       -14.3247
  15   2.0000      -0.490663       -13.3516
  16   2.0000      -0.446942       -12.1619
  17   2.0000      -0.431451       -11.7404
  18   2.0000      -0.402439       -10.9509
  19   2.0000      -0.396996       -10.8028
  20   2.0000      -0.374547       -10.1919
  21   2.0000      -0.362794        -9.8721
  22   2.0000      -0.353292        -9.6136
  23   2.0000      -0.321074        -8.7369
  24   2.0000      -0.310866        -8.4591
  25   2.0000      -0.301018        -8.1911
  26   2.0000      -0.293941        -7.9986
  27   2.0000      -0.292760        -7.9664
  28   2.0000      -0.278032        -7.5656
  29   2.0000      -0.268815        -7.3148
  30   2.0000      -0.264578        -7.1995
  31   2.0000      -0.255909        -6.9636
  32   0.0000       0.085166         2.3175
  33   0.0000       0.097408         2.6506
  34   0.0000       0.103010         2.8031
  35   0.0000       0.125779         3.4226
  36   0.0000       0.134556         3.6615

MULLIKEN ATOMIC CHARGES
-----------------------
   0 C :   -0.533146
   1 C :   -0.236179
   2 C :   -0.364208
   3 C :   -0.000400
   4 C :   -0.407267
   5 C :   -0.300333
   6 C :   -0.292012
   7 C :   -0.392314
   8 H :    0.153539
   9 H :    0.157388
  10 H :    0.163097
  11 H :    0.149107
  12 H :    0.145315
  13 H :    0.155618
  14 H :    0.150685
  15 H :    0.165328
  16 H :    0.162624
  17 H :    0.163576
  18 H :    0.155617
  19 H :    0.160193
  20 H :    0.155935
  21 H :    0.157520
  22 H :    0.158976
  23 H :    0.171340
Sum of atomic charges:   -0.0000000

LOEWDIN ATOMIC CHARGES
----------------------
   0 C :   -0.437788
   1 C :   -0.319922
   2 C :   -0.302312
   3 C :   -0.223900
   4 C :   -0.303316
   5 C :   -0.308283
   6 C :   -0.307028
   7 C :   -0.304496
   8 H :    0.151188
   9 H :    0.152123
  10 H :    0.152538
  11 H :    0.154229
  12 H :    0.150975
  13 H :    0.160233
  14 H :    0.158030
  15 H :    0.163118
  16 H :    0.158644
  17 H :    0.160737
  18 H :    0.155836
  19 H :    0.155500
  20 H :    0.156984
  21 H :    0.156446
  22 H :    0.157606
  23 H :    0.162857

  Mayer bond orders larger than 0.100000
B(  0-C ,  1-C ) :   0.8658 B(  0-C ,  8-H ) :   0.9661 B(  0-C ,  9-H ) :   0.9775
B(  0-C , 10-H ) :   0.9789 B(  1-C ,  2-C ) :   0.9203 B(  1-C , 11-H ) :   0.9631
B(  1-C , 12-H ) :   0.9838 B(  2-C ,  3-C ) :   0.8405 B(  2-C , 13-H ) :   0.9988
B(  2-C , 14-H ) :   0.9713 B(  3-C ,  4-C ) :   0.9233 B(  3-C ,  7-C ) :   0.9283
B(  3-C , 15-H ) :   0.9703 B(  4-C ,  5-C ) :   0.9110 B(  4-C , 16-H ) :   0.9741
B(  4-C , 17-H ) :   0.9821 B(  5-C ,  6-C ) :   0.9014 B(  5-C , 18-H ) :   0.9506
B(  5-C , 19-H ) :   0.9936 B(  6-C ,  7-C ) :   0.8766 B(  6-C , 20-H ) :   0.9870
B(  6-C , 21-H ) :   0.9572 B(  7-C , 22-H ) :   0.9520 B(  7-C , 23-H ) :   0.9919

Dispersion correction           -0.007416807
FINAL SINGLE POINT ENERGY      -314.373862741623

DIPOLE MOMENT
-------------

Method             : SCF
Type of density    : Electron Density
Multiplicity       :   1
Irrep              :   0
Energy             :  -314.3769655762096136 Eh
Relativity type    :
Basis              : AO
                                X                 Y                 Z
Electronic contribution:      2.037417610      -0.267257469       1.466657795
Nuclear contribution   :     -2.070746977       0.240365211      -1.419622059
                        -----------------------------------------
Total Dipole Moment    :     -0.033329367      -0.026892258       0.047035736
                        -----------------------------------------
Magnitude (a.u.)       :      0.063611325
Magnitude (Debye)      :      0.161687140

Rotational constants in cm-1:             0.105833             0.044879             0.043801
Rotational constants in MHz :          3172.793372          1345.440051          1313.125058

                             ****ORCA TERMINATED NORMALLY****
TOTAL RUN TIME: 0 days 0 hours 0 minutes 29 seconds 442 msec
