                         Program Version 6.0.0  -   RELEASE  -
|  1> ! pbe def2-sv(p) def2/J RI DEFGRID1 loosescf d4 GCP(DFT/SV(P)) printgap
|  2> %output
|  3>     printlevel normal
|  4> end
|  5> * xyz 0 1
|  6> C -2.516913945 0.6211048337 0.1556827365
|  7> C -1.1679016656 0.7310702914 -0.545806444
|  8> C -0.0390150069 0.0200014545 0.2064339322
|  9> H 0.0108357529 0.4067768144 1.2299480941
| 10> C -0.2446170835 -1.4918361916 0.2662993978
| 11> C 1.3067230997 0.3305852527 -0.4576083498
| 12> O 2.3523186301 -0.1578398585 0.3596414244
| 13> H -3.2609675457 1.2132087665 -0.3713831301
| 14> H -2.8602130708 -0.4089875641 0.1828072985
| 15> H -2.4445605594 0.9888586338 1.1765601682
| 16> H -0.9094941272 1.7879565221 -0.6469926533
| 17> H -1.2449285502 0.3119999916 -1.5516103161
| 18> H -0.3922699916 -1.8933863135 -0.7341608103
| 19> H -1.106113053 -1.7433753491 0.8772576902
| 20> H 0.6349161074 -1.9580834136 0.7033620407
| 21> H 1.4090016059 1.4171888092 -0.5878601402
| 22> H 1.3422094821 -0.1434925003 -1.4480304628
| 23> H 3.2002797471 0.0133141349 -0.0700379627
| 24> *
| 25>
| 26>                          ****END OF INPUT****

CARTESIAN COORDINATES (ANGSTROEM)
---------------------------------
  C     -2.516914    0.621105    0.155683
  C     -1.167902    0.731070   -0.545806
  C     -0.039015    0.020001    0.206434
  H      0.010836    0.406777    1.229948
  C     -0.244617   -1.491836    0.266299
  C      1.306723    0.330585   -0.457608
  O      2.352319   -0.157840    0.359641
  H     -3.260968    1.213209   -0.371383
  H     -2.860213   -0.408988    0.182807
  H     -2.444561    0.988859    1.176560
  H     -0.909494    1.787957   -0.646993
  H     -1.244929    0.312000   -1.551610
  H     -0.392270   -1.893386   -0.734161
  H     -1.106113   -1.743375    0.877258
  H      0.634916   -1.958083    0.703362
  H      1.409002    1.417189   -0.587860
  H      1.342209   -0.143493   -1.448030
  H      3.200280    0.013314   -0.070038

 Total Charge           Charge          ....    0
 Multiplicity           Mult            ....    1
 Number of Electrons    NEL             ....   50
 Basis Dimension        Dim             ....  108

ORBITAL ENERGIES
----------------

  NO   OCC          E(Eh)            E(eV)
   0   2.0000     -18.738008      -509.8871
   1   2.0000      -9.924008      -270.0460
   2   2.0000      -9.887662      -269.0570
   3   2.0000      -9.881951      -268.9015
   4   2.0000      -9.871458      -268.6160
   5   2.0000      -9.863679      -268.4044
   6   2.0000      -0.914211       -24.8769
   7   2.0000      -0.726329       -19.7644
   8   2.0000      -0.651930       -17.7399
   9   2.0000      -0.600537       -16.3414
  10   2.0000      -0.550634       -14.9835
  11   2.0000      -0.494088       -13.4448
  12   2.0000      -0.455092       -12.3837
  13   2.0000      -0.420312       -11.4373
  14   2.0000      -0.399068       -10.8592
  15   2.0000      -0.380872       -10.3640
  16   2.0000      -0.364084        -9.9072
  17   2.0000      -0.336387        -9.1536
  18   2.0000      -0.326887        -8.8951
  19   2.0000      -0.310946        -8.4613
  20   2.0000      -0.300359        -8.1732
  21   2.0000      -0.280551        -7.6342
  22   2.0000      -0.277682        -7.5561
  23   2.0000      -0.262656        -7.1472
  24   2.0000      -0.209684        -5.7058
  25   0.0000       0.029533         0.8036
  26   0.0000       0.045409         1.2356
  27   0.0000       0.066668         1.8141
  28   0.0000       0.074357         2.0234
  29   0.0000       0.090323         2.4578

MULLIKEN ATOMIC CHARGES
-----------------------
   0 C :   -0.262413
   1 C :   -0.168964
   2 C :   -0.184276
   3 H :    0.075105
   4 C :   -0.255177
   5 C :    0.041025
   6 O :   -0.430589
   7 H :    0.100858
   8 H :    0.105226
   9 H :    0.097360
  10 H :    0.080096
  11 H :    0.079199
  12 H :    0.084605
  13 H :    0.102931
  14 H :    0.114856
  15 H :    0.064620
  16 H :    0.057918
  17 H :    0.297619
Sum of atomic charges:   -0.0000000

LOEWDIN ATOMIC CHARGES
----------------------
   0 C :   -0.339631
   1 C :   -0.224739
   2 C :   -0.163285
   3 H :    0.118661
   4 C :   -0.333948
   5 C :   -0.113875
   6 O :   -0.346775
   7 H :    0.119309
   8 H :    0.117929
   9 H :    0.117924
  10 H :    0.112305
  11 H :    0.112749
  12 H :    0.113773
  13 H :    0.116694
  14 H :    0.124628
  15 H :    0.091658
  16 H :    0.091725
  17 H :    0.284896

  Mayer bond orders larger than 0.100000
B(  0-C ,  1-C ) :   1.1635 B(  0-C ,  7-H ) :   0.9517 B(  0-C ,  8-H ) :   0.9486
B(  0-C ,  9-H ) :   0.9531 B(  1-C ,  2-C ) :   1.0782 B(  1-C , 10-H ) :   0.9226
B(  1-C , 11-H ) :   0.9190 B(  2-C ,  3-H ) :   0.8948 B(  2-C ,  4-C ) :   1.1058
B(  2-C ,  5-C ) :   1.0784 B(  4-C , 12-H ) :   0.9489 B(  4-C , 13-H ) :   0.9483
B(  4-C , 14-H ) :   0.9404 B(  5-C ,  6-O ) :   1.0888 B(  5-C , 15-H ) :   0.9225
B(  5-C , 16-H ) :   0.9140 B(  6-O , 17-H ) :   0.8521

Dispersion correction           -0.012824132
FINAL SINGLE POINT ENERGY      -272.300696516683

DIPOLE MOMENT
-------------

Method             : SCF
Type of density    : Electron Density
Multiplicity       :   1
Irrep              :   0
Energy             :  -272.3704445696404832 Eh
Relativity type    :
Basis              : AO
                                X                 Y                 Z
Electronic contribution:      5.431840426       0.274644570       0.696752905
Nuclear contribution   :     -5.238793675      -0.009867864      -1.158117173
                        -----------------------------------------
Total Dipole Moment    :      0.193046751       0.264776706      -0.461364268
                        -----------------------------------------
Magnitude (a.u.)       :      0.565889335
Magnitude (Debye)      :      1.438376381

Rotational constants in cm-1:             0.229324             0.063409             0.054683
Rotational constants in MHz :          6874.964689          1900.960445          1639.344958

                             ****ORCA TERMINATED NORMALLY****
TOTAL RUN TIME: 0 days 0 hours 0 minutes 8 seconds 44 msec
