                         Program Version 6.0.0  -   RELEASE  -
|  1> ! pbe def2-sv(p) def2/J RI DEFGRID1 loosescf d4 GCP(DFT/SV(P)) printgap
|  2> %output
|  3>     printlevel normal
|  4> end
|  5> * xyz 0 1
|  6> C 1.9987859638 -1.0924459112 -0.441308491
|  7> C 1.18424451 -0.035881995 0.3035603259
|  8> C 1.9821977321 1.2585123417 0.4734736538
|  9> O -0.004956 0.2396826394 -0.4365384319
| 10> C -1.237458909 0.1116670737 0.2594111367
| 11> C -2.2784700924 0.8852166707 -0.5445275465
| 12> C -1.6473964405 -1.3548715337 0.4181839224
| 13> H 2.9164944423 -1.3054636768 0.0986422434
| 14> H 1.4230700361 -2.008703697 -0.5431247356
| 15> H 2.2424068995 -0.7261565769 -1.4347399157
| 16> H 0.913752569 -0.4203902671 1.2969516605
| 17> H 2.8891464528 1.0675896869 1.0391918843
| 18> H 1.3853691109 2.000425407 0.9987287824
| 19> H 2.2438586292 1.6547604948 -0.5038135644
| 20> H -1.1355885248 0.5688875954 1.2581264167
| 21> H -2.3673518015 0.4491241995 -1.5354973415
| 22> H -3.240791142 0.8453348454 -0.0441309555
| 23> H -1.9695604726 1.9213402015 -0.6503352988
| 24> H -1.7440349315 -1.813878437 -0.562553534
| 25> H -2.5987877194 -1.4175150146 0.9378029031
| 26> H -0.901986992 -1.9053759314 0.9878214504
| 27> *
| 28>
| 29>                          ****END OF INPUT****

CARTESIAN COORDINATES (ANGSTROEM)
---------------------------------
  C      1.998786   -1.092446   -0.441308
  C      1.184245   -0.035882    0.303560
  C      1.982198    1.258512    0.473474
  O     -0.004956    0.239683   -0.436538
  C     -1.237459    0.111667    0.259411
  C     -2.278470    0.885217   -0.544528
  C     -1.647396   -1.354872    0.418184
  H      2.916494   -1.305464    0.098642
  H      1.423070   -2.008704   -0.543125
  H      2.242407   -0.726157   -1.434740
  H      0.913753   -0.420390    1.296952
  H      2.889146    1.067590    1.039192
  H      1.385369    2.000425    0.998729
  H      2.243859    1.654760   -0.503814
  H     -1.135589    0.568888    1.258126
  H     -2.367352    0.449124   -1.535497
  H     -3.240791    0.845335   -0.044131
  H     -1.969560    1.921340   -0.650335
  H     -1.744035   -1.813878   -0.562554
  H     -2.598788   -1.417515    0.937803
  H     -0.901987   -1.905376    0.987821

 Total Charge           Charge          ....    0
 Multiplicity           Mult            ....    1
 Number of Electrons    NEL             ....   58
 Basis Dimension        Dim             ....  126

ORBITAL ENERGIES
----------------

  NO   OCC          E(Eh)            E(eV)
   0   2.0000     -18.738158      -509.8912
   1   2.0000      -9.936778      -270.3935
   2   2.0000      -9.935997      -270.3722
   3   2.0000      -9.872264      -268.6380
   4   2.0000      -9.870503      -268.5901
   5   2.0000      -9.870311      -268.5848
   6   2.0000      -9.870137      -268.5801
   7   2.0000      -0.921701       -25.0808
   8   2.0000      -0.716687       -19.5020
   9   2.0000      -0.668756       -18.1978
  10   2.0000      -0.615212       -16.7408
  11   2.0000      -0.610025       -16.5996
  12   2.0000      -0.533776       -14.5248
  13   2.0000      -0.503273       -13.6948
  14   2.0000      -0.449189       -12.2230
  15   2.0000      -0.412699       -11.2301
  16   2.0000      -0.396431       -10.7874
  17   2.0000      -0.378007       -10.2861
  18   2.0000      -0.363706        -9.8969
  19   2.0000      -0.358907        -9.7663
  20   2.0000      -0.340807        -9.2738
  21   2.0000      -0.339918        -9.2496
  22   2.0000      -0.325099        -8.8464
  23   2.0000      -0.322515        -8.7761
  24   2.0000      -0.312116        -8.4931
  25   2.0000      -0.297714        -8.1012
  26   2.0000      -0.288754        -7.8574
  27   2.0000      -0.251912        -6.8549
  28   2.0000      -0.195040        -5.3073
  29   0.0000       0.031385         0.8540
  30   0.0000       0.059631         1.6226
  31   0.0000       0.065968         1.7951
  32   0.0000       0.073023         1.9871
  33   0.0000       0.082402         2.2423

MULLIKEN ATOMIC CHARGES
-----------------------
   0 C :   -0.237125
   1 C :   -0.015539
   2 C :   -0.232952
   3 O :   -0.330314
   4 C :   -0.015887
   5 C :   -0.236168
   6 C :   -0.250534
   7 H :    0.093615
   8 H :    0.099842
   9 H :    0.102199
  10 H :    0.067533
  11 H :    0.092856
  12 H :    0.097856
  13 H :    0.101147
  14 H :    0.061876
  15 H :    0.101654
  16 H :    0.095334
  17 H :    0.103954
  18 H :    0.100236
  19 H :    0.095993
  20 H :    0.104422
Sum of atomic charges:    0.0000000

LOEWDIN ATOMIC CHARGES
----------------------
   0 C :   -0.342697
   1 C :   -0.048772
   2 C :   -0.343569
   3 O :   -0.166474
   4 C :   -0.049664
   5 C :   -0.339555
   6 C :   -0.351059
   7 H :    0.120016
   8 H :    0.119037
   9 H :    0.122896
  10 H :    0.099136
  11 H :    0.119342
  12 H :    0.118824
  13 H :    0.122112
  14 H :    0.094680
  15 H :    0.122581
  16 H :    0.121105
  17 H :    0.121848
  18 H :    0.121537
  19 H :    0.121453
  20 H :    0.117223

  Mayer bond orders larger than 0.100000
B(  0-C ,  1-C ) :   1.1218 B(  0-C ,  7-H ) :   0.9444 B(  0-C ,  8-H ) :   0.9466
B(  0-C ,  9-H ) :   0.9443 B(  1-C ,  2-C ) :   1.1209 B(  1-C ,  3-O ) :   0.9710
B(  1-C , 10-H ) :   0.8918 B(  2-C , 11-H ) :   0.9435 B(  2-C , 12-H ) :   0.9467
B(  2-C , 13-H ) :   0.9445 B(  3-O ,  4-C ) :   1.0094 B(  4-C ,  5-C ) :   1.1171
B(  4-C ,  6-C ) :   1.1071 B(  4-C , 14-H ) :   0.8987 B(  5-C , 15-H ) :   0.9461
B(  5-C , 16-H ) :   0.9464 B(  5-C , 17-H ) :   0.9470 B(  6-C , 18-H ) :   0.9416
B(  6-C , 19-H ) :   0.9414 B(  6-C , 20-H ) :   0.9405

Dispersion correction           -0.015702738
FINAL SINGLE POINT ENERGY      -311.523008440535

DIPOLE MOMENT
-------------

Method             : SCF
Type of density    : Electron Density
Multiplicity       :   1
Irrep              :   0
Energy             :  -311.6011979760106669 Eh
Relativity type    :
Basis              : AO
                                X                 Y                 Z
Electronic contribution:     -0.071205928       0.899013678      -0.843284656
Nuclear contribution   :      0.052460377      -1.019061052       1.253540743
                        -----------------------------------------
Total Dipole Moment    :     -0.018745552      -0.120047373       0.410256087
                        -----------------------------------------
Magnitude (a.u.)       :      0.427870102
Magnitude (Debye)      :      1.087559370

Rotational constants in cm-1:             0.137646             0.052968             0.043882
Rotational constants in MHz :          4126.519245          1587.946572          1315.561782

                             ****ORCA TERMINATED NORMALLY****
TOTAL RUN TIME: 0 days 0 hours 0 minutes 7 seconds 662 msec
