                         Program Version 6.0.0  -   RELEASE  -
|  1> ! pbe def2-sv(p) def2/J RI DEFGRID1 loosescf d4 GCP(DFT/SV(P)) printgap
|  2> %output
|  3>     printlevel normal
|  4> end
|  5> * xyz 0 1
|  6> C -2.5927188337 0.6756583625 -0.497036673
|  7> C -1.7387796433 0.2007578909 0.6823432225
|  8> C -0.428829433 -0.3343658045 0.1645452458
|  9> O -0.1860980449 -1.5086158832 -0.0240081794
| 10> O 0.4227583334 0.6463651222 -0.1038628883
| 11> C 1.7120972761 0.3095733656 -0.6417254524
| 12> C 2.7101068335 0.0213409037 0.4693048894
| 13> H -2.7787283457 -0.1468441686 -1.1837235221
| 14> H -3.5449674979 1.0489982628 -0.1327835639
| 15> H -2.0831140808 1.471848167 -1.0333839701
| 16> H -2.2495165306 -0.5974439022 1.2195130269
| 17> H -1.5372701382 1.0363586426 1.3511268513
| 18> H 1.6013538089 -0.5609894298 -1.2953751551
| 19> H 2.0059961756 1.1850637874 -1.2215866539
| 20> H 2.7706036845 0.8686205543 1.146960742
| 21> H 2.4005051836 -0.8587477903 1.0286608636
| 22> H 3.6877663211 -0.1624950449 0.0359935336
| 23> *
| 24>
| 25>                          ****END OF INPUT****

CARTESIAN COORDINATES (ANGSTROEM)
---------------------------------
  C     -2.592719    0.675658   -0.497037
  C     -1.738780    0.200758    0.682343
  C     -0.428829   -0.334366    0.164545
  O     -0.186098   -1.508616   -0.024008
  O      0.422758    0.646365   -0.103863
  C      1.712097    0.309573   -0.641725
  C      2.710107    0.021341    0.469305
  H     -2.778728   -0.146844   -1.183724
  H     -3.544967    1.048998   -0.132784
  H     -2.083114    1.471848   -1.033384
  H     -2.249517   -0.597444    1.219513
  H     -1.537270    1.036359    1.351127
  H      1.601354   -0.560989   -1.295375
  H      2.005996    1.185064   -1.221587
  H      2.770604    0.868621    1.146961
  H      2.400505   -0.858748    1.028661
  H      3.687766   -0.162495    0.035994

 Total Charge           Charge          ....    0
 Multiplicity           Mult            ....    1
 Number of Electrons    NEL             ....   56
 Basis Dimension        Dim             ....  118

ORBITAL ENERGIES
----------------

  NO   OCC          E(Eh)            E(eV)
   0   2.0000     -18.796942      -511.4908
   1   2.0000     -18.729796      -509.6637
   2   2.0000     -10.003802      -272.2173
   3   2.0000      -9.946166      -270.6489
   4   2.0000      -9.898205      -269.3438
   5   2.0000      -9.887737      -269.0590
   6   2.0000      -9.886333      -269.0208
   7   2.0000      -1.003648       -27.3106
   8   2.0000      -0.907081       -24.6829
   9   2.0000      -0.721643       -19.6369
  10   2.0000      -0.685975       -18.6663
  11   2.0000      -0.606077       -16.4922
  12   2.0000      -0.563728       -15.3398
  13   2.0000      -0.496624       -13.5138
  14   2.0000      -0.452372       -12.3097
  15   2.0000      -0.426248       -11.5988
  16   2.0000      -0.416798       -11.3416
  17   2.0000      -0.397937       -10.8284
  18   2.0000      -0.383762       -10.4427
  19   2.0000      -0.369360       -10.0508
  20   2.0000      -0.349007        -9.4970
  21   2.0000      -0.341214        -9.2849
  22   2.0000      -0.324386        -8.8270
  23   2.0000      -0.314429        -8.5560
  24   2.0000      -0.313864        -8.5407
  25   2.0000      -0.289476        -7.8770
  26   2.0000      -0.254409        -6.9228
  27   2.0000      -0.214445        -5.8353
  28   0.0000      -0.018956        -0.5158
  29   0.0000       0.045564         1.2399
  30   0.0000       0.056980         1.5505
  31   0.0000       0.081281         2.2118
  32   0.0000       0.087886         2.3915

MULLIKEN ATOMIC CHARGES
-----------------------
   0 C :   -0.305344
   1 C :   -0.128005
   2 C :    0.097711
   3 O :   -0.212886
   4 O :   -0.243594
   5 C :   -0.012579
   6 C :   -0.302773
   7 H :    0.116216
   8 H :    0.115831
   9 H :    0.113616
  10 H :    0.103817
  11 H :    0.101140
  12 H :    0.106772
  13 H :    0.099998
  14 H :    0.112160
  15 H :    0.126440
  16 H :    0.111479
Sum of atomic charges:    0.0000000

LOEWDIN ATOMIC CHARGES
----------------------
   0 C :   -0.331008
   1 C :   -0.249070
   2 C :    0.036605
   3 O :   -0.173768
   4 O :   -0.069642
   5 C :   -0.113168
   6 C :   -0.355830
   7 H :    0.125062
   8 H :    0.123741
   9 H :    0.122553
  10 H :    0.133759
  11 H :    0.131620
  12 H :    0.118831
  13 H :    0.116168
  14 H :    0.123862
  15 H :    0.130499
  16 H :    0.129787

  Mayer bond orders larger than 0.100000
B(  0-C ,  1-C ) :   1.1392 B(  0-C ,  7-H ) :   0.9534 B(  0-C ,  8-H ) :   0.9523
B(  0-C ,  9-H ) :   0.9541 B(  1-C ,  2-C ) :   1.0276 B(  1-C , 10-H ) :   0.9122
B(  1-C , 11-H ) :   0.9065 B(  2-C ,  3-O ) :   2.0450 B(  2-C ,  4-O ) :   1.1990
B(  4-O ,  5-C ) :   0.9225 B(  5-C ,  6-C ) :   1.1738 B(  5-C , 12-H ) :   0.9129
B(  5-C , 13-H ) :   0.9369 B(  6-C , 14-H ) :   0.9493 B(  6-C , 15-H ) :   0.9466
B(  6-C , 16-H ) :   0.9446

Dispersion correction           -0.012031841
FINAL SINGLE POINT ENERGY      -346.244259402669

DIPOLE MOMENT
-------------

Method             : SCF
Type of density    : Electron Density
Multiplicity       :   1
Irrep              :   0
Energy             :  -346.3088189488028661 Eh
Relativity type    :
Basis              : AO
                                X                 Y                 Z
Electronic contribution:     -0.095802150      -2.355572673       0.065237783
Nuclear contribution   :      0.259279955       3.068503482      -0.081262763
                        -----------------------------------------
Total Dipole Moment    :      0.163477805       0.712930809      -0.016024979
                        -----------------------------------------
Magnitude (a.u.)       :      0.731609275
Magnitude (Debye)      :      1.859602991

Rotational constants in cm-1:             0.193913             0.049648             0.045136
Rotational constants in MHz :          5813.365640          1488.399804          1353.155289

                             ****ORCA TERMINATED NORMALLY****
TOTAL RUN TIME: 0 days 0 hours 0 minutes 8 seconds 902 msec
