                         Program Version 6.0.0  -   RELEASE  -
|  1> ! wb97x-v def2-tzvp def2/J RIJCOSX DEFGRID2 scfconv7 GCP(DFT/TZ) printgap
|  2> %output
|  3>     printlevel normal
|  4> end
|  5> * xyz 0 1
|  6> C -2.9609133125083194 -0.35778447092229626 -0.13673477139101253
|  7> C -1.7495827588244204 0.4954528651205834 0.22700542860468764
|  8> C -0.43479078317959996 -0.21100366203401913 -0.09163016639727047
|  9> C 0.7848099502123208 0.6510986332783639 0.27733710318708077
| 10> C 2.0455783230796984 -0.008547920583225531 -0.016981063425736145
| 11> C 3.0732127439373613 -0.5890567823522063 -0.27278007518304465
| 12> H -2.953986847394345 -1.3042922456672172 0.41549138640664995
| 13> H -2.96544681051151 -0.5959900799969038 -1.206311993979332
| 14> H -3.897782519242441 0.15853451414700553 0.09547231951364385
| 15> H -1.789089948337299 1.4482398210323282 -0.31665809864750905
| 16> H -1.7769844690117658 0.7432057614626139 1.2960325897467018
| 17> H -0.3815325966753323 -1.1600867099531895 0.4553105598170984
| 18> H -0.3924722208206521 -0.45312057344605355 -1.1603957279311403
| 19> H 0.7511397546428624 0.8987870266726614 1.3459605131964407
| 20> H 0.7416678026521032 1.6034031619621318 -0.2664365693439243
| 21> H 3.986109990872734 -1.0936235451419227 -0.4976740912834556
| 22> *
| 23>
| 24>                          ****END OF INPUT****

CARTESIAN COORDINATES (ANGSTROEM)
---------------------------------
  C     -2.960913   -0.357784   -0.136735
  C     -1.749583    0.495453    0.227005
  C     -0.434791   -0.211004   -0.091630
  C      0.784810    0.651099    0.277337
  C      2.045578   -0.008548   -0.016981
  C      3.073213   -0.589057   -0.272780
  H     -2.953987   -1.304292    0.415491
  H     -2.965447   -0.595990   -1.206312
  H     -3.897783    0.158535    0.095472
  H     -1.789090    1.448240   -0.316658
  H     -1.776984    0.743206    1.296033
  H     -0.381533   -1.160087    0.455311
  H     -0.392472   -0.453121   -1.160396
  H      0.751140    0.898787    1.345961
  H      0.741668    1.603403   -0.266437
  H      3.986110   -1.093624   -0.497674

 Total Charge           Charge          ....    0
 Multiplicity           Mult            ....    1
 Number of Electrons    NEL             ....   46
 Basis Dimension        Dim             ....  246

ORBITAL ENERGIES
----------------

  NO   OCC          E(Eh)            E(eV)
   0   2.0000     -12.069788      -328.4356
   1   2.0000     -12.049960      -327.8961
   2   2.0000     -12.049095      -327.8725
   3   2.0000     -12.046571      -327.8039
   4   2.0000     -12.037396      -327.5542
   5   2.0000     -12.034960      -327.4879
   6   2.0000      -1.329433       -36.1757
   7   2.0000      -1.289742       -35.0957
   8   2.0000      -1.239665       -33.7330
   9   2.0000      -1.150242       -31.2997
  10   2.0000      -1.060369       -28.8541
  11   2.0000      -0.982838       -26.7444
  12   2.0000      -0.935516       -25.4567
  13   2.0000      -0.906391       -24.6642
  14   2.0000      -0.877650       -23.8821
  15   2.0000      -0.857398       -23.3310
  16   2.0000      -0.833995       -22.6941
  17   2.0000      -0.807512       -21.9735
  18   2.0000      -0.796742       -21.6805
  19   2.0000      -0.772742       -21.0274
  20   2.0000      -0.751997       -20.4629
  21   2.0000      -0.675245       -18.3744
  22   2.0000      -0.671413       -18.2701
  23   0.0000      -0.161921        -4.4061
  24   0.0000      -0.147175        -4.0048
  25   0.0000      -0.060479        -1.6457
  26   0.0000      -0.021330        -0.5804
  27   0.0000      -0.009685        -0.2636

MULLIKEN ATOMIC CHARGES
-----------------------
   0 C :   -0.333996
   1 C :   -0.150971
   2 C :   -0.177100
   3 C :   -0.288119
   4 C :   -0.056155
   5 C :   -0.121659
   6 H :    0.106658
   7 H :    0.106621
   8 H :    0.115888
   9 H :    0.087769
  10 H :    0.087807
  11 H :    0.101226
  12 H :    0.101141
  13 H :    0.122448
  14 H :    0.122677
  15 H :    0.175766
Sum of atomic charges:   -0.0000000

LOEWDIN ATOMIC CHARGES
----------------------
   0 C :   -0.306713
   1 C :   -0.291185
   2 C :   -0.246396
   3 C :   -0.241460
   4 C :   -0.115574
   5 C :   -0.115380
   6 H :    0.116939
   7 H :    0.116934
   8 H :    0.116255
   9 H :    0.130910
  10 H :    0.130922
  11 H :    0.137786
  12 H :    0.137727
  13 H :    0.153150
  14 H :    0.153035
  15 H :    0.123051

  Mayer bond orders larger than 0.100000
B(  0-C ,  1-C ) :   0.9879 B(  0-C ,  6-H ) :   0.9809 B(  0-C ,  7-H ) :   0.9809
B(  0-C ,  8-H ) :   0.9844 B(  1-C ,  2-C ) :   0.9854 B(  1-C ,  9-H ) :   0.9716
B(  1-C , 10-H ) :   0.9717 B(  2-C ,  3-C ) :   0.9911 B(  2-C , 11-H ) :   0.9693
B(  2-C , 12-H ) :   0.9692 B(  3-C ,  4-C ) :   1.1368 B(  3-C , 13-H ) :   0.9625
B(  3-C , 14-H ) :   0.9632 B(  4-C ,  5-C ) :   2.7926 B(  5-C , 15-H ) :   0.9623

FINAL SINGLE POINT ENERGY      -234.599685293952

DIPOLE MOMENT
-------------

Method             : SCF
Type of density    : Electron Density
Multiplicity       :   1
Irrep              :   0
Energy             :  -234.6095670699518223 Eh
Relativity type    :
Basis              : AO
                                X                 Y                 Z
Electronic contribution:      7.832241078      -0.120823690      -0.102171839
Nuclear contribution   :     -8.182999479       0.228912833       0.151247314
                        -----------------------------------------
Total Dipole Moment    :     -0.350758401       0.108089143       0.049075476
                        -----------------------------------------
Magnitude (a.u.)       :      0.370301392
Magnitude (Debye)      :      0.941231338

Rotational constants in cm-1:             0.489205             0.044454             0.042025
Rotational constants in MHz :         14665.984541          1332.701958          1259.868186

                             ****ORCA TERMINATED NORMALLY****
TOTAL RUN TIME: 0 days 0 hours 1 minutes 37 seconds 943 msec
