                         Program Version 6.0.0  -   RELEASE  -
|  1> ! wb97x-v def2-tzvp def2/J RIJCOSX DEFGRID2 scfconv7 GCP(DFT/TZ) printgap
|  2> %output
|  3>     printlevel normal
|  4> end
|  5> %cpcm
|  6>     smd true
|  7>     smdsolvent "water"
|  8> end
|  9> * xyz 0 1
| 10> C -2.9609133125083194 -0.35778447092229626 -0.13673477139101253
| 11> C -1.7495827588244204 0.4954528651205834 0.22700542860468764
| 12> C -0.43479078317959996 -0.21100366203401913 -0.09163016639727047
| 13> C 0.7848099502123208 0.6510986332783639 0.27733710318708077
| 14> C 2.0455783230796984 -0.008547920583225531 -0.016981063425736145
| 15> C 3.0732127439373613 -0.5890567823522063 -0.27278007518304465
| 16> H -2.953986847394345 -1.3042922456672172 0.41549138640664995
| 17> H -2.96544681051151 -0.5959900799969038 -1.206311993979332
| 18> H -3.897782519242441 0.15853451414700553 0.09547231951364385
| 19> H -1.789089948337299 1.4482398210323282 -0.31665809864750905
| 20> H -1.7769844690117658 0.7432057614626139 1.2960325897467018
| 21> H -0.3815325966753323 -1.1600867099531895 0.4553105598170984
| 22> H -0.3924722208206521 -0.45312057344605355 -1.1603957279311403
| 23> H 0.7511397546428624 0.8987870266726614 1.3459605131964407
| 24> H 0.7416678026521032 1.6034031619621318 -0.2664365693439243
| 25> H 3.986109990872734 -1.0936235451419227 -0.4976740912834556
| 26> *
| 27>
| 28>                          ****END OF INPUT****

CARTESIAN COORDINATES (ANGSTROEM)
---------------------------------
  C     -2.960913   -0.357784   -0.136735
  C     -1.749583    0.495453    0.227005
  C     -0.434791   -0.211004   -0.091630
  C      0.784810    0.651099    0.277337
  C      2.045578   -0.008548   -0.016981
  C      3.073213   -0.589057   -0.272780
  H     -2.953987   -1.304292    0.415491
  H     -2.965447   -0.595990   -1.206312
  H     -3.897783    0.158535    0.095472
  H     -1.789090    1.448240   -0.316658
  H     -1.776984    0.743206    1.296033
  H     -0.381533   -1.160087    0.455311
  H     -0.392472   -0.453121   -1.160396
  H      0.751140    0.898787    1.345961
  H      0.741668    1.603403   -0.266437
  H      3.986110   -1.093624   -0.497674

 Total Charge           Charge          ....    0
 Multiplicity           Mult            ....    1
 Number of Electrons    NEL             ....   46
 Basis Dimension        Dim             ....  246

ORBITAL ENERGIES
----------------

  NO   OCC          E(Eh)            E(eV)
   0   2.0000     -12.060616      -328.1861
   1   2.0000     -12.055920      -328.0583
   2   2.0000     -12.039613      -327.6145
   3   2.0000     -12.038735      -327.5906
   4   2.0000     -12.033613      -327.4513
   5   2.0000     -12.025324      -327.2257
   6   2.0000      -1.326169       -36.0869
   7   2.0000      -1.287627       -35.0381
   8   2.0000      -1.233869       -33.5753
   9   2.0000      -1.141499       -31.0618
  10   2.0000      -1.049193       -28.5500
  11   2.0000      -0.981555       -26.7095
  12   2.0000      -0.930971       -25.3330
  13   2.0000      -0.895270       -24.3615
  14   2.0000      -0.867264       -23.5994
  15   2.0000      -0.846596       -23.0370
  16   2.0000      -0.823057       -22.3965
  17   2.0000      -0.797381       -21.6978
  18   2.0000      -0.786228       -21.3944
  19   2.0000      -0.761095       -20.7104
  20   2.0000      -0.739659       -20.1271
  21   2.0000      -0.682316       -18.5668
  22   2.0000      -0.677985       -18.4489
  23   0.0000      -0.165792        -4.5114
  24   0.0000      -0.151760        -4.1296
  25   0.0000      -0.055392        -1.5073
  26   0.0000      -0.010143        -0.2760
  27   0.0000       0.001607         0.0437

MULLIKEN ATOMIC CHARGES
-----------------------
   0 C :   -0.385194
   1 C :   -0.172010
   2 C :   -0.197122
   3 C :   -0.286213
   4 C :   -0.100885
   5 C :   -0.191342
   6 H :    0.120460
   7 H :    0.120355
   8 H :    0.129798
   9 H :    0.102843
  10 H :    0.102833
  11 H :    0.112998
  12 H :    0.112981
  13 H :    0.148708
  14 H :    0.148904
  15 H :    0.232885
Sum of atomic charges:   -0.0000000

LOEWDIN ATOMIC CHARGES
----------------------
   0 C :   -0.313891
   1 C :   -0.290308
   2 C :   -0.247625
   3 C :   -0.237869
   4 C :   -0.131623
   5 C :   -0.142094
   6 H :    0.118667
   7 H :    0.118625
   8 H :    0.117999
   9 H :    0.134330
  10 H :    0.134322
  11 H :    0.139109
  12 H :    0.139055
  13 H :    0.161487
  14 H :    0.161422
  15 H :    0.138395

  Mayer bond orders larger than 0.100000
B(  0-C ,  1-C ) :   0.9789 B(  0-C ,  6-H ) :   0.9789 B(  0-C ,  7-H ) :   0.9790
B(  0-C ,  8-H ) :   0.9819 B(  1-C ,  2-C ) :   0.9888 B(  1-C ,  9-H ) :   0.9719
B(  1-C , 10-H ) :   0.9720 B(  2-C ,  3-C ) :   0.9867 B(  2-C , 11-H ) :   0.9678
B(  2-C , 12-H ) :   0.9677 B(  3-C ,  4-C ) :   1.1549 B(  3-C ,  5-C ) :  -0.1135
B(  3-C , 13-H ) :   0.9552 B(  3-C , 14-H ) :   0.9553 B(  4-C ,  5-C ) :   2.7381
B(  5-C , 15-H ) :   0.9623

FINAL SINGLE POINT ENERGY      -234.600432993623

DIPOLE MOMENT
-------------

Method             : SCF
Type of density    : Electron Density
Multiplicity       :   1
Irrep              :   0
Energy             :  -234.6103147696225335 Eh
Relativity type    :
Basis              : AO
                                X                 Y                 Z
Electronic contribution:      7.732207913      -0.032341229      -0.063230367
Nuclear contribution   :     -8.182999479       0.228912833       0.151247314
                        -----------------------------------------
Total Dipole Moment    :     -0.450791566       0.196571604       0.088016947
                        -----------------------------------------
Magnitude (a.u.)       :      0.499600255
Magnitude (Debye)      :      1.269882928

Rotational constants in cm-1:             0.489205             0.044454             0.042025
Rotational constants in MHz :         14665.984541          1332.701958          1259.868186

                             ****ORCA TERMINATED NORMALLY****
TOTAL RUN TIME: 0 days 0 hours 1 minutes 33 seconds 574 msec
