                         Program Version 6.0.0  -   RELEASE  -
|  1> ! pbe def2-sv(p) def2/J RI DEFGRID1 loosescf d4 GCP(DFT/SV(P)) printgap
|  2> %output
|  3>     printlevel normal
|  4> end
|  5> * xyz 0 1
|  6> C 2.7607230738 1.5705596638 0.4182415443
|  7> C 2.1422316307 0.3134575008 1.0245850675
|  8> C 1.3642821352 -0.6109817066 0.0619147905
|  9> H 1.4929025186 -1.6336327557 0.4358841113
| 10> C 1.9037651071 -0.5828942935 -1.3717912239
| 11> C -0.1234504032 -0.3463255179 0.0382756191
| 12> C -0.6564780852 0.9337324139 -0.0449955865
| 13> C -2.02550644 1.1325464222 -0.0901821852
| 14> C -2.8902200394 0.0526367998 -0.0592859911
| 15> C -2.3734517243 -1.2291660397 0.0187634707
| 16> C -1.0046334443 -1.4222041555 0.0677070998
| 17> H 3.2293697237 2.1541715735 1.2080076522
| 18> H 3.5247814592 1.315991056 -0.3107874029
| 19> H 2.0207058267 2.1990448511 -0.0681627626
| 20> H 2.9544386939 -0.2677619336 1.4674868615
| 21> H 1.470891764 0.6002912969 1.8375015706
| 22> H 1.3833011246 -1.3261622452 -1.9723042392
| 23> H 1.7460436327 0.3907239469 -1.8270740079
| 24> H 2.9661218317 -0.8135555363 -1.382776797
| 25> H -0.0042657755 1.7915184722 -0.0704642097
| 26> H -2.418338718 2.1370817185 -0.1509401721
| 27> H -3.9581766093 0.2083435255 -0.0950051965
| 28> H -3.037967324 -2.0804514121 0.0439606345
| 29> H -0.6120063872 -2.4276196422 0.131140054
| 30> *
| 31>
| 32>                          ****END OF INPUT****

CARTESIAN COORDINATES (ANGSTROEM)
---------------------------------
  C      2.760723    1.570560    0.418242
  C      2.142232    0.313458    1.024585
  C      1.364282   -0.610982    0.061915
  H      1.492903   -1.633633    0.435884
  C      1.903765   -0.582894   -1.371791
  C     -0.123450   -0.346326    0.038276
  C     -0.656478    0.933732   -0.044996
  C     -2.025506    1.132546   -0.090182
  C     -2.890220    0.052637   -0.059286
  C     -2.373452   -1.229166    0.018763
  C     -1.004633   -1.422204    0.067707
  H      3.229370    2.154172    1.208008
  H      3.524781    1.315991   -0.310787
  H      2.020706    2.199045   -0.068163
  H      2.954439   -0.267762    1.467487
  H      1.470892    0.600291    1.837502
  H      1.383301   -1.326162   -1.972304
  H      1.746044    0.390724   -1.827074
  H      2.966122   -0.813556   -1.382777
  H     -0.004266    1.791518   -0.070464
  H     -2.418339    2.137082   -0.150940
  H     -3.958177    0.208344   -0.095005
  H     -3.037967   -2.080451    0.043961
  H     -0.612006   -2.427620    0.131140

 Total Charge           Charge          ....    0
 Multiplicity           Mult            ....    1
 Number of Electrons    NEL             ....   74
 Basis Dimension        Dim             ....  168

ORBITAL ENERGIES
----------------

  NO   OCC          E(Eh)            E(eV)
   0   2.0000      -9.897560      -269.3263
   1   2.0000      -9.896861      -269.3073
   2   2.0000      -9.886589      -269.0278
   3   2.0000      -9.886541      -269.0265
   4   2.0000      -9.885639      -269.0019
   5   2.0000      -9.885435      -268.9964
   6   2.0000      -9.884458      -268.9698
   7   2.0000      -9.884449      -268.9695
   8   2.0000      -9.875668      -268.7306
   9   2.0000      -9.874957      -268.7112
  10   2.0000      -0.776541       -21.1307
  11   2.0000      -0.728144       -19.8138
  12   2.0000      -0.669797       -18.2261
  13   2.0000      -0.663840       -18.0640
  14   2.0000      -0.638934       -17.3863
  15   2.0000      -0.580782       -15.8039
  16   2.0000      -0.540335       -14.7033
  17   2.0000      -0.534106       -14.5338
  18   2.0000      -0.493815       -13.4374
  19   2.0000      -0.454970       -12.3804
  20   2.0000      -0.423193       -11.5157
  21   2.0000      -0.408845       -11.1252
  22   2.0000      -0.396299       -10.7838
  23   2.0000      -0.384024       -10.4498
  24   2.0000      -0.375970       -10.2307
  25   2.0000      -0.367845       -10.0096
  26   2.0000      -0.354678        -9.6513
  27   2.0000      -0.336734        -9.1630
  28   2.0000      -0.333490        -9.0747
  29   2.0000      -0.322833        -8.7847
  30   2.0000      -0.312820        -8.5123
  31   2.0000      -0.297906        -8.1064
  32   2.0000      -0.288556        -7.8520
  33   2.0000      -0.276972        -7.5368
  34   2.0000      -0.270254        -7.3540
  35   2.0000      -0.224648        -6.1130
  36   2.0000      -0.215904        -5.8750
  37   0.0000      -0.030606        -0.8328
  38   0.0000      -0.028113        -0.7650
  39   0.0000       0.032803         0.8926
  40   0.0000       0.051780         1.4090
  41   0.0000       0.057850         1.5742

MULLIKEN ATOMIC CHARGES
-----------------------
   0 C :   -0.293010
   1 C :   -0.154590
   2 C :   -0.123488
   3 H :    0.061119
   4 C :   -0.225814
   5 C :    0.105300
   6 C :   -0.129491
   7 C :   -0.048243
   8 C :   -0.048243
   9 C :   -0.045633
  10 C :   -0.125326
  11 H :    0.104876
  12 H :    0.102103
  13 H :    0.116662
  14 H :    0.082581
  15 H :    0.095238
  16 H :    0.100862
  17 H :    0.102459
  18 H :    0.102490
  19 H :    0.036303
  20 H :    0.047166
  21 H :    0.050236
  22 H :    0.048301
  23 H :    0.038142
Sum of atomic charges:   -0.0000000

LOEWDIN ATOMIC CHARGES
----------------------
   0 C :   -0.343489
   1 C :   -0.224919
   2 C :   -0.137078
   3 H :    0.119220
   4 C :   -0.322094
   5 C :   -0.026163
   6 C :   -0.125908
   7 C :   -0.121226
   8 C :   -0.130097
   9 C :   -0.122446
  10 C :   -0.125335
  11 H :    0.122078
  12 H :    0.118517
  13 H :    0.114025
  14 H :    0.118724
  15 H :    0.119971
  16 H :    0.121641
  17 H :    0.120116
  18 H :    0.117236
  19 H :    0.121331
  20 H :    0.121985
  21 H :    0.121962
  22 H :    0.122204
  23 H :    0.119744

  Mayer bond orders larger than 0.100000
B(  0-C ,  1-C ) :   1.1686 B(  0-C , 11-H ) :   0.9465 B(  0-C , 12-H ) :   0.9383
B(  0-C , 13-H ) :   0.9459 B(  1-C ,  2-C ) :   1.0621 B(  1-C , 14-H ) :   0.9188
B(  1-C , 15-H ) :   0.9308 B(  2-C ,  3-H ) :   0.8825 B(  2-C ,  4-C ) :   1.1218
B(  2-C ,  5-C ) :   1.0217 B(  4-C , 16-H ) :   0.9456 B(  4-C , 17-H ) :   0.9358
B(  4-C , 18-H ) :   0.9455 B(  5-C ,  6-C ) :   1.3847 B(  5-C , 10-C ) :   1.3951
B(  6-C ,  7-C ) :   1.3800 B(  6-C , 19-H ) :   0.9527 B(  7-C ,  8-C ) :   1.3788
B(  7-C , 20-H ) :   0.9627 B(  8-C ,  9-C ) :   1.3780 B(  8-C , 21-H ) :   0.9653
B(  9-C , 10-C ) :   1.3725 B(  9-C , 22-H ) :   0.9631 B( 10-C , 23-H ) :   0.9572

Dispersion correction           -0.025188606
FINAL SINGLE POINT ENERGY      -388.575837884065

DIPOLE MOMENT
-------------

Method             : SCF
Type of density    : Electron Density
Multiplicity       :   1
Irrep              :   0
Energy             :  -388.6452462035115900 Eh
Relativity type    :
Basis              : AO
                                X                 Y                 Z
Electronic contribution:     -9.907988597      -2.123728185       0.711529036
Nuclear contribution   :     10.092610632       2.108982558      -0.706940364
                        -----------------------------------------
Total Dipole Moment    :      0.184622035      -0.014745627       0.004588672
                        -----------------------------------------
Magnitude (a.u.)       :      0.185266794
Magnitude (Debye)      :      0.470910768

Rotational constants in cm-1:             0.089934             0.028414             0.024708
Rotational constants in MHz :          2696.166742           851.837750           740.737475

                             ****ORCA TERMINATED NORMALLY****
TOTAL RUN TIME: 0 days 0 hours 0 minutes 12 seconds 599 msec
