                         Program Version 6.0.0  -   RELEASE  -
|  1> ! r2scan-3c def2/J RI DEFGRID2 scfconv6 printgap
|  2> %output
|  3>     printlevel normal
|  4> end
|  5> * xyz 0 1
|  6> C -1.4584741481 0.3600916382 -0.2077995689
|  7> C -0.0006370886 0.3835411616 0.2849895485
|  8> C 0.8229589802 -0.6966436683 -0.4257281818
|  9> O 2.0856574407 -0.8834500346 0.1644118287
| 10> O 0.6141721046 1.6258872994 0.0095044073
| 11> O -2.1146063695 -0.848799182 0.0811273577
| 12> H -1.4684443068 0.4580348707 -1.2960582219
| 13> H -2.0034565319 1.2111228837 0.2224100181
| 14> H 0.0287582193 0.1795203893 1.3671152928
| 15> H 0.9249109744 -0.4171113441 -1.4819137651
| 16> H 0.3017508485 -1.6528534324 -0.3570550886
| 17> H 2.5622242687 -0.0410072508 0.1304858055
| 18> H 0.1566369369 2.3356609586 0.4804633121
| 19> H -2.2113755185 -0.9449740293 1.0393748498
| 20> *
| 21>
| 22>                          ****END OF INPUT****

CARTESIAN COORDINATES (ANGSTROEM)
---------------------------------
  C     -1.458474    0.360092   -0.207800
  C     -0.000637    0.383541    0.284990
  C      0.822959   -0.696644   -0.425728
  O      2.085657   -0.883450    0.164412
  O      0.614172    1.625887    0.009504
  O     -2.114606   -0.848799    0.081127
  H     -1.468444    0.458035   -1.296058
  H     -2.003457    1.211123    0.222410
  H      0.028758    0.179520    1.367115
  H      0.924911   -0.417111   -1.481914
  H      0.301751   -1.652853   -0.357055
  H      2.562224   -0.041007    0.130486
  H      0.156637    2.335661    0.480463
  H     -2.211376   -0.944974    1.039375

 Total Charge           Charge          ....    0
 Multiplicity           Mult            ....    1
 Number of Electrons    NEL             ....   50
 Basis Dimension        Dim             ....  169

ORBITAL ENERGIES
----------------

  NO   OCC          E(Eh)            E(eV)
   0   2.0000     -18.966548      -516.1060
   1   2.0000     -18.962835      -516.0050
   2   2.0000     -18.945069      -515.5215
   3   2.0000     -10.088556      -274.5236
   4   2.0000     -10.086225      -274.4601
   5   2.0000     -10.072978      -274.0997
   6   2.0000      -1.010348       -27.4930
   7   2.0000      -0.997289       -27.1376
   8   2.0000      -0.979321       -26.6487
   9   2.0000      -0.727763       -19.8034
  10   2.0000      -0.644983       -17.5509
  11   2.0000      -0.579018       -15.7559
  12   2.0000      -0.514303       -13.9949
  13   2.0000      -0.483899       -13.1676
  14   2.0000      -0.469966       -12.7884
  15   2.0000      -0.424699       -11.5567
  16   2.0000      -0.401281       -10.9194
  17   2.0000      -0.389381       -10.5956
  18   2.0000      -0.379838       -10.3359
  19   2.0000      -0.332320        -9.0429
  20   2.0000      -0.312634        -8.5072
  21   2.0000      -0.303244        -8.2517
  22   2.0000      -0.267985        -7.2923
  23   2.0000      -0.243922        -6.6375
  24   2.0000      -0.229915        -6.2563
  25   0.0000       0.036044         0.9808
  26   0.0000       0.051485         1.4010
  27   0.0000       0.084034         2.2867
  28   0.0000       0.115661         3.1473
  29   0.0000       0.137433         3.7398

MULLIKEN ATOMIC CHARGES
-----------------------
   0 C :   -0.184508
   1 C :    0.057643
   2 C :   -0.210874
   3 O :   -0.420565
   4 O :   -0.435032
   5 O :   -0.417854
   6 H :    0.150834
   7 H :    0.122548
   8 H :    0.130497
   9 H :    0.139983
  10 H :    0.161226
  11 H :    0.312129
  12 H :    0.292843
  13 H :    0.301133
Sum of atomic charges:    0.0000000

LOEWDIN ATOMIC CHARGES
----------------------
   0 C :    0.021664
   1 C :    0.068327
   2 C :    0.032227
   3 O :   -0.596753
   4 O :   -0.602350
   5 O :   -0.608359
   6 H :    0.185971
   7 H :    0.157847
   8 H :    0.168027
   9 H :    0.168139
  10 H :    0.192432
  11 H :    0.272989
  12 H :    0.271873
  13 H :    0.267966

  Mayer bond orders larger than 0.100000
B(  0-C ,  1-C ) :   0.8959 B(  0-C ,  5-O ) :   0.9774 B(  0-C ,  6-H ) :   0.9687
B(  0-C ,  7-H ) :   0.9745 B(  1-C ,  2-C ) :   0.9233 B(  1-C ,  4-O ) :   0.8818
B(  1-C ,  8-H ) :   0.9627 B(  2-C ,  3-O ) :   0.9739 B(  2-C ,  9-H ) :   0.9761
B(  2-C , 10-H ) :   0.9629 B(  3-O , 11-H ) :   0.8816 B(  4-O , 12-H ) :   0.8960
B(  5-O , 13-H ) :   0.8927

Dispersion correction           -0.002997727
FINAL SINGLE POINT ENERGY      -344.723328871249

DIPOLE MOMENT
-------------

Method             : SCF
Type of density    : Electron Density
Multiplicity       :   1
Irrep              :   0
Energy             :  -344.7306575617606086 Eh
Relativity type    :
Basis              : AO
                                X                 Y                 Z
Electronic contribution:      1.077731701      -0.202832868       0.460491580
Nuclear contribution   :     -1.594642367       1.057048697       0.102129137
                        -----------------------------------------
Total Dipole Moment    :     -0.516910666       0.854215829       0.562620717
                        -----------------------------------------
Magnitude (a.u.)       :      1.146046853
Magnitude (Debye)      :      2.913019599

Rotational constants in cm-1:             0.171966             0.079870             0.058908
Rotational constants in MHz :          5155.399754          2394.452168          1766.004243

                             ****ORCA TERMINATED NORMALLY****
TOTAL RUN TIME: 0 days 0 hours 0 minutes 20 seconds 357 msec
