                         Program Version 6.0.0  -   RELEASE  -
|  1> ! r2scan-3c def2/J RI DEFGRID2 scfconv6 printgap
|  2> %output
|  3>     printlevel normal
|  4> end
|  5> %cpcm
|  6>     smd true
|  7>     smdsolvent "water"
|  8> end
|  9> * xyz 0 1
| 10> C -1.4584741481 0.3600916382 -0.2077995689
| 11> C -0.0006370886 0.3835411616 0.2849895485
| 12> C 0.8229589802 -0.6966436683 -0.4257281818
| 13> O 2.0856574407 -0.8834500346 0.1644118287
| 14> O 0.6141721046 1.6258872994 0.0095044073
| 15> O -2.1146063695 -0.848799182 0.0811273577
| 16> H -1.4684443068 0.4580348707 -1.2960582219
| 17> H -2.0034565319 1.2111228837 0.2224100181
| 18> H 0.0287582193 0.1795203893 1.3671152928
| 19> H 0.9249109744 -0.4171113441 -1.4819137651
| 20> H 0.3017508485 -1.6528534324 -0.3570550886
| 21> H 2.5622242687 -0.0410072508 0.1304858055
| 22> H 0.1566369369 2.3356609586 0.4804633121
| 23> H -2.2113755185 -0.9449740293 1.0393748498
| 24> *
| 25>
| 26>                          ****END OF INPUT****

CARTESIAN COORDINATES (ANGSTROEM)
---------------------------------
  C     -1.458474    0.360092   -0.207800
  C     -0.000637    0.383541    0.284990
  C      0.822959   -0.696644   -0.425728
  O      2.085657   -0.883450    0.164412
  O      0.614172    1.625887    0.009504
  O     -2.114606   -0.848799    0.081127
  H     -1.468444    0.458035   -1.296058
  H     -2.003457    1.211123    0.222410
  H      0.028758    0.179520    1.367115
  H      0.924911   -0.417111   -1.481914
  H      0.301751   -1.652853   -0.357055
  H      2.562224   -0.041007    0.130486
  H      0.156637    2.335661    0.480463
  H     -2.211376   -0.944974    1.039375

 Total Charge           Charge          ....    0
 Multiplicity           Mult            ....    1
 Number of Electrons    NEL             ....   50
 Basis Dimension        Dim             ....  169

ORBITAL ENERGIES
----------------

  NO   OCC          E(Eh)            E(eV)
   0   2.0000     -18.957785      -515.8675
   1   2.0000     -18.956143      -515.8229
   2   2.0000     -18.953976      -515.7639
   3   2.0000     -10.078567      -274.2517
   4   2.0000     -10.072607      -274.0896
   5   2.0000     -10.070591      -274.0347
   6   2.0000      -1.004208       -27.3259
   7   2.0000      -0.991160       -26.9708
   8   2.0000      -0.982112       -26.7246
   9   2.0000      -0.719537       -19.5796
  10   2.0000      -0.637615       -17.3504
  11   2.0000      -0.572237       -15.5714
  12   2.0000      -0.504771       -13.7355
  13   2.0000      -0.473033       -12.8719
  14   2.0000      -0.467240       -12.7142
  15   2.0000      -0.419917       -11.4265
  16   2.0000      -0.396266       -10.7829
  17   2.0000      -0.385661       -10.4944
  18   2.0000      -0.379265       -10.3203
  19   2.0000      -0.327064        -8.8999
  20   2.0000      -0.308700        -8.4002
  21   2.0000      -0.307715        -8.3734
  22   2.0000      -0.264529        -7.1982
  23   2.0000      -0.245036        -6.6678
  24   2.0000      -0.229456        -6.2438
  25   0.0000       0.052861         1.4384
  26   0.0000       0.083261         2.2657
  27   0.0000       0.093273         2.5381
  28   0.0000       0.129253         3.5172
  29   0.0000       0.144827         3.9409

MULLIKEN ATOMIC CHARGES
-----------------------
   0 C :   -0.197245
   1 C :    0.074846
   2 C :   -0.219526
   3 O :   -0.496987
   4 O :   -0.503863
   5 O :   -0.498706
   6 H :    0.159903
   7 H :    0.151560
   8 H :    0.152142
   9 H :    0.154348
  10 H :    0.165334
  11 H :    0.355097
  12 H :    0.347801
  13 H :    0.355297
Sum of atomic charges:    0.0000000

LOEWDIN ATOMIC CHARGES
----------------------
   0 C :    0.024339
   1 C :    0.075644
   2 C :    0.026415
   3 O :   -0.633542
   4 O :   -0.623051
   5 O :   -0.639953
   6 H :    0.187182
   7 H :    0.172455
   8 H :    0.177997
   9 H :    0.174185
  10 H :    0.192804
  11 H :    0.287024
  12 H :    0.291361
  13 H :    0.287140

  Mayer bond orders larger than 0.100000
B(  0-C ,  1-C ) :   0.9142 B(  0-C ,  5-O ) :   0.9699 B(  0-C ,  6-H ) :   0.9689
B(  0-C ,  7-H ) :   0.9623 B(  1-C ,  2-C ) :   0.9313 B(  1-C ,  4-O ) :   0.8782
B(  1-C ,  8-H ) :   0.9497 B(  2-C ,  3-O ) :   0.9527 B(  2-C ,  9-H ) :   0.9664
B(  2-C , 10-H ) :   0.9637 B(  3-O , 11-H ) :   0.8591 B(  4-O , 12-H ) :   0.8697
B(  5-O , 13-H ) :   0.8647

Dispersion correction           -0.002997727
FINAL SINGLE POINT ENERGY      -344.745122394272

DIPOLE MOMENT
-------------

Method             : SCF
Type of density    : Electron Density
Multiplicity       :   1
Irrep              :   0
Energy             :  -344.7524510847837291 Eh
Relativity type    :
Basis              : AO
                                X                 Y                 Z
Electronic contribution:      0.879850831       0.139496100       0.709418183
Nuclear contribution   :     -1.594642367       1.057048697       0.102129137
                        -----------------------------------------
Total Dipole Moment    :     -0.714791536       1.196544797       0.811547320
                        -----------------------------------------
Magnitude (a.u.)       :      1.612840799
Magnitude (Debye)      :      4.099515517

Rotational constants in cm-1:             0.171966             0.079870             0.058908
Rotational constants in MHz :          5155.399754          2394.452168          1766.004243

                             ****ORCA TERMINATED NORMALLY****
TOTAL RUN TIME: 0 days 0 hours 0 minutes 23 seconds 511 msec
