                         Program Version 6.0.0  -   RELEASE  -
|  1> ! r2scan-3c def2/J RI DEFGRID2 scfconv6 printgap
|  2> %output
|  3>     printlevel normal
|  4> end
|  5> * xyz 0 1
|  6> C 2.2579435249 -0.2499383528 0.1337080972
|  7> O 0.9524459481 -0.2272810007 -0.3977288336
|  8> C 0.0889041315 0.6516778218 0.2915921133
|  9> C -1.3212783595 0.5310371348 -0.2831053554
| 10> N -1.9819296774 -0.6723736139 0.1973569619
| 11> H 2.8225746147 -0.9505625254 -0.4757858778
| 12> H 2.2516803939 -0.5867863409 1.1764443671
| 13> H 2.7191837068 0.7433984866 0.0825037596
| 14> H 0.0805966581 0.4035263294 1.3635398881
| 15> H 0.4496616444 1.6860419886 0.1783202684
| 16> H -1.8686624407 1.4562659756 -0.0351255405
| 17> H -1.2360871262 0.4577117723 -1.3693650421
| 18> H -2.8893251052 -0.7637657602 -0.2435230521
| 19> H -2.1273382188 -0.6096456319 1.1993310958
| 20> *
| 21>
| 22>                          ****END OF INPUT****

CARTESIAN COORDINATES (ANGSTROEM)
---------------------------------
  C      2.257944   -0.249938    0.133708
  O      0.952446   -0.227281   -0.397729
  C      0.088904    0.651678    0.291592
  C     -1.321278    0.531037   -0.283105
  N     -1.981930   -0.672374    0.197357
  H      2.822575   -0.950563   -0.475786
  H      2.251680   -0.586786    1.176444
  H      2.719184    0.743398    0.082504
  H      0.080597    0.403526    1.363540
  H      0.449662    1.686042    0.178320
  H     -1.868662    1.456266   -0.035126
  H     -1.236087    0.457712   -1.369365
  H     -2.889325   -0.763766   -0.243523
  H     -2.127338   -0.609646    1.199331

 Total Charge           Charge          ....    0
 Multiplicity           Mult            ....    1
 Number of Electrons    NEL             ....   42
 Basis Dimension        Dim             ....  150

ORBITAL ENERGIES
----------------

  NO   OCC          E(Eh)            E(eV)
   0   2.0000     -18.945372      -515.5298
   1   2.0000     -14.134328      -384.6146
   2   2.0000     -10.073474      -274.1132
   3   2.0000     -10.065961      -273.9087
   4   2.0000     -10.052350      -273.5384
   5   2.0000      -0.992603       -27.0101
   6   2.0000      -0.845841       -23.0165
   7   2.0000      -0.703931       -19.1549
   8   2.0000      -0.627340       -17.0708
   9   2.0000      -0.563319       -15.3287
  10   2.0000      -0.466992       -12.7075
  11   2.0000      -0.456137       -12.4121
  12   2.0000      -0.433903       -11.8071
  13   2.0000      -0.410196       -11.1620
  14   2.0000      -0.400385       -10.8950
  15   2.0000      -0.360304        -9.8044
  16   2.0000      -0.341290        -9.2870
  17   2.0000      -0.322886        -8.7862
  18   2.0000      -0.280321        -7.6279
  19   2.0000      -0.218865        -5.9556
  20   2.0000      -0.202135        -5.5004
  21   0.0000       0.075678         2.0593
  22   0.0000       0.080707         2.1962
  23   0.0000       0.116361         3.1664
  24   0.0000       0.124233         3.3806
  25   0.0000       0.126448         3.4408

MULLIKEN ATOMIC CHARGES
-----------------------
   0 C :   -0.289033
   1 O :   -0.215245
   2 C :   -0.143712
   3 C :   -0.184780
   4 N :   -0.538757
   5 H :    0.147530
   6 H :    0.130292
   7 H :    0.127531
   8 H :    0.109806
   9 H :    0.121216
  10 H :    0.116010
  11 H :    0.146448
  12 H :    0.239242
  13 H :    0.233453
Sum of atomic charges:    0.0000000

LOEWDIN ATOMIC CHARGES
----------------------
   0 C :   -0.074258
   1 O :   -0.784682
   2 C :    0.027474
   3 C :   -0.053934
   4 N :   -0.724357
   5 H :    0.174655
   6 H :    0.153933
   7 H :    0.152722
   8 H :    0.162653
   9 H :    0.161507
  10 H :    0.150221
  11 H :    0.184813
  12 H :    0.236318
  13 H :    0.232934

  Mayer bond orders larger than 0.100000
B(  0-C ,  1-O ) :   0.8916 B(  0-C ,  5-H ) :   0.9729 B(  0-C ,  6-H ) :   0.9680
B(  0-C ,  7-H ) :   0.9674 B(  1-O ,  2-C ) :   0.9082 B(  2-C ,  3-C ) :   0.9868
B(  2-C ,  8-H ) :   0.9482 B(  2-C ,  9-H ) :   0.9513 B(  3-C ,  4-N ) :   0.9450
B(  3-C , 10-H ) :   0.9545 B(  3-C , 11-H ) :   0.9754 B(  4-N , 12-H ) :   0.9184
B(  4-N , 13-H ) :   0.9217

Dispersion correction           -0.002690992
FINAL SINGLE POINT ENERGY      -249.614783099404

DIPOLE MOMENT
-------------

Method             : SCF
Type of density    : Electron Density
Multiplicity       :   1
Irrep              :   0
Energy             :  -249.6247239989569664 Eh
Relativity type    :
Basis              : AO
                                X                 Y                 Z
Electronic contribution:     -0.385879080      -1.137810493      -1.300308481
Nuclear contribution   :      0.193028274       1.715573043       1.755500951
                        -----------------------------------------
Total Dipole Moment    :     -0.192850806       0.577762550       0.455192469
                        -----------------------------------------
Magnitude (a.u.)       :      0.760395412
Magnitude (Debye)      :      1.932771537

Rotational constants in cm-1:             0.458672             0.083115             0.078297
Rotational constants in MHz :         13750.653366          2491.724943          2347.285254

                             ****ORCA TERMINATED NORMALLY****
TOTAL RUN TIME: 0 days 0 hours 0 minutes 15 seconds 689 msec
