                         Program Version 6.0.0  -   RELEASE  -
|  1> ! r2scan-3c def2/J RI DEFGRID2 scfconv6 printgap
|  2> %output
|  3>     printlevel normal
|  4> end
|  5> %cpcm
|  6>     smd true
|  7>     smdsolvent "water"
|  8> end
|  9> * xyz 0 1
| 10> C -2.075653584 0.4103138365 0.689412697
| 11> C -1.5260975871 0.1786588781 -0.7131251015
| 12> C -0.2528516327 -0.6677405322 -0.6989500197
| 13> C 0.9384167027 -0.0545975231 -0.006341394
| 14> C 1.164736468 1.2464170976 0.0802269849
| 15> C 1.8978155248 -1.0577452135 0.5629255034
| 16> H -2.981096431 1.0111151524 0.6504215275
| 17> H -1.3427291987 0.9271723466 1.3040302887
| 18> H -2.3132620142 -0.5387714157 1.1649403866
| 19> H -2.2780718735 -0.3414140729 -1.3110447968
| 20> H -1.3322631041 1.136927011 -1.1967096738
| 21> H -0.4762675377 -1.6243126618 -0.2197793925
| 22> H 0.0372003364 -0.8868790438 -1.7318813826
| 23> H 2.0443030623 1.6310535591 0.5693819055
| 24> H 0.4956331661 1.9850559815 -0.3244647251
| 25> H 1.4224786343 -1.6125694382 1.3711558916
| 26> H 2.1903927094 -1.7735778454 -0.2039091485
| 27> H 2.7894608749 -0.5728797335 0.9509371281
| 28> *
| 29>
| 30>                          ****END OF INPUT****

CARTESIAN COORDINATES (ANGSTROEM)
---------------------------------
  C     -2.075654    0.410314    0.689413
  C     -1.526098    0.178659   -0.713125
  C     -0.252852   -0.667741   -0.698950
  C      0.938417   -0.054598   -0.006341
  C      1.164736    1.246417    0.080227
  C      1.897816   -1.057745    0.562926
  H     -2.981096    1.011115    0.650422
  H     -1.342729    0.927172    1.304030
  H     -2.313262   -0.538771    1.164940
  H     -2.278072   -0.341414   -1.311045
  H     -1.332263    1.136927   -1.196710
  H     -0.476268   -1.624313   -0.219779
  H      0.037200   -0.886879   -1.731881
  H      2.044303    1.631054    0.569382
  H      0.495633    1.985056   -0.324465
  H      1.422479   -1.612569    1.371156
  H      2.190393   -1.773578   -0.203909
  H      2.789461   -0.572880    0.950937

 Total Charge           Charge          ....    0
 Multiplicity           Mult            ....    1
 Number of Electrons    NEL             ....   48
 Basis Dimension        Dim             ....  174

ORBITAL ENERGIES
----------------

  NO   OCC          E(Eh)            E(eV)
   0   2.0000     -10.036274      -273.1009
   1   2.0000     -10.020861      -272.6815
   2   2.0000     -10.017902      -272.6010
   3   2.0000     -10.014201      -272.5003
   4   2.0000     -10.006093      -272.2796
   5   2.0000     -10.003906      -272.2201
   6   2.0000      -0.781643       -21.2696
   7   2.0000      -0.723516       -19.6879
   8   2.0000      -0.645412       -17.5625
   9   2.0000      -0.642018       -17.4702
  10   2.0000      -0.555524       -15.1166
  11   2.0000      -0.478833       -13.0297
  12   2.0000      -0.434822       -11.8321
  13   2.0000      -0.415243       -11.2993
  14   2.0000      -0.400993       -10.9116
  15   2.0000      -0.382849       -10.4178
  16   2.0000      -0.370479       -10.0812
  17   2.0000      -0.344160        -9.3651
  18   2.0000      -0.330438        -8.9917
  19   2.0000      -0.320884        -8.7317
  20   2.0000      -0.302328        -8.2268
  21   2.0000      -0.290510        -7.9052
  22   2.0000      -0.280100        -7.6219
  23   2.0000      -0.221611        -6.0303
  24   0.0000      -0.005383        -0.1465
  25   0.0000       0.092926         2.5286
  26   0.0000       0.115100         3.1320
  27   0.0000       0.128082         3.4853
  28   0.0000       0.139544         3.7972

MULLIKEN ATOMIC CHARGES
-----------------------
   0 C :   -0.505279
   1 C :   -0.242616
   2 C :   -0.287157
   3 C :    0.097252
   4 C :   -0.458756
   5 C :   -0.540818
   6 H :    0.155310
   7 H :    0.160109
   8 H :    0.152691
   9 H :    0.151690
  10 H :    0.142856
  11 H :    0.160195
  12 H :    0.178185
  13 H :    0.165475
  14 H :    0.162499
  15 H :    0.177883
  16 H :    0.167589
  17 H :    0.162894
Sum of atomic charges:   -0.0000000

LOEWDIN ATOMIC CHARGES
----------------------
   0 C :   -0.431314
   1 C :   -0.312566
   2 C :   -0.293797
   3 C :   -0.129868
   4 C :   -0.365193
   5 C :   -0.404495
   6 H :    0.152896
   7 H :    0.155205
   8 H :    0.152494
   9 H :    0.156567
  10 H :    0.154813
  11 H :    0.167234
  12 H :    0.176471
  13 H :    0.162711
  14 H :    0.162913
  15 H :    0.167523
  16 H :    0.167294
  17 H :    0.161109

  Mayer bond orders larger than 0.100000
B(  0-C ,  1-C ) :   0.9045 B(  0-C ,  6-H ) :   0.9681 B(  0-C ,  7-H ) :   0.9778
B(  0-C ,  8-H ) :   0.9788 B(  1-C ,  2-C ) :   0.9082 B(  1-C ,  9-H ) :   0.9653
B(  1-C , 10-H ) :   0.9597 B(  2-C ,  3-C ) :   0.8499 B(  2-C , 11-H ) :   1.0105
B(  2-C , 12-H ) :   0.9474 B(  3-C ,  4-C ) :   1.8465 B(  3-C ,  5-C ) :   0.8758
B(  4-C , 13-H ) :   0.9744 B(  4-C , 14-H ) :   0.9794 B(  5-C , 15-H ) :   0.9693
B(  5-C , 16-H ) :   0.9634 B(  5-C , 17-H ) :   0.9876

Dispersion correction           -0.004620109
FINAL SINGLE POINT ENERGY      -235.758772325553

DIPOLE MOMENT
-------------

Method             : SCF
Type of density    : Electron Density
Multiplicity       :   1
Irrep              :   0
Energy             :  -235.7618316375363179 Eh
Relativity type    :
Basis              : AO
                                X                 Y                 Z
Electronic contribution:      1.541120281       0.255128534      -1.045185611
Nuclear contribution   :     -1.636364028      -0.618324647       0.959813974
                        -----------------------------------------
Total Dipole Moment    :     -0.095243746      -0.363196113      -0.085371637
                        -----------------------------------------
Magnitude (a.u.)       :      0.385059870
Magnitude (Debye)      :      0.978744408

Rotational constants in cm-1:             0.190730             0.072781             0.066079
Rotational constants in MHz :          5717.935150          2181.926426          1981.001543

                             ****ORCA TERMINATED NORMALLY****
TOTAL RUN TIME: 0 days 0 hours 0 minutes 23 seconds 239 msec
