                         Program Version 6.0.0  -   RELEASE  -
|  1> ! pbe def2-sv(p) def2/J RI DEFGRID1 loosescf d4 GCP(DFT/SV(P)) printgap
|  2> %output
|  3>     printlevel normal
|  4> end
|  5> * xyz 0 1
|  6> C -2.1264445692 -0.8075128698 0.3755257645
|  7> C -1.2398571167 -0.1927604632 -0.6901917209
|  8> S 0.0002400774 0.9635041127 -0.0010472069
|  9> C 1.2398360281 -0.1914312969 0.6909028553
| 10> C 2.126001481 -0.808105556 -0.3740337209
| 11> H -2.8782555543 -1.4387068707 -0.0925274531
| 12> H -1.5455265667 -1.4174580751 1.0637630958
| 13> H -2.6261405913 -0.0263744985 0.9433734666
| 14> H -1.8232790064 0.4202416996 -1.3756820951
| 15> H -0.7028809292 -0.9493067574 -1.2599761263
| 16> H 1.8228597113 0.4232725492 1.3752151212
| 17> H 0.7025759995 -0.9467908819 1.2620944844
| 18> H 2.6260076266 -0.0283563518 -0.9434436449
| 19> H 2.8774339739 -1.4385420878 0.0955177383
| 20> H 1.5450991349 -1.4191758544 -1.0612739778
| 21> *
| 22>
| 23>                          ****END OF INPUT****

CARTESIAN COORDINATES (ANGSTROEM)
---------------------------------
  C     -2.126445   -0.807513    0.375526
  C     -1.239857   -0.192760   -0.690192
  S      0.000240    0.963504   -0.001047
  C      1.239836   -0.191431    0.690903
  C      2.126001   -0.808106   -0.374034
  H     -2.878256   -1.438707   -0.092527
  H     -1.545527   -1.417458    1.063763
  H     -2.626141   -0.026374    0.943373
  H     -1.823279    0.420242   -1.375682
  H     -0.702881   -0.949307   -1.259976
  H      1.822860    0.423273    1.375215
  H      0.702576   -0.946791    1.262094
  H      2.626008   -0.028356   -0.943444
  H      2.877434   -1.438542    0.095518
  H      1.545099   -1.419176   -1.061274

 Total Charge           Charge          ....    0
 Multiplicity           Mult            ....    1
 Number of Electrons    NEL             ....   50
 Basis Dimension        Dim             ....   94

ORBITAL ENERGIES
----------------

  NO   OCC          E(Eh)            E(eV)
   0   2.0000     -88.006352     -2394.7746
   1   2.0000      -9.912292      -269.7272
   2   2.0000      -9.912207      -269.7249
   3   2.0000      -9.880342      -268.8578
   4   2.0000      -9.880331      -268.8575
   5   2.0000      -7.650403      -208.1781
   6   2.0000      -5.679198      -154.5388
   7   2.0000      -5.675053      -154.4260
   8   2.0000      -5.666558      -154.1949
   9   2.0000      -0.735506       -20.0141
  10   2.0000      -0.686878       -18.6909
  11   2.0000      -0.616258       -16.7692
  12   2.0000      -0.560555       -15.2535
  13   2.0000      -0.502313       -13.6686
  14   2.0000      -0.426473       -11.6049
  15   2.0000      -0.411604       -11.2003
  16   2.0000      -0.383856       -10.4453
  17   2.0000      -0.367041        -9.9877
  18   2.0000      -0.352299        -9.5865
  19   2.0000      -0.337499        -9.1838
  20   2.0000      -0.322738        -8.7821
  21   2.0000      -0.314954        -8.5703
  22   2.0000      -0.293331        -7.9819
  23   2.0000      -0.256753        -6.9866
  24   2.0000      -0.176578        -4.8049
  25   0.0000       0.026873         0.7313
  26   0.0000       0.029121         0.7924
  27   0.0000       0.060602         1.6491
  28   0.0000       0.067835         1.8459
  29   0.0000       0.077091         2.0977

MULLIKEN ATOMIC CHARGES
-----------------------
   0 C :   -0.247498
   1 C :   -0.303641
   2 S :   -0.072772
   3 C :   -0.303690
   4 C :   -0.247425
   5 H :    0.103844
   6 H :    0.110419
   7 H :    0.111367
   8 H :    0.133428
   9 H :    0.128397
  10 H :    0.133466
  11 H :    0.128460
  12 H :    0.111384
  13 H :    0.103801
  14 H :    0.110459
Sum of atomic charges:    0.0000000

LOEWDIN ATOMIC CHARGES
----------------------
   0 C :   -0.359093
   1 C :   -0.340142
   2 S :    0.184740
   3 C :   -0.340122
   4 C :   -0.359110
   5 H :    0.121176
   6 H :    0.117691
   7 H :    0.122612
   8 H :    0.127160
   9 H :    0.118201
  10 H :    0.127165
  11 H :    0.118232
  12 H :    0.122617
  13 H :    0.121161
  14 H :    0.117712

  Mayer bond orders larger than 0.100000
B(  0-C ,  1-C ) :   1.1149 B(  0-C ,  5-H ) :   0.9377 B(  0-C ,  6-H ) :   0.9509
B(  0-C ,  7-H ) :   0.9524 B(  1-C ,  2-S ) :   1.0464 B(  1-C ,  8-H ) :   0.9284
B(  1-C ,  9-H ) :   0.9187 B(  2-S ,  3-C ) :   1.0464 B(  3-C ,  4-C ) :   1.1148
B(  3-C , 10-H ) :   0.9284 B(  3-C , 11-H ) :   0.9187 B(  4-C , 12-H ) :   0.9524
B(  4-C , 13-H ) :   0.9377 B(  4-C , 14-H ) :   0.9509

Dispersion correction           -0.011334192
FINAL SINGLE POINT ENERGY      -555.917442969446

DIPOLE MOMENT
-------------

Method             : SCF
Type of density    : Electron Density
Multiplicity       :   1
Irrep              :   0
Energy             :  -555.9661226518196599 Eh
Relativity type    :
Basis              : AO
                                X                 Y                 Z
Electronic contribution:      0.002026100       5.820376902      -0.005947002
Nuclear contribution   :     -0.001982794      -6.426803951       0.006653789
                        -----------------------------------------
Total Dipole Moment    :      0.000043306      -0.606427049       0.000706787
                        -----------------------------------------
Magnitude (a.u.)       :      0.606427463
Magnitude (Debye)      :      1.541416112

Rotational constants in cm-1:             0.203939             0.078564             0.068705
Rotational constants in MHz :          6113.940777          2355.281350          2059.729581

                             ****ORCA TERMINATED NORMALLY****
TOTAL RUN TIME: 0 days 0 hours 0 minutes 6 seconds 580 msec
