                         Program Version 6.0.0  -   RELEASE  -
|  1> ! r2scan-3c def2/J RI DEFGRID2 scfconv6 printgap
|  2> %output
|  3>     printlevel normal
|  4> end
|  5> %cpcm
|  6>     smd true
|  7>     smdsolvent "water"
|  8> end
|  9> * xyz 0 1
| 10> C 1.7115149251 1.1869244533 -0.6257792025
| 11> C 1.4427142274 -0.2504280287 -0.1926787798
| 12> H 2.1667987756 -0.9056872519 -0.7076510461
| 13> C 0.0310371917 -0.7468701235 -0.5495205273
| 14> C -1.103739315 0.0193205532 0.1529236785
| 15> C -1.7257702014 1.0715606315 -0.7639091166
| 16> C -2.1938471949 -0.9436937968 0.6246290561
| 17> O 1.6812721224 -0.3127691486 1.2052831233
| 18> H 1.0795313494 1.8678639106 -0.0639222384
| 19> H 2.7481889631 1.4376388338 -0.4162748052
| 20> H 1.5241122524 1.3002198796 -1.6888421926
| 21> H -0.0893648312 -0.689926642 -1.6318079652
| 22> H -0.0253888243 -1.8021775985 -0.2706874133
| 23> H -0.6822468793 0.5170942143 1.0334073335
| 24> H -2.4845488503 1.6373089689 -0.2275550731
| 25> H -2.1995330525 0.5896970432 -1.6171379525
| 26> H -0.9789996149 1.7672766977 -1.1337530537
| 27> H -1.7973498794 -1.6674229374 1.3327336662
| 28> H -2.9963093899 -0.3957274123 1.1131214175
| 29> H -2.6136280648 -1.4823245146 -0.2227071752
| 30> H 1.5644917945 -1.2226976631 1.5078327045
| 31> *
| 32>
| 33>                          ****END OF INPUT****

CARTESIAN COORDINATES (ANGSTROEM)
---------------------------------
  C      1.711515    1.186924   -0.625779
  C      1.442714   -0.250428   -0.192679
  H      2.166799   -0.905687   -0.707651
  C      0.031037   -0.746870   -0.549521
  C     -1.103739    0.019321    0.152924
  C     -1.725770    1.071561   -0.763909
  C     -2.193847   -0.943694    0.624629
  O      1.681272   -0.312769    1.205283
  H      1.079531    1.867864   -0.063922
  H      2.748189    1.437639   -0.416275
  H      1.524112    1.300220   -1.688842
  H     -0.089365   -0.689927   -1.631808
  H     -0.025389   -1.802178   -0.270687
  H     -0.682247    0.517094    1.033407
  H     -2.484549    1.637309   -0.227555
  H     -2.199533    0.589697   -1.617138
  H     -0.979000    1.767277   -1.133753
  H     -1.797350   -1.667423    1.332734
  H     -2.996309   -0.395727    1.113121
  H     -2.613628   -1.482325   -0.222707
  H      1.564492   -1.222698    1.507833

 Total Charge           Charge          ....    0
 Multiplicity           Mult            ....    1
 Number of Electrons    NEL             ....   58
 Basis Dimension        Dim             ....  208

ORBITAL ENERGIES
----------------

  NO   OCC          E(Eh)            E(eV)
   0   2.0000     -18.947796      -515.5958
   1   2.0000     -10.075085      -274.1570
   2   2.0000     -10.023147      -272.7437
   3   2.0000     -10.012477      -272.4534
   4   2.0000     -10.009452      -272.3710
   5   2.0000     -10.005598      -272.2662
   6   2.0000     -10.004694      -272.2416
   7   2.0000      -0.984612       -26.7926
   8   2.0000      -0.767802       -20.8930
   9   2.0000      -0.714244       -19.4356
  10   2.0000      -0.645151       -17.5554
  11   2.0000      -0.638326       -17.3697
  12   2.0000      -0.555093       -15.1048
  13   2.0000      -0.522224       -14.2105
  14   2.0000      -0.464474       -12.6390
  15   2.0000      -0.433547       -11.7974
  16   2.0000      -0.413273       -11.2457
  17   2.0000      -0.387482       -10.5439
  18   2.0000      -0.382682       -10.4133
  19   2.0000      -0.362795        -9.8721
  20   2.0000      -0.348312        -9.4781
  21   2.0000      -0.344125        -9.3641
  22   2.0000      -0.335202        -9.1213
  23   2.0000      -0.316151        -8.6029
  24   2.0000      -0.300739        -8.1835
  25   2.0000      -0.287523        -7.8239
  26   2.0000      -0.283286        -7.7086
  27   2.0000      -0.271361        -7.3841
  28   2.0000      -0.234097        -6.3701
  29   0.0000       0.073295         1.9944
  30   0.0000       0.104851         2.8531
  31   0.0000       0.117179         3.1886
  32   0.0000       0.129861         3.5337
  33   0.0000       0.135251         3.6804

MULLIKEN ATOMIC CHARGES
-----------------------
   0 C :   -0.557398
   1 C :    0.045428
   2 H :    0.144961
   3 C :   -0.328070
   4 C :   -0.007481
   5 C :   -0.554050
   6 C :   -0.535094
   7 O :   -0.504459
   8 H :    0.170965
   9 H :    0.161195
  10 H :    0.171222
  11 H :    0.164308
  12 H :    0.168397
  13 H :    0.168751
  14 H :    0.155077
  15 H :    0.163105
  16 H :    0.159737
  17 H :    0.156734
  18 H :    0.154484
  19 H :    0.159706
  20 H :    0.342481
Sum of atomic charges:   -0.0000000

LOEWDIN ATOMIC CHARGES
----------------------
   0 C :   -0.394744
   1 C :    0.053518
   2 H :    0.167767
   3 C :   -0.281919
   4 C :   -0.245473
   5 C :   -0.424567
   6 C :   -0.424867
   7 O :   -0.656603
   8 H :    0.162995
   9 H :    0.160370
  10 H :    0.165800
  11 H :    0.170582
  12 H :    0.166783
  13 H :    0.163974
  14 H :    0.154344
  15 H :    0.155197
  16 H :    0.156333
  17 H :    0.154206
  18 H :    0.153989
  19 H :    0.156019
  20 H :    0.286295

  Mayer bond orders larger than 0.100000
B(  0-C ,  1-C ) :   0.9040 B(  0-C ,  8-H ) :   0.9732 B(  0-C ,  9-H ) :   0.9629
B(  0-C , 10-H ) :   0.9700 B(  1-C ,  2-H ) :   0.9679 B(  1-C ,  3-C ) :   0.9223
B(  1-C ,  7-O ) :   0.9233 B(  3-C ,  4-C ) :   0.7969 B(  3-C , 11-H ) :   0.9632
B(  3-C , 12-H ) :   0.9853 B(  4-C ,  5-C ) :   0.8946 B(  4-C ,  6-C ) :   0.8846
B(  4-C , 13-H ) :   0.9708 B(  5-C , 14-H ) :   0.9750 B(  5-C , 15-H ) :   0.9885
B(  5-C , 16-H ) :   0.9635 B(  6-C , 17-H ) :   0.9744 B(  6-C , 18-H ) :   0.9779
B(  6-C , 19-H ) :   0.9826 B(  7-O , 20-H ) :   0.8735

Dispersion correction           -0.005685773
FINAL SINGLE POINT ENERGY      -312.205967495074

DIPOLE MOMENT
-------------

Method             : SCF
Type of density    : Electron Density
Multiplicity       :   1
Irrep              :   0
Energy             :  -312.2114037423253308 Eh
Relativity type    :
Basis              : AO
                                X                 Y                 Z
Electronic contribution:      4.271696439      -1.538277195       2.308752088
Nuclear contribution   :     -4.463454054       0.887678945      -2.790264880
                        -----------------------------------------
Total Dipole Moment    :     -0.191757615      -0.650598250      -0.481512792
                        -----------------------------------------
Magnitude (a.u.)       :      0.831807451
Magnitude (Debye)      :      2.114286515

Rotational constants in cm-1:             0.125628             0.056680             0.045780
Rotational constants in MHz :          3766.244233          1699.228064          1372.450761

                             ****ORCA TERMINATED NORMALLY****
TOTAL RUN TIME: 0 days 0 hours 0 minutes 35 seconds 292 msec
