                         Program Version 6.0.0  -   RELEASE  -
|  1> ! pbe def2-sv(p) def2/J RI DEFGRID1 loosescf d4 GCP(DFT/SV(P)) printgap
|  2> %output
|  3>     printlevel normal
|  4> end
|  5> * xyz 0 1
|  6> C -1.1975099495 0.14833768 -0.4952526472
|  7> C -0.0452641074 0.4607819167 0.4851788893
|  8> C 0.9848500117 -0.6801738981 0.5825965253
|  9> O 1.7673670827 -0.7733032991 -0.5876201358
| 10> O 0.6040588183 1.6559484104 0.1131610809
| 11> O -2.1739634486 -0.7065324733 0.0498672209
| 12> H -0.8071707901 -0.2559262603 -1.4382889048
| 13> H -1.7118435592 1.0868982103 -0.7149617347
| 14> H -0.4856777414 0.6363750037 1.4733280608
| 15> H 0.4907484407 -1.6291613868 0.8115885022
| 16> H 1.6879908381 -0.4500599074 1.3862248803
| 17> H 1.2543184421 -1.1836748318 -1.2969908937
| 18> H 1.3051731528 1.427041536 -0.5197034378
| 19> H -1.7944790141 -1.5803003255 0.2162559389
| 20> *
| 21>
| 22>                          ****END OF INPUT****

CARTESIAN COORDINATES (ANGSTROEM)
---------------------------------
  C     -1.197510    0.148338   -0.495253
  C     -0.045264    0.460782    0.485179
  C      0.984850   -0.680174    0.582597
  O      1.767367   -0.773303   -0.587620
  O      0.604059    1.655948    0.113161
  O     -2.173963   -0.706532    0.049867
  H     -0.807171   -0.255926   -1.438289
  H     -1.711844    1.086898   -0.714962
  H     -0.485678    0.636375    1.473328
  H      0.490748   -1.629161    0.811589
  H      1.687991   -0.450060    1.386225
  H      1.254318   -1.183675   -1.296991
  H      1.305173    1.427042   -0.519703
  H     -1.794479   -1.580300    0.216256

 Total Charge           Charge          ....    0
 Multiplicity           Mult            ....    1
 Number of Electrons    NEL             ....   50
 Basis Dimension        Dim             ....  100

ORBITAL ENERGIES
----------------

  NO   OCC          E(Eh)            E(eV)
   0   2.0000     -18.772893      -510.8364
   1   2.0000     -18.753897      -510.3195
   2   2.0000     -18.743362      -510.0328
   3   2.0000      -9.945698      -270.6362
   4   2.0000      -9.937273      -270.4069
   5   2.0000      -9.932909      -270.2882
   6   2.0000      -0.952339       -25.9145
   7   2.0000      -0.929249       -25.2862
   8   2.0000      -0.914238       -24.8777
   9   2.0000      -0.678328       -18.4583
  10   2.0000      -0.622244       -16.9321
  11   2.0000      -0.549617       -14.9558
  12   2.0000      -0.489735       -13.3264
  13   2.0000      -0.470829       -12.8119
  14   2.0000      -0.440957       -11.9991
  15   2.0000      -0.418554       -11.3894
  16   2.0000      -0.401484       -10.9249
  17   2.0000      -0.377460       -10.2712
  18   2.0000      -0.348845        -9.4926
  19   2.0000      -0.302427        -8.2294
  20   2.0000      -0.286069        -7.7843
  21   2.0000      -0.285618        -7.7721
  22   2.0000      -0.250746        -6.8232
  23   2.0000      -0.240153        -6.5349
  24   2.0000      -0.202393        -5.5074
  25   0.0000      -0.008014        -0.2181
  26   0.0000       0.024887         0.6772
  27   0.0000       0.057116         1.5542
  28   0.0000       0.077234         2.1016
  29   0.0000       0.089488         2.4351

MULLIKEN ATOMIC CHARGES
-----------------------
   0 C :    0.020874
   1 C :   -0.000727
   2 C :   -0.010027
   3 O :   -0.435934
   4 O :   -0.427777
   5 O :   -0.429740
   6 H :    0.037682
   7 H :    0.103880
   8 H :    0.077436
   9 H :    0.064975
  10 H :    0.107172
  11 H :    0.303051
  12 H :    0.295638
  13 H :    0.293497
Sum of atomic charges:   -0.0000000

LOEWDIN ATOMIC CHARGES
----------------------
   0 C :   -0.141714
   1 C :   -0.101713
   2 C :   -0.140427
   3 O :   -0.329309
   4 O :   -0.324133
   5 O :   -0.334145
   6 H :    0.079919
   7 H :    0.122300
   8 H :    0.116135
   9 H :    0.093160
  10 H :    0.122156
  11 H :    0.284346
  12 H :    0.275688
  13 H :    0.277736

  Mayer bond orders larger than 0.100000
B(  0-C ,  1-C ) :   1.0094 B(  0-C ,  5-O ) :   1.0610 B(  0-C ,  6-H ) :   0.9076
B(  0-C ,  7-H ) :   0.9232 B(  1-C ,  2-C ) :   1.0343 B(  1-C ,  4-O ) :   1.0531
B(  1-C ,  8-H ) :   0.8922 B(  2-C ,  3-O ) :   1.0437 B(  2-C ,  9-H ) :   0.9171
B(  2-C , 10-H ) :   0.9211 B(  3-O , 11-H ) :   0.8439 B(  4-O , 12-H ) :   0.8297
B(  5-O , 13-H ) :   0.8510

Dispersion correction           -0.009265073
FINAL SINGLE POINT ENERGY      -344.006922660897

DIPOLE MOMENT
-------------

Method             : SCF
Type of density    : Electron Density
Multiplicity       :   1
Irrep              :   0
Energy             :  -344.0808454291033627 Eh
Relativity type    :
Basis              : AO
                                X                 Y                 Z
Electronic contribution:      0.299513999       0.841683263      -0.241174648
Nuclear contribution   :     -0.054239922      -1.825704237      -0.083749705
                        -----------------------------------------
Total Dipole Moment    :      0.245274077      -0.984020975      -0.324924353
                        -----------------------------------------
Magnitude (a.u.)       :      1.064909614
Magnitude (Debye)      :      2.706785127

Rotational constants in cm-1:             0.161067             0.084753             0.066160
Rotational constants in MHz :          4828.678072          2540.825377          1983.424337

                             ****ORCA TERMINATED NORMALLY****
TOTAL RUN TIME: 0 days 0 hours 0 minutes 6 seconds 850 msec
