                         Program Version 6.0.0  -   RELEASE  -
|  1> ! r2scan-3c def2/J RI DEFGRID2 scfconv6 printgap
|  2> %output
|  3>     printlevel normal
|  4> end
|  5> * xyz 0 1
|  6> C 2.0519330419 -1.0167187741 -0.1446396778
|  7> O 0.8297460238 -0.6336705945 -0.7938640151
|  8> S -0.073765374 0.4564721029 -0.1062661741
|  9> O -0.2849299786 1.5314066898 -1.0231492341
| 10> O 0.4512939356 0.773134706 1.189994286
| 11> O -1.4475243394 -0.2771025651 0.0165724354
| 12> C -1.4702374544 -1.3697961008 0.9477137368
| 13> H 2.5977189889 -1.6021600784 -0.8805539641
| 14> H 1.8292381063 -1.6081418576 0.7423207376
| 15> H 2.6082628046 -0.1266805531 0.1413287749
| 16> H -0.9261782425 -1.0730096122 1.8438116997
| 17> H -1.0103511252 -2.2420939747 0.4843051857
| 18> H -2.5181419524 -1.5550862513 1.1696610347
| 19> *
| 20>
| 21>                          ****END OF INPUT****

CARTESIAN COORDINATES (ANGSTROEM)
---------------------------------
  C      2.051933   -1.016719   -0.144640
  O      0.829746   -0.633671   -0.793864
  S     -0.073765    0.456472   -0.106266
  O     -0.284930    1.531407   -1.023149
  O      0.451294    0.773135    1.189994
  O     -1.447524   -0.277103    0.016572
  C     -1.470237   -1.369796    0.947714
  H      2.597719   -1.602160   -0.880554
  H      1.829238   -1.608142    0.742321
  H      2.608263   -0.126681    0.141329
  H     -0.926178   -1.073010    1.843812
  H     -1.010351   -2.242094    0.484305
  H     -2.518142   -1.555086    1.169661

 Total Charge           Charge          ....    0
 Multiplicity           Mult            ....    1
 Number of Electrons    NEL             ....   66
 Basis Dimension        Dim             ....  191

ORBITAL ENERGIES
----------------

  NO   OCC          E(Eh)            E(eV)
   0   2.0000     -88.821630     -2416.9594
   1   2.0000     -19.026846      -517.7468
   2   2.0000     -19.024112      -517.6724
   3   2.0000     -18.960352      -515.9374
   4   2.0000     -18.952567      -515.7256
   5   2.0000     -10.112801      -275.1833
   6   2.0000     -10.111684      -275.1529
   7   2.0000      -8.085581      -220.0199
   8   2.0000      -6.032333      -164.1481
   9   2.0000      -6.031474      -164.1247
  10   2.0000      -6.028586      -164.0462
  11   2.0000      -1.163627       -31.6639
  12   2.0000      -1.052866       -28.6500
  13   2.0000      -1.024113       -27.8675
  14   2.0000      -0.993613       -27.0376
  15   2.0000      -0.740642       -20.1539
  16   2.0000      -0.705437       -19.1959
  17   2.0000      -0.592162       -16.1135
  18   2.0000      -0.548992       -14.9388
  19   2.0000      -0.498254       -13.5582
  20   2.0000      -0.487931       -13.2773
  21   2.0000      -0.459285       -12.4978
  22   2.0000      -0.456451       -12.4207
  23   2.0000      -0.445103       -12.1119
  24   2.0000      -0.415383       -11.3031
  25   2.0000      -0.378564       -10.3012
  26   2.0000      -0.368742       -10.0340
  27   2.0000      -0.338420        -9.2089
  28   2.0000      -0.331009        -9.0072
  29   2.0000      -0.330502        -8.9934
  30   2.0000      -0.298326        -8.1179
  31   2.0000      -0.288005        -7.8370
  32   2.0000      -0.273582        -7.4446
  33   0.0000       0.009177         0.2497
  34   0.0000       0.048996         1.3332
  35   0.0000       0.058744         1.5985
  36   0.0000       0.076223         2.0741
  37   0.0000       0.090104         2.4518

MULLIKEN ATOMIC CHARGES
-----------------------
   0 C :   -0.251888
   1 O :   -0.239869
   2 S :    1.099865
   3 O :   -0.502936
   4 O :   -0.592444
   5 O :   -0.224862
   6 C :   -0.290762
   7 H :    0.161752
   8 H :    0.153797
   9 H :    0.173886
  10 H :    0.185389
  11 H :    0.162531
  12 H :    0.165541
Sum of atomic charges:   -0.0000000

LOEWDIN ATOMIC CHARGES
----------------------
   0 C :   -0.033536
   1 O :   -0.567948
   2 S :    0.894485
   3 O :   -0.360604
   4 O :   -0.418574
   5 O :   -0.547099
   6 C :   -0.044543
   7 H :    0.183188
   8 H :    0.169319
   9 H :    0.181282
  10 H :    0.187067
  11 H :    0.171833
  12 H :    0.185129

  Mayer bond orders larger than 0.100000
B(  0-C ,  1-O ) :   0.8109 B(  0-C ,  7-H ) :   0.9623 B(  0-C ,  8-H ) :   0.9603
B(  0-C ,  9-H ) :   0.9643 B(  1-O ,  2-S ) :   0.9066 B(  2-S ,  3-O ) :   1.8634
B(  2-S ,  4-O ) :   1.6199 B(  2-S ,  5-O ) :   1.0274 B(  5-O ,  6-C ) :   0.7926
B(  6-C , 10-H ) :   0.9600 B(  6-C , 11-H ) :   0.9611 B(  6-C , 12-H ) :   0.9617

Dispersion correction           -0.003620420
FINAL SINGLE POINT ENERGY      -778.749805687498

DIPOLE MOMENT
-------------

Method             : SCF
Type of density    : Electron Density
Multiplicity       :   1
Irrep              :   0
Energy             :  -778.7700114485078302 Eh
Relativity type    :
Basis              : AO
                                X                 Y                 Z
Electronic contribution:     -2.039577152       5.881361781      -2.720046825
Nuclear contribution   :      2.416431370      -7.692203722       3.278432435
                        -----------------------------------------
Total Dipole Moment    :      0.376854217      -1.810841942       0.558385610
                        -----------------------------------------
Magnitude (a.u.)       :      1.932087505
Magnitude (Debye)      :      4.910976157

Rotational constants in cm-1:             0.098344             0.080578             0.060925
Rotational constants in MHz :          2948.272744          2415.658073          1826.487674

                             ****ORCA TERMINATED NORMALLY****
TOTAL RUN TIME: 0 days 0 hours 0 minutes 22 seconds 23 msec
