                         Program Version 6.0.0  -   RELEASE  -
|  1> ! r2scan-3c def2/J RI DEFGRID2 scfconv6 printgap
|  2> %output
|  3>     printlevel normal
|  4> end
|  5> %cpcm
|  6>     smd true
|  7>     smdsolvent "water"
|  8> end
|  9> * xyz 0 1
| 10> C 2.0519330419 -1.0167187741 -0.1446396778
| 11> O 0.8297460238 -0.6336705945 -0.7938640151
| 12> S -0.073765374 0.4564721029 -0.1062661741
| 13> O -0.2849299786 1.5314066898 -1.0231492341
| 14> O 0.4512939356 0.773134706 1.189994286
| 15> O -1.4475243394 -0.2771025651 0.0165724354
| 16> C -1.4702374544 -1.3697961008 0.9477137368
| 17> H 2.5977189889 -1.6021600784 -0.8805539641
| 18> H 1.8292381063 -1.6081418576 0.7423207376
| 19> H 2.6082628046 -0.1266805531 0.1413287749
| 20> H -0.9261782425 -1.0730096122 1.8438116997
| 21> H -1.0103511252 -2.2420939747 0.4843051857
| 22> H -2.5181419524 -1.5550862513 1.1696610347
| 23> *
| 24>
| 25>                          ****END OF INPUT****

CARTESIAN COORDINATES (ANGSTROEM)
---------------------------------
  C      2.051933   -1.016719   -0.144640
  O      0.829746   -0.633671   -0.793864
  S     -0.073765    0.456472   -0.106266
  O     -0.284930    1.531407   -1.023149
  O      0.451294    0.773135    1.189994
  O     -1.447524   -0.277103    0.016572
  C     -1.470237   -1.369796    0.947714
  H      2.597719   -1.602160   -0.880554
  H      1.829238   -1.608142    0.742321
  H      2.608263   -0.126681    0.141329
  H     -0.926178   -1.073010    1.843812
  H     -1.010351   -2.242094    0.484305
  H     -2.518142   -1.555086    1.169661

 Total Charge           Charge          ....    0
 Multiplicity           Mult            ....    1
 Number of Electrons    NEL             ....   66
 Basis Dimension        Dim             ....  191

ORBITAL ENERGIES
----------------

  NO   OCC          E(Eh)            E(eV)
   0   2.0000     -88.834427     -2417.3076
   1   2.0000     -19.028044      -517.7794
   2   2.0000     -19.023564      -517.6575
   3   2.0000     -18.973484      -516.2947
   4   2.0000     -18.972568      -516.2698
   5   2.0000     -10.090562      -274.5782
   6   2.0000     -10.090036      -274.5638
   7   2.0000      -8.098106      -220.3607
   8   2.0000      -6.044546      -164.4805
   9   2.0000      -6.043897      -164.4628
  10   2.0000      -6.041664      -164.4020
  11   2.0000      -1.171776       -31.8857
  12   2.0000      -1.051582       -28.6150
  13   2.0000      -1.032286       -28.0899
  14   2.0000      -1.010952       -27.5094
  15   2.0000      -0.732233       -19.9251
  16   2.0000      -0.691530       -18.8175
  17   2.0000      -0.584119       -15.8947
  18   2.0000      -0.543000       -14.7758
  19   2.0000      -0.508794       -13.8450
  20   2.0000      -0.490963       -13.3598
  21   2.0000      -0.450471       -12.2579
  22   2.0000      -0.445878       -12.1330
  23   2.0000      -0.429045       -11.6749
  24   2.0000      -0.420459       -11.4413
  25   2.0000      -0.376071       -10.2334
  26   2.0000      -0.365941        -9.9578
  27   2.0000      -0.346378        -9.4254
  28   2.0000      -0.333676        -9.0798
  29   2.0000      -0.327239        -8.9046
  30   2.0000      -0.303800        -8.2668
  31   2.0000      -0.301426        -8.2022
  32   2.0000      -0.282044        -7.6748
  33   0.0000       0.012528         0.3409
  34   0.0000       0.051619         1.4046
  35   0.0000       0.062664         1.7052
  36   0.0000       0.075614         2.0576
  37   0.0000       0.102700         2.7946

MULLIKEN ATOMIC CHARGES
-----------------------
   0 C :   -0.279299
   1 O :   -0.248141
   2 S :    1.122946
   3 O :   -0.565710
   4 O :   -0.622104
   5 O :   -0.252568
   6 C :   -0.288116
   7 H :    0.190798
   8 H :    0.186097
   9 H :    0.182706
  10 H :    0.190853
  11 H :    0.189682
  12 H :    0.192858
Sum of atomic charges:   -0.0000000

LOEWDIN ATOMIC CHARGES
----------------------
   0 C :   -0.024976
   1 O :   -0.567412
   2 S :    0.896302
   3 O :   -0.412323
   4 O :   -0.441356
   5 O :   -0.557931
   6 C :   -0.030689
   7 H :    0.196667
   8 H :    0.182099
   9 H :    0.184839
  10 H :    0.192069
  11 H :    0.185421
  12 H :    0.197289

  Mayer bond orders larger than 0.100000
B(  0-C ,  1-O ) :   0.7914 B(  0-C ,  7-H ) :   0.9503 B(  0-C ,  8-H ) :   0.9519
B(  0-C ,  9-H ) :   0.9554 B(  1-O ,  2-S ) :   0.9465 B(  2-S ,  3-O ) :   1.7986
B(  2-S ,  4-O ) :   1.6041 B(  2-S ,  5-O ) :   1.0568 B(  5-O ,  6-C ) :   0.7842
B(  6-C , 10-H ) :   0.9507 B(  6-C , 11-H ) :   0.9491 B(  6-C , 12-H ) :   0.9497

Dispersion correction           -0.003620420
FINAL SINGLE POINT ENERGY      -778.763233214675

DIPOLE MOMENT
-------------

Method             : SCF
Type of density    : Electron Density
Multiplicity       :   1
Irrep              :   0
Energy             :  -778.7834389756850442 Eh
Relativity type    :
Basis              : AO
                                X                 Y                 Z
Electronic contribution:     -1.914870912       5.257345827      -2.520465727
Nuclear contribution   :      2.416431370      -7.692203722       3.278432435
                        -----------------------------------------
Total Dipole Moment    :      0.501560457      -2.434857895       0.757966707
                        -----------------------------------------
Magnitude (a.u.)       :      2.598963138
Magnitude (Debye)      :      6.606039305

Rotational constants in cm-1:             0.098344             0.080578             0.060925
Rotational constants in MHz :          2948.272744          2415.658073          1826.487674

                             ****ORCA TERMINATED NORMALLY****
TOTAL RUN TIME: 0 days 0 hours 0 minutes 25 seconds 122 msec
