                         Program Version 6.0.0  -   RELEASE  -
|  1> ! pbe def2-sv(p) def2/J RI DEFGRID1 loosescf d4 GCP(DFT/SV(P)) printgap
|  2> %output
|  3>     printlevel normal
|  4> end
|  5> * xyz 0 1
|  6> C -3.6915450093 -0.7101584506 -0.1207758858
|  7> C -3.5239812674 0.4962571866 0.5392725482
|  8> C -2.2805547686 1.0978528424 0.5874742016
|  9> C -1.192878945 0.4900068245 -0.0313987206
| 10> C -1.3609386031 -0.7124571397 -0.7088545839
| 11> C -2.6095378015 -1.3069265005 -0.7454302881
| 12> O 0.0003546902 1.1731647456 -0.002851482
| 13> C 1.1930177686 0.4893170522 0.0283761268
| 14> C 2.283195323 1.0983572178 -0.5849381158
| 15> C 3.5264085635 0.4965878819 -0.5330637818
| 16> C 3.6913465932 -0.7112341771 0.1250142457
| 17> C 2.6067278572 -1.3094057001 0.7438236147
| 18> C 1.358336765 -0.7148134534 0.7036027175
| 19> H -4.6617652121 -1.1803801764 -0.1527428303
| 20> H -4.3634732243 0.9710479271 1.0231351868
| 21> H -2.1298346723 2.037816012 1.0947555631
| 22> H -0.519693038 -1.1705865554 -1.207892558
| 23> H -2.7344307164 -2.2406134156 -1.2720125322
| 24> H 2.1346743356 2.039352354 -1.0908978289
| 25> H 4.3676462977 0.9722154782 -1.0128654466
| 26> H 4.6613461538 -1.1817138254 0.1597413041
| 27> H 2.7294933425 -2.2443960847 1.2686279065
| 28> H 0.5152151232 -1.1739613371 1.1984486208
| 29> *
| 30>
| 31>                          ****END OF INPUT****

CARTESIAN COORDINATES (ANGSTROEM)
---------------------------------
  C     -3.691545   -0.710158   -0.120776
  C     -3.523981    0.496257    0.539273
  C     -2.280555    1.097853    0.587474
  C     -1.192879    0.490007   -0.031399
  C     -1.360939   -0.712457   -0.708855
  C     -2.609538   -1.306927   -0.745430
  O      0.000355    1.173165   -0.002851
  C      1.193018    0.489317    0.028376
  C      2.283195    1.098357   -0.584938
  C      3.526409    0.496588   -0.533064
  C      3.691347   -0.711234    0.125014
  C      2.606728   -1.309406    0.743824
  C      1.358337   -0.714813    0.703603
  H     -4.661765   -1.180380   -0.152743
  H     -4.363473    0.971048    1.023135
  H     -2.129835    2.037816    1.094756
  H     -0.519693   -1.170587   -1.207893
  H     -2.734431   -2.240613   -1.272013
  H      2.134674    2.039352   -1.090898
  H      4.367646    0.972215   -1.012865
  H      4.661346   -1.181714    0.159741
  H      2.729493   -2.244396    1.268628
  H      0.515215   -1.173961    1.198449

 Total Charge           Charge          ....    0
 Multiplicity           Mult            ....    1
 Number of Electrons    NEL             ....   90
 Basis Dimension        Dim             ....  202

ORBITAL ENERGIES
----------------

  NO   OCC          E(Eh)            E(eV)
   0   2.0000     -18.804034      -511.6838
   1   2.0000      -9.957598      -270.9600
   2   2.0000      -9.957567      -270.9592
   3   2.0000      -9.898178      -269.3431
   4   2.0000      -9.898108      -269.3412
   5   2.0000      -9.897374      -269.3213
   6   2.0000      -9.897298      -269.3192
   7   2.0000      -9.896014      -269.2842
   8   2.0000      -9.895910      -269.2814
   9   2.0000      -9.894040      -269.2305
  10   2.0000      -9.893962      -269.2284
  11   2.0000      -9.891491      -269.1612
  12   2.0000      -9.891396      -269.1586
  13   2.0000      -0.987309       -26.8660
  14   2.0000      -0.785786       -21.3823
  15   2.0000      -0.772638       -21.0245
  16   2.0000      -0.694235       -18.8911
  17   2.0000      -0.679483       -18.4897
  18   2.0000      -0.674328       -18.3494
  19   2.0000      -0.652593       -17.7580
  20   2.0000      -0.578863       -15.7517
  21   2.0000      -0.559412       -15.2224
  22   2.0000      -0.544836       -14.8257
  23   2.0000      -0.523311       -14.2400
  24   2.0000      -0.499594       -13.5946
  25   2.0000      -0.462372       -12.5818
  26   2.0000      -0.438445       -11.9307
  27   2.0000      -0.431084       -11.7304
  28   2.0000      -0.420767       -11.4497
  29   2.0000      -0.399040       -10.8584
  30   2.0000      -0.395968       -10.7748
  31   2.0000      -0.382410       -10.4059
  32   2.0000      -0.381603       -10.3840
  33   2.0000      -0.360284        -9.8038
  34   2.0000      -0.357763        -9.7352
  35   2.0000      -0.332003        -9.0343
  36   2.0000      -0.325500        -8.8573
  37   2.0000      -0.320444        -8.7197
  38   2.0000      -0.315540        -8.5863
  39   2.0000      -0.296225        -8.0607
  40   2.0000      -0.294025        -8.0008
  41   2.0000      -0.237661        -6.4671
  42   2.0000      -0.232472        -6.3259
  43   2.0000      -0.229841        -6.2543
  44   2.0000      -0.194863        -5.3025
  45   0.0000      -0.045149        -1.2286
  46   0.0000      -0.039544        -1.0760
  47   0.0000      -0.033285        -0.9057
  48   0.0000      -0.019751        -0.5374
  49   0.0000       0.039404         1.0722

MULLIKEN ATOMIC CHARGES
-----------------------
   0 C :   -0.041146
   1 C :   -0.057473
   2 C :   -0.112887
   3 C :    0.243528
   4 C :   -0.147254
   5 C :   -0.056686
   6 O :   -0.230500
   7 C :    0.243831
   8 C :   -0.113044
   9 C :   -0.057453
  10 C :   -0.041201
  11 C :   -0.056638
  12 C :   -0.147659
  13 H :    0.052525
  14 H :    0.057572
  15 H :    0.048745
  16 H :    0.071987
  17 H :    0.056486
  18 H :    0.048714
  19 H :    0.057501
  20 H :    0.052473
  21 H :    0.056447
  22 H :    0.072131
Sum of atomic charges:   -0.0000000

LOEWDIN ATOMIC CHARGES
----------------------
   0 C :   -0.137884
   1 C :   -0.115337
   2 C :   -0.139746
   3 C :    0.035197
   4 C :   -0.151608
   5 C :   -0.115941
   6 O :   -0.034177
   7 C :    0.035251
   8 C :   -0.139836
   9 C :   -0.115340
  10 C :   -0.137996
  11 C :   -0.115911
  12 C :   -0.151853
  13 H :    0.123995
  14 H :    0.126061
  15 H :    0.131794
  16 H :    0.134932
  17 H :    0.125842
  18 H :    0.131773
  19 H :    0.126046
  20 H :    0.123972
  21 H :    0.125821
  22 H :    0.134945

  Mayer bond orders larger than 0.100000
B(  0-C ,  1-C ) :   1.3728 B(  0-C ,  5-C ) :   1.3755 B(  0-C , 13-H ) :   0.9673
B(  1-C ,  2-C ) :   1.3612 B(  1-C , 14-H ) :   0.9637 B(  2-C ,  3-C ) :   1.3811
B(  2-C , 15-H ) :   0.9661 B(  3-C ,  4-C ) :   1.3420 B(  3-C ,  6-O ) :   1.0429
B(  4-C ,  5-C ) :   1.3653 B(  4-C , 16-H ) :   0.9537 B(  5-C , 17-H ) :   0.9623
B(  6-O ,  7-C ) :   1.0435 B(  7-C ,  8-C ) :   1.3807 B(  7-C , 12-C ) :   1.3418
B(  8-C ,  9-C ) :   1.3614 B(  8-C , 18-H ) :   0.9661 B(  9-C , 10-C ) :   1.3727
B(  9-C , 19-H ) :   0.9638 B( 10-C , 11-C ) :   1.3755 B( 10-C , 20-H ) :   0.9673
B( 11-C , 12-C ) :   1.3653 B( 11-C , 21-H ) :   0.9623 B( 12-C , 22-H ) :   0.9536

Dispersion correction           -0.027851569
FINAL SINGLE POINT ENERGY      -537.365032982734

DIPOLE MOMENT
-------------

Method             : SCF
Type of density    : Electron Density
Multiplicity       :   1
Irrep              :   0
Energy             :  -537.4250187011548405 Eh
Relativity type    :
Basis              : AO
                                X                 Y                 Z
Electronic contribution:     -0.001402979       2.632071133      -0.007168191
Nuclear contribution   :     -0.000765557      -2.957769766       0.007742131
                        -----------------------------------------
Total Dipole Moment    :     -0.002168536      -0.325698633       0.000573940
                        -----------------------------------------
Magnitude (a.u.)       :      0.325706357
Magnitude (Debye)      :      0.827879768

Rotational constants in cm-1:             0.081949             0.014640             0.013442
Rotational constants in MHz :          2456.781297           438.891492           402.991323

                             ****ORCA TERMINATED NORMALLY****
TOTAL RUN TIME: 0 days 0 hours 0 minutes 17 seconds 837 msec
