                         Program Version 6.0.0  -   RELEASE  -
|  1> ! pbe def2-sv(p) def2/J RI DEFGRID1 loosescf d4 GCP(DFT/SV(P)) printgap
|  2> %output
|  3>     printlevel normal
|  4> end
|  5> * xyz 0 1
|  6> C -2.5337250459 0.0187408907 0.9153713772
|  7> C -1.7589282223 0.6137143664 -0.2613444345
|  8> C -0.4307534803 -0.0830693794 -0.414649694
|  9> O -0.2939665799 -1.2692752423 -0.630632879
| 10> O 0.5829775001 0.763006237 -0.2839158008
| 11> C 1.923390245 0.2503455604 -0.3737409855
| 12> C 2.416102067 -0.2286655754 0.9831890709
| 13> H -2.0113164536 0.2073358359 1.8498084567
| 14> H -3.5223704396 0.463616215 0.9708988121
| 15> H -2.6350957752 -1.0560633718 0.7856503424
| 16> H -1.5813038801 1.6781336297 -0.1168903061
| 17> H -2.3235693041 0.4578629066 -1.1817439337
| 18> H 1.935288242 -0.5682890478 -1.0997407192
| 19> H 2.5158986086 1.089977574 -0.7382221747
| 20> H 1.8137464065 -1.068464802 1.3225484802
| 21> H 3.4496932141 -0.5478624997 0.8986226173
| 22> H 2.3463247275 0.5749553127 1.7112800133
| 23> *
| 24>
| 25>                          ****END OF INPUT****

CARTESIAN COORDINATES (ANGSTROEM)
---------------------------------
  C     -2.533725    0.018741    0.915371
  C     -1.758928    0.613714   -0.261344
  C     -0.430753   -0.083069   -0.414650
  O     -0.293967   -1.269275   -0.630633
  O      0.582978    0.763006   -0.283916
  C      1.923390    0.250346   -0.373741
  C      2.416102   -0.228666    0.983189
  H     -2.011316    0.207336    1.849808
  H     -3.522370    0.463616    0.970899
  H     -2.635096   -1.056063    0.785650
  H     -1.581304    1.678134   -0.116890
  H     -2.323569    0.457863   -1.181744
  H      1.935288   -0.568289   -1.099741
  H      2.515899    1.089978   -0.738222
  H      1.813746   -1.068465    1.322548
  H      3.449693   -0.547862    0.898623
  H      2.346325    0.574955    1.711280

 Total Charge           Charge          ....    0
 Multiplicity           Mult            ....    1
 Number of Electrons    NEL             ....   56
 Basis Dimension        Dim             ....  118

ORBITAL ENERGIES
----------------

  NO   OCC          E(Eh)            E(eV)
   0   2.0000     -18.797560      -511.5076
   1   2.0000     -18.730486      -509.6824
   2   2.0000     -10.004206      -272.2283
   3   2.0000      -9.945992      -270.6442
   4   2.0000      -9.898117      -269.3415
   5   2.0000      -9.887136      -269.0426
   6   2.0000      -9.884555      -268.9724
   7   2.0000      -1.003727       -27.3128
   8   2.0000      -0.907998       -24.7079
   9   2.0000      -0.719154       -19.5692
  10   2.0000      -0.687181       -18.6991
  11   2.0000      -0.607712       -16.5367
  12   2.0000      -0.561244       -15.2722
  13   2.0000      -0.494008       -13.4426
  14   2.0000      -0.451089       -12.2748
  15   2.0000      -0.430192       -11.7061
  16   2.0000      -0.422378       -11.4935
  17   2.0000      -0.392064       -10.6686
  18   2.0000      -0.384826       -10.4716
  19   2.0000      -0.365290        -9.9400
  20   2.0000      -0.353603        -9.6220
  21   2.0000      -0.340610        -9.2685
  22   2.0000      -0.322564        -8.7774
  23   2.0000      -0.314828        -8.5669
  24   2.0000      -0.308781        -8.4024
  25   2.0000      -0.288921        -7.8619
  26   2.0000      -0.255070        -6.9408
  27   2.0000      -0.217154        -5.9091
  28   0.0000      -0.019781        -0.5383
  29   0.0000       0.042293         1.1508
  30   0.0000       0.061794         1.6815
  31   0.0000       0.078708         2.1417
  32   0.0000       0.088221         2.4006

MULLIKEN ATOMIC CHARGES
-----------------------
   0 C :   -0.299119
   1 C :   -0.147240
   2 C :    0.101313
   3 O :   -0.214923
   4 O :   -0.234763
   5 C :   -0.014911
   6 C :   -0.303826
   7 H :    0.107801
   8 H :    0.111463
   9 H :    0.123578
  10 H :    0.097315
  11 H :    0.113313
  12 H :    0.108012
  13 H :    0.101426
  14 H :    0.125920
  15 H :    0.112186
  16 H :    0.112454
Sum of atomic charges:   -0.0000000

LOEWDIN ATOMIC CHARGES
----------------------
   0 C :   -0.332191
   1 C :   -0.252826
   2 C :    0.037590
   3 O :   -0.175560
   4 O :   -0.066705
   5 C :   -0.113753
   6 C :   -0.355955
   7 H :    0.121155
   8 H :    0.122445
   9 H :    0.127460
  10 H :    0.127327
  11 H :    0.140660
  12 H :    0.119417
  13 H :    0.116789
  14 H :    0.130111
  15 H :    0.130153
  16 H :    0.123883

  Mayer bond orders larger than 0.100000
B(  0-C ,  1-C ) :   1.1419 B(  0-C ,  7-H ) :   0.9569 B(  0-C ,  8-H ) :   0.9534
B(  0-C ,  9-H ) :   0.9492 B(  1-C ,  2-C ) :   1.0229 B(  1-C , 10-H ) :   0.9142
B(  1-C , 11-H ) :   0.9009 B(  2-C ,  3-O ) :   2.0347 B(  2-C ,  4-O ) :   1.2222
B(  4-O ,  5-C ) :   0.9210 B(  5-C ,  6-C ) :   1.1730 B(  5-C , 12-H ) :   0.9125
B(  5-C , 13-H ) :   0.9372 B(  6-C , 14-H ) :   0.9466 B(  6-C , 15-H ) :   0.9446
B(  6-C , 16-H ) :   0.9493

Dispersion correction           -0.011979578
FINAL SINGLE POINT ENERGY      -346.244953956691

DIPOLE MOMENT
-------------

Method             : SCF
Type of density    : Electron Density
Multiplicity       :   1
Irrep              :   0
Energy             :  -346.3095576993625286 Eh
Relativity type    :
Basis              : AO
                                X                 Y                 Z
Electronic contribution:      0.254991187      -0.540039330      -3.910530985
Nuclear contribution   :     -0.007634168       1.147567079       4.116451284
                        -----------------------------------------
Total Dipole Moment    :      0.247357019       0.607527749       0.205920299
                        -----------------------------------------
Magnitude (a.u.)       :      0.687516276
Magnitude (Debye)      :      1.747527496

Rotational constants in cm-1:             0.174936             0.048681             0.048012
Rotational constants in MHz :          5244.439519          1459.410057          1439.368079

                             ****ORCA TERMINATED NORMALLY****
TOTAL RUN TIME: 0 days 0 hours 0 minutes 9 seconds 114 msec
