                         Program Version 6.0.0  -   RELEASE  -
|  1> ! r2scan-3c def2/J RI DEFGRID2 scfconv6 printgap
|  2> %output
|  3>     printlevel normal
|  4> end
|  5> * xyz 0 1
|  6> C -1.7772444806 0.8575946116 -0.1650329896
|  7> C -1.2905700112 -0.5848278397 -0.0663820583
|  8> C 0.0735541185 -0.7553407954 0.6142331655
|  9> O 1.1909454221 -0.4720047558 -0.2143342028
| 10> C 1.6749369433 0.8532642509 -0.1655564246
| 11> H -1.7296694109 1.3440022155 0.8069032284
| 12> H -1.1804880159 1.4291641321 -0.8706794654
| 13> H -2.809086874 0.8757690586 -0.5077911322
| 14> H -1.2300906861 -1.0252052675 -1.0630181914
| 15> H -2.0127879205 -1.1613789857 0.5144672682
| 16> H 0.1221937869 -0.1494971962 1.5281015358
| 17> H 0.1980369243 -1.8081578819 0.8868846219
| 18> H 1.8633437045 1.1619338186 0.8683179534
| 19> H 0.9842230026 1.5613738186 -0.6301422348
| 20> H 2.6112289017 0.8471103666 -0.7197548235
| 21> *
| 22>
| 23>                          ****END OF INPUT****

CARTESIAN COORDINATES (ANGSTROEM)
---------------------------------
  C     -1.777244    0.857595   -0.165033
  C     -1.290570   -0.584828   -0.066382
  C      0.073554   -0.755341    0.614233
  O      1.190945   -0.472005   -0.214334
  C      1.674937    0.853264   -0.165556
  H     -1.729669    1.344002    0.806903
  H     -1.180488    1.429164   -0.870679
  H     -2.809087    0.875769   -0.507791
  H     -1.230091   -1.025205   -1.063018
  H     -2.012788   -1.161379    0.514467
  H      0.122194   -0.149497    1.528102
  H      0.198037   -1.808158    0.886885
  H      1.863344    1.161934    0.868318
  H      0.984223    1.561374   -0.630142
  H      2.611229    0.847110   -0.719755

 Total Charge           Charge          ....    0
 Multiplicity           Mult            ....    1
 Number of Electrons    NEL             ....   42
 Basis Dimension        Dim             ....  150

ORBITAL ENERGIES
----------------

  NO   OCC          E(Eh)            E(eV)
   0   2.0000     -18.945863      -515.5431
   1   2.0000     -10.071692      -274.0647
   2   2.0000     -10.066856      -273.9331
   3   2.0000     -10.026013      -272.8217
   4   2.0000     -10.018922      -272.6287
   5   2.0000      -0.989198       -26.9175
   6   2.0000      -0.746855       -20.3230
   7   2.0000      -0.676711       -18.4142
   8   2.0000      -0.611548       -16.6411
   9   2.0000      -0.549467       -14.9518
  10   2.0000      -0.456448       -12.4206
  11   2.0000      -0.442134       -12.0311
  12   2.0000      -0.423321       -11.5192
  13   2.0000      -0.394929       -10.7466
  14   2.0000      -0.381277       -10.3751
  15   2.0000      -0.359739        -9.7890
  16   2.0000      -0.333587        -9.0774
  17   2.0000      -0.311789        -8.4842
  18   2.0000      -0.307204        -8.3595
  19   2.0000      -0.274777        -7.4771
  20   2.0000      -0.214134        -5.8269
  21   0.0000       0.071282         1.9397
  22   0.0000       0.099533         2.7084
  23   0.0000       0.117730         3.2036
  24   0.0000       0.124947         3.4000
  25   0.0000       0.128374         3.4932

MULLIKEN ATOMIC CHARGES
-----------------------
   0 C :   -0.467273
   1 C :   -0.219484
   2 C :   -0.168094
   3 O :   -0.250450
   4 C :   -0.278618
   5 H :    0.143122
   6 H :    0.142017
   7 H :    0.146087
   8 H :    0.149036
   9 H :    0.133783
  10 H :    0.121294
  11 H :    0.144245
  12 H :    0.132553
  13 H :    0.126190
  14 H :    0.145591
Sum of atomic charges:    0.0000000

LOEWDIN ATOMIC CHARGES
----------------------
   0 C :   -0.427466
   1 C :   -0.303827
   2 C :    0.004292
   3 O :   -0.786516
   4 C :   -0.073915
   5 H :    0.149897
   6 H :    0.149031
   7 H :    0.151416
   8 H :    0.162759
   9 H :    0.155742
  10 H :    0.162479
  11 H :    0.177315
  12 H :    0.154597
  13 H :    0.150701
  14 H :    0.173496

  Mayer bond orders larger than 0.100000
B(  0-C ,  1-C ) :   0.8855 B(  0-C ,  5-H ) :   0.9835 B(  0-C ,  6-H ) :   0.9764
B(  0-C ,  7-H ) :   0.9705 B(  1-C ,  2-C ) :   0.9261 B(  1-C ,  8-H ) :   0.9723
B(  1-C ,  9-H ) :   0.9706 B(  2-C ,  3-O ) :   0.8732 B(  2-C , 10-H ) :   0.9752
B(  2-C , 11-H ) :   0.9756 B(  3-O ,  4-C ) :   0.8952 B(  4-C , 12-H ) :   0.9738
B(  4-C , 13-H ) :   0.9578 B(  4-C , 14-H ) :   0.9757

Dispersion correction           -0.003135524
FINAL SINGLE POINT ENERGY      -233.577495126277

DIPOLE MOMENT
-------------

Method             : SCF
Type of density    : Electron Density
Multiplicity       :   1
Irrep              :   0
Energy             :  -233.5845100854692475 Eh
Relativity type    :
Basis              : AO
                                X                 Y                 Z
Electronic contribution:      2.703170594      -2.553362912      -0.501046862
Nuclear contribution   :     -2.968563690       2.877959150       0.759814098
                        -----------------------------------------
Total Dipole Moment    :     -0.265393096       0.324596238       0.258767236
                        -----------------------------------------
Magnitude (a.u.)       :      0.492703456
Magnitude (Debye)      :      1.252352659

Rotational constants in cm-1:             0.276821             0.108622             0.087198
Rotational constants in MHz :          8298.892617          3256.403523          2614.123051

                             ****ORCA TERMINATED NORMALLY****
TOTAL RUN TIME: 0 days 0 hours 0 minutes 15 seconds 497 msec
