                         Program Version 6.0.0  -   RELEASE  -
|  1> ! r2scan-3c def2/J RI DEFGRID2 scfconv6 printgap
|  2> %output
|  3>     printlevel normal
|  4> end
|  5> %cpcm
|  6>     smd true
|  7>     smdsolvent "water"
|  8> end
|  9> * xyz 0 1
| 10> C -1.7772444806 0.8575946116 -0.1650329896
| 11> C -1.2905700112 -0.5848278397 -0.0663820583
| 12> C 0.0735541185 -0.7553407954 0.6142331655
| 13> O 1.1909454221 -0.4720047558 -0.2143342028
| 14> C 1.6749369433 0.8532642509 -0.1655564246
| 15> H -1.7296694109 1.3440022155 0.8069032284
| 16> H -1.1804880159 1.4291641321 -0.8706794654
| 17> H -2.809086874 0.8757690586 -0.5077911322
| 18> H -1.2300906861 -1.0252052675 -1.0630181914
| 19> H -2.0127879205 -1.1613789857 0.5144672682
| 20> H 0.1221937869 -0.1494971962 1.5281015358
| 21> H 0.1980369243 -1.8081578819 0.8868846219
| 22> H 1.8633437045 1.1619338186 0.8683179534
| 23> H 0.9842230026 1.5613738186 -0.6301422348
| 24> H 2.6112289017 0.8471103666 -0.7197548235
| 25> *
| 26>
| 27>                          ****END OF INPUT****

CARTESIAN COORDINATES (ANGSTROEM)
---------------------------------
  C     -1.777244    0.857595   -0.165033
  C     -1.290570   -0.584828   -0.066382
  C      0.073554   -0.755341    0.614233
  O      1.190945   -0.472005   -0.214334
  C      1.674937    0.853264   -0.165556
  H     -1.729669    1.344002    0.806903
  H     -1.180488    1.429164   -0.870679
  H     -2.809087    0.875769   -0.507791
  H     -1.230091   -1.025205   -1.063018
  H     -2.012788   -1.161379    0.514467
  H      0.122194   -0.149497    1.528102
  H      0.198037   -1.808158    0.886885
  H      1.863344    1.161934    0.868318
  H      0.984223    1.561374   -0.630142
  H      2.611229    0.847110   -0.719755

 Total Charge           Charge          ....    0
 Multiplicity           Mult            ....    1
 Number of Electrons    NEL             ....   42
 Basis Dimension        Dim             ....  150

ORBITAL ENERGIES
----------------

  NO   OCC          E(Eh)            E(eV)
   0   2.0000     -18.952599      -515.7264
   1   2.0000     -10.066578      -273.9255
   2   2.0000     -10.060865      -273.7701
   3   2.0000     -10.018853      -272.6268
   4   2.0000     -10.008960      -272.3576
   5   2.0000      -0.994560       -27.0634
   6   2.0000      -0.740265       -20.1436
   7   2.0000      -0.672385       -18.2965
   8   2.0000      -0.605257       -16.4699
   9   2.0000      -0.543760       -14.7965
  10   2.0000      -0.453341       -12.3360
  11   2.0000      -0.440112       -11.9760
  12   2.0000      -0.419986       -11.4284
  13   2.0000      -0.387919       -10.5558
  14   2.0000      -0.375079       -10.2064
  15   2.0000      -0.352457        -9.5908
  16   2.0000      -0.327719        -8.9177
  17   2.0000      -0.304532        -8.2867
  18   2.0000      -0.299653        -8.1540
  19   2.0000      -0.278431        -7.5765
  20   2.0000      -0.218350        -5.9416
  21   0.0000       0.073371         1.9965
  22   0.0000       0.109312         2.9745
  23   0.0000       0.125095         3.4040
  24   0.0000       0.133124         3.6225
  25   0.0000       0.135069         3.6754

MULLIKEN ATOMIC CHARGES
-----------------------
   0 C :   -0.499400
   1 C :   -0.239877
   2 C :   -0.168927
   3 O :   -0.322706
   4 C :   -0.299654
   5 H :    0.156952
   6 H :    0.154592
   7 H :    0.156491
   8 H :    0.150181
   9 H :    0.151240
  10 H :    0.146133
  11 H :    0.154151
  12 H :    0.153854
  13 H :    0.147921
  14 H :    0.159048
Sum of atomic charges:    0.0000000

LOEWDIN ATOMIC CHARGES
----------------------
   0 C :   -0.434318
   1 C :   -0.304700
   2 C :    0.003565
   3 O :   -0.829366
   4 C :   -0.075758
   5 H :    0.154442
   6 H :    0.152470
   7 H :    0.153742
   8 H :    0.161506
   9 H :    0.162417
  10 H :    0.173133
  11 H :    0.180793
  12 H :    0.164226
  13 H :    0.160078
  14 H :    0.177771

  Mayer bond orders larger than 0.100000
B(  0-C ,  1-C ) :   0.8838 B(  0-C ,  5-H ) :   0.9792 B(  0-C ,  6-H ) :   0.9721
B(  0-C ,  7-H ) :   0.9690 B(  1-C ,  2-C ) :   0.9234 B(  1-C ,  8-H ) :   0.9744
B(  1-C ,  9-H ) :   0.9680 B(  2-C ,  3-O ) :   0.8642 B(  2-C , 10-H ) :   0.9680
B(  2-C , 11-H ) :   0.9705 B(  3-O ,  4-C ) :   0.8855 B(  4-C , 12-H ) :   0.9676
B(  4-C , 13-H ) :   0.9534 B(  4-C , 14-H ) :   0.9692

Dispersion correction           -0.003135524
FINAL SINGLE POINT ENERGY      -233.579515247614

DIPOLE MOMENT
-------------

Method             : SCF
Type of density    : Electron Density
Multiplicity       :   1
Irrep              :   0
Energy             :  -233.5865302068058611 Eh
Relativity type    :
Basis              : AO
                                X                 Y                 Z
Electronic contribution:      2.588430575      -2.385385031      -0.341671803
Nuclear contribution   :     -2.968563690       2.877959150       0.759814098
                        -----------------------------------------
Total Dipole Moment    :     -0.380133115       0.492574119       0.418142295
                        -----------------------------------------
Magnitude (a.u.)       :      0.749648869
Magnitude (Debye)      :      1.905455996

Rotational constants in cm-1:             0.276821             0.108622             0.087198
Rotational constants in MHz :          8298.892617          3256.403523          2614.123051

                             ****ORCA TERMINATED NORMALLY****
TOTAL RUN TIME: 0 days 0 hours 0 minutes 20 seconds 169 msec
