                         Program Version 6.0.0  -   RELEASE  -
|  1> ! r2scan-3c def2/J RI DEFGRID2 scfconv6 printgap
|  2> %output
|  3>     printlevel normal
|  4> end
|  5> * xyz 0 1
|  6> C -0.1948564433 -2.5779153637 0.0175457046
|  7> C 0.0434857991 -1.0984416331 -0.2108086001
|  8> O 1.2778993933 -0.7575417656 0.3983728324
|  9> C 1.74346033 0.4938081069 0.2529274026
| 10> O 1.1490758232 1.346338817 -0.368336136
| 11> C 3.0583316344 0.6673543221 0.9386114748
| 12> O -0.9754958582 -0.3250248935 0.4094518816
| 13> C -1.7473688714 0.4682768593 -0.3527851308
| 14> O -1.711320223 0.4583801887 -1.5607155001
| 15> C -2.6373351832 1.321194342 0.4894084147
| 16> H -1.120674401 -2.8716657274 -0.4662952964
| 17> H -0.2610770683 -2.764411657 1.085084531
| 18> H 0.6339995589 -3.1385855617 -0.4007411184
| 19> H 0.07249303 -0.8304841229 -1.278664884
| 20> H 3.2797699354 -0.2064795098 1.5407424758
| 21> H 3.8270156286 0.8036554573 0.181064965
| 22> H 3.0298990459 1.566646188 1.5476027723
| 23> H -2.1149134235 2.2577752417 0.6775149049
| 24> H -3.5542307174 1.5371451444 -0.0493496837
| 25> H -2.8340834992 0.8313029496 1.4369603079
| 26> *
| 27>
| 28>                          ****END OF INPUT****

CARTESIAN COORDINATES (ANGSTROEM)
---------------------------------
  C     -0.194856   -2.577915    0.017546
  C      0.043486   -1.098442   -0.210809
  O      1.277899   -0.757542    0.398373
  C      1.743460    0.493808    0.252927
  O      1.149076    1.346339   -0.368336
  C      3.058332    0.667354    0.938611
  O     -0.975496   -0.325025    0.409452
  C     -1.747369    0.468277   -0.352785
  O     -1.711320    0.458380   -1.560716
  C     -2.637335    1.321194    0.489408
  H     -1.120674   -2.871666   -0.466295
  H     -0.261077   -2.764412    1.085085
  H      0.634000   -3.138586   -0.400741
  H      0.072493   -0.830484   -1.278665
  H      3.279770   -0.206480    1.540742
  H      3.827016    0.803655    0.181065
  H      3.029899    1.566646    1.547603
  H     -2.114913    2.257775    0.677515
  H     -3.554231    1.537145   -0.049350
  H     -2.834083    0.831303    1.436960

 Total Charge           Charge          ....    0
 Multiplicity           Mult            ....    1
 Number of Electrons    NEL             ....   78
 Basis Dimension        Dim             ....  260

ORBITAL ENERGIES
----------------

  NO   OCC          E(Eh)            E(eV)
   0   2.0000     -19.008227      -517.2402
   1   2.0000     -19.001359      -517.0533
   2   2.0000     -18.938351      -515.3387
   3   2.0000     -18.930819      -515.1338
   4   2.0000     -10.166535      -276.6455
   5   2.0000     -10.159891      -276.4647
   6   2.0000     -10.156121      -276.3621
   7   2.0000     -10.046515      -273.3796
   8   2.0000     -10.040746      -273.2226
   9   2.0000     -10.039540      -273.1898
  10   2.0000      -1.100614       -29.9492
  11   2.0000      -1.061950       -28.8971
  12   2.0000      -0.992568       -27.0092
  13   2.0000      -0.974977       -26.5305
  14   2.0000      -0.773640       -21.0518
  15   2.0000      -0.726854       -19.7787
  16   2.0000      -0.711906       -19.3719
  17   2.0000      -0.631943       -17.1960
  18   2.0000      -0.586155       -15.9501
  19   2.0000      -0.536048       -14.5866
  20   2.0000      -0.472390       -12.8544
  21   2.0000      -0.462409       -12.5828
  22   2.0000      -0.455110       -12.3842
  23   2.0000      -0.442542       -12.0422
  24   2.0000      -0.434000       -11.8097
  25   2.0000      -0.425933       -11.5902
  26   2.0000      -0.398093       -10.8327
  27   2.0000      -0.393368       -10.7041
  28   2.0000      -0.385230       -10.4826
  29   2.0000      -0.376121       -10.2348
  30   2.0000      -0.375329       -10.2132
  31   2.0000      -0.366450        -9.9716
  32   2.0000      -0.345511        -9.4018
  33   2.0000      -0.342543        -9.3211
  34   2.0000      -0.317254        -8.6329
  35   2.0000      -0.291631        -7.9357
  36   2.0000      -0.280603        -7.6356
  37   2.0000      -0.245423        -6.6783
  38   2.0000      -0.238153        -6.4805
  39   0.0000      -0.027931        -0.7600
  40   0.0000      -0.017220        -0.4686
  41   0.0000       0.073865         2.0100
  42   0.0000       0.092012         2.5038
  43   0.0000       0.105425         2.8688

MULLIKEN ATOMIC CHARGES
-----------------------
   0 C :   -0.481920
   1 C :    0.021943
   2 O :   -0.137084
   3 C :    0.434286
   4 O :   -0.393022
   5 C :   -0.540510
   6 O :   -0.112027
   7 C :    0.422008
   8 O :   -0.407589
   9 C :   -0.541815
  10 H :    0.162408
  11 H :    0.168323
  12 H :    0.160077
  13 H :    0.185808
  14 H :    0.175203
  15 H :    0.178055
  16 H :    0.175934
  17 H :    0.186642
  18 H :    0.174655
  19 H :    0.168626
Sum of atomic charges:   -0.0000000

LOEWDIN ATOMIC CHARGES
----------------------
   0 C :   -0.337753
   1 C :    0.318929
   2 O :   -0.530196
   3 C :    0.369590
   4 O :   -0.395980
   5 C :   -0.331944
   6 O :   -0.526612
   7 C :    0.366372
   8 O :   -0.417881
   9 C :   -0.332153
  10 H :    0.169627
  11 H :    0.171663
  12 H :    0.169368
  13 H :    0.225702
  14 H :    0.176169
  15 H :    0.183728
  16 H :    0.180785
  17 H :    0.187672
  18 H :    0.176874
  19 H :    0.176041

  Mayer bond orders larger than 0.100000
B(  0-C ,  1-C ) :   0.9300 B(  0-C , 10-H ) :   0.9675 B(  0-C , 11-H ) :   0.9778
B(  0-C , 12-H ) :   0.9683 B(  1-C ,  2-O ) :   0.9212 B(  1-C ,  6-O ) :   0.7874
B(  1-C , 13-H ) :   0.9375 B(  2-O ,  3-C ) :   0.9968 B(  3-C ,  4-O ) :   1.7968
B(  3-C ,  5-C ) :   0.9163 B(  5-C , 14-H ) :   0.9906 B(  5-C , 15-H ) :   0.9459
B(  5-C , 16-H ) :   0.9613 B(  6-O ,  7-C ) :   0.9610 B(  7-C ,  8-O ) :   1.8769
B(  7-C ,  9-C ) :   0.9411 B(  9-C , 17-H ) :   0.9363 B(  9-C , 18-H ) :   0.9787
B(  9-C , 19-H ) :   0.9755

Dispersion correction           -0.005635920
FINAL SINGLE POINT ENERGY      -535.491549434507

DIPOLE MOMENT
-------------

Method             : SCF
Type of density    : Electron Density
Multiplicity       :   1
Irrep              :   0
Energy             :  -535.5005072065810054 Eh
Relativity type    :
Basis              : AO
                                X                 Y                 Z
Electronic contribution:     -0.494061258       1.953271336      -2.946573720
Nuclear contribution   :      0.895103081      -2.630344956       3.993051245
                        -----------------------------------------
Total Dipole Moment    :      0.401041824      -0.677073620       1.046477525
                        -----------------------------------------
Magnitude (a.u.)       :      1.309342752
Magnitude (Debye)      :      3.328084788

Rotational constants in cm-1:             0.063498             0.032747             0.025437
Rotational constants in MHz :          1903.607846           981.727527           762.582727

                             ****ORCA TERMINATED NORMALLY****
TOTAL RUN TIME: 0 days 0 hours 0 minutes 35 seconds 457 msec
