                         Program Version 6.0.0  -   RELEASE  -
|  1> ! r2scan-3c def2/J RI DEFGRID2 scfconv6 printgap
|  2> %output
|  3>     printlevel normal
|  4> end
|  5> %cpcm
|  6>     smd true
|  7>     smdsolvent "water"
|  8> end
|  9> * xyz 0 1
| 10> C -0.1948564433 -2.5779153637 0.0175457046
| 11> C 0.0434857991 -1.0984416331 -0.2108086001
| 12> O 1.2778993933 -0.7575417656 0.3983728324
| 13> C 1.74346033 0.4938081069 0.2529274026
| 14> O 1.1490758232 1.346338817 -0.368336136
| 15> C 3.0583316344 0.6673543221 0.9386114748
| 16> O -0.9754958582 -0.3250248935 0.4094518816
| 17> C -1.7473688714 0.4682768593 -0.3527851308
| 18> O -1.711320223 0.4583801887 -1.5607155001
| 19> C -2.6373351832 1.321194342 0.4894084147
| 20> H -1.120674401 -2.8716657274 -0.4662952964
| 21> H -0.2610770683 -2.764411657 1.085084531
| 22> H 0.6339995589 -3.1385855617 -0.4007411184
| 23> H 0.07249303 -0.8304841229 -1.278664884
| 24> H 3.2797699354 -0.2064795098 1.5407424758
| 25> H 3.8270156286 0.8036554573 0.181064965
| 26> H 3.0298990459 1.566646188 1.5476027723
| 27> H -2.1149134235 2.2577752417 0.6775149049
| 28> H -3.5542307174 1.5371451444 -0.0493496837
| 29> H -2.8340834992 0.8313029496 1.4369603079
| 30> *
| 31>
| 32>                          ****END OF INPUT****

CARTESIAN COORDINATES (ANGSTROEM)
---------------------------------
  C     -0.194856   -2.577915    0.017546
  C      0.043486   -1.098442   -0.210809
  O      1.277899   -0.757542    0.398373
  C      1.743460    0.493808    0.252927
  O      1.149076    1.346339   -0.368336
  C      3.058332    0.667354    0.938611
  O     -0.975496   -0.325025    0.409452
  C     -1.747369    0.468277   -0.352785
  O     -1.711320    0.458380   -1.560716
  C     -2.637335    1.321194    0.489408
  H     -1.120674   -2.871666   -0.466295
  H     -0.261077   -2.764412    1.085085
  H      0.634000   -3.138586   -0.400741
  H      0.072493   -0.830484   -1.278665
  H      3.279770   -0.206480    1.540742
  H      3.827016    0.803655    0.181065
  H      3.029899    1.566646    1.547603
  H     -2.114913    2.257775    0.677515
  H     -3.554231    1.537145   -0.049350
  H     -2.834083    0.831303    1.436960

 Total Charge           Charge          ....    0
 Multiplicity           Mult            ....    1
 Number of Electrons    NEL             ....   78
 Basis Dimension        Dim             ....  260

ORBITAL ENERGIES
----------------

  NO   OCC          E(Eh)            E(eV)
   0   2.0000     -19.012644      -517.3604
   1   2.0000     -19.010013      -517.2887
   2   2.0000     -18.951176      -515.6877
   3   2.0000     -18.949940      -515.6541
   4   2.0000     -10.174320      -276.8573
   5   2.0000     -10.173859      -276.8448
   6   2.0000     -10.154489      -276.3177
   7   2.0000     -10.033263      -273.0190
   8   2.0000     -10.033252      -273.0187
   9   2.0000     -10.027180      -272.8534
  10   2.0000      -1.107443       -30.1351
  11   2.0000      -1.072058       -29.1722
  12   2.0000      -1.006792       -27.3962
  13   2.0000      -0.989007       -26.9123
  14   2.0000      -0.771385       -20.9905
  15   2.0000      -0.722043       -19.6478
  16   2.0000      -0.703961       -19.1558
  17   2.0000      -0.626498       -17.0479
  18   2.0000      -0.587427       -15.9847
  19   2.0000      -0.538048       -14.6410
  20   2.0000      -0.475201       -12.9309
  21   2.0000      -0.472243       -12.8504
  22   2.0000      -0.466129       -12.6840
  23   2.0000      -0.445032       -12.1099
  24   2.0000      -0.436273       -11.8716
  25   2.0000      -0.431999       -11.7553
  26   2.0000      -0.393086       -10.6964
  27   2.0000      -0.383346       -10.4314
  28   2.0000      -0.379905       -10.3377
  29   2.0000      -0.372435       -10.1345
  30   2.0000      -0.365240        -9.9387
  31   2.0000      -0.359406        -9.7799
  32   2.0000      -0.348028        -9.4703
  33   2.0000      -0.346693        -9.4340
  34   2.0000      -0.321606        -8.7513
  35   2.0000      -0.301631        -8.2078
  36   2.0000      -0.291952        -7.9444
  37   2.0000      -0.260395        -7.0857
  38   2.0000      -0.255507        -6.9527
  39   0.0000      -0.032709        -0.8901
  40   0.0000      -0.028689        -0.7807
  41   0.0000       0.076131         2.0716
  42   0.0000       0.096951         2.6382
  43   0.0000       0.114122         3.1054

MULLIKEN ATOMIC CHARGES
-----------------------
   0 C :   -0.527739
   1 C :    0.021369
   2 O :   -0.143485
   3 C :    0.485200
   4 O :   -0.472129
   5 C :   -0.576549
   6 O :   -0.122908
   7 C :    0.449471
   8 O :   -0.493975
   9 C :   -0.563741
  10 H :    0.181316
  11 H :    0.184344
  12 H :    0.183372
  13 H :    0.200540
  14 H :    0.193051
  15 H :    0.206603
  16 H :    0.198625
  17 H :    0.211011
  18 H :    0.191956
  19 H :    0.193668
Sum of atomic charges:   -0.0000000

LOEWDIN ATOMIC CHARGES
----------------------
   0 C :   -0.337085
   1 C :    0.322183
   2 O :   -0.525081
   3 C :    0.383050
   4 O :   -0.453822
   5 C :   -0.328246
   6 O :   -0.526264
   7 C :    0.373634
   8 O :   -0.479518
   9 C :   -0.328211
  10 H :    0.177063
  11 H :    0.176803
  12 H :    0.178228
  13 H :    0.227609
  14 H :    0.184828
  15 H :    0.195386
  16 H :    0.190039
  17 H :    0.197629
  18 H :    0.184285
  19 H :    0.187490

  Mayer bond orders larger than 0.100000
B(  0-C ,  1-C ) :   0.9373 B(  0-C , 10-H ) :   0.9592 B(  0-C , 11-H ) :   0.9719
B(  0-C , 12-H ) :   0.9606 B(  1-C ,  2-O ) :   0.9039 B(  1-C ,  6-O ) :   0.7690
B(  1-C , 13-H ) :   0.9301 B(  2-O ,  3-C ) :   1.0194 B(  3-C ,  4-O ) :   1.7305
B(  3-C ,  5-C ) :   0.9156 B(  5-C , 14-H ) :   0.9798 B(  5-C , 15-H ) :   0.9325
B(  5-C , 16-H ) :   0.9504 B(  6-O ,  7-C ) :   0.9863 B(  7-C ,  8-O ) :   1.7976
B(  7-C ,  9-C ) :   0.9508 B(  9-C , 17-H ) :   0.9200 B(  9-C , 18-H ) :   0.9686
B(  9-C , 19-H ) :   0.9637

Dispersion correction           -0.005635920
FINAL SINGLE POINT ENERGY      -535.502972043790

DIPOLE MOMENT
-------------

Method             : SCF
Type of density    : Electron Density
Multiplicity       :   1
Irrep              :   0
Energy             :  -535.5119298158647325 Eh
Relativity type    :
Basis              : AO
                                X                 Y                 Z
Electronic contribution:     -0.345380270       1.631387385      -2.499991521
Nuclear contribution   :      0.895103081      -2.630344956       3.993051245
                        -----------------------------------------
Total Dipole Moment    :      0.549722811      -0.998957570       1.493059724
                        -----------------------------------------
Magnitude (a.u.)       :      1.878653437
Magnitude (Debye)      :      4.775157549

Rotational constants in cm-1:             0.063498             0.032747             0.025437
Rotational constants in MHz :          1903.607846           981.727527           762.582727

                             ****ORCA TERMINATED NORMALLY****
TOTAL RUN TIME: 0 days 0 hours 0 minutes 41 seconds 936 msec
