                         Program Version 6.0.0  -   RELEASE  -
|  1> ! pbe def2-sv(p) def2/J RI DEFGRID1 loosescf d4 GCP(DFT/SV(P)) printgap
|  2> %output
|  3>     printlevel normal
|  4> end
|  5> * xyz 0 1
|  6> C -3.2430791513 1.1810413423 0.1925843915
|  7> C -1.9011799307 0.79140354 -0.3325371484
|  8> O -1.689623526 0.1933262063 -1.3642628399
|  9> O -0.9242199708 1.2114837041 0.4848697857
| 10> C 0.3930046044 0.8341218756 0.2552208918
| 11> C 1.3410754907 1.8421551329 0.1708653672
| 12> C 2.6711954734 1.5221538416 -0.0380960592
| 13> C 3.0555261521 0.1978992908 -0.1823378701
| 14> C 2.1126361606 -0.8079845171 -0.0998105243
| 15> C 0.770317852 -0.5068298328 0.131009585
| 16> C -0.2187599652 -1.5982867493 0.2739878668
| 17> O -1.2627876208 -1.5073762702 0.8946672836
| 18> O 0.1550082825 -2.7188549532 -0.3190107938
| 19> H -3.9570280548 1.2343208611 -0.6226189397
| 20> H -3.1760039064 2.1211332672 0.7302871867
| 21> H -3.552690297 0.4026670442 0.8889386876
| 22> H 1.0179729165 2.8657235696 0.2709135818
| 23> H 3.4042594275 2.3105319285 -0.0962933279
| 24> H 4.0897255858 -0.050706348 -0.3564223384
| 25> H 2.3978156656 -1.842786895 -0.2010069167
| 26> H -0.5017534378 -3.4344257861 -0.2120864226
| 27> *
| 28>
| 29>                          ****END OF INPUT****

CARTESIAN COORDINATES (ANGSTROEM)
---------------------------------
  C     -3.243079    1.181041    0.192584
  C     -1.901180    0.791404   -0.332537
  O     -1.689624    0.193326   -1.364263
  O     -0.924220    1.211484    0.484870
  C      0.393005    0.834122    0.255221
  C      1.341075    1.842155    0.170865
  C      2.671195    1.522154   -0.038096
  C      3.055526    0.197899   -0.182338
  C      2.112636   -0.807985   -0.099811
  C      0.770318   -0.506830    0.131010
  C     -0.218760   -1.598287    0.273988
  O     -1.262788   -1.507376    0.894667
  O      0.155008   -2.718855   -0.319011
  H     -3.957028    1.234321   -0.622619
  H     -3.176004    2.121133    0.730287
  H     -3.552690    0.402667    0.888939
  H      1.017973    2.865724    0.270914
  H      3.404259    2.310532   -0.096293
  H      4.089726   -0.050706   -0.356422
  H      2.397816   -1.842787   -0.201007
  H     -0.501753   -3.434426   -0.212086

 Total Charge           Charge          ....    0
 Multiplicity           Mult            ....    1
 Number of Electrons    NEL             ....   94
 Basis Dimension        Dim             ....  198

ORBITAL ENERGIES
----------------

  NO   OCC          E(Eh)            E(eV)
   0   2.0000     -18.813085      -511.9301
   1   2.0000     -18.803370      -511.6657
   2   2.0000     -18.741015      -509.9689
   3   2.0000     -18.734722      -509.7977
   4   2.0000     -10.021174      -272.6900
   5   2.0000     -10.014622      -272.5117
   6   2.0000      -9.974037      -271.4073
   7   2.0000      -9.920789      -269.9584
   8   2.0000      -9.911797      -269.7137
   9   2.0000      -9.909881      -269.6616
  10   2.0000      -9.908936      -269.6359
  11   2.0000      -9.904740      -269.5217
  12   2.0000      -9.890581      -269.1364
  13   2.0000      -1.020671       -27.7739
  14   2.0000      -1.011751       -27.5312
  15   2.0000      -0.917950       -24.9787
  16   2.0000      -0.913917       -24.8689
  17   2.0000      -0.795371       -21.6432
  18   2.0000      -0.709302       -19.3011
  19   2.0000      -0.704947       -19.1826
  20   2.0000      -0.664820       -18.0907
  21   2.0000      -0.615348       -16.7445
  22   2.0000      -0.580834       -15.8053
  23   2.0000      -0.567717       -15.4484
  24   2.0000      -0.517998       -14.0954
  25   2.0000      -0.478105       -13.0099
  26   2.0000      -0.448107       -12.1936
  27   2.0000      -0.435444       -11.8490
  28   2.0000      -0.432509       -11.7692
  29   2.0000      -0.422984       -11.5100
  30   2.0000      -0.415173       -11.2974
  31   2.0000      -0.405917       -11.0456
  32   2.0000      -0.399102       -10.8601
  33   2.0000      -0.395408       -10.7596
  34   2.0000      -0.363402        -9.8887
  35   2.0000      -0.357689        -9.7332
  36   2.0000      -0.350090        -9.5264
  37   2.0000      -0.343305        -9.3418
  38   2.0000      -0.333685        -9.0800
  39   2.0000      -0.325826        -8.8662
  40   2.0000      -0.316117        -8.6020
  41   2.0000      -0.285218        -7.7612
  42   2.0000      -0.269195        -7.3252
  43   2.0000      -0.248765        -6.7692
  44   2.0000      -0.230446        -6.2708
  45   2.0000      -0.225742        -6.1428
  46   2.0000      -0.220926        -6.0117
  47   0.0000      -0.079777        -2.1709
  48   0.0000      -0.050108        -1.3635
  49   0.0000      -0.016970        -0.4618
  50   0.0000       0.010649         0.2898
  51   0.0000       0.023387         0.6364

MULLIKEN ATOMIC CHARGES
-----------------------
   0 C :   -0.240625
   1 C :    0.106373
   2 O :   -0.198824
   3 O :   -0.205025
   4 C :    0.205177
   5 C :   -0.113189
   6 C :   -0.036125
   7 C :   -0.028618
   8 C :   -0.111573
   9 C :    0.018958
  10 C :    0.126825
  11 O :   -0.194197
  12 O :   -0.279374
  13 H :    0.124418
  14 H :    0.119660
  15 H :    0.145237
  16 H :    0.050325
  17 H :    0.064924
  18 H :    0.059841
  19 H :    0.063704
  20 H :    0.322108
Sum of atomic charges:    0.0000000

LOEWDIN ATOMIC CHARGES
----------------------
   0 C :   -0.356007
   1 C :    0.047850
   2 O :   -0.156425
   3 O :   -0.022534
   4 C :    0.067527
   5 C :   -0.127468
   6 C :   -0.102825
   7 C :   -0.125469
   8 C :   -0.091493
   9 C :   -0.080809
  10 C :    0.040021
  11 O :   -0.171847
  12 O :   -0.189341
  13 H :    0.141191
  14 H :    0.138150
  15 H :    0.157682
  16 H :    0.135461
  17 H :    0.129884
  18 H :    0.128402
  19 H :    0.134355
  20 H :    0.303692

  Mayer bond orders larger than 0.100000
B(  0-C ,  1-C ) :   1.1003 B(  0-C , 13-H ) :   0.9373 B(  0-C , 14-H ) :   0.9307
B(  0-C , 15-H ) :   0.9140 B(  1-C ,  2-O ) :   2.0822 B(  1-C ,  3-O ) :   1.1007
B(  3-O ,  4-C ) :   1.0072 B(  4-C ,  5-C ) :   1.4071 B(  4-C ,  9-C ) :   1.3682
B(  5-C ,  6-C ) :   1.3376 B(  5-C , 16-H ) :   0.9650 B(  6-C ,  7-C ) :   1.3573
B(  6-C , 17-H ) :   0.9644 B(  7-C ,  8-C ) :   1.3571 B(  7-C , 18-H ) :   0.9678
B(  8-C ,  9-C ) :   1.3626 B(  8-C , 19-H ) :   0.9605 B(  9-C , 10-C ) :   0.9249
B( 10-C , 11-O ) :   2.0554 B( 10-C , 12-O ) :   1.3183 B( 12-O , 20-H ) :   0.8184

Dispersion correction           -0.024994627
FINAL SINGLE POINT ENERGY      -647.389514636651

DIPOLE MOMENT
-------------

Method             : SCF
Type of density    : Electron Density
Multiplicity       :   1
Irrep              :   0
Energy             :  -647.4578036763052751 Eh
Relativity type    :
Basis              : AO
                                X                 Y                 Z
Electronic contribution:      0.836667024      -3.296627382      -0.135266859
Nuclear contribution   :     -0.315635090       3.341704136       0.372377427
                        -----------------------------------------
Total Dipole Moment    :      0.521031934       0.045076754       0.237110568
                        -----------------------------------------
Magnitude (a.u.)       :      0.574219132
Magnitude (Debye)      :      1.459549041

Rotational constants in cm-1:             0.040941             0.025295             0.017395
Rotational constants in MHz :          1227.375775           758.328522           521.492535

                             ****ORCA TERMINATED NORMALLY****
TOTAL RUN TIME: 0 days 0 hours 0 minutes 15 seconds 955 msec
