                         Program Version 6.0.0  -   RELEASE  -
|  1> ! pbe def2-sv(p) def2/J RI DEFGRID1 loosescf d4 GCP(DFT/SV(P)) printgap
|  2> %output
|  3>     printlevel normal
|  4> end
|  5> * xyz 0 1
|  6> C -3.0257616403 0.6052851029 0.0909911995
|  7> C -1.7201463336 -0.1296090896 0.3818384492
|  8> C -1.5264040188 -1.2976158953 -0.5819223637
|  9> C -0.5507845814 0.8545119003 0.2822733217
| 10> O 0.662303564 0.2482064136 0.7447265671
| 11> C 1.6508797392 0.0270755098 -0.1132636131
| 12> O 1.6090889782 0.3311645079 -1.2881569556
| 13> C 2.8200150244 -0.6316172414 0.5568677005
| 14> H -3.8642431974 -0.0805694752 0.1701323179
| 15> H -3.0099634379 1.0169407403 -0.9152728909
| 16> H -3.1757673002 1.4186258458 0.7958214427
| 17> H -1.7420397073 -0.5161047802 1.4058374696
| 18> H -2.3549260415 -1.9957761109 -0.5005975339
| 19> H -0.604797143 -1.8318960973 -0.3597386869
| 20> H -1.4723890456 -0.9378924879 -1.6076535924
| 21> H -0.4075813396 1.1856937361 -0.7511678736
| 22> H -0.7210160579 1.7193851377 0.9277816325
| 23> H 3.6806214273 0.029284897 0.490862757
| 24> H 3.0635325218 -1.5481670546 0.025968735
| 25> H 2.5833466859 -0.8403745309 1.5943028349
| 26> *
| 27>
| 28>                          ****END OF INPUT****

CARTESIAN COORDINATES (ANGSTROEM)
---------------------------------
  C     -3.025762    0.605285    0.090991
  C     -1.720146   -0.129609    0.381838
  C     -1.526404   -1.297616   -0.581922
  C     -0.550785    0.854512    0.282273
  O      0.662304    0.248206    0.744727
  C      1.650880    0.027076   -0.113264
  O      1.609089    0.331165   -1.288157
  C      2.820015   -0.631617    0.556868
  H     -3.864243   -0.080569    0.170132
  H     -3.009963    1.016941   -0.915273
  H     -3.175767    1.418626    0.795821
  H     -1.742040   -0.516105    1.405837
  H     -2.354926   -1.995776   -0.500598
  H     -0.604797   -1.831896   -0.359739
  H     -1.472389   -0.937892   -1.607654
  H     -0.407581    1.185694   -0.751168
  H     -0.721016    1.719385    0.927782
  H      3.680621    0.029285    0.490863
  H      3.063533   -1.548167    0.025969
  H      2.583347   -0.840375    1.594303

 Total Charge           Charge          ....    0
 Multiplicity           Mult            ....    1
 Number of Electrons    NEL             ....   64
 Basis Dimension        Dim             ....  136

ORBITAL ENERGIES
----------------

  NO   OCC          E(Eh)            E(eV)
   0   2.0000     -18.797838      -511.5152
   1   2.0000     -18.728578      -509.6305
   2   2.0000     -10.007695      -272.3232
   3   2.0000      -9.939712      -270.4733
   4   2.0000      -9.903364      -269.4842
   5   2.0000      -9.893146      -269.2062
   6   2.0000      -9.883528      -268.9445
   7   2.0000      -9.877252      -268.7737
   8   2.0000      -1.003624       -27.3100
   9   2.0000      -0.907331       -24.6897
  10   2.0000      -0.738355       -20.0916
  11   2.0000      -0.684872       -18.6363
  12   2.0000      -0.624991       -17.0069
  13   2.0000      -0.617722       -16.8091
  14   2.0000      -0.524528       -14.2731
  15   2.0000      -0.501474       -13.6458
  16   2.0000      -0.445986       -12.1359
  17   2.0000      -0.431950       -11.7540
  18   2.0000      -0.415306       -11.3010
  19   2.0000      -0.408443       -11.1143
  20   2.0000      -0.392866       -10.6904
  21   2.0000      -0.374456       -10.1895
  22   2.0000      -0.358939        -9.7672
  23   2.0000      -0.349290        -9.5047
  24   2.0000      -0.341164        -9.2836
  25   2.0000      -0.337435        -9.1821
  26   2.0000      -0.308447        -8.3933
  27   2.0000      -0.304867        -8.2959
  28   2.0000      -0.299405        -8.1472
  29   2.0000      -0.285309        -7.7637
  30   2.0000      -0.249697        -6.7946
  31   2.0000      -0.217423        -5.9164
  32   0.0000      -0.018555        -0.5049
  33   0.0000       0.033742         0.9182
  34   0.0000       0.049573         1.3489
  35   0.0000       0.071708         1.9513
  36   0.0000       0.078837         2.1453

MULLIKEN ATOMIC CHARGES
-----------------------
   0 C :   -0.251491
   1 C :   -0.200203
   2 C :   -0.253749
   3 C :    0.034451
   4 O :   -0.238148
   5 C :    0.084572
   6 O :   -0.213044
   7 C :   -0.253312
   8 H :    0.107193
   9 H :    0.100177
  10 H :    0.102770
  11 H :    0.082282
  12 H :    0.101746
  13 H :    0.111759
  14 H :    0.104026
  15 H :    0.104041
  16 H :    0.093770
  17 H :    0.134437
  18 H :    0.132770
  19 H :    0.115955
Sum of atomic charges:    0.0000000

LOEWDIN ATOMIC CHARGES
----------------------
   0 C :   -0.327551
   1 C :   -0.169651
   2 C :   -0.331110
   3 C :   -0.103290
   4 O :   -0.064311
   5 C :    0.028447
   6 O :   -0.176665
   7 C :   -0.360198
   8 H :    0.122889
   9 H :    0.120230
  10 H :    0.118652
  11 H :    0.118539
  12 H :    0.119304
  13 H :    0.119499
  14 H :    0.122401
  15 H :    0.119734
  16 H :    0.114882
  17 H :    0.148475
  18 H :    0.146648
  19 H :    0.133076

  Mayer bond orders larger than 0.100000
B(  0-C ,  1-C ) :   1.1032 B(  0-C ,  8-H ) :   0.9504 B(  0-C ,  9-H ) :   0.9490
B(  0-C , 10-H ) :   0.9495 B(  1-C ,  2-C ) :   1.1098 B(  1-C ,  3-C ) :   1.0834
B(  1-C , 11-H ) :   0.9005 B(  2-C , 12-H ) :   0.9506 B(  2-C , 13-H ) :   0.9434
B(  2-C , 14-H ) :   0.9492 B(  3-C ,  4-O ) :   0.9313 B(  3-C , 15-H ) :   0.8932
B(  3-C , 16-H ) :   0.9289 B(  4-O ,  5-C ) :   1.1995 B(  5-C ,  6-O ) :   2.0503
B(  5-C ,  7-C ) :   1.0788 B(  7-C , 17-H ) :   0.9285 B(  7-C , 18-H ) :   0.9321
B(  7-C , 19-H ) :   0.9384

Dispersion correction           -0.015592143
FINAL SINGLE POINT ENERGY      -385.457909860273

DIPOLE MOMENT
-------------

Method             : SCF
Type of density    : Electron Density
Multiplicity       :   1
Irrep              :   0
Energy             :  -385.5327834298532252 Eh
Relativity type    :
Basis              : AO
                                X                 Y                 Z
Electronic contribution:      7.179529966       2.088855556      -0.520790832
Nuclear contribution   :     -7.495316040      -2.225043345       1.189302139
                        -----------------------------------------
Total Dipole Moment    :     -0.315786073      -0.136187789       0.668511307
                        -----------------------------------------
Magnitude (a.u.)       :      0.751781435
Magnitude (Debye)      :      1.910876548

Rotational constants in cm-1:             0.145068             0.034886             0.034069
Rotational constants in MHz :          4349.039115          1045.847906          1021.375782

                             ****ORCA TERMINATED NORMALLY****
TOTAL RUN TIME: 0 days 0 hours 0 minutes 12 seconds 250 msec
