                         Program Version 6.0.0  -   RELEASE  -
|  1> ! r2scan-3c def2/J RI DEFGRID2 scfconv6 printgap
|  2> %output
|  3>     printlevel normal
|  4> end
|  5> * xyz 0 1
|  6> C -2.7807686988 0.8803410071 0.0760320594
|  7> C -1.5333903423 0.0302704328 0.2992075541
|  8> C -1.8939409372 -1.4473575702 0.4310057631
|  9> C -0.554773617 0.239330047 -0.8607663135
| 10> O 0.6798772973 -0.4530958606 -0.6406581593
| 11> C 1.64113224 0.1659391885 0.0353427323
| 12> O 1.5427958676 1.3015334602 0.4541828787
| 13> C 2.8452232961 -0.71051973 0.2087297797
| 14> H -3.478168671 0.7391268666 0.8968357003
| 15> H -3.2722932067 0.593034815 -0.8500868846
| 16> H -2.5221793118 1.934681238 0.020111618
| 17> H -1.0337500788 0.3630062185 1.2165915457
| 18> H -0.995061328 -2.0507913748 0.530589966
| 19> H -2.4378956557 -1.7799005887 -0.4497677421
| 20> H -2.5185348873 -1.6061581411 1.3058196206
| 21> H -0.9533711683 -0.1790742973 -1.7859646977
| 22> H -0.3406222154 1.3052825194 -0.9875094974
| 23> H 3.7458968951 -0.1198407085 0.0713838682
| 24> H 2.8061229084 -1.5367924375 -0.4925974755
| 25> H 2.8460928279 -1.0967154635 1.2258427517
| 26> *
| 27>
| 28>                          ****END OF INPUT****

CARTESIAN COORDINATES (ANGSTROEM)
---------------------------------
  C     -2.780769    0.880341    0.076032
  C     -1.533390    0.030270    0.299208
  C     -1.893941   -1.447358    0.431006
  C     -0.554774    0.239330   -0.860766
  O      0.679877   -0.453096   -0.640658
  C      1.641132    0.165939    0.035343
  O      1.542796    1.301533    0.454183
  C      2.845223   -0.710520    0.208730
  H     -3.478169    0.739127    0.896836
  H     -3.272293    0.593035   -0.850087
  H     -2.522179    1.934681    0.020112
  H     -1.033750    0.363006    1.216592
  H     -0.995061   -2.050791    0.530590
  H     -2.437896   -1.779901   -0.449768
  H     -2.518535   -1.606158    1.305820
  H     -0.953371   -0.179074   -1.785965
  H     -0.340622    1.305283   -0.987509
  H      3.745897   -0.119841    0.071384
  H      2.806123   -1.536792   -0.492597
  H      2.846093   -1.096715    1.225843

 Total Charge           Charge          ....    0
 Multiplicity           Mult            ....    1
 Number of Electrons    NEL             ....   64
 Basis Dimension        Dim             ....  222

ORBITAL ENERGIES
----------------

  NO   OCC          E(Eh)            E(eV)
   0   2.0000     -18.997791      -516.9562
   1   2.0000     -18.927759      -515.0505
   2   2.0000     -10.155889      -276.3558
   3   2.0000     -10.086043      -274.4552
   4   2.0000     -10.042226      -273.2629
   5   2.0000     -10.039382      -273.1855
   6   2.0000     -10.023949      -272.7655
   7   2.0000     -10.019630      -272.6480
   8   2.0000      -1.072738       -29.1907
   9   2.0000      -0.975768       -26.5520
  10   2.0000      -0.782930       -21.3046
  11   2.0000      -0.728249       -19.8167
  12   2.0000      -0.662546       -18.0288
  13   2.0000      -0.657286       -17.8857
  14   2.0000      -0.563317       -15.3286
  15   2.0000      -0.517398       -14.0791
  16   2.0000      -0.470711       -12.8087
  17   2.0000      -0.449708       -12.2372
  18   2.0000      -0.446647       -12.1539
  19   2.0000      -0.422369       -11.4933
  20   2.0000      -0.410535       -11.1712
  21   2.0000      -0.385748       -10.4967
  22   2.0000      -0.373159       -10.1542
  23   2.0000      -0.370628       -10.0853
  24   2.0000      -0.359997        -9.7960
  25   2.0000      -0.356370        -9.6973
  26   2.0000      -0.325721        -8.8633
  27   2.0000      -0.315852        -8.5948
  28   2.0000      -0.307531        -8.3684
  29   2.0000      -0.298149        -8.1130
  30   2.0000      -0.266693        -7.2571
  31   2.0000      -0.236746        -6.4422
  32   0.0000      -0.014869        -0.4046
  33   0.0000       0.073907         2.0111
  34   0.0000       0.078433         2.1343
  35   0.0000       0.112958         3.0737
  36   0.0000       0.124185         3.3792

MULLIKEN ATOMIC CHARGES
-----------------------
   0 C :   -0.487684
   1 C :   -0.018901
   2 C :   -0.505495
   3 C :   -0.195323
   4 O :   -0.176694
   5 C :    0.412533
   6 O :   -0.424769
   7 C :   -0.522971
   8 H :    0.153290
   9 H :    0.146118
  10 H :    0.154172
  11 H :    0.164239
  12 H :    0.159746
  13 H :    0.146313
  14 H :    0.149982
  15 H :    0.154686
  16 H :    0.171791
  17 H :    0.173905
  18 H :    0.171223
  19 H :    0.173840
Sum of atomic charges:   -0.0000000

LOEWDIN ATOMIC CHARGES
----------------------
   0 C :   -0.408658
   1 C :   -0.220916
   2 C :   -0.410345
   3 C :    0.038294
   4 O :   -0.601663
   5 C :    0.354376
   6 O :   -0.436223
   7 C :   -0.335690
   8 H :    0.157667
   9 H :    0.154221
  10 H :    0.157569
  11 H :    0.169263
  12 H :    0.161584
  13 H :    0.153997
  14 H :    0.154306
  15 H :    0.184031
  16 H :    0.194810
  17 H :    0.177979
  18 H :    0.174447
  19 H :    0.180951

  Mayer bond orders larger than 0.100000
B(  0-C ,  1-C ) :   0.9104 B(  0-C ,  8-H ) :   0.9710 B(  0-C ,  9-H ) :   0.9805
B(  0-C , 10-H ) :   0.9741 B(  1-C ,  2-C ) :   0.9143 B(  1-C ,  3-C ) :   0.9381
B(  1-C , 11-H ) :   0.9511 B(  2-C , 12-H ) :   0.9725 B(  2-C , 13-H ) :   0.9818
B(  2-C , 14-H ) :   0.9719 B(  3-C ,  4-O ) :   0.8430 B(  3-C , 15-H ) :   0.9624
B(  3-C , 16-H ) :   0.9653 B(  4-O ,  5-C ) :   1.0440 B(  5-C ,  6-O ) :   1.8491
B(  5-C ,  7-C ) :   0.9473 B(  7-C , 17-H ) :   0.9690 B(  7-C , 18-H ) :   0.9826
B(  7-C , 19-H ) :   0.9379

Dispersion correction           -0.005255973
FINAL SINGLE POINT ENERGY      -386.238482380603

DIPOLE MOMENT
-------------

Method             : SCF
Type of density    : Electron Density
Multiplicity       :   1
Irrep              :   0
Energy             :  -386.2451960744689359 Eh
Relativity type    :
Basis              : AO
                                X                 Y                 Z
Electronic contribution:      7.347903964       2.536386586      -0.885166006
Nuclear contribution   :     -7.616631585      -3.209216283       0.655123160
                        -----------------------------------------
Total Dipole Moment    :     -0.268727621      -0.672829697      -0.230042847
                        -----------------------------------------
Magnitude (a.u.)       :      0.760153962
Magnitude (Debye)      :      1.932157821

Rotational constants in cm-1:             0.133757             0.037298             0.033038
Rotational constants in MHz :          4009.928021          1118.151010           990.458843

                             ****ORCA TERMINATED NORMALLY****
TOTAL RUN TIME: 0 days 0 hours 0 minutes 32 seconds 518 msec
