                         Program Version 6.0.0  -   RELEASE  -
|  1> ! r2scan-3c def2/J RI DEFGRID2 scfconv6 printgap
|  2> %output
|  3>     printlevel normal
|  4> end
|  5> %cpcm
|  6>     smd true
|  7>     smdsolvent "water"
|  8> end
|  9> * xyz 0 1
| 10> C -2.7807686988 0.8803410071 0.0760320594
| 11> C -1.5333903423 0.0302704328 0.2992075541
| 12> C -1.8939409372 -1.4473575702 0.4310057631
| 13> C -0.554773617 0.239330047 -0.8607663135
| 14> O 0.6798772973 -0.4530958606 -0.6406581593
| 15> C 1.64113224 0.1659391885 0.0353427323
| 16> O 1.5427958676 1.3015334602 0.4541828787
| 17> C 2.8452232961 -0.71051973 0.2087297797
| 18> H -3.478168671 0.7391268666 0.8968357003
| 19> H -3.2722932067 0.593034815 -0.8500868846
| 20> H -2.5221793118 1.934681238 0.020111618
| 21> H -1.0337500788 0.3630062185 1.2165915457
| 22> H -0.995061328 -2.0507913748 0.530589966
| 23> H -2.4378956557 -1.7799005887 -0.4497677421
| 24> H -2.5185348873 -1.6061581411 1.3058196206
| 25> H -0.9533711683 -0.1790742973 -1.7859646977
| 26> H -0.3406222154 1.3052825194 -0.9875094974
| 27> H 3.7458968951 -0.1198407085 0.0713838682
| 28> H 2.8061229084 -1.5367924375 -0.4925974755
| 29> H 2.8460928279 -1.0967154635 1.2258427517
| 30> *
| 31>
| 32>                          ****END OF INPUT****

CARTESIAN COORDINATES (ANGSTROEM)
---------------------------------
  C     -2.780769    0.880341    0.076032
  C     -1.533390    0.030270    0.299208
  C     -1.893941   -1.447358    0.431006
  C     -0.554774    0.239330   -0.860766
  O      0.679877   -0.453096   -0.640658
  C      1.641132    0.165939    0.035343
  O      1.542796    1.301533    0.454183
  C      2.845223   -0.710520    0.208730
  H     -3.478169    0.739127    0.896836
  H     -3.272293    0.593035   -0.850087
  H     -2.522179    1.934681    0.020112
  H     -1.033750    0.363006    1.216592
  H     -0.995061   -2.050791    0.530590
  H     -2.437896   -1.779901   -0.449768
  H     -2.518535   -1.606158    1.305820
  H     -0.953371   -0.179074   -1.785965
  H     -0.340622    1.305283   -0.987509
  H      3.745897   -0.119841    0.071384
  H      2.806123   -1.536792   -0.492597
  H      2.846093   -1.096715    1.225843

 Total Charge           Charge          ....    0
 Multiplicity           Mult            ....    1
 Number of Electrons    NEL             ....   64
 Basis Dimension        Dim             ....  222

ORBITAL ENERGIES
----------------

  NO   OCC          E(Eh)            E(eV)
   0   2.0000     -19.002780      -517.0919
   1   2.0000     -18.942887      -515.4622
   2   2.0000     -10.165591      -276.6198
   3   2.0000     -10.078562      -274.2516
   4   2.0000     -10.033841      -273.0347
   5   2.0000     -10.030141      -272.9340
   6   2.0000     -10.011878      -272.4371
   7   2.0000     -10.009158      -272.3630
   8   2.0000      -1.079297       -29.3692
   9   2.0000      -0.988891       -26.9091
  10   2.0000      -0.775054       -21.0903
  11   2.0000      -0.723065       -19.6756
  12   2.0000      -0.656064       -17.8524
  13   2.0000      -0.646844       -17.6015
  14   2.0000      -0.558247       -15.1907
  15   2.0000      -0.512337       -13.9414
  16   2.0000      -0.468938       -12.7605
  17   2.0000      -0.460243       -12.5239
  18   2.0000      -0.446195       -12.1416
  19   2.0000      -0.418388       -11.3849
  20   2.0000      -0.402507       -10.9528
  21   2.0000      -0.380917       -10.3653
  22   2.0000      -0.368775       -10.0349
  23   2.0000      -0.361948        -9.8491
  24   2.0000      -0.351922        -9.5763
  25   2.0000      -0.347583        -9.4582
  26   2.0000      -0.321827        -8.7574
  27   2.0000      -0.316841        -8.6217
  28   2.0000      -0.299254        -8.1431
  29   2.0000      -0.291352        -7.9281
  30   2.0000      -0.269698        -7.3389
  31   2.0000      -0.252577        -6.8730
  32   0.0000      -0.021720        -0.5910
  33   0.0000       0.077921         2.1203
  34   0.0000       0.088201         2.4001
  35   0.0000       0.122070         3.3217
  36   0.0000       0.133699         3.6381

MULLIKEN ATOMIC CHARGES
-----------------------
   0 C :   -0.527745
   1 C :    0.007921
   2 C :   -0.548093
   3 C :   -0.209614
   4 O :   -0.193667
   5 C :    0.457284
   6 O :   -0.512096
   7 C :   -0.558490
   8 H :    0.167080
   9 H :    0.163756
  10 H :    0.161669
  11 H :    0.161618
  12 H :    0.162234
  13 H :    0.163958
  14 H :    0.163883
  15 H :    0.181416
  16 H :    0.175180
  17 H :    0.191027
  18 H :    0.188361
  19 H :    0.204317
Sum of atomic charges:   -0.0000000

LOEWDIN ATOMIC CHARGES
----------------------
   0 C :   -0.414587
   1 C :   -0.217580
   2 C :   -0.416727
   3 C :    0.041145
   4 O :   -0.602641
   5 C :    0.365423
   6 O :   -0.498594
   7 C :   -0.333663
   8 H :    0.160988
   9 H :    0.159783
  10 H :    0.159134
  11 H :    0.167774
  12 H :    0.160909
  13 H :    0.159152
  14 H :    0.158215
  15 H :    0.195170
  16 H :    0.195693
  17 H :    0.184764
  18 H :    0.182697
  19 H :    0.192943

  Mayer bond orders larger than 0.100000
B(  0-C ,  1-C ) :   0.9027 B(  0-C ,  8-H ) :   0.9688 B(  0-C ,  9-H ) :   0.9778
B(  0-C , 10-H ) :   0.9706 B(  1-C ,  2-C ) :   0.9049 B(  1-C ,  3-C ) :   0.9358
B(  1-C , 11-H ) :   0.9524 B(  2-C , 12-H ) :   0.9718 B(  2-C , 13-H ) :   0.9797
B(  2-C , 14-H ) :   0.9690 B(  3-C ,  4-O ) :   0.8232 B(  3-C , 15-H ) :   0.9541
B(  3-C , 16-H ) :   0.9615 B(  4-O ,  5-C ) :   1.0719 B(  5-C ,  6-O ) :   1.7755
B(  5-C ,  7-C ) :   0.9490 B(  7-C , 17-H ) :   0.9602 B(  7-C , 18-H ) :   0.9722
B(  7-C , 19-H ) :   0.9254

Dispersion correction           -0.005255973
FINAL SINGLE POINT ENERGY      -386.243253436983

DIPOLE MOMENT
-------------

Method             : SCF
Type of density    : Electron Density
Multiplicity       :   1
Irrep              :   0
Energy             :  -386.2499671308492566 Eh
Relativity type    :
Basis              : AO
                                X                 Y                 Z
Electronic contribution:      7.257138784       2.234942440      -1.023854949
Nuclear contribution   :     -7.616631585      -3.209216283       0.655123160
                        -----------------------------------------
Total Dipole Moment    :     -0.359492801      -0.974273843      -0.368731789
                        -----------------------------------------
Magnitude (a.u.)       :      1.102001691
Magnitude (Debye)      :      2.801065694

Rotational constants in cm-1:             0.133757             0.037298             0.033038
Rotational constants in MHz :          4009.928021          1118.151010           990.458843

                             ****ORCA TERMINATED NORMALLY****
TOTAL RUN TIME: 0 days 0 hours 0 minutes 37 seconds 836 msec
