                         Program Version 6.0.0  -   RELEASE  -
|  1> ! r2scan-3c def2/J RI DEFGRID2 scfconv6 printgap
|  2> %output
|  3>     printlevel normal
|  4> end
|  5> * xyz 0 1
|  6> C 2.5277700176 0.8003159506 0.1379061783
|  7> C 1.0900589528 0.5339233231 0.5726112722
|  8> C 0.2896906004 -0.2581095135 -0.4688255874
|  9> H 0.5100744136 0.1674710865 -1.4555619308
| 10> C 0.7260031941 -1.7236620602 -0.4905129528
| 11> C -1.2377486485 -0.1458900295 -0.2687555064
| 12> C -1.6847300282 -0.4521983434 1.1596611459
| 13> C -1.7604045398 1.2267060753 -0.6939641344
| 14> H 3.0812648541 -0.1270220854 0.0164405865
| 15> H 2.5463793252 1.3379973967 -0.8077640921
| 16> H 3.0396118334 1.4034181106 0.8844563463
| 17> H 0.6044503191 1.495532089 0.7459208314
| 18> H 1.0974583794 -0.0123525548 1.5173728233
| 19> H 0.1537381888 -2.2806031856 -1.2292367776
| 20> H 1.7783464018 -1.8070085673 -0.7478392746
| 21> H 0.5767007213 -2.1877474496 0.4813700901
| 22> H -1.6978350071 -0.8896545937 -0.9308465898
| 23> H -1.3170180929 -1.4211720198 1.4856070525
| 24> H -2.7712719233 -0.4689653702 1.2102904697
| 25> H -1.3257814933 0.3069674603 1.8494557184
| 26> H -1.3649435974 2.0123445413 -0.0548631285
| 27> H -2.8455437465 1.2516767691 -0.6252028659
| 28> H -1.477409143 1.4445209237 -1.7213576774
| 29> *
| 30>
| 31>                          ****END OF INPUT****

CARTESIAN COORDINATES (ANGSTROEM)
---------------------------------
  C      2.527770    0.800316    0.137906
  C      1.090059    0.533923    0.572611
  C      0.289691   -0.258110   -0.468826
  H      0.510074    0.167471   -1.455562
  C      0.726003   -1.723662   -0.490513
  C     -1.237749   -0.145890   -0.268756
  C     -1.684730   -0.452198    1.159661
  C     -1.760405    1.226706   -0.693964
  H      3.081265   -0.127022    0.016441
  H      2.546379    1.337997   -0.807764
  H      3.039612    1.403418    0.884456
  H      0.604450    1.495532    0.745921
  H      1.097458   -0.012353    1.517373
  H      0.153738   -2.280603   -1.229237
  H      1.778346   -1.807009   -0.747839
  H      0.576701   -2.187747    0.481370
  H     -1.697835   -0.889655   -0.930847
  H     -1.317018   -1.421172    1.485607
  H     -2.771272   -0.468965    1.210290
  H     -1.325781    0.306967    1.849456
  H     -1.364944    2.012345   -0.054863
  H     -2.845544    1.251677   -0.625203
  H     -1.477409    1.444521   -1.721358

 Total Charge           Charge          ....    0
 Multiplicity           Mult            ....    1
 Number of Electrons    NEL             ....   58
 Basis Dimension        Dim             ....  213

ORBITAL ENERGIES
----------------

  NO   OCC          E(Eh)            E(eV)
   0   2.0000     -10.028368      -272.8858
   1   2.0000     -10.026656      -272.8392
   2   2.0000     -10.019985      -272.6577
   3   2.0000     -10.013940      -272.4932
   4   2.0000     -10.011753      -272.4337
   5   2.0000     -10.011683      -272.4318
   6   2.0000     -10.011658      -272.4311
   7   2.0000      -0.788546       -21.4574
   8   2.0000      -0.728260       -19.8170
   9   2.0000      -0.683075       -18.5874
  10   2.0000      -0.646964       -17.6048
  11   2.0000      -0.603170       -16.4131
  12   2.0000      -0.562481       -15.3059
  13   2.0000      -0.501223       -13.6390
  14   2.0000      -0.429593       -11.6898
  15   2.0000      -0.428011       -11.6468
  16   2.0000      -0.416346       -11.3294
  17   2.0000      -0.389660       -10.6032
  18   2.0000      -0.379443       -10.3252
  19   2.0000      -0.356514        -9.7012
  20   2.0000      -0.350695        -9.5429
  21   2.0000      -0.346221        -9.4211
  22   2.0000      -0.330234        -8.9861
  23   2.0000      -0.326477        -8.8839
  24   2.0000      -0.309939        -8.4339
  25   2.0000      -0.303735        -8.2651
  26   2.0000      -0.280034        -7.6201
  27   2.0000      -0.273492        -7.4421
  28   2.0000      -0.269595        -7.3361
  29   0.0000       0.079003         2.1498
  30   0.0000       0.106939         2.9100
  31   0.0000       0.113197         3.0802
  32   0.0000       0.119696         3.2571
  33   0.0000       0.126445         3.4407

MULLIKEN ATOMIC CHARGES
-----------------------
   0 C :   -0.504975
   1 C :   -0.250312
   2 C :   -0.048551
   3 H :    0.149093
   4 C :   -0.535835
   5 C :   -0.028689
   6 C :   -0.506749
   7 C :   -0.503359
   8 H :    0.143593
   9 H :    0.147299
  10 H :    0.146667
  11 H :    0.147474
  12 H :    0.145677
  13 H :    0.146252
  14 H :    0.147490
  15 H :    0.157011
  16 H :    0.148931
  17 H :    0.153510
  18 H :    0.146014
  19 H :    0.155981
  20 H :    0.149342
  21 H :    0.147496
  22 H :    0.146639
Sum of atomic charges:   -0.0000000

LOEWDIN ATOMIC CHARGES
----------------------
   0 C :   -0.421372
   1 C :   -0.308384
   2 C :   -0.236373
   3 H :    0.158947
   4 C :   -0.413623
   5 C :   -0.240736
   6 C :   -0.414803
   7 C :   -0.416816
   8 H :    0.149046
   9 H :    0.150394
  10 H :    0.150100
  11 H :    0.154432
  12 H :    0.155704
  13 H :    0.153571
  14 H :    0.152628
  15 H :    0.152417
  16 H :    0.156702
  17 H :    0.153517
  18 H :    0.153257
  19 H :    0.154725
  20 H :    0.150916
  21 H :    0.153032
  22 H :    0.152718

  Mayer bond orders larger than 0.100000
B(  0-C ,  1-C ) :   0.9022 B(  0-C ,  8-H ) :   0.9844 B(  0-C ,  9-H ) :   0.9896
B(  0-C , 10-H ) :   0.9740 B(  1-C ,  2-C ) :   0.8486 B(  1-C , 11-H ) :   0.9776
B(  1-C , 12-H ) :   0.9586 B(  2-C ,  3-H ) :   0.9948 B(  2-C ,  4-C ) :   0.9151
B(  2-C ,  5-C ) :   0.8772 B(  4-C , 13-H ) :   0.9759 B(  4-C , 14-H ) :   0.9757
B(  4-C , 15-H ) :   0.9901 B(  5-C ,  6-C ) :   0.8720 B(  5-C ,  7-C ) :   0.9196
B(  5-C , 16-H ) :   0.9893 B(  6-C , 17-H ) :   0.9849 B(  6-C , 18-H ) :   0.9700
B(  6-C , 19-H ) :   0.9738 B(  7-C , 20-H ) :   0.9845 B(  7-C , 21-H ) :   0.9759
B(  7-C , 22-H ) :   0.9798

Dispersion correction           -0.006537559
FINAL SINGLE POINT ENERGY      -276.286434976153

DIPOLE MOMENT
-------------

Method             : SCF
Type of density    : Electron Density
Multiplicity       :   1
Irrep              :   0
Energy             :  -276.2911075721414136 Eh
Relativity type    :
Basis              : AO
                                X                 Y                 Z
Electronic contribution:     -0.564658831      -0.210210157      -0.604954880
Nuclear contribution   :      0.551846665       0.211463981       0.580010410
                        -----------------------------------------
Total Dipole Moment    :     -0.012812166       0.001253824      -0.024944470
                        -----------------------------------------
Magnitude (a.u.)       :      0.028070451
Magnitude (Debye)      :      0.071349417

Rotational constants in cm-1:             0.111314             0.056573             0.048999
Rotational constants in MHz :          3337.112203          1696.016638          1468.957570

                             ****ORCA TERMINATED NORMALLY****
TOTAL RUN TIME: 0 days 0 hours 0 minutes 24 seconds 266 msec
