                         Program Version 6.0.0  -   RELEASE  -
|  1> ! r2scan-3c def2/J RI DEFGRID2 scfconv6 printgap
|  2> %output
|  3>     printlevel normal
|  4> end
|  5> %cpcm
|  6>     smd true
|  7>     smdsolvent "water"
|  8> end
|  9> * xyz 0 1
| 10> C 2.5277700176 0.8003159506 0.1379061783
| 11> C 1.0900589528 0.5339233231 0.5726112722
| 12> C 0.2896906004 -0.2581095135 -0.4688255874
| 13> H 0.5100744136 0.1674710865 -1.4555619308
| 14> C 0.7260031941 -1.7236620602 -0.4905129528
| 15> C -1.2377486485 -0.1458900295 -0.2687555064
| 16> C -1.6847300282 -0.4521983434 1.1596611459
| 17> C -1.7604045398 1.2267060753 -0.6939641344
| 18> H 3.0812648541 -0.1270220854 0.0164405865
| 19> H 2.5463793252 1.3379973967 -0.8077640921
| 20> H 3.0396118334 1.4034181106 0.8844563463
| 21> H 0.6044503191 1.495532089 0.7459208314
| 22> H 1.0974583794 -0.0123525548 1.5173728233
| 23> H 0.1537381888 -2.2806031856 -1.2292367776
| 24> H 1.7783464018 -1.8070085673 -0.7478392746
| 25> H 0.5767007213 -2.1877474496 0.4813700901
| 26> H -1.6978350071 -0.8896545937 -0.9308465898
| 27> H -1.3170180929 -1.4211720198 1.4856070525
| 28> H -2.7712719233 -0.4689653702 1.2102904697
| 29> H -1.3257814933 0.3069674603 1.8494557184
| 30> H -1.3649435974 2.0123445413 -0.0548631285
| 31> H -2.8455437465 1.2516767691 -0.6252028659
| 32> H -1.477409143 1.4445209237 -1.7213576774
| 33> *
| 34>
| 35>                          ****END OF INPUT****

CARTESIAN COORDINATES (ANGSTROEM)
---------------------------------
  C      2.527770    0.800316    0.137906
  C      1.090059    0.533923    0.572611
  C      0.289691   -0.258110   -0.468826
  H      0.510074    0.167471   -1.455562
  C      0.726003   -1.723662   -0.490513
  C     -1.237749   -0.145890   -0.268756
  C     -1.684730   -0.452198    1.159661
  C     -1.760405    1.226706   -0.693964
  H      3.081265   -0.127022    0.016441
  H      2.546379    1.337997   -0.807764
  H      3.039612    1.403418    0.884456
  H      0.604450    1.495532    0.745921
  H      1.097458   -0.012353    1.517373
  H      0.153738   -2.280603   -1.229237
  H      1.778346   -1.807009   -0.747839
  H      0.576701   -2.187747    0.481370
  H     -1.697835   -0.889655   -0.930847
  H     -1.317018   -1.421172    1.485607
  H     -2.771272   -0.468965    1.210290
  H     -1.325781    0.306967    1.849456
  H     -1.364944    2.012345   -0.054863
  H     -2.845544    1.251677   -0.625203
  H     -1.477409    1.444521   -1.721358

 Total Charge           Charge          ....    0
 Multiplicity           Mult            ....    1
 Number of Electrons    NEL             ....   58
 Basis Dimension        Dim             ....  213

ORBITAL ENERGIES
----------------

  NO   OCC          E(Eh)            E(eV)
   0   2.0000     -10.020768      -272.6790
   1   2.0000     -10.018622      -272.6206
   2   2.0000     -10.011714      -272.4326
   3   2.0000     -10.006307      -272.2855
   4   2.0000     -10.004074      -272.2247
   5   2.0000     -10.003933      -272.2209
   6   2.0000     -10.003557      -272.2106
   7   2.0000      -0.780713       -21.2443
   8   2.0000      -0.720793       -19.6138
   9   2.0000      -0.675650       -18.3854
  10   2.0000      -0.639985       -17.4149
  11   2.0000      -0.595803       -16.2126
  12   2.0000      -0.555038       -15.1033
  13   2.0000      -0.493615       -13.4320
  14   2.0000      -0.421879       -11.4799
  15   2.0000      -0.420082       -11.4310
  16   2.0000      -0.408876       -11.1261
  17   2.0000      -0.382120       -10.3980
  18   2.0000      -0.371958       -10.1215
  19   2.0000      -0.349003        -9.4968
  20   2.0000      -0.343282        -9.3412
  21   2.0000      -0.338655        -9.2153
  22   2.0000      -0.322690        -8.7808
  23   2.0000      -0.318836        -8.6760
  24   2.0000      -0.302235        -8.2242
  25   2.0000      -0.295846        -8.0504
  26   2.0000      -0.272151        -7.4056
  27   2.0000      -0.265722        -7.2307
  28   2.0000      -0.261773        -7.1232
  29   0.0000       0.087388         2.3779
  30   0.0000       0.114339         3.1113
  31   0.0000       0.120759         3.2860
  32   0.0000       0.126935         3.4541
  33   0.0000       0.134628         3.6634

MULLIKEN ATOMIC CHARGES
-----------------------
   0 C :   -0.545326
   1 C :   -0.261940
   2 C :   -0.038377
   3 H :    0.156365
   4 C :   -0.582763
   5 C :   -0.014843
   6 C :   -0.548890
   7 C :   -0.551714
   8 H :    0.156147
   9 H :    0.157505
  10 H :    0.155686
  11 H :    0.159257
  12 H :    0.151863
  13 H :    0.156656
  14 H :    0.159348
  15 H :    0.170043
  16 H :    0.156120
  17 H :    0.165222
  18 H :    0.156969
  19 H :    0.164138
  20 H :    0.163316
  21 H :    0.158083
  22 H :    0.157137
Sum of atomic charges:   -0.0000000

LOEWDIN ATOMIC CHARGES
----------------------
   0 C :   -0.430460
   1 C :   -0.310541
   2 C :   -0.235454
   3 H :    0.160866
   4 C :   -0.422712
   5 C :   -0.239221
   6 C :   -0.423402
   7 C :   -0.426072
   8 H :    0.151871
   9 H :    0.152567
  10 H :    0.151715
  11 H :    0.157476
  12 H :    0.157001
  13 H :    0.155365
  14 H :    0.155024
  15 H :    0.155586
  16 H :    0.158557
  17 H :    0.156356
  18 H :    0.155161
  19 H :    0.156349
  20 H :    0.154184
  21 H :    0.154941
  22 H :    0.154841

  Mayer bond orders larger than 0.100000
B(  0-C ,  1-C ) :   0.8929 B(  0-C ,  8-H ) :   0.9814 B(  0-C ,  9-H ) :   0.9871
B(  0-C , 10-H ) :   0.9718 B(  1-C ,  2-C ) :   0.8462 B(  1-C , 11-H ) :   0.9767
B(  1-C , 12-H ) :   0.9591 B(  2-C ,  3-H ) :   0.9948 B(  2-C ,  4-C ) :   0.9060
B(  2-C ,  5-C ) :   0.8759 B(  4-C , 13-H ) :   0.9745 B(  4-C , 14-H ) :   0.9730
B(  4-C , 15-H ) :   0.9870 B(  5-C ,  6-C ) :   0.8660 B(  5-C ,  7-C ) :   0.9096
B(  5-C , 16-H ) :   0.9905 B(  6-C , 17-H ) :   0.9807 B(  6-C , 18-H ) :   0.9689
B(  6-C , 19-H ) :   0.9731 B(  7-C , 20-H ) :   0.9824 B(  7-C , 21-H ) :   0.9742
B(  7-C , 22-H ) :   0.9775

Dispersion correction           -0.006537559
FINAL SINGLE POINT ENERGY      -276.282568252452

DIPOLE MOMENT
-------------

Method             : SCF
Type of density    : Electron Density
Multiplicity       :   1
Irrep              :   0
Energy             :  -276.2872408484399784 Eh
Relativity type    :
Basis              : AO
                                X                 Y                 Z
Electronic contribution:     -0.567606012      -0.210986515      -0.610064362
Nuclear contribution   :      0.551846665       0.211463981       0.580010410
                        -----------------------------------------
Total Dipole Moment    :     -0.015759347       0.000477466      -0.030053952
                        -----------------------------------------
Magnitude (a.u.)       :      0.033938548
Magnitude (Debye)      :      0.086264933

Rotational constants in cm-1:             0.111314             0.056573             0.048999
Rotational constants in MHz :          3337.112203          1696.016638          1468.957570

                             ****ORCA TERMINATED NORMALLY****
TOTAL RUN TIME: 0 days 0 hours 0 minutes 25 seconds 939 msec
