                         Program Version 6.0.0  -   RELEASE  -
|  1> ! pbe def2-sv(p) def2/J RI DEFGRID1 loosescf d4 GCP(DFT/SV(P)) printgap
|  2> %output
|  3>     printlevel normal
|  4> end
|  5> * xyz 0 1
|  6> C -2.0350089134 0.8385497771 -0.6470866542
|  7> C -1.3198510843 0.5520994592 0.669320874
|  8> C -0.0182568535 -0.2505965554 0.534353591
|  9> H 0.3981953998 -0.3646455294 1.5425555701
| 10> C -0.2647084616 -1.6442184714 -0.044245976
| 11> C 1.0263339195 0.5164822889 -0.2901868642
| 12> O 2.345376609 0.0493254993 -0.0928628471
| 13> H -1.4063854507 1.4238530906 -1.3125434893
| 14> H -2.3133847987 -0.0835538268 -1.1490177071
| 15> H -2.9429798339 1.4047228472 -0.4536283756
| 16> H -1.9954946982 -0.0027083414 1.3241621922
| 17> H -1.0920278765 1.5004863605 1.1614795451
| 18> H -0.5383942209 -1.5848195257 -1.0947939487
| 19> H -1.0691341399 -2.136380835 0.4966007873
| 20> H 0.6249741072 -2.2629750129 0.0457562823
| 21> H 1.0495246781 1.563446626 0.0234020316
| 22> H 0.7735107619 0.4783977466 -1.3574139372
| 23> H 2.4018675333 -0.8655902985 -0.3998435183
| 24> *
| 25>
| 26>                          ****END OF INPUT****

CARTESIAN COORDINATES (ANGSTROEM)
---------------------------------
  C     -2.035009    0.838550   -0.647087
  C     -1.319851    0.552099    0.669321
  C     -0.018257   -0.250597    0.534354
  H      0.398195   -0.364646    1.542556
  C     -0.264708   -1.644218   -0.044246
  C      1.026334    0.516482   -0.290187
  O      2.345377    0.049325   -0.092863
  H     -1.406385    1.423853   -1.312543
  H     -2.313385   -0.083554   -1.149018
  H     -2.942980    1.404723   -0.453628
  H     -1.995495   -0.002708    1.324162
  H     -1.092028    1.500486    1.161480
  H     -0.538394   -1.584820   -1.094794
  H     -1.069134   -2.136381    0.496601
  H      0.624974   -2.262975    0.045756
  H      1.049525    1.563447    0.023402
  H      0.773511    0.478398   -1.357414
  H      2.401868   -0.865590   -0.399844

 Total Charge           Charge          ....    0
 Multiplicity           Mult            ....    1
 Number of Electrons    NEL             ....   50
 Basis Dimension        Dim             ....  108

ORBITAL ENERGIES
----------------

  NO   OCC          E(Eh)            E(eV)
   0   2.0000     -18.737620      -509.8765
   1   2.0000      -9.923485      -270.0318
   2   2.0000      -9.891293      -269.1558
   3   2.0000      -9.885124      -268.9879
   4   2.0000      -9.879865      -268.8448
   5   2.0000      -9.875236      -268.7188
   6   2.0000      -0.913864       -24.8675
   7   2.0000      -0.729926       -19.8623
   8   2.0000      -0.653996       -17.7961
   9   2.0000      -0.608970       -16.5709
  10   2.0000      -0.565086       -15.3768
  11   2.0000      -0.494230       -13.4487
  12   2.0000      -0.456510       -12.4223
  13   2.0000      -0.417928       -11.3724
  14   2.0000      -0.401792       -10.9333
  15   2.0000      -0.384346       -10.4586
  16   2.0000      -0.367332        -9.9956
  17   2.0000      -0.344752        -9.3812
  18   2.0000      -0.339584        -9.2405
  19   2.0000      -0.328584        -8.9412
  20   2.0000      -0.300299        -8.1715
  21   2.0000      -0.283841        -7.7237
  22   2.0000      -0.282856        -7.6969
  23   2.0000      -0.265789        -7.2325
  24   2.0000      -0.207522        -5.6470
  25   0.0000       0.023075         0.6279
  26   0.0000       0.043125         1.1735
  27   0.0000       0.061694         1.6788
  28   0.0000       0.069844         1.9005
  29   0.0000       0.088799         2.4164

MULLIKEN ATOMIC CHARGES
-----------------------
   0 C :   -0.298120
   1 C :   -0.164392
   2 C :   -0.170099
   3 H :    0.075795
   4 C :   -0.273782
   5 C :    0.030730
   6 O :   -0.435413
   7 H :    0.108792
   8 H :    0.104211
   9 H :    0.104446
  10 H :    0.083140
  11 H :    0.086484
  12 H :    0.104541
  13 H :    0.105399
  14 H :    0.088937
  15 H :    0.082744
  16 H :    0.072716
  17 H :    0.293871
Sum of atomic charges:   -0.0000000

LOEWDIN ATOMIC CHARGES
----------------------
   0 C :   -0.345412
   1 C :   -0.224439
   2 C :   -0.177440
   3 H :    0.118801
   4 C :   -0.337270
   5 C :   -0.114865
   6 O :   -0.339992
   7 H :    0.117522
   8 H :    0.117517
   9 H :    0.121467
  10 H :    0.114504
  11 H :    0.115248
  12 H :    0.116925
  13 H :    0.122382
  14 H :    0.111501
  15 H :    0.110806
  16 H :    0.093776
  17 H :    0.278969

  Mayer bond orders larger than 0.100000
B(  0-C ,  1-C ) :   1.1466 B(  0-C ,  7-H ) :   0.9510 B(  0-C ,  8-H ) :   0.9509
B(  0-C ,  9-H ) :   0.9499 B(  1-C ,  2-C ) :   1.0746 B(  1-C , 10-H ) :   0.9227
B(  1-C , 11-H ) :   0.9236 B(  2-C ,  3-H ) :   0.8939 B(  2-C ,  4-C ) :   1.0926
B(  2-C ,  5-C ) :   1.0466 B(  4-C , 12-H ) :   0.9446 B(  4-C , 13-H ) :   0.9503
B(  4-C , 14-H ) :   0.9434 B(  5-C ,  6-O ) :   1.0719 B(  5-C , 15-H ) :   0.9291
B(  5-C , 16-H ) :   0.9166 B(  6-O , 17-H ) :   0.8520

Dispersion correction           -0.013196044
FINAL SINGLE POINT ENERGY      -272.299055829904

DIPOLE MOMENT
-------------

Method             : SCF
Type of density    : Electron Density
Multiplicity       :   1
Irrep              :   0
Energy             :  -272.3686536568606584 Eh
Relativity type    :
Basis              : AO
                                X                 Y                 Z
Electronic contribution:      5.240321706       0.491343912       0.916744229
Nuclear contribution   :     -5.697118645      -0.871541287      -1.102111033
                        -----------------------------------------
Total Dipole Moment    :     -0.456796939      -0.380197375      -0.185366805
                        -----------------------------------------
Magnitude (a.u.)       :      0.622554688
Magnitude (Debye)      :      1.582408261

Rotational constants in cm-1:             0.178326             0.072340             0.061390
Rotational constants in MHz :          5346.070984          2168.707643          1840.412169

                             ****ORCA TERMINATED NORMALLY****
TOTAL RUN TIME: 0 days 0 hours 0 minutes 8 seconds 70 msec
