                         Program Version 6.0.0  -   RELEASE  -
|  1> ! r2scan-3c def2/J RI DEFGRID2 scfconv6 printgap
|  2> %output
|  3>     printlevel normal
|  4> end
|  5> * xyz 0 1
|  6> C -2.2584516871 0.6059481844 -0.9810200978
|  7> C -1.8532620902 -0.3892202002 0.1005097741
|  8> C -0.5944835039 -0.0161269892 0.8877567263
|  9> C 0.7686615417 -0.0447743637 0.1589167172
| 10> C 1.0414131352 1.2442347733 -0.6230750357
| 11> C 0.9093871946 -1.2628467146 -0.7540061667
| 12> O 1.7899689332 -0.2011890961 1.1522954576
| 13> H -2.2619694122 1.619663609 -0.5877223399
| 14> H -3.2591716155 0.3743630785 -1.3389813979
| 15> H -1.5841356485 0.5653760145 -1.8315744026
| 16> H -2.6680939437 -0.4537978717 0.8262776539
| 17> H -1.7356427878 -1.3796113952 -0.3397200964
| 18> H -0.7345420994 0.9784691311 1.3203365785
| 19> H -0.5072107446 -0.72581925 1.7158714274
| 20> H 2.0693917155 1.2347385913 -0.9795865836
| 21> H 0.9032577892 2.1151678312 0.0146565107
| 22> H 0.3798566353 1.3324188385 -1.4766823235
| 23> H 1.9361696109 -1.3221014507 -1.1060278147
| 24> H 0.2451779346 -1.1868231044 -1.6077832018
| 25> H 0.6881784389 -2.1693396778 -0.1970061913
| 26> H 1.7904168896 0.5758026322 1.7267467693
| 27> *
| 28>
| 29>                          ****END OF INPUT****

CARTESIAN COORDINATES (ANGSTROEM)
---------------------------------
  C     -2.258452    0.605948   -0.981020
  C     -1.853262   -0.389220    0.100510
  C     -0.594484   -0.016127    0.887757
  C      0.768662   -0.044774    0.158917
  C      1.041413    1.244235   -0.623075
  C      0.909387   -1.262847   -0.754006
  O      1.789969   -0.201189    1.152295
  H     -2.261969    1.619664   -0.587722
  H     -3.259172    0.374363   -1.338981
  H     -1.584136    0.565376   -1.831574
  H     -2.668094   -0.453798    0.826278
  H     -1.735643   -1.379611   -0.339720
  H     -0.734542    0.978469    1.320337
  H     -0.507211   -0.725819    1.715871
  H      2.069392    1.234739   -0.979587
  H      0.903258    2.115168    0.014657
  H      0.379857    1.332419   -1.476682
  H      1.936170   -1.322101   -1.106028
  H      0.245178   -1.186823   -1.607783
  H      0.688178   -2.169340   -0.197006
  H      1.790417    0.575803    1.726747

 Total Charge           Charge          ....    0
 Multiplicity           Mult            ....    1
 Number of Electrons    NEL             ....   58
 Basis Dimension        Dim             ....  208

ORBITAL ENERGIES
----------------

  NO   OCC          E(Eh)            E(eV)
   0   2.0000     -18.938875      -515.3530
   1   2.0000     -10.086805      -274.4759
   2   2.0000     -10.027747      -272.8689
   3   2.0000     -10.022361      -272.7223
   4   2.0000     -10.018658      -272.6215
   5   2.0000     -10.016292      -272.5572
   6   2.0000     -10.014243      -272.5014
   7   2.0000      -0.978195       -26.6180
   8   2.0000      -0.769665       -20.9437
   9   2.0000      -0.722485       -19.6598
  10   2.0000      -0.658146       -17.9091
  11   2.0000      -0.652807       -17.7638
  12   2.0000      -0.568584       -15.4719
  13   2.0000      -0.524138       -14.2625
  14   2.0000      -0.460902       -12.5418
  15   2.0000      -0.435318       -11.8456
  16   2.0000      -0.416461       -11.3325
  17   2.0000      -0.401239       -10.9183
  18   2.0000      -0.390789       -10.6339
  19   2.0000      -0.369945       -10.0667
  20   2.0000      -0.353754        -9.6261
  21   2.0000      -0.348390        -9.4802
  22   2.0000      -0.338389        -9.2080
  23   2.0000      -0.330036        -8.9807
  24   2.0000      -0.312914        -8.5148
  25   2.0000      -0.299810        -8.1582
  26   2.0000      -0.290548        -7.9062
  27   2.0000      -0.277798        -7.5593
  28   2.0000      -0.229663        -6.2495
  29   0.0000       0.064126         1.7450
  30   0.0000       0.082984         2.2581
  31   0.0000       0.105096         2.8598
  32   0.0000       0.123112         3.3500
  33   0.0000       0.125987         3.4283

MULLIKEN ATOMIC CHARGES
-----------------------
   0 C :   -0.476703
   1 C :   -0.263959
   2 C :   -0.281405
   3 C :    0.190275
   4 C :   -0.478264
   5 C :   -0.518198
   6 O :   -0.417200
   7 H :    0.148733
   8 H :    0.145820
   9 H :    0.140445
  10 H :    0.140163
  11 H :    0.153968
  12 H :    0.134962
  13 H :    0.171125
  14 H :    0.162438
  15 H :    0.142425
  16 H :    0.148269
  17 H :    0.160504
  18 H :    0.153219
  19 H :    0.161302
  20 H :    0.282081
Sum of atomic charges:    0.0000000

LOEWDIN ATOMIC CHARGES
----------------------
   0 C :   -0.426463
   1 C :   -0.310471
   2 C :   -0.281232
   3 C :    0.062229
   4 C :   -0.387984
   5 C :   -0.372230
   6 O :   -0.613398
   7 H :    0.150789
   8 H :    0.151158
   9 H :    0.145170
  10 H :    0.154013
  11 H :    0.155255
  12 H :    0.157506
  13 H :    0.175325
  14 H :    0.165352
  15 H :    0.155173
  16 H :    0.158904
  17 H :    0.168535
  18 H :    0.157683
  19 H :    0.165575
  20 H :    0.269110

  Mayer bond orders larger than 0.100000
B(  0-C ,  1-C ) :   0.8815 B(  0-C ,  7-H ) :   0.9832 B(  0-C ,  8-H ) :   0.9678
B(  0-C ,  9-H ) :   0.9807 B(  1-C ,  2-C ) :   0.8836 B(  1-C , 10-H ) :   0.9581
B(  1-C , 11-H ) :   0.9794 B(  2-C ,  3-C ) :   0.8803 B(  2-C , 12-H ) :   0.9736
B(  2-C , 13-H ) :   0.9796 B(  3-C ,  4-C ) :   0.9687 B(  3-C ,  5-C ) :   0.9037
B(  3-C ,  6-O ) :   0.8689 B(  4-C , 14-H ) :   0.9748 B(  4-C , 15-H ) :   0.9706
B(  4-C , 16-H ) :   0.9612 B(  5-C , 17-H ) :   0.9692 B(  5-C , 18-H ) :   0.9706
B(  5-C , 19-H ) :   0.9763 B(  6-O , 20-H ) :   0.9039

Dispersion correction           -0.005873941
FINAL SINGLE POINT ENERGY      -312.203607480422

DIPOLE MOMENT
-------------

Method             : SCF
Type of density    : Electron Density
Multiplicity       :   1
Irrep              :   0
Energy             :  -312.2089196324369027 Eh
Relativity type    :
Basis              : AO
                                X                 Y                 Z
Electronic contribution:      3.987993161      -1.052520956       3.535987976
Nuclear contribution   :     -4.418751983       1.459148632      -3.605331827
                        -----------------------------------------
Total Dipole Moment    :     -0.430758822       0.406627675      -0.069343852
                        -----------------------------------------
Magnitude (a.u.)       :      0.596412440
Magnitude (Debye)      :      1.515959947

Rotational constants in cm-1:             0.127696             0.056144             0.053699
Rotational constants in MHz :          3828.218429          1683.165677          1609.854205

                             ****ORCA TERMINATED NORMALLY****
TOTAL RUN TIME: 0 days 0 hours 0 minutes 27 seconds 444 msec
