                         Program Version 6.0.0  -   RELEASE  -
|  1> ! r2scan-3c def2/J RI DEFGRID2 scfconv6 printgap
|  2> %output
|  3>     printlevel normal
|  4> end
|  5> %cpcm
|  6>     smd true
|  7>     smdsolvent "water"
|  8> end
|  9> * xyz 0 1
| 10> C -2.2584516871 0.6059481844 -0.9810200978
| 11> C -1.8532620902 -0.3892202002 0.1005097741
| 12> C -0.5944835039 -0.0161269892 0.8877567263
| 13> C 0.7686615417 -0.0447743637 0.1589167172
| 14> C 1.0414131352 1.2442347733 -0.6230750357
| 15> C 0.9093871946 -1.2628467146 -0.7540061667
| 16> O 1.7899689332 -0.2011890961 1.1522954576
| 17> H -2.2619694122 1.619663609 -0.5877223399
| 18> H -3.2591716155 0.3743630785 -1.3389813979
| 19> H -1.5841356485 0.5653760145 -1.8315744026
| 20> H -2.6680939437 -0.4537978717 0.8262776539
| 21> H -1.7356427878 -1.3796113952 -0.3397200964
| 22> H -0.7345420994 0.9784691311 1.3203365785
| 23> H -0.5072107446 -0.72581925 1.7158714274
| 24> H 2.0693917155 1.2347385913 -0.9795865836
| 25> H 0.9032577892 2.1151678312 0.0146565107
| 26> H 0.3798566353 1.3324188385 -1.4766823235
| 27> H 1.9361696109 -1.3221014507 -1.1060278147
| 28> H 0.2451779346 -1.1868231044 -1.6077832018
| 29> H 0.6881784389 -2.1693396778 -0.1970061913
| 30> H 1.7904168896 0.5758026322 1.7267467693
| 31> *
| 32>
| 33>                          ****END OF INPUT****

CARTESIAN COORDINATES (ANGSTROEM)
---------------------------------
  C     -2.258452    0.605948   -0.981020
  C     -1.853262   -0.389220    0.100510
  C     -0.594484   -0.016127    0.887757
  C      0.768662   -0.044774    0.158917
  C      1.041413    1.244235   -0.623075
  C      0.909387   -1.262847   -0.754006
  O      1.789969   -0.201189    1.152295
  H     -2.261969    1.619664   -0.587722
  H     -3.259172    0.374363   -1.338981
  H     -1.584136    0.565376   -1.831574
  H     -2.668094   -0.453798    0.826278
  H     -1.735643   -1.379611   -0.339720
  H     -0.734542    0.978469    1.320337
  H     -0.507211   -0.725819    1.715871
  H      2.069392    1.234739   -0.979587
  H      0.903258    2.115168    0.014657
  H      0.379857    1.332419   -1.476682
  H      1.936170   -1.322101   -1.106028
  H      0.245178   -1.186823   -1.607783
  H      0.688178   -2.169340   -0.197006
  H      1.790417    0.575803    1.726747

 Total Charge           Charge          ....    0
 Multiplicity           Mult            ....    1
 Number of Electrons    NEL             ....   58
 Basis Dimension        Dim             ....  208

ORBITAL ENERGIES
----------------

  NO   OCC          E(Eh)            E(eV)
   0   2.0000     -18.944122      -515.4958
   1   2.0000     -10.083008      -274.3726
   2   2.0000     -10.017532      -272.5909
   3   2.0000     -10.013873      -272.4913
   4   2.0000     -10.008727      -272.3513
   5   2.0000     -10.006848      -272.3002
   6   2.0000     -10.006812      -272.2992
   7   2.0000      -0.982070       -26.7235
   8   2.0000      -0.762093       -20.7376
   9   2.0000      -0.714817       -19.4512
  10   2.0000      -0.650995       -17.7145
  11   2.0000      -0.644386       -17.5346
  12   2.0000      -0.560736       -15.2584
  13   2.0000      -0.519893       -14.1470
  14   2.0000      -0.455410       -12.3923
  15   2.0000      -0.428259       -11.6535
  16   2.0000      -0.410259       -11.1637
  17   2.0000      -0.393303       -10.7023
  18   2.0000      -0.382559       -10.4100
  19   2.0000      -0.362080        -9.8527
  20   2.0000      -0.347752        -9.4628
  21   2.0000      -0.340431        -9.2636
  22   2.0000      -0.335676        -9.1342
  23   2.0000      -0.323381        -8.7997
  24   2.0000      -0.303438        -8.2570
  25   2.0000      -0.292129        -7.9492
  26   2.0000      -0.283651        -7.7185
  27   2.0000      -0.275285        -7.4909
  28   2.0000      -0.234515        -6.3815
  29   0.0000       0.079368         2.1597
  30   0.0000       0.092916         2.5284
  31   0.0000       0.117871         3.2074
  32   0.0000       0.132254         3.5988
  33   0.0000       0.135151         3.6776

MULLIKEN ATOMIC CHARGES
-----------------------
   0 C :   -0.520311
   1 C :   -0.266154
   2 C :   -0.293295
   3 C :    0.233333
   4 C :   -0.529507
   5 C :   -0.559285
   6 O :   -0.512279
   7 H :    0.158710
   8 H :    0.153922
   9 H :    0.159695
  10 H :    0.148457
  11 H :    0.158907
  12 H :    0.156822
  13 H :    0.161860
  14 H :    0.162133
  15 H :    0.167624
  16 H :    0.168034
  17 H :    0.165948
  18 H :    0.177728
  19 H :    0.169668
  20 H :    0.337991
Sum of atomic charges:    0.0000000

LOEWDIN ATOMIC CHARGES
----------------------
   0 C :   -0.434106
   1 C :   -0.310848
   2 C :   -0.279903
   3 C :    0.064265
   4 C :   -0.392260
   5 C :   -0.381664
   6 O :   -0.652482
   7 H :    0.153149
   8 H :    0.152593
   9 H :    0.150674
  10 H :    0.156223
  11 H :    0.156713
  12 H :    0.164997
  13 H :    0.172658
  14 H :    0.164246
  15 H :    0.163211
  16 H :    0.165163
  17 H :    0.167226
  18 H :    0.167278
  19 H :    0.166062
  20 H :    0.286807

  Mayer bond orders larger than 0.100000
B(  0-C ,  1-C ) :   0.8729 B(  0-C ,  7-H ) :   0.9800 B(  0-C ,  8-H ) :   0.9661
B(  0-C ,  9-H ) :   0.9780 B(  1-C ,  2-C ) :   0.8855 B(  1-C , 10-H ) :   0.9582
B(  1-C , 11-H ) :   0.9788 B(  2-C ,  3-C ) :   0.8845 B(  2-C , 12-H ) :   0.9755
B(  2-C , 13-H ) :   0.9749 B(  3-C ,  4-C ) :   0.9547 B(  3-C ,  5-C ) :   0.9076
B(  3-C ,  6-O ) :   0.8429 B(  4-C , 14-H ) :   0.9708 B(  4-C , 15-H ) :   0.9696
B(  4-C , 16-H ) :   0.9588 B(  5-C , 17-H ) :   0.9691 B(  5-C , 18-H ) :   0.9643
B(  5-C , 19-H ) :   0.9713 B(  6-O , 20-H ) :   0.8784

Dispersion correction           -0.005873941
FINAL SINGLE POINT ENERGY      -312.209683431381

DIPOLE MOMENT
-------------

Method             : SCF
Type of density    : Electron Density
Multiplicity       :   1
Irrep              :   0
Energy             :  -312.2149955833961599 Eh
Relativity type    :
Basis              : AO
                                X                 Y                 Z
Electronic contribution:      3.782267727      -0.817247447       3.487617256
Nuclear contribution   :     -4.418751983       1.459148632      -3.605331827
                        -----------------------------------------
Total Dipole Moment    :     -0.636484256       0.641901185      -0.117714571
                        -----------------------------------------
Magnitude (a.u.)       :      0.911595338
Magnitude (Debye)      :      2.317091206

Rotational constants in cm-1:             0.127696             0.056144             0.053699
Rotational constants in MHz :          3828.218429          1683.165677          1609.854205

                             ****ORCA TERMINATED NORMALLY****
TOTAL RUN TIME: 0 days 0 hours 0 minutes 32 seconds 545 msec
