                         Program Version 6.0.0  -   RELEASE  -
|  1> ! pbe def2-sv(p) def2/J RI DEFGRID1 loosescf d4 GCP(DFT/SV(P)) printgap
|  2> %output
|  3>     printlevel normal
|  4> end
|  5> * xyz 0 1
|  6> C 1.8628433569 -1.2431470366 -0.0111267262
|  7> O 0.9422133486 -0.482699983 -0.8059976427
|  8> S 0.0003404655 0.4796159608 -2.41438e-05
|  9> O -0.7425885698 1.2093766286 -0.9790785978
| 10> O 0.7449187747 1.209098578 0.9783061918
| 11> O -0.9351230799 -0.4903095285 0.8016786685
| 12> C -1.872807042 -1.2461754239 0.0166702446
| 13> H 1.3332698788 -2.0649702729 0.4692868562
| 14> H 2.2960518974 -0.5863482414 0.7419676717
| 15> H 2.6196826315 -1.6110871985 -0.6991166342
| 16> H -2.8702523891 -0.8483137201 0.1956287651
| 17> H -1.8050781561 -2.2820855388 0.3434533919
| 18> H -1.6153109691 -1.1461693004 -1.0356918739
| 19> *
| 20>
| 21>                          ****END OF INPUT****

CARTESIAN COORDINATES (ANGSTROEM)
---------------------------------
  C      1.862843   -1.243147   -0.011127
  O      0.942213   -0.482700   -0.805998
  S      0.000340    0.479616   -0.000024
  O     -0.742589    1.209377   -0.979079
  O      0.744919    1.209099    0.978306
  O     -0.935123   -0.490310    0.801679
  C     -1.872807   -1.246175    0.016670
  H      1.333270   -2.064970    0.469287
  H      2.296052   -0.586348    0.741968
  H      2.619683   -1.611087   -0.699117
  H     -2.870252   -0.848314    0.195629
  H     -1.805078   -2.282086    0.343453
  H     -1.615311   -1.146169   -1.035692

 Total Charge           Charge          ....    0
 Multiplicity           Mult            ....    1
 Number of Electrons    NEL             ....   66
 Basis Dimension        Dim             ....  114

ORBITAL ENERGIES
----------------

  NO   OCC          E(Eh)            E(eV)
   0   2.0000     -88.284235     -2402.3362
   1   2.0000     -18.825442      -512.2663
   2   2.0000     -18.824845      -512.2501
   3   2.0000     -18.752710      -510.2872
   4   2.0000     -18.752065      -510.2696
   5   2.0000      -9.962592      -271.0959
   6   2.0000      -9.960472      -271.0382
   7   2.0000      -7.895200      -214.8393
   8   2.0000      -5.923366      -161.1830
   9   2.0000      -5.921654      -161.1364
  10   2.0000      -5.919340      -161.0734
  11   2.0000      -1.102971       -30.0134
  12   2.0000      -0.987377       -26.8679
  13   2.0000      -0.959142       -26.0996
  14   2.0000      -0.926748       -25.2181
  15   2.0000      -0.694769       -18.9056
  16   2.0000      -0.672077       -18.2881
  17   2.0000      -0.558469       -15.1967
  18   2.0000      -0.524730       -14.2786
  19   2.0000      -0.466875       -12.7043
  20   2.0000      -0.464631       -12.6433
  21   2.0000      -0.441364       -12.0101
  22   2.0000      -0.429502       -11.6873
  23   2.0000      -0.426309       -11.6005
  24   2.0000      -0.389859       -10.6086
  25   2.0000      -0.362618        -9.8673
  26   2.0000      -0.345458        -9.4004
  27   2.0000      -0.317210        -8.6317
  28   2.0000      -0.310118        -8.4387
  29   2.0000      -0.308806        -8.4030
  30   2.0000      -0.274189        -7.4611
  31   2.0000      -0.271544        -7.3891
  32   2.0000      -0.255432        -6.9506
  33   0.0000       0.013245         0.3604
  34   0.0000       0.035291         0.9603
  35   0.0000       0.044046         1.1985
  36   0.0000       0.063105         1.7172
  37   0.0000       0.079989         2.1766

MULLIKEN ATOMIC CHARGES
-----------------------
   0 C :   -0.129013
   1 O :   -0.365192
   2 S :    0.923394
   3 O :   -0.372222
   4 O :   -0.375531
   5 O :   -0.372244
   6 C :   -0.130052
   7 H :    0.120022
   8 H :    0.144426
   9 H :    0.142034
  10 H :    0.143254
  11 H :    0.131644
  12 H :    0.139481
Sum of atomic charges:   -0.0000000

LOEWDIN ATOMIC CHARGES
----------------------
   0 C :   -0.226872
   1 O :   -0.265731
   2 S :    1.117155
   3 O :   -0.439090
   4 O :   -0.437370
   5 O :   -0.268667
   6 C :   -0.220904
   7 H :    0.113893
   8 H :    0.124179
   9 H :    0.131441
  10 H :    0.128619
  11 H :    0.123013
  12 H :    0.120333

  Mayer bond orders larger than 0.100000
B(  0-C ,  1-O ) :   0.9031 B(  0-C ,  7-H ) :   0.9528 B(  0-C ,  8-H ) :   0.9365
B(  0-C ,  9-H ) :   0.9552 B(  1-O ,  2-S ) :   1.0279 B(  2-S ,  3-O ) :   1.8129
B(  2-S ,  4-O ) :   1.8135 B(  2-S ,  5-O ) :   1.0312 B(  5-O ,  6-C ) :   0.8947
B(  6-C , 10-H ) :   0.9581 B(  6-C , 11-H ) :   0.9543 B(  6-C , 12-H ) :   0.9355

Dispersion correction           -0.011857103
FINAL SINGLE POINT ENERGY      -777.743310212286

DIPOLE MOMENT
-------------

Method             : SCF
Type of density    : Electron Density
Multiplicity       :   1
Irrep              :   0
Energy             :  -777.8027644627711652 Eh
Relativity type    :
Basis              : AO
                                X                 Y                 Z
Electronic contribution:      0.028263190       6.225014545      -0.026503321
Nuclear contribution   :     -0.038933012      -8.003389899       0.014493366
                        -----------------------------------------
Total Dipole Moment    :     -0.010669822      -1.778375354      -0.012009955
                        -----------------------------------------
Magnitude (a.u.)       :      1.778447914
Magnitude (Debye)      :      4.520455351

Rotational constants in cm-1:             0.100736             0.079598             0.062100
Rotational constants in MHz :          3019.989868          2386.283225          1861.708890

                             ****ORCA TERMINATED NORMALLY****
TOTAL RUN TIME: 0 days 0 hours 0 minutes 6 seconds 978 msec
