                         Program Version 6.0.0  -   RELEASE  -
|  1> ! r2scan-3c def2/J RI DEFGRID2 scfconv6 printgap
|  2> %output
|  3>     printlevel normal
|  4> end
|  5> * xyz 0 1
|  6> C -0.3254179424 -2.7332650303 -0.182314799
|  7> C 0.4865473108 -1.4843702011 -0.0553779268
|  8> C 1.8522697985 -1.4246518586 -0.3759729061
|  9> N 2.5572069071 -0.3158503119 -0.246167933
| 10> C 1.9401043821 0.7886784662 0.2029541245
| 11> N 0.627136668 0.8427437129 0.5011317813
| 12> C -0.0535232285 -0.2747058516 0.3606102106
| 13> O -1.3986795609 -0.176012631 0.7080860531
| 14> C -2.2793284295 -0.0800589163 -0.329967322
| 15> O -1.9211434163 -0.1357137858 -1.4976013477
| 16> N -3.5408533889 0.0680548166 0.0762244632
| 17> C -4.605753694 0.1748850999 -0.8986331767
| 18> C -3.946832762 0.1406761312 1.4631829793
| 19> N 2.6670501559 1.8989524859 0.3602507688
| 20> C 2.0869391793 3.1381026964 0.8160202178
| 21> C 4.0746402617 1.9379305504 0.0450345562
| 22> C 2.5810894854 -2.6244038986 -0.8850641763
| 23> H -0.5992453978 -2.8966016525 -1.2253531747
| 24> H 0.2384115596 -3.5940311426 0.1680442136
| 25> H -1.2405354803 -2.6478171568 0.3998756497
| 26> H -5.1090062795 1.135905341 -0.791391112
| 27> H -5.3250177184 -0.6299904786 -0.7467692541
| 28> H -4.1742302363 0.0983307717 -1.8936148447
| 29> H -3.0717889494 0.1307590645 2.104889229
| 30> H -4.5854808225 -0.7108030506 1.7023668513
| 31> H -4.5057699348 1.0625275189 1.6250932616
| 32> H 2.5888356728 3.4660227063 1.7277950533
| 33> H 1.0317192085 2.9808744871 1.0146407045
| 34> H 2.2046566527 3.9066610603 0.0498715717
| 35> H 4.2552255453 2.6562485245 -0.7565755256
| 36> H 4.3903627418 0.9493348371 -0.2718344459
| 37> H 4.6391752413 2.2420942418 0.9276108693
| 38> H 3.5967244468 -2.3448868188 -1.14437274
| 39> H 2.6042700259 -3.3976222297 -0.1197943384
| 40> H 2.0729050735 -3.0249607733 -1.7589087253
| 41> *
| 42>
| 43>                          ****END OF INPUT****

CARTESIAN COORDINATES (ANGSTROEM)
---------------------------------
  C     -0.325418   -2.733265   -0.182315
  C      0.486547   -1.484370   -0.055378
  C      1.852270   -1.424652   -0.375973
  N      2.557207   -0.315850   -0.246168
  C      1.940104    0.788678    0.202954
  N      0.627137    0.842744    0.501132
  C     -0.053523   -0.274706    0.360610
  O     -1.398680   -0.176013    0.708086
  C     -2.279328   -0.080059   -0.329967
  O     -1.921143   -0.135714   -1.497601
  N     -3.540853    0.068055    0.076224
  C     -4.605754    0.174885   -0.898633
  C     -3.946833    0.140676    1.463183
  N      2.667050    1.898952    0.360251
  C      2.086939    3.138103    0.816020
  C      4.074640    1.937931    0.045035
  C      2.581089   -2.624404   -0.885064
  H     -0.599245   -2.896602   -1.225353
  H      0.238412   -3.594031    0.168044
  H     -1.240535   -2.647817    0.399876
  H     -5.109006    1.135905   -0.791391
  H     -5.325018   -0.629990   -0.746769
  H     -4.174230    0.098331   -1.893615
  H     -3.071789    0.130759    2.104889
  H     -4.585481   -0.710803    1.702367
  H     -4.505770    1.062528    1.625093
  H      2.588836    3.466023    1.727795
  H      1.031719    2.980874    1.014641
  H      2.204657    3.906661    0.049872
  H      4.255226    2.656249   -0.756576
  H      4.390363    0.949335   -0.271834
  H      4.639175    2.242094    0.927611
  H      3.596724   -2.344887   -1.144373
  H      2.604270   -3.397622   -0.119794
  H      2.072905   -3.024961   -1.758909

 Total Charge           Charge          ....    0
 Multiplicity           Mult            ....    1
 Number of Electrons    NEL             ....  128
 Basis Dimension        Dim             ....  443

ORBITAL ENERGIES
----------------

  NO   OCC          E(Eh)            E(eV)
   0   2.0000     -18.994584      -516.8689
   1   2.0000     -18.907189      -514.4908
   2   2.0000     -14.197996      -386.3471
   3   2.0000     -14.184134      -385.9699
   4   2.0000     -14.139860      -384.7652
   5   2.0000     -14.134571      -384.6212
   6   2.0000     -10.168147      -276.6893
   7   2.0000     -10.122481      -275.4467
   8   2.0000     -10.119014      -275.3524
   9   2.0000     -10.074713      -274.1469
  10   2.0000     -10.067064      -273.9387
  11   2.0000     -10.063131      -273.8317
  12   2.0000     -10.051578      -273.5173
  13   2.0000     -10.051210      -273.5073
  14   2.0000     -10.030285      -272.9379
  15   2.0000     -10.023471      -272.7525
  16   2.0000     -10.023231      -272.7460
  17   2.0000      -1.076042       -29.2806
  18   2.0000      -0.978897       -26.6371
  19   2.0000      -0.961852       -26.1733
  20   2.0000      -0.915317       -24.9070
  21   2.0000      -0.893756       -24.3203
  22   2.0000      -0.844907       -22.9911
  23   2.0000      -0.768552       -20.9134
  24   2.0000      -0.706045       -19.2125
  25   2.0000      -0.699349       -19.0303
  26   2.0000      -0.692112       -18.8333
  27   2.0000      -0.682287       -18.5660
  28   2.0000      -0.673115       -18.3164
  29   2.0000      -0.624055       -16.9814
  30   2.0000      -0.600952       -16.3527
  31   2.0000      -0.553603       -15.0643
  32   2.0000      -0.528948       -14.3934
  33   2.0000      -0.504551       -13.7295
  34   2.0000      -0.502964       -13.6863
  35   2.0000      -0.474207       -12.9038
  36   2.0000      -0.456896       -12.4328
  37   2.0000      -0.452949       -12.3254
  38   2.0000      -0.443938       -12.0802
  39   2.0000      -0.420808       -11.4508
  40   2.0000      -0.415031       -11.2936
  41   2.0000      -0.410524       -11.1709
  42   2.0000      -0.393661       -10.7121
  43   2.0000      -0.387927       -10.5560
  44   2.0000      -0.383385       -10.4324
  45   2.0000      -0.378572       -10.3015
  46   2.0000      -0.374191       -10.1822
  47   2.0000      -0.372785       -10.1440
  48   2.0000      -0.370093       -10.0707
  49   2.0000      -0.366087        -9.9617
  50   2.0000      -0.361471        -9.8361
  51   2.0000      -0.357228        -9.7207
  52   2.0000      -0.352922        -9.6035
  53   2.0000      -0.350833        -9.5466
  54   2.0000      -0.344481        -9.3738
  55   2.0000      -0.338571        -9.2130
  56   2.0000      -0.276982        -7.5371
  57   2.0000      -0.269064        -7.3216
  58   2.0000      -0.267277        -7.2730
  59   2.0000      -0.258864        -7.0440
  60   2.0000      -0.233421        -6.3517
  61   2.0000      -0.218710        -5.9514
  62   2.0000      -0.205717        -5.5978
  63   2.0000      -0.177274        -4.8239
  64   0.0000      -0.040276        -1.0960
  65   0.0000      -0.007746        -0.2108
  66   0.0000       0.030458         0.8288
  67   0.0000       0.060728         1.6525
  68   0.0000       0.078897         2.1469

MULLIKEN ATOMIC CHARGES
-----------------------
   0 C :   -0.618873
   1 C :    0.027420
   2 C :    0.255466
   3 N :   -0.243859
   4 C :    0.067436
   5 N :   -0.261804
   6 C :    0.155485
   7 O :   -0.131362
   8 C :    0.254357
   9 O :   -0.485426
  10 N :    0.076943
  11 C :   -0.385275
  12 C :   -0.379879
  13 N :    0.159017
  14 C :   -0.384111
  15 C :   -0.381464
  16 C :   -0.653580
  17 H :    0.196497
  18 H :    0.144908
  19 H :    0.165188
  20 H :    0.143749
  21 H :    0.141227
  22 H :    0.201556
  23 H :    0.186452
  24 H :    0.146357
  25 H :    0.143129
  26 H :    0.139268
  27 H :    0.198375
  28 H :    0.140417
  29 H :    0.141080
  30 H :    0.198271
  31 H :    0.138566
  32 H :    0.176361
  33 H :    0.166120
  34 H :    0.161989
Sum of atomic charges:   -0.0000000

LOEWDIN ATOMIC CHARGES
----------------------
   0 C :   -0.373368
   1 C :   -0.064633
   2 C :    0.178636
   3 N :   -0.568083
   4 C :    0.435380
   5 N :   -0.477931
   6 C :    0.395552
   7 O :   -0.469385
   8 C :    0.476500
   9 O :   -0.421956
  10 N :   -0.785855
  11 C :   -0.097699
  12 C :   -0.096930
  13 N :   -0.793466
  14 C :   -0.103845
  15 C :   -0.104862
  16 C :   -0.355029
  17 H :    0.172405
  18 H :    0.159414
  19 H :    0.172210
  20 H :    0.172715
  21 H :    0.172116
  22 H :    0.209625
  23 H :    0.205853
  24 H :    0.171441
  25 H :    0.173447
  26 H :    0.170479
  27 H :    0.210671
  28 H :    0.171239
  29 H :    0.170798
  30 H :    0.210487
  31 H :    0.170505
  32 H :    0.175402
  33 H :    0.168567
  34 H :    0.169602

  Mayer bond orders larger than 0.100000
B(  0-C ,  1-C ) :   0.6744 B(  0-C , 17-H ) :   0.9867 B(  0-C , 18-H ) :   0.9666
B(  0-C , 19-H ) :   0.9992 B(  1-C ,  2-C ) :   1.3345 B(  1-C ,  6-C ) :   1.3888
B(  2-C ,  3-N ) :   1.3548 B(  2-C , 16-C ) :   0.7593 B(  3-N ,  4-C ) :   1.3445
B(  4-C ,  5-N ) :   1.3512 B(  4-C ,  6-C ) :   0.1011 B(  4-C , 13-N ) :   1.3278
B(  5-N ,  6-C ) :   1.5518 B(  6-C ,  7-O ) :   1.0622 B(  7-O ,  8-C ) :   1.0123
B(  8-C ,  9-O ) :   1.7946 B(  8-C , 10-N ) :   1.3288 B( 10-N , 11-C ) :   0.9191
B( 10-N , 12-C ) :   0.9034 B( 11-C , 20-H ) :   0.9562 B( 11-C , 21-H ) :   0.9546
B( 11-C , 22-H ) :   0.9549 B( 12-C , 23-H ) :   0.9577 B( 12-C , 24-H ) :   0.9574
B( 12-C , 25-H ) :   0.9569 B( 13-N , 14-C ) :   0.9116 B( 13-N , 15-C ) :   0.9127
B( 14-C , 26-H ) :   0.9583 B( 14-C , 27-H ) :   0.9551 B( 14-C , 28-H ) :   0.9550
B( 15-C , 29-H ) :   0.9561 B( 15-C , 30-H ) :   0.9540 B( 15-C , 31-H ) :   0.9578
B( 16-C , 32-H ) :   1.0126 B( 16-C , 33-H ) :   0.9793 B( 16-C , 34-H ) :   0.9634

Dispersion correction           -0.013591024
FINAL SINGLE POINT ENERGY      -799.295795653856

DIPOLE MOMENT
-------------

Method             : SCF
Type of density    : Electron Density
Multiplicity       :   1
Irrep              :   0
Energy             :  -799.3198549166368139 Eh
Relativity type    :
Basis              : AO
                                X                 Y                 Z
Electronic contribution:      0.475106811       0.595159527      -0.220725499
Nuclear contribution   :     -0.964169338      -0.570685394       0.941120914
                        -----------------------------------------
Total Dipole Moment    :     -0.489062528       0.024474133       0.720395415
                        -----------------------------------------
Magnitude (a.u.)       :      0.871062967
Magnitude (Debye)      :      2.214066108

Rotational constants in cm-1:             0.024912             0.009672             0.007643
Rotational constants in MHz :           746.835832           289.963296           229.129476

                             ****ORCA TERMINATED NORMALLY****
TOTAL RUN TIME: 0 days 0 hours 1 minutes 25 seconds 142 msec
