                         Program Version 6.0.0  -   RELEASE  -
|  1> ! r2scan-3c def2/J RI DEFGRID2 scfconv6 printgap
|  2> %output
|  3>     printlevel normal
|  4> end
|  5> %cpcm
|  6>     smd true
|  7>     smdsolvent "water"
|  8> end
|  9> * xyz 0 1
| 10> C -0.3254179424 -2.7332650303 -0.182314799
| 11> C 0.4865473108 -1.4843702011 -0.0553779268
| 12> C 1.8522697985 -1.4246518586 -0.3759729061
| 13> N 2.5572069071 -0.3158503119 -0.246167933
| 14> C 1.9401043821 0.7886784662 0.2029541245
| 15> N 0.627136668 0.8427437129 0.5011317813
| 16> C -0.0535232285 -0.2747058516 0.3606102106
| 17> O -1.3986795609 -0.176012631 0.7080860531
| 18> C -2.2793284295 -0.0800589163 -0.329967322
| 19> O -1.9211434163 -0.1357137858 -1.4976013477
| 20> N -3.5408533889 0.0680548166 0.0762244632
| 21> C -4.605753694 0.1748850999 -0.8986331767
| 22> C -3.946832762 0.1406761312 1.4631829793
| 23> N 2.6670501559 1.8989524859 0.3602507688
| 24> C 2.0869391793 3.1381026964 0.8160202178
| 25> C 4.0746402617 1.9379305504 0.0450345562
| 26> C 2.5810894854 -2.6244038986 -0.8850641763
| 27> H -0.5992453978 -2.8966016525 -1.2253531747
| 28> H 0.2384115596 -3.5940311426 0.1680442136
| 29> H -1.2405354803 -2.6478171568 0.3998756497
| 30> H -5.1090062795 1.135905341 -0.791391112
| 31> H -5.3250177184 -0.6299904786 -0.7467692541
| 32> H -4.1742302363 0.0983307717 -1.8936148447
| 33> H -3.0717889494 0.1307590645 2.104889229
| 34> H -4.5854808225 -0.7108030506 1.7023668513
| 35> H -4.5057699348 1.0625275189 1.6250932616
| 36> H 2.5888356728 3.4660227063 1.7277950533
| 37> H 1.0317192085 2.9808744871 1.0146407045
| 38> H 2.2046566527 3.9066610603 0.0498715717
| 39> H 4.2552255453 2.6562485245 -0.7565755256
| 40> H 4.3903627418 0.9493348371 -0.2718344459
| 41> H 4.6391752413 2.2420942418 0.9276108693
| 42> H 3.5967244468 -2.3448868188 -1.14437274
| 43> H 2.6042700259 -3.3976222297 -0.1197943384
| 44> H 2.0729050735 -3.0249607733 -1.7589087253
| 45> *
| 46>
| 47>                          ****END OF INPUT****

CARTESIAN COORDINATES (ANGSTROEM)
---------------------------------
  C     -0.325418   -2.733265   -0.182315
  C      0.486547   -1.484370   -0.055378
  C      1.852270   -1.424652   -0.375973
  N      2.557207   -0.315850   -0.246168
  C      1.940104    0.788678    0.202954
  N      0.627137    0.842744    0.501132
  C     -0.053523   -0.274706    0.360610
  O     -1.398680   -0.176013    0.708086
  C     -2.279328   -0.080059   -0.329967
  O     -1.921143   -0.135714   -1.497601
  N     -3.540853    0.068055    0.076224
  C     -4.605754    0.174885   -0.898633
  C     -3.946833    0.140676    1.463183
  N      2.667050    1.898952    0.360251
  C      2.086939    3.138103    0.816020
  C      4.074640    1.937931    0.045035
  C      2.581089   -2.624404   -0.885064
  H     -0.599245   -2.896602   -1.225353
  H      0.238412   -3.594031    0.168044
  H     -1.240535   -2.647817    0.399876
  H     -5.109006    1.135905   -0.791391
  H     -5.325018   -0.629990   -0.746769
  H     -4.174230    0.098331   -1.893615
  H     -3.071789    0.130759    2.104889
  H     -4.585481   -0.710803    1.702367
  H     -4.505770    1.062528    1.625093
  H      2.588836    3.466023    1.727795
  H      1.031719    2.980874    1.014641
  H      2.204657    3.906661    0.049872
  H      4.255226    2.656249   -0.756576
  H      4.390363    0.949335   -0.271834
  H      4.639175    2.242094    0.927611
  H      3.596724   -2.344887   -1.144373
  H      2.604270   -3.397622   -0.119794
  H      2.072905   -3.024961   -1.758909

 Total Charge           Charge          ....    0
 Multiplicity           Mult            ....    1
 Number of Electrons    NEL             ....  128
 Basis Dimension        Dim             ....  443

ORBITAL ENERGIES
----------------

  NO   OCC          E(Eh)            E(eV)
   0   2.0000     -19.008793      -517.2556
   1   2.0000     -18.930978      -515.1381
   2   2.0000     -14.201929      -386.4541
   3   2.0000     -14.188741      -386.0953
   4   2.0000     -14.152885      -385.1196
   5   2.0000     -14.145384      -384.9155
   6   2.0000     -10.184638      -277.1381
   7   2.0000     -10.134294      -275.7681
   8   2.0000     -10.128888      -275.6211
   9   2.0000     -10.083768      -274.3933
  10   2.0000     -10.054639      -273.6006
  11   2.0000     -10.053922      -273.5811
  12   2.0000     -10.047258      -273.3998
  13   2.0000     -10.046534      -273.3801
  14   2.0000     -10.038435      -273.1597
  15   2.0000     -10.022587      -272.7285
  16   2.0000     -10.020392      -272.6687
  17   2.0000      -1.091767       -29.7085
  18   2.0000      -0.997572       -27.1453
  19   2.0000      -0.972719       -26.4690
  20   2.0000      -0.920170       -25.0391
  21   2.0000      -0.899872       -24.4868
  22   2.0000      -0.857039       -23.3212
  23   2.0000      -0.774928       -21.0869
  24   2.0000      -0.708141       -19.2695
  25   2.0000      -0.700500       -19.0616
  26   2.0000      -0.687090       -18.6967
  27   2.0000      -0.680743       -18.5240
  28   2.0000      -0.673392       -18.3239
  29   2.0000      -0.626755       -17.0549
  30   2.0000      -0.606882       -16.5141
  31   2.0000      -0.558217       -15.1899
  32   2.0000      -0.534858       -14.5542
  33   2.0000      -0.510984       -13.9046
  34   2.0000      -0.503834       -13.7100
  35   2.0000      -0.480861       -13.0849
  36   2.0000      -0.462813       -12.5938
  37   2.0000      -0.455192       -12.3864
  38   2.0000      -0.446368       -12.1463
  39   2.0000      -0.420958       -11.4549
  40   2.0000      -0.416193       -11.3252
  41   2.0000      -0.415460       -11.3052
  42   2.0000      -0.400042       -10.8857
  43   2.0000      -0.392947       -10.6926
  44   2.0000      -0.390301       -10.6206
  45   2.0000      -0.372599       -10.1389
  46   2.0000      -0.371456       -10.1078
  47   2.0000      -0.370463       -10.0808
  48   2.0000      -0.365403        -9.9431
  49   2.0000      -0.363969        -9.9041
  50   2.0000      -0.359943        -9.7945
  51   2.0000      -0.357738        -9.7345
  52   2.0000      -0.352688        -9.5971
  53   2.0000      -0.350313        -9.5325
  54   2.0000      -0.344174        -9.3654
  55   2.0000      -0.340616        -9.2686
  56   2.0000      -0.294724        -8.0198
  57   2.0000      -0.282131        -7.6772
  58   2.0000      -0.280766        -7.6400
  59   2.0000      -0.265082        -7.2132
  60   2.0000      -0.259110        -7.0507
  61   2.0000      -0.223976        -6.0947
  62   2.0000      -0.218874        -5.9559
  63   2.0000      -0.183928        -5.0049
  64   0.0000      -0.052181        -1.4199
  65   0.0000      -0.017105        -0.4654
  66   0.0000       0.015705         0.4273
  67   0.0000       0.056180         1.5287
  68   0.0000       0.075228         2.0471

MULLIKEN ATOMIC CHARGES
-----------------------
   0 C :   -0.645067
   1 C :   -0.002309
   2 C :    0.257465
   3 N :   -0.276762
   4 C :    0.069285
   5 N :   -0.285970
   6 C :    0.131732
   7 O :   -0.134987
   8 C :    0.273592
   9 O :   -0.572988
  10 N :    0.084561
  11 C :   -0.407468
  12 C :   -0.404451
  13 N :    0.159446
  14 C :   -0.413753
  15 C :   -0.411176
  16 C :   -0.668654
  17 H :    0.203102
  18 H :    0.173521
  19 H :    0.185874
  20 H :    0.173865
  21 H :    0.172699
  22 H :    0.190158
  23 H :    0.189684
  24 H :    0.174019
  25 H :    0.171340
  26 H :    0.167166
  27 H :    0.192081
  28 H :    0.166893
  29 H :    0.167044
  30 H :    0.193722
  31 H :    0.166055
  32 H :    0.181824
  33 H :    0.194880
  34 H :    0.183575
Sum of atomic charges:   -0.0000000

LOEWDIN ATOMIC CHARGES
----------------------
   0 C :   -0.375793
   1 C :   -0.070933
   2 C :    0.182298
   3 N :   -0.588595
   4 C :    0.428979
   5 N :   -0.507750
   6 C :    0.382348
   7 O :   -0.472575
   8 C :    0.475259
   9 O :   -0.492887
  10 N :   -0.770714
  11 C :   -0.093889
  12 C :   -0.091259
  13 N :   -0.790527
  14 C :   -0.103422
  15 C :   -0.104257
  16 C :   -0.356427
  17 H :    0.174205
  18 H :    0.170947
  19 H :    0.177637
  20 H :    0.185440
  21 H :    0.185705
  22 H :    0.204013
  23 H :    0.206231
  24 H :    0.184550
  25 H :    0.185888
  26 H :    0.181943
  27 H :    0.206381
  28 H :    0.181613
  29 H :    0.181078
  30 H :    0.206898
  31 H :    0.181709
  32 H :    0.176194
  33 H :    0.180986
  34 H :    0.178721

  Mayer bond orders larger than 0.100000
B(  0-C ,  1-C ) :   0.6959 B(  0-C , 17-H ) :   0.9765 B(  0-C , 18-H ) :   0.9592
B(  0-C , 19-H ) :   0.9940 B(  1-C ,  2-C ) :   1.3126 B(  1-C ,  6-C ) :   1.3951
B(  2-C ,  3-N ) :   1.3586 B(  2-C , 16-C ) :   0.7848 B(  3-N ,  4-C ) :   1.3430
B(  4-C ,  5-N ) :   1.3406 B(  4-C , 13-N ) :   1.3527 B(  5-N ,  6-C ) :   1.5510
B(  6-C ,  7-O ) :   1.0456 B(  7-O ,  8-C ) :   1.0173 B(  8-C ,  9-O ) :   1.7216
B(  8-C , 10-N ) :   1.3850 B( 10-N , 11-C ) :   0.9084 B( 10-N , 12-C ) :   0.8943
B( 11-C , 20-H ) :   0.9471 B( 11-C , 21-H ) :   0.9460 B( 11-C , 22-H ) :   0.9560
B( 12-C , 23-H ) :   0.9538 B( 12-C , 24-H ) :   0.9476 B( 12-C , 25-H ) :   0.9485
B( 13-N , 14-C ) :   0.8989 B( 13-N , 15-C ) :   0.9002 B( 14-C , 26-H ) :   0.9503
B( 14-C , 27-H ) :   0.9570 B( 14-C , 28-H ) :   0.9481 B( 15-C , 29-H ) :   0.9490
B( 15-C , 30-H ) :   0.9554 B( 15-C , 31-H ) :   0.9501 B( 16-C , 32-H ) :   1.0082
B( 16-C , 33-H ) :   0.9621 B( 16-C , 34-H ) :   0.9517

Dispersion correction           -0.013591024
FINAL SINGLE POINT ENERGY      -799.310028514889

DIPOLE MOMENT
-------------

Method             : SCF
Type of density    : Electron Density
Multiplicity       :   1
Irrep              :   0
Energy             :  -799.3340877776701063 Eh
Relativity type    :
Basis              : AO
                                X                 Y                 Z
Electronic contribution:      0.265374499       0.525898411       0.222618389
Nuclear contribution   :     -0.964169338      -0.570685394       0.941120914
                        -----------------------------------------
Total Dipole Moment    :     -0.698794839      -0.044786983       1.163739302
                        -----------------------------------------
Magnitude (a.u.)       :      1.358163932
Magnitude (Debye)      :      3.452178365

Rotational constants in cm-1:             0.024912             0.009672             0.007643
Rotational constants in MHz :           746.835832           289.963296           229.129476

                             ****ORCA TERMINATED NORMALLY****
TOTAL RUN TIME: 0 days 0 hours 2 minutes 1 seconds 591 msec
