                         Program Version 6.0.0  -   RELEASE  -
|  1> ! r2scan-3c def2/J RI DEFGRID2 scfconv6 printgap
|  2> %output
|  3>     printlevel normal
|  4> end
|  5> * xyz 0 1
|  6> C 1.7843980722 1.0640694288 -0.5681218694
|  7> C 1.3176340587 -0.3550809378 -0.2459075492
|  8> C 1.7100805262 -0.7514467146 1.1819750634
|  9> O -0.0557350241 -0.6088369749 -0.5367831109
| 10> C -1.064272864 0.3397796016 -0.1965316494
| 11> C -2.302409114 -0.0967559934 -0.9798228062
| 12> C -1.3750653551 0.3959126538 1.301150795
| 13> H 1.4692704609 1.3507927252 -1.5687602757
| 14> H 1.3907321082 1.7800185328 0.1497344667
| 15> H 2.8688819794 1.0934164201 -0.5227880448
| 16> H 1.8160637935 -1.0501931781 -0.9356733087
| 17> H 1.2435763425 -1.698341158 1.4402908518
| 18> H 1.4042522827 0.0002214713 1.9036048499
| 19> H 2.7890353724 -0.8648111774 1.238575484
| 20> H -0.7627569259 1.3389931534 -0.5422002253
| 21> H -2.0613495629 -0.171461083 -2.0364787696
| 22> H -2.6280514252 -1.0730429028 -0.6317023202
| 23> H -3.1044891301 0.6218872983 -0.8441002649
| 24> H -0.5792386834 0.884475228 1.8555881217
| 25> H -1.5068607003 -0.6117047249 1.6870125614
| 26> H -2.2928618855 0.9562813681 1.4558538461
| 27> *
| 28>
| 29>                          ****END OF INPUT****

CARTESIAN COORDINATES (ANGSTROEM)
---------------------------------
  C      1.784398    1.064069   -0.568122
  C      1.317634   -0.355081   -0.245908
  C      1.710081   -0.751447    1.181975
  O     -0.055735   -0.608837   -0.536783
  C     -1.064273    0.339780   -0.196532
  C     -2.302409   -0.096756   -0.979823
  C     -1.375065    0.395913    1.301151
  H      1.469270    1.350793   -1.568760
  H      1.390732    1.780019    0.149734
  H      2.868882    1.093416   -0.522788
  H      1.816064   -1.050193   -0.935673
  H      1.243576   -1.698341    1.440291
  H      1.404252    0.000221    1.903605
  H      2.789035   -0.864811    1.238575
  H     -0.762757    1.338993   -0.542200
  H     -2.061350   -0.171461   -2.036479
  H     -2.628051   -1.073043   -0.631702
  H     -3.104489    0.621887   -0.844100
  H     -0.579239    0.884475    1.855588
  H     -1.506861   -0.611705    1.687013
  H     -2.292862    0.956281    1.455854

 Total Charge           Charge          ....    0
 Multiplicity           Mult            ....    1
 Number of Electrons    NEL             ....   58
 Basis Dimension        Dim             ....  208

ORBITAL ENERGIES
----------------

  NO   OCC          E(Eh)            E(eV)
   0   2.0000     -18.938081      -515.3314
   1   2.0000     -10.080022      -274.2913
   2   2.0000     -10.078035      -274.2373
   3   2.0000     -10.020717      -272.6776
   4   2.0000     -10.014936      -272.5203
   5   2.0000     -10.014055      -272.4963
   6   2.0000     -10.011988      -272.4400
   7   2.0000      -0.982311       -26.7300
   8   2.0000      -0.759379       -20.6638
   9   2.0000      -0.718170       -19.5424
  10   2.0000      -0.656986       -17.8775
  11   2.0000      -0.649729       -17.6800
  12   2.0000      -0.580580       -15.7984
  13   2.0000      -0.513959       -13.9855
  14   2.0000      -0.460681       -12.5358
  15   2.0000      -0.435032       -11.8378
  16   2.0000      -0.419045       -11.4028
  17   2.0000      -0.388723       -10.5777
  18   2.0000      -0.386297       -10.5117
  19   2.0000      -0.370853       -10.0914
  20   2.0000      -0.360002        -9.7961
  21   2.0000      -0.355173        -9.6648
  22   2.0000      -0.347893        -9.4667
  23   2.0000      -0.331483        -9.0201
  24   2.0000      -0.325132        -8.8473
  25   2.0000      -0.307784        -8.3752
  26   2.0000      -0.295885        -8.0514
  27   2.0000      -0.258858        -7.0439
  28   2.0000      -0.212898        -5.7933
  29   0.0000       0.078382         2.1329
  30   0.0000       0.096456         2.6247
  31   0.0000       0.115330         3.1383
  32   0.0000       0.121370         3.3026
  33   0.0000       0.131437         3.5766

MULLIKEN ATOMIC CHARGES
-----------------------
   0 C :   -0.488296
   1 C :   -0.001298
   2 C :   -0.453402
   3 O :   -0.198202
   4 C :   -0.020542
   5 C :   -0.465524
   6 C :   -0.451690
   7 H :    0.161089
   8 H :    0.153203
   9 H :    0.148672
  10 H :    0.145989
  11 H :    0.160152
  12 H :    0.137026
  13 H :    0.141198
  14 H :    0.142348
  15 H :    0.154540
  16 H :    0.150440
  17 H :    0.137918
  18 H :    0.137546
  19 H :    0.167080
  20 H :    0.141753
Sum of atomic charges:   -0.0000000

LOEWDIN ATOMIC CHARGES
----------------------
   0 C :   -0.402020
   1 C :    0.052452
   2 C :   -0.400297
   3 O :   -0.768079
   4 C :    0.056781
   5 C :   -0.380041
   6 C :   -0.400732
   7 H :    0.160907
   8 H :    0.154348
   9 H :    0.160806
  10 H :    0.182005
  11 H :    0.163675
  12 H :    0.151437
  13 H :    0.155768
  14 H :    0.164837
  15 H :    0.162159
  16 H :    0.161046
  17 H :    0.153667
  18 H :    0.150800
  19 H :    0.163268
  20 H :    0.157213

  Mayer bond orders larger than 0.100000
B(  0-C ,  1-C ) :   0.9051 B(  0-C ,  7-H ) :   0.9708 B(  0-C ,  8-H ) :   0.9736
B(  0-C ,  9-H ) :   0.9610 B(  1-C ,  2-C ) :   0.9430 B(  1-C ,  3-O ) :   0.9303
B(  1-C , 10-H ) :   0.9567 B(  2-C , 11-H ) :   0.9728 B(  2-C , 12-H ) :   0.9709
B(  2-C , 13-H ) :   0.9642 B(  3-O ,  4-C ) :   0.8521 B(  4-C ,  5-C ) :   0.9540
B(  4-C ,  6-C ) :   0.8681 B(  4-C , 14-H ) :   0.9583 B(  5-C , 15-H ) :   0.9729
B(  5-C , 16-H ) :   0.9794 B(  5-C , 17-H ) :   0.9722 B(  6-C , 18-H ) :   0.9679
B(  6-C , 19-H ) :   0.9822 B(  6-C , 20-H ) :   0.9661

Dispersion correction           -0.005582404
FINAL SINGLE POINT ENERGY      -312.190042004015

DIPOLE MOMENT
-------------

Method             : SCF
Type of density    : Electron Density
Multiplicity       :   1
Irrep              :   0
Energy             :  -312.1967300786926671 Eh
Relativity type    :
Basis              : AO
                                X                 Y                 Z
Electronic contribution:      0.116914783      -1.995652093      -2.296290289
Nuclear contribution   :      0.042519782       2.389409492       2.477188593
                        -----------------------------------------
Total Dipole Moment    :      0.159434566       0.393757399       0.180898304
                        -----------------------------------------
Magnitude (a.u.)       :      0.461723366
Magnitude (Debye)      :      1.173607528

Rotational constants in cm-1:             0.131607             0.056259             0.050160
Rotational constants in MHz :          3945.464907          1686.590661          1503.767914

                             ****ORCA TERMINATED NORMALLY****
TOTAL RUN TIME: 0 days 0 hours 0 minutes 24 seconds 153 msec
