                         Program Version 6.0.0  -   RELEASE  -
|  1> ! r2scan-3c def2/J RI DEFGRID2 scfconv6 printgap
|  2> %output
|  3>     printlevel normal
|  4> end
|  5> %cpcm
|  6>     smd true
|  7>     smdsolvent "water"
|  8> end
|  9> * xyz 0 1
| 10> C 1.7843980722 1.0640694288 -0.5681218694
| 11> C 1.3176340587 -0.3550809378 -0.2459075492
| 12> C 1.7100805262 -0.7514467146 1.1819750634
| 13> O -0.0557350241 -0.6088369749 -0.5367831109
| 14> C -1.064272864 0.3397796016 -0.1965316494
| 15> C -2.302409114 -0.0967559934 -0.9798228062
| 16> C -1.3750653551 0.3959126538 1.301150795
| 17> H 1.4692704609 1.3507927252 -1.5687602757
| 18> H 1.3907321082 1.7800185328 0.1497344667
| 19> H 2.8688819794 1.0934164201 -0.5227880448
| 20> H 1.8160637935 -1.0501931781 -0.9356733087
| 21> H 1.2435763425 -1.698341158 1.4402908518
| 22> H 1.4042522827 0.0002214713 1.9036048499
| 23> H 2.7890353724 -0.8648111774 1.238575484
| 24> H -0.7627569259 1.3389931534 -0.5422002253
| 25> H -2.0613495629 -0.171461083 -2.0364787696
| 26> H -2.6280514252 -1.0730429028 -0.6317023202
| 27> H -3.1044891301 0.6218872983 -0.8441002649
| 28> H -0.5792386834 0.884475228 1.8555881217
| 29> H -1.5068607003 -0.6117047249 1.6870125614
| 30> H -2.2928618855 0.9562813681 1.4558538461
| 31> *
| 32>
| 33>                          ****END OF INPUT****

CARTESIAN COORDINATES (ANGSTROEM)
---------------------------------
  C      1.784398    1.064069   -0.568122
  C      1.317634   -0.355081   -0.245908
  C      1.710081   -0.751447    1.181975
  O     -0.055735   -0.608837   -0.536783
  C     -1.064273    0.339780   -0.196532
  C     -2.302409   -0.096756   -0.979823
  C     -1.375065    0.395913    1.301151
  H      1.469270    1.350793   -1.568760
  H      1.390732    1.780019    0.149734
  H      2.868882    1.093416   -0.522788
  H      1.816064   -1.050193   -0.935673
  H      1.243576   -1.698341    1.440291
  H      1.404252    0.000221    1.903605
  H      2.789035   -0.864811    1.238575
  H     -0.762757    1.338993   -0.542200
  H     -2.061350   -0.171461   -2.036479
  H     -2.628051   -1.073043   -0.631702
  H     -3.104489    0.621887   -0.844100
  H     -0.579239    0.884475    1.855588
  H     -1.506861   -0.611705    1.687013
  H     -2.292862    0.956281    1.455854

 Total Charge           Charge          ....    0
 Multiplicity           Mult            ....    1
 Number of Electrons    NEL             ....   58
 Basis Dimension        Dim             ....  208

ORBITAL ENERGIES
----------------

  NO   OCC          E(Eh)            E(eV)
   0   2.0000     -18.946086      -515.5492
   1   2.0000     -10.076846      -274.2049
   2   2.0000     -10.075353      -274.1643
   3   2.0000     -10.011111      -272.4162
   4   2.0000     -10.009274      -272.3662
   5   2.0000     -10.007827      -272.3268
   6   2.0000     -10.007325      -272.3132
   7   2.0000      -0.988767       -26.9057
   8   2.0000      -0.756046       -20.5731
   9   2.0000      -0.713357       -19.4114
  10   2.0000      -0.650522       -17.7016
  11   2.0000      -0.645071       -17.5533
  12   2.0000      -0.578984       -15.7550
  13   2.0000      -0.510260       -13.8849
  14   2.0000      -0.457389       -12.4462
  15   2.0000      -0.431710       -11.7474
  16   2.0000      -0.416961       -11.3461
  17   2.0000      -0.383119       -10.4252
  18   2.0000      -0.381257       -10.3745
  19   2.0000      -0.365428        -9.9438
  20   2.0000      -0.352396        -9.5892
  21   2.0000      -0.351968        -9.5775
  22   2.0000      -0.342098        -9.3090
  23   2.0000      -0.327468        -8.9109
  24   2.0000      -0.320769        -8.7286
  25   2.0000      -0.302977        -8.2444
  26   2.0000      -0.290796        -7.9130
  27   2.0000      -0.263082        -7.1588
  28   2.0000      -0.218601        -5.9484
  29   0.0000       0.084732         2.3057
  30   0.0000       0.100666         2.7393
  31   0.0000       0.122356         3.3295
  32   0.0000       0.128917         3.5080
  33   0.0000       0.136311         3.7092

MULLIKEN ATOMIC CHARGES
-----------------------
   0 C :   -0.520638
   1 C :    0.023366
   2 C :   -0.503887
   3 O :   -0.274658
   4 C :    0.007821
   5 C :   -0.512662
   6 C :   -0.499068
   7 H :    0.166260
   8 H :    0.171687
   9 H :    0.167546
  10 H :    0.155371
  11 H :    0.161230
  12 H :    0.160621
  13 H :    0.160990
  14 H :    0.159649
  15 H :    0.160334
  16 H :    0.160556
  17 H :    0.162106
  18 H :    0.161963
  19 H :    0.170880
  20 H :    0.160532
Sum of atomic charges:   -0.0000000

LOEWDIN ATOMIC CHARGES
----------------------
   0 C :   -0.404674
   1 C :    0.053290
   2 C :   -0.406185
   3 O :   -0.808759
   4 C :    0.058453
   5 C :   -0.389225
   6 C :   -0.405499
   7 H :    0.162411
   8 H :    0.160838
   9 H :    0.167101
  10 H :    0.185189
  11 H :    0.162122
  12 H :    0.158031
  13 H :    0.162656
  14 H :    0.173265
  15 H :    0.161452
  16 H :    0.161634
  17 H :    0.163015
  18 H :    0.158228
  19 H :    0.163008
  20 H :    0.163648

  Mayer bond orders larger than 0.100000
B(  0-C ,  1-C ) :   0.9064 B(  0-C ,  7-H ) :   0.9657 B(  0-C ,  8-H ) :   0.9688
B(  0-C ,  9-H ) :   0.9573 B(  1-C ,  2-C ) :   0.9328 B(  1-C ,  3-O ) :   0.9202
B(  1-C , 10-H ) :   0.9539 B(  2-C , 11-H ) :   0.9701 B(  2-C , 12-H ) :   0.9706
B(  2-C , 13-H ) :   0.9599 B(  3-O ,  4-C ) :   0.8445 B(  4-C ,  5-C ) :   0.9404
B(  4-C ,  6-C ) :   0.8654 B(  4-C , 14-H ) :   0.9546 B(  5-C , 15-H ) :   0.9725
B(  5-C , 16-H ) :   0.9766 B(  5-C , 17-H ) :   0.9662 B(  6-C , 18-H ) :   0.9650
B(  6-C , 19-H ) :   0.9778 B(  6-C , 20-H ) :   0.9622

Dispersion correction           -0.005582404
FINAL SINGLE POINT ENERGY      -312.192235160936

DIPOLE MOMENT
-------------

Method             : SCF
Type of density    : Electron Density
Multiplicity       :   1
Irrep              :   0
Energy             :  -312.1989232356135631 Eh
Relativity type    :
Basis              : AO
                                X                 Y                 Z
Electronic contribution:      0.189839660      -1.708414698      -2.152390930
Nuclear contribution   :      0.042519782       2.389409492       2.477188593
                        -----------------------------------------
Total Dipole Moment    :      0.232359442       0.680994795       0.324797663
                        -----------------------------------------
Magnitude (a.u.)       :      0.789454459
Magnitude (Debye)      :      2.006633764

Rotational constants in cm-1:             0.131607             0.056259             0.050160
Rotational constants in MHz :          3945.464907          1686.590661          1503.767914

                             ****ORCA TERMINATED NORMALLY****
TOTAL RUN TIME: 0 days 0 hours 0 minutes 28 seconds 72 msec
