                         Program Version 6.0.0  -   RELEASE  -
|  1> ! r2scan-3c def2/J RI DEFGRID2 scfconv6 printgap
|  2> %output
|  3>     printlevel normal
|  4> end
|  5> %cpcm
|  6>     smd true
|  7>     smdsolvent "water"
|  8> end
|  9> * xyz 0 1
| 10> C -1.9596887896 1.4614586262 0.0705237786
| 11> C -1.4854502258 0.0756653502 -0.3912727523
| 12> C -0.1613607885 -0.3650377493 0.2433530416
| 13> H -0.2085360928 -0.1754078791 1.3223727935
| 14> C 0.0756752983 -1.8579825186 0.0228468254
| 15> C 1.0111544067 0.4364523327 -0.3380178655
| 16> O 2.2393499465 0.181840082 0.3123519001
| 17> H -2.9045581069 1.3915775181 0.6023144779
| 18> H -1.2380625852 1.9196162942 0.7416850874
| 19> H -2.1000672305 2.1310675595 -0.7732947722
| 20> H -1.3660779507 0.0623438717 -1.4761080083
| 21> H -2.2425355475 -0.6690666218 -0.1422532874
| 22> H -0.6607764106 -2.4487205521 0.5613158107
| 23> H 1.0685985004 -2.1333164151 0.3703727836
| 24> H 0.0066056633 -2.096703461 -1.0362359639
| 25> H 0.7888182062 1.511009958 -0.3099887151
| 26> H 1.1728295852 0.1487763797 -1.3801173637
| 27> H 2.1628789672 0.4448826605 1.2398289246
| 28> *
| 29>
| 30>                          ****END OF INPUT****

CARTESIAN COORDINATES (ANGSTROEM)
---------------------------------
  C     -1.959689    1.461459    0.070524
  C     -1.485450    0.075665   -0.391273
  C     -0.161361   -0.365038    0.243353
  H     -0.208536   -0.175408    1.322373
  C      0.075675   -1.857983    0.022847
  C      1.011154    0.436452   -0.338018
  O      2.239350    0.181840    0.312352
  H     -2.904558    1.391578    0.602314
  H     -1.238063    1.919616    0.741685
  H     -2.100067    2.131068   -0.773295
  H     -1.366078    0.062344   -1.476108
  H     -2.242536   -0.669067   -0.142253
  H     -0.660776   -2.448721    0.561316
  H      1.068599   -2.133316    0.370373
  H      0.006606   -2.096703   -1.036236
  H      0.788818    1.511010   -0.309989
  H      1.172830    0.148776   -1.380117
  H      2.162879    0.444883    1.239829

 Total Charge           Charge          ....    0
 Multiplicity           Mult            ....    1
 Number of Electrons    NEL             ....   50
 Basis Dimension        Dim             ....  179

ORBITAL ENERGIES
----------------

  NO   OCC          E(Eh)            E(eV)
   0   2.0000     -18.949192      -515.6337
   1   2.0000     -10.064398      -273.8662
   2   2.0000     -10.024085      -272.7692
   3   2.0000     -10.016787      -272.5706
   4   2.0000     -10.007359      -272.3141
   5   2.0000     -10.006059      -272.2787
   6   2.0000      -0.984809       -26.7980
   7   2.0000      -0.766452       -20.8562
   8   2.0000      -0.688700       -18.7405
   9   2.0000      -0.635286       -17.2870
  10   2.0000      -0.584961       -15.9176
  11   2.0000      -0.531299       -14.4574
  12   2.0000      -0.462010       -12.5719
  13   2.0000      -0.432459       -11.7678
  14   2.0000      -0.405348       -11.0301
  15   2.0000      -0.390502       -10.6261
  16   2.0000      -0.375637       -10.2216
  17   2.0000      -0.369246       -10.0477
  18   2.0000      -0.327129        -8.9016
  19   2.0000      -0.326936        -8.8964
  20   2.0000      -0.308647        -8.3987
  21   2.0000      -0.298216        -8.1149
  22   2.0000      -0.283914        -7.7257
  23   2.0000      -0.275857        -7.5065
  24   2.0000      -0.233948        -6.3661
  25   0.0000       0.077384         2.1057
  26   0.0000       0.098023         2.6673
  27   0.0000       0.113702         3.0940
  28   0.0000       0.127479         3.4689
  29   0.0000       0.134475         3.6593

MULLIKEN ATOMIC CHARGES
-----------------------
   0 C :   -0.553619
   1 C :   -0.264936
   2 C :   -0.023234
   3 H :    0.161100
   4 C :   -0.549618
   5 C :   -0.207666
   6 O :   -0.506989
   7 H :    0.160772
   8 H :    0.166763
   9 H :    0.161798
  10 H :    0.161010
  11 H :    0.159668
  12 H :    0.161696
  13 H :    0.161939
  14 H :    0.160252
  15 H :    0.143974
  16 H :    0.157283
  17 H :    0.349807
Sum of atomic charges:   -0.0000000

LOEWDIN ATOMIC CHARGES
----------------------
   0 C :   -0.439287
   1 C :   -0.311610
   2 C :   -0.229544
   3 H :    0.163169
   4 C :   -0.422709
   5 C :    0.005198
   6 O :   -0.656955
   7 H :    0.154509
   8 H :    0.156169
   9 H :    0.155052
  10 H :    0.160715
  11 H :    0.160143
  12 H :    0.156148
  13 H :    0.159040
  14 H :    0.158166
  15 H :    0.167376
  16 H :    0.181253
  17 H :    0.283166

  Mayer bond orders larger than 0.100000
B(  0-C ,  1-C ) :   0.8271 B(  0-C ,  7-H ) :   0.9797 B(  0-C ,  8-H ) :   0.9867
B(  0-C ,  9-H ) :   0.9800 B(  1-C ,  2-C ) :   0.8743 B(  1-C , 10-H ) :   0.9831
B(  1-C , 11-H ) :   0.9762 B(  2-C ,  3-H ) :   0.9577 B(  2-C ,  4-C ) :   0.8866
B(  2-C ,  5-C ) :   0.9076 B(  4-C , 12-H ) :   0.9736 B(  4-C , 13-H ) :   0.9748
B(  4-C , 14-H ) :   0.9809 B(  5-C ,  6-O ) :   0.9438 B(  5-C , 15-H ) :   0.9622
B(  5-C , 16-H ) :   0.9824 B(  6-O , 17-H ) :   0.8670

Dispersion correction           -0.004349203
FINAL SINGLE POINT ENERGY      -272.900104373197

DIPOLE MOMENT
-------------

Method             : SCF
Type of density    : Electron Density
Multiplicity       :   1
Irrep              :   0
Energy             :  -272.9056503277780621 Eh
Relativity type    :
Basis              : AO
                                X                 Y                 Z
Electronic contribution:      4.393641890       0.235183118       0.685151931
Nuclear contribution   :     -5.146258663       0.083436306      -0.258151913
                        -----------------------------------------
Total Dipole Moment    :     -0.752616773       0.318619423       0.427000019
                        -----------------------------------------
Magnitude (a.u.)       :      0.922105938
Magnitude (Debye)      :      2.343807028

Rotational constants in cm-1:             0.160645             0.076091             0.056888
Rotational constants in MHz :          4816.013281          2281.141413          1705.462560

                             ****ORCA TERMINATED NORMALLY****
TOTAL RUN TIME: 0 days 0 hours 0 minutes 26 seconds 940 msec
