                         Program Version 6.0.0  -   RELEASE  -
|  1> ! pbe def2-sv(p) def2/J RI DEFGRID1 loosescf d4 GCP(DFT/SV(P)) printgap
|  2> %output
|  3>     printlevel normal
|  4> end
|  5> * xyz 0 1
|  6> C 3.2578814774 1.1013865952 1.4077149019
|  7> C 3.7699068317 0.8326717996 -0.0079974601
|  8> C 3.4041416703 -0.546516214 -0.4951211809
|  9> O 4.2673087428 -1.3768963922 -0.7618819972
| 10> N 2.1031211544 -0.9306250908 -0.6016957733
| 11> C 0.8740632995 -0.299536936 -0.4204287415
| 12> C 0.6432733854 1.059582001 -0.6291087695
| 13> C -0.6193619606 1.592219415 -0.4502162359
| 14> C -1.6795403655 0.7848785644 -0.0710450685
| 15> C -1.4646277723 -0.5756212706 0.1173797517
| 16> C -0.2034824989 -1.1122933229 -0.0581280992
| 17> Cl -2.7781453611 -1.6127833602 0.5712723808
| 18> Cl -3.2597741244 1.4635181532 0.1504833184
| 19> H 3.6434491917 0.3499335215 2.0924119723
| 20> H 2.1728448153 1.0863659382 1.4501259766
| 21> H 3.6051962654 2.0760532853 1.738098296
| 22> H 4.8606976797 0.8764092923 -0.015000527
| 23> H 3.4034202047 1.586891812 -0.7021019923
| 24> H 2.0272662171 -1.9258637723 -0.7912386343
| 25> H 1.4340184927 1.7117023404 -0.9519822788
| 26> H -0.7909145914 2.6432269483 -0.6120224776
| 27> H -0.0609694988 -2.1700235421 0.0926417984
| 28> *
| 29>
| 30>                          ****END OF INPUT****

CARTESIAN COORDINATES (ANGSTROEM)
---------------------------------
  C      3.257881    1.101387    1.407715
  C      3.769907    0.832672   -0.007997
  C      3.404142   -0.546516   -0.495121
  O      4.267309   -1.376896   -0.761882
  N      2.103121   -0.930625   -0.601696
  C      0.874063   -0.299537   -0.420429
  C      0.643273    1.059582   -0.629109
  C     -0.619362    1.592219   -0.450216
  C     -1.679540    0.784879   -0.071045
  C     -1.464628   -0.575621    0.117380
  C     -0.203482   -1.112293   -0.058128
  Cl    -2.778145   -1.612783    0.571272
  Cl    -3.259774    1.463518    0.150483
  H      3.643449    0.349934    2.092412
  H      2.172845    1.086366    1.450126
  H      3.605196    2.076053    1.738098
  H      4.860698    0.876409   -0.015001
  H      3.403420    1.586892   -0.702102
  H      2.027266   -1.925864   -0.791239
  H      1.434018    1.711702   -0.951982
  H     -0.790915    2.643227   -0.612022
  H     -0.060969   -2.170024    0.092642

 Total Charge           Charge          ....    0
 Multiplicity           Mult            ....    1
 Number of Electrons    NEL             ....  112
 Basis Dimension        Dim             ....  208

ORBITAL ENERGIES
----------------

  NO   OCC          E(Eh)            E(eV)
   0   2.0000    -100.653626     -2738.9244
   1   2.0000    -100.650639     -2738.8431
   2   2.0000     -18.727734      -509.6076
   3   2.0000     -14.044932      -382.1820
   4   2.0000      -9.999244      -272.0933
   5   2.0000      -9.973303      -271.3874
   6   2.0000      -9.967339      -271.2251
   7   2.0000      -9.966239      -271.1951
   8   2.0000      -9.923645      -270.0361
   9   2.0000      -9.923362      -270.0284
  10   2.0000      -9.919177      -269.9145
  11   2.0000      -9.908605      -269.6268
  12   2.0000      -9.894492      -269.2428
  13   2.0000      -9.189337      -250.0546
  14   2.0000      -9.186262      -249.9709
  15   2.0000      -7.020942      -191.0495
  16   2.0000      -7.017880      -190.9662
  17   2.0000      -7.009345      -190.7340
  18   2.0000      -7.008493      -190.7108
  19   2.0000      -7.006231      -190.6492
  20   2.0000      -7.005467      -190.6285
  21   2.0000      -0.950136       -25.8545
  22   2.0000      -0.870603       -23.6903
  23   2.0000      -0.841534       -22.8993
  24   2.0000      -0.789416       -21.4811
  25   2.0000      -0.768414       -20.9096
  26   2.0000      -0.718077       -19.5399
  27   2.0000      -0.691026       -18.8038
  28   2.0000      -0.672065       -18.2878
  29   2.0000      -0.603750       -16.4289
  30   2.0000      -0.583014       -15.8646
  31   2.0000      -0.577145       -15.7049
  32   2.0000      -0.526714       -14.3326
  33   2.0000      -0.507964       -13.8224
  34   2.0000      -0.460389       -12.5278
  35   2.0000      -0.458649       -12.4805
  36   2.0000      -0.432257       -11.7623
  37   2.0000      -0.423309       -11.5188
  38   2.0000      -0.408500       -11.1158
  39   2.0000      -0.406721       -11.0674
  40   2.0000      -0.403333       -10.9753
  41   2.0000      -0.386781       -10.5249
  42   2.0000      -0.371821       -10.1178
  43   2.0000      -0.364029        -9.9057
  44   2.0000      -0.350155        -9.5282
  45   2.0000      -0.343552        -9.3485
  46   2.0000      -0.335432        -9.1276
  47   2.0000      -0.318735        -8.6732
  48   2.0000      -0.313418        -8.5285
  49   2.0000      -0.310266        -8.4428
  50   2.0000      -0.290641        -7.9088
  51   2.0000      -0.267751        -7.2859
  52   2.0000      -0.265265        -7.2182
  53   2.0000      -0.240380        -6.5411
  54   2.0000      -0.210390        -5.7250
  55   2.0000      -0.207551        -5.6477
  56   0.0000      -0.065999        -1.7959
  57   0.0000      -0.064150        -1.7456
  58   0.0000      -0.026479        -0.7205
  59   0.0000      -0.012330        -0.3355
  60   0.0000       0.031280         0.8512

MULLIKEN ATOMIC CHARGES
-----------------------
   0 C :   -0.309722
   1 C :   -0.195750
   2 C :    0.040920
   3 O :   -0.205689
   4 N :   -0.177392
   5 C :    0.228655
   6 C :   -0.128184
   7 C :   -0.112345
   8 C :    0.089435
   9 C :    0.079106
  10 C :   -0.182740
  11 Cl:   -0.049732
  12 Cl:   -0.056027
  13 H :    0.116938
  14 H :    0.140769
  15 H :    0.115549
  16 H :    0.105905
  17 H :    0.123291
  18 H :    0.236480
  19 H :    0.044609
  20 H :    0.057170
  21 H :    0.038753
Sum of atomic charges:    0.0000000

LOEWDIN ATOMIC CHARGES
----------------------
   0 C :   -0.339679
   1 C :   -0.254278
   2 C :    0.033121
   3 O :   -0.187526
   4 N :   -0.106148
   5 C :    0.001334
   6 C :   -0.143459
   7 C :   -0.123283
   8 C :   -0.166103
   9 C :   -0.145279
  10 C :   -0.154085
  11 Cl:    0.146760
  12 Cl:    0.140499
  13 H :    0.127729
  14 H :    0.125032
  15 H :    0.127114
  16 H :    0.140110
  17 H :    0.129478
  18 H :    0.243901
  19 H :    0.132582
  20 H :    0.137317
  21 H :    0.134863

  Mayer bond orders larger than 0.100000
B(  0-C ,  1-C ) :   1.1296 B(  0-C , 13-H ) :   0.9510 B(  0-C , 14-H ) :   0.9379
B(  0-C , 15-H ) :   0.9483 B(  1-C ,  2-C ) :   1.0439 B(  1-C , 16-H ) :   0.9000
B(  1-C , 17-H ) :   0.8899 B(  2-C ,  3-O ) :   2.0976 B(  2-C ,  4-N ) :   1.1443
B(  4-N ,  5-C ) :   1.0616 B(  4-N , 18-H ) :   0.8337 B(  5-C ,  6-C ) :   1.3214
B(  5-C , 10-C ) :   1.2849 B(  6-C ,  7-C ) :   1.3447 B(  6-C , 19-H ) :   0.9594
B(  7-C ,  8-C ) :   1.3750 B(  7-C , 20-H ) :   0.9636 B(  8-C ,  9-C ) :   1.4055
B(  8-C , 12-Cl) :   1.0328 B(  9-C , 10-C ) :   1.3900 B(  9-C , 11-Cl) :   1.0369
B( 10-C , 21-H ) :   0.9635

Dispersion correction           -0.029092774
FINAL SINGLE POINT ENERGY     -1397.086666650828

DIPOLE MOMENT
-------------

Method             : SCF
Type of density    : Electron Density
Multiplicity       :   1
Irrep              :   0
Energy             : -1397.1457934651057258 Eh
Relativity type    :
Basis              : AO
                                X                 Y                 Z
Electronic contribution:    -27.338351972      -5.395580270      -1.058159729
Nuclear contribution   :     27.219105493       6.024077777       1.175343968
                        -----------------------------------------
Total Dipole Moment    :     -0.119246479       0.628497507       0.117184239
                        -----------------------------------------
Magnitude (a.u.)       :      0.650354507
Magnitude (Debye)      :      1.653069786

Rotational constants in cm-1:             0.042096             0.010083             0.008706
Rotational constants in MHz :          1262.005074           302.273052           260.996222

                             ****ORCA TERMINATED NORMALLY****
TOTAL RUN TIME: 0 days 0 hours 0 minutes 17 seconds 641 msec
