                         Program Version 6.0.0  -   RELEASE  -
|  1> ! pbe def2-sv(p) def2/J RI DEFGRID1 loosescf d4 GCP(DFT/SV(P)) printgap
|  2> %output
|  3>     printlevel normal
|  4> end
|  5> * xyz 0 1
|  6> C 2.8090383557 -0.4446916044 0.1555205614
|  7> C 1.4056803665 -0.2744747196 -0.4119572957
|  8> C 0.6334209505 0.825648803 0.3121710091
|  9> C -0.7787767629 0.9972891876 -0.22379703
| 10> S -1.8296215408 -0.4820630247 0.0325252883
| 11> H 3.340361604 -1.2305713203 -0.3750719269
| 12> H 2.7649123141 -0.7108989153 1.2091033844
| 13> H 3.3743871427 0.4795469309 0.0582492911
| 14> H 0.8584248371 -1.2157331584 -0.3217106572
| 15> H 1.4681709668 -0.0297168461 -1.4750632124
| 16> H 1.1565675586 1.7774491893 0.1915347382
| 17> H 0.5935432801 0.5986067845 1.3800567817
| 18> H -1.2864684091 1.8387820792 0.2458563374
| 19> H -0.7736143378 1.1404992427 -1.3042352741
| 20> H -1.7830329074 -0.4651586728 1.3592351641
| 21> *
| 22>
| 23>                          ****END OF INPUT****

CARTESIAN COORDINATES (ANGSTROEM)
---------------------------------
  C      2.809038   -0.444692    0.155521
  C      1.405680   -0.274475   -0.411957
  C      0.633421    0.825649    0.312171
  C     -0.778777    0.997289   -0.223797
  S     -1.829622   -0.482063    0.032525
  H      3.340362   -1.230571   -0.375072
  H      2.764912   -0.710899    1.209103
  H      3.374387    0.479547    0.058249
  H      0.858425   -1.215733   -0.321711
  H      1.468171   -0.029717   -1.475063
  H      1.156568    1.777449    0.191535
  H      0.593543    0.598607    1.380057
  H     -1.286468    1.838782    0.245856
  H     -0.773614    1.140499   -1.304235
  H     -1.783033   -0.465159    1.359235

 Total Charge           Charge          ....    0
 Multiplicity           Mult            ....    1
 Number of Electrons    NEL             ....   50
 Basis Dimension        Dim             ....   94

ORBITAL ENERGIES
----------------

  NO   OCC          E(Eh)            E(eV)
   0   2.0000     -88.012760     -2394.9490
   1   2.0000      -9.917146      -269.8593
   2   2.0000      -9.890879      -269.1445
   3   2.0000      -9.880537      -268.8631
   4   2.0000      -9.872343      -268.6401
   5   2.0000      -7.659221      -208.4180
   6   2.0000      -5.687681      -154.7697
   7   2.0000      -5.683631      -154.6594
   8   2.0000      -5.675385      -154.4351
   9   2.0000      -0.738435       -20.0938
  10   2.0000      -0.685069       -18.6417
  11   2.0000      -0.621588       -16.9143
  12   2.0000      -0.553021       -15.0485
  13   2.0000      -0.515349       -14.0234
  14   2.0000      -0.423371       -11.5205
  15   2.0000      -0.408435       -11.1141
  16   2.0000      -0.388369       -10.5681
  17   2.0000      -0.365811        -9.9542
  18   2.0000      -0.355231        -9.6663
  19   2.0000      -0.320840        -8.7305
  20   2.0000      -0.304357        -8.2820
  21   2.0000      -0.296315        -8.0631
  22   2.0000      -0.289498        -7.8776
  23   2.0000      -0.273049        -7.4300
  24   2.0000      -0.192951        -5.2505
  25   0.0000       0.007108         0.1934
  26   0.0000       0.043294         1.1781
  27   0.0000       0.043939         1.1956
  28   0.0000       0.062610         1.7037
  29   0.0000       0.076054         2.0695

MULLIKEN ATOMIC CHARGES
-----------------------
   0 C :   -0.258149
   1 C :   -0.201129
   2 C :   -0.149169
   3 C :   -0.267609
   4 S :   -0.176731
   5 H :    0.103927
   6 H :    0.096745
   7 H :    0.094450
   8 H :    0.099447
   9 H :    0.081826
  10 H :    0.088163
  11 H :    0.082637
  12 H :    0.132499
  13 H :    0.132374
  14 H :    0.140719
Sum of atomic charges:   -0.0000000

LOEWDIN ATOMIC CHARGES
----------------------
   0 C :   -0.339460
   1 C :   -0.241889
   2 C :   -0.245183
   3 C :   -0.329837
   4 S :    0.021832
   5 H :    0.119733
   6 H :    0.116498
   7 H :    0.114746
   8 H :    0.113549
   9 H :    0.113642
  10 H :    0.119355
  11 H :    0.113190
  12 H :    0.121730
  13 H :    0.127020
  14 H :    0.075075

  Mayer bond orders larger than 0.100000
B(  0-C ,  1-C ) :   1.1576 B(  0-C ,  5-H ) :   0.9538 B(  0-C ,  6-H ) :   0.9547
B(  0-C ,  7-H ) :   0.9552 B(  1-C ,  2-C ) :   1.1249 B(  1-C ,  8-H ) :   0.9155
B(  1-C ,  9-H ) :   0.9270 B(  2-C ,  3-C ) :   1.0827 B(  2-C , 10-H ) :   0.9092
B(  2-C , 11-H ) :   0.9250 B(  3-C ,  4-S ) :   1.0700 B(  3-C , 12-H ) :   0.9295
B(  3-C , 13-H ) :   0.9245 B(  4-S , 14-H ) :   0.9075

Dispersion correction           -0.011064967
FINAL SINGLE POINT ENERGY      -555.913283606115

DIPOLE MOMENT
-------------

Method             : SCF
Type of density    : Electron Density
Multiplicity       :   1
Irrep              :   0
Energy             :  -555.9652218956141496 Eh
Relativity type    :
Basis              : AO
                                X                 Y                 Z
Electronic contribution:     -8.826055464      -1.643621737      -0.656696272
Nuclear contribution   :      9.164630658       2.061528851       0.907185423
                        -----------------------------------------
Total Dipole Moment    :      0.338575194       0.417907114       0.250489152
                        -----------------------------------------
Magnitude (a.u.)       :      0.593316385
Magnitude (Debye)      :      1.508090401

Rotational constants in cm-1:             0.297043             0.057711             0.052424
Rotational constants in MHz :          8905.116711          1730.129835          1571.625793

                             ****ORCA TERMINATED NORMALLY****
TOTAL RUN TIME: 0 days 0 hours 0 minutes 5 seconds 441 msec
