                         Program Version 6.0.0  -   RELEASE  -
|  1> ! pbe def2-sv(p) def2/J RI DEFGRID1 loosescf d4 GCP(DFT/SV(P)) printgap
|  2> %output
|  3>     printlevel normal
|  4> end
|  5> * xyz 0 1
|  6> C -3.2389833815 1.2796170498 0.1361846554
|  7> C -1.9070789396 0.7833164456 -0.3241178606
|  8> O -1.7025151862 0.1357270539 -1.3271627605
|  9> O -0.9302700192 1.1979226015 0.4945187158
| 10> C 0.3890004607 0.8257960069 0.2643564822
| 11> C 1.3308369423 1.8401085275 0.1827241502
| 12> C 2.6620975409 1.5290649234 -0.0318947577
| 13> C 3.0533813172 0.2079990232 -0.1862725367
| 14> C 2.1164185131 -0.8038228135 -0.1069539693
| 15> C 0.7737015844 -0.5115046859 0.1313668988
| 16> C -0.2086899425 -1.6095066326 0.2751478777
| 17> O -1.2308551674 -1.5387969498 0.9328727389
| 18> O 0.1501240374 -2.7117166136 -0.3602506085
| 19> H -4.0033234829 0.5574373028 -0.1326229286
| 20> H -3.4518050801 2.2171083703 -0.3740889305
| 21> H -3.2189203028 1.4492083475 1.2073032602
| 22> H 1.0019549808 2.8611390292 0.2901540924
| 23> H 3.3905173138 2.3219261999 -0.0874917795
| 24> H 4.0882676549 -0.0336082835 -0.3659440799
| 25> H 2.4068704333 -1.8363971531 -0.2157046565
| 26> H -0.5001508699 -3.4329279789 -0.252195925
| 27> *
| 28>
| 29>                          ****END OF INPUT****

CARTESIAN COORDINATES (ANGSTROEM)
---------------------------------
  C     -3.238983    1.279617    0.136185
  C     -1.907079    0.783316   -0.324118
  O     -1.702515    0.135727   -1.327163
  O     -0.930270    1.197923    0.494519
  C      0.389000    0.825796    0.264356
  C      1.330837    1.840109    0.182724
  C      2.662098    1.529065   -0.031895
  C      3.053381    0.207999   -0.186273
  C      2.116419   -0.803823   -0.106954
  C      0.773702   -0.511505    0.131367
  C     -0.208690   -1.609507    0.275148
  O     -1.230855   -1.538797    0.932873
  O      0.150124   -2.711717   -0.360251
  H     -4.003323    0.557437   -0.132623
  H     -3.451805    2.217108   -0.374089
  H     -3.218920    1.449208    1.207303
  H      1.001955    2.861139    0.290154
  H      3.390517    2.321926   -0.087492
  H      4.088268   -0.033608   -0.365944
  H      2.406870   -1.836397   -0.215705
  H     -0.500151   -3.432928   -0.252196

 Total Charge           Charge          ....    0
 Multiplicity           Mult            ....    1
 Number of Electrons    NEL             ....   94
 Basis Dimension        Dim             ....  198

ORBITAL ENERGIES
----------------

  NO   OCC          E(Eh)            E(eV)
   0   2.0000     -18.814065      -511.9567
   1   2.0000     -18.801335      -511.6103
   2   2.0000     -18.738399      -509.8978
   3   2.0000     -18.735487      -509.8185
   4   2.0000     -10.018985      -272.6305
   5   2.0000     -10.015551      -272.5370
   6   2.0000      -9.973581      -271.3949
   7   2.0000      -9.920150      -269.9410
   8   2.0000      -9.911294      -269.7000
   9   2.0000      -9.909316      -269.6462
  10   2.0000      -9.908887      -269.6345
  11   2.0000      -9.904425      -269.5131
  12   2.0000      -9.892596      -269.1912
  13   2.0000      -1.020847       -27.7787
  14   2.0000      -1.010093       -27.4860
  15   2.0000      -0.918799       -25.0018
  16   2.0000      -0.911631       -24.8067
  17   2.0000      -0.795074       -21.6351
  18   2.0000      -0.709613       -19.3096
  19   2.0000      -0.704365       -19.1667
  20   2.0000      -0.665560       -18.1108
  21   2.0000      -0.614585       -16.7237
  22   2.0000      -0.581205       -15.8154
  23   2.0000      -0.567014       -15.4292
  24   2.0000      -0.517574       -14.0839
  25   2.0000      -0.477322       -12.9886
  26   2.0000      -0.448021       -12.1913
  27   2.0000      -0.436287       -11.8720
  28   2.0000      -0.432619       -11.7721
  29   2.0000      -0.420971       -11.4552
  30   2.0000      -0.415932       -11.3181
  31   2.0000      -0.403990       -10.9931
  32   2.0000      -0.399063       -10.8590
  33   2.0000      -0.395174       -10.7532
  34   2.0000      -0.362994        -9.8776
  35   2.0000      -0.359529        -9.7833
  36   2.0000      -0.349249        -9.5035
  37   2.0000      -0.343984        -9.3603
  38   2.0000      -0.332474        -9.0471
  39   2.0000      -0.326067        -8.8727
  40   2.0000      -0.316219        -8.6048
  41   2.0000      -0.283871        -7.7245
  42   2.0000      -0.267863        -7.2889
  43   2.0000      -0.248205        -6.7540
  44   2.0000      -0.230646        -6.2762
  45   2.0000      -0.223370        -6.0782
  46   2.0000      -0.221867        -6.0373
  47   0.0000      -0.078065        -2.1243
  48   0.0000      -0.049877        -1.3572
  49   0.0000      -0.018890        -0.5140
  50   0.0000       0.011591         0.3154
  51   0.0000       0.024724         0.6728

MULLIKEN ATOMIC CHARGES
-----------------------
   0 C :   -0.242764
   1 C :    0.112868
   2 O :   -0.200930
   3 O :   -0.204845
   4 C :    0.205002
   5 C :   -0.112696
   6 C :   -0.036784
   7 C :   -0.029087
   8 C :   -0.111091
   9 C :    0.019885
  10 C :    0.122421
  11 O :   -0.192789
  12 O :   -0.280226
  13 H :    0.132126
  14 H :    0.133930
  15 H :    0.126629
  16 H :    0.049499
  17 H :    0.064549
  18 H :    0.059725
  19 H :    0.063108
  20 H :    0.321472
Sum of atomic charges:   -0.0000000

LOEWDIN ATOMIC CHARGES
----------------------
   0 C :   -0.353934
   1 C :    0.048459
   2 O :   -0.156244
   3 O :   -0.020873
   4 C :    0.066316
   5 C :   -0.127766
   6 C :   -0.103984
   7 C :   -0.125120
   8 C :   -0.091955
   9 C :   -0.079367
  10 C :    0.037569
  11 O :   -0.171042
  12 O :   -0.189975
  13 H :    0.146397
  14 H :    0.150317
  15 H :    0.140728
  16 H :    0.134979
  17 H :    0.129696
  18 H :    0.128325
  19 H :    0.134247
  20 H :    0.303226

  Mayer bond orders larger than 0.100000
B(  0-C ,  1-C ) :   1.0925 B(  0-C , 13-H ) :   0.9360 B(  0-C , 14-H ) :   0.9199
B(  0-C , 15-H ) :   0.9346 B(  1-C ,  2-O ) :   2.0756 B(  1-C ,  3-O ) :   1.1117
B(  3-O ,  4-C ) :   1.0032 B(  4-C ,  5-C ) :   1.4077 B(  4-C ,  9-C ) :   1.3708
B(  5-C ,  6-C ) :   1.3393 B(  5-C , 16-H ) :   0.9646 B(  6-C ,  7-C ) :   1.3580
B(  6-C , 17-H ) :   0.9645 B(  7-C ,  8-C ) :   1.3569 B(  7-C , 18-H ) :   0.9678
B(  8-C ,  9-C ) :   1.3638 B(  8-C , 19-H ) :   0.9610 B(  9-C , 10-C ) :   0.9207
B( 10-C , 11-O ) :   2.0723 B( 10-C , 12-O ) :   1.3150 B( 12-O , 20-H ) :   0.8188

Dispersion correction           -0.024925735
FINAL SINGLE POINT ENERGY      -647.388455059018

DIPOLE MOMENT
-------------

Method             : SCF
Type of density    : Electron Density
Multiplicity       :   1
Irrep              :   0
Energy             :  -647.4565335793770373 Eh
Relativity type    :
Basis              : AO
                                X                 Y                 Z
Electronic contribution:      0.812975121      -3.626025301       0.069816183
Nuclear contribution   :     -0.323852838       3.806964315       0.061267736
                        -----------------------------------------
Total Dipole Moment    :      0.489122284       0.180939013       0.131083919
                        -----------------------------------------
Magnitude (a.u.)       :      0.537738346
Magnitude (Debye)      :      1.366822253

Rotational constants in cm-1:             0.040517             0.025355             0.017343
Rotational constants in MHz :          1214.670460           760.119127           519.923261

                             ****ORCA TERMINATED NORMALLY****
TOTAL RUN TIME: 0 days 0 hours 0 minutes 16 seconds 83 msec
