                         Program Version 6.0.0  -   RELEASE  -
|  1> ! r2scan-3c def2/J RI DEFGRID2 scfconv6 printgap
|  2> %output
|  3>     printlevel normal
|  4> end
|  5> * xyz 0 1
|  6> C -1.2745583432 0.2991364147 -0.1701618376
|  7> C 0.1483490937 0.6536464321 0.2761597027
|  8> C 1.1862670352 -0.2613833556 -0.3987485581
|  9> O 1.2204604725 -1.5461390606 0.171382203
| 10> O 0.3395570431 2.008524954 -0.0624772044
| 11> O -1.5503189246 -1.0413746577 0.1692655818
| 12> H -1.3422595538 0.455815803 -1.254397304
| 13> H -1.9686987092 0.9875325073 0.3261435718
| 14> H 0.2211034085 0.5058295402 1.3646970815
| 15> H 2.1890269071 0.1532215304 -0.262123604
| 16> H 0.9771752741 -0.3164793069 -1.4765621372
| 17> H 0.3098011726 -1.8838556805 0.2011358018
| 18> H 1.2031509015 2.3042708804 0.2578488675
| 19> H -2.4589039766 -1.2546335046 -0.0837932929
| 20> *
| 21>
| 22>                          ****END OF INPUT****

CARTESIAN COORDINATES (ANGSTROEM)
---------------------------------
  C     -1.274558    0.299136   -0.170162
  C      0.148349    0.653646    0.276160
  C      1.186267   -0.261383   -0.398749
  O      1.220460   -1.546139    0.171382
  O      0.339557    2.008525   -0.062477
  O     -1.550319   -1.041375    0.169266
  H     -1.342260    0.455816   -1.254397
  H     -1.968699    0.987533    0.326144
  H      0.221103    0.505830    1.364697
  H      2.189027    0.153222   -0.262124
  H      0.977175   -0.316479   -1.476562
  H      0.309801   -1.883856    0.201136
  H      1.203151    2.304271    0.257849
  H     -2.458904   -1.254634   -0.083793

 Total Charge           Charge          ....    0
 Multiplicity           Mult            ....    1
 Number of Electrons    NEL             ....   50
 Basis Dimension        Dim             ....  169

ORBITAL ENERGIES
----------------

  NO   OCC          E(Eh)            E(eV)
   0   2.0000     -18.975247      -516.3427
   1   2.0000     -18.961176      -515.9598
   2   2.0000     -18.935210      -515.2532
   3   2.0000     -10.087787      -274.5026
   4   2.0000     -10.087418      -274.4926
   5   2.0000     -10.071901      -274.0704
   6   2.0000      -1.014430       -27.6040
   7   2.0000      -0.997821       -27.1521
   8   2.0000      -0.973534       -26.4912
   9   2.0000      -0.727470       -19.7955
  10   2.0000      -0.644866       -17.5477
  11   2.0000      -0.566819       -15.4239
  12   2.0000      -0.522443       -14.2164
  13   2.0000      -0.487006       -13.2521
  14   2.0000      -0.461739       -12.5646
  15   2.0000      -0.422360       -11.4930
  16   2.0000      -0.419988       -11.4285
  17   2.0000      -0.376351       -10.2410
  18   2.0000      -0.371187       -10.1005
  19   2.0000      -0.339300        -9.2328
  20   2.0000      -0.335953        -9.1417
  21   2.0000      -0.278588        -7.5808
  22   2.0000      -0.259950        -7.0736
  23   2.0000      -0.253693        -6.9033
  24   2.0000      -0.222106        -6.0438
  25   0.0000       0.024984         0.6798
  26   0.0000       0.066826         1.8184
  27   0.0000       0.098658         2.6846
  28   0.0000       0.126044         3.4298
  29   0.0000       0.129851         3.5334

MULLIKEN ATOMIC CHARGES
-----------------------
   0 C :   -0.172731
   1 C :    0.039592
   2 C :   -0.173045
   3 O :   -0.419663
   4 O :   -0.427738
   5 O :   -0.433256
   6 H :    0.134500
   7 H :    0.134635
   8 H :    0.139477
   9 H :    0.125948
  10 H :    0.135758
  11 H :    0.314407
  12 H :    0.297685
  13 H :    0.304430
Sum of atomic charges:    0.0000000

LOEWDIN ATOMIC CHARGES
----------------------
   0 C :    0.044625
   1 C :    0.089700
   2 C :    0.021898
   3 O :   -0.607463
   4 O :   -0.598070
   5 O :   -0.627195
   6 H :    0.167226
   7 H :    0.169350
   8 H :    0.174038
   9 H :    0.175526
  10 H :    0.162969
  11 H :    0.279140
  12 H :    0.273556
  13 H :    0.274698

  Mayer bond orders larger than 0.100000
B(  0-C ,  1-C ) :   0.9862 B(  0-C ,  5-O ) :   0.9435 B(  0-C ,  6-H ) :   0.9617
B(  0-C ,  7-H ) :   0.9522 B(  1-C ,  2-C ) :   0.9179 B(  1-C ,  4-O ) :   0.8977
B(  1-C ,  8-H ) :   0.9453 B(  2-C ,  3-O ) :   0.9661 B(  2-C ,  9-H ) :   0.9748
B(  2-C , 10-H ) :   0.9714 B(  3-O , 11-H ) :   0.8521 B(  4-O , 12-H ) :   0.8949
B(  5-O , 13-H ) :   0.8936

Dispersion correction           -0.003051261
FINAL SINGLE POINT ENERGY      -344.722562583730

DIPOLE MOMENT
-------------

Method             : SCF
Type of density    : Electron Density
Multiplicity       :   1
Irrep              :   0
Energy             :  -344.7303871933753499 Eh
Relativity type    :
Basis              : AO
                                X                 Y                 Z
Electronic contribution:      0.127594843      -0.549748918       0.755607037
Nuclear contribution   :     -0.815695824       0.884262507      -0.865603377
                        -----------------------------------------
Total Dipole Moment    :     -0.688100981       0.334513589      -0.109996340
                        -----------------------------------------
Magnitude (a.u.)       :      0.772969272
Magnitude (Debye)      :      1.964731749

Rotational constants in cm-1:             0.130036             0.112724             0.064935
Rotational constants in MHz :          3898.391900          3379.374993          1946.702755

                             ****ORCA TERMINATED NORMALLY****
TOTAL RUN TIME: 0 days 0 hours 0 minutes 20 seconds 923 msec
