                         Program Version 6.0.0  -   RELEASE  -
|  1> ! r2scan-3c def2/J RI DEFGRID2 scfconv6 printgap
|  2> %output
|  3>     printlevel normal
|  4> end
|  5> %cpcm
|  6>     smd true
|  7>     smdsolvent "water"
|  8> end
|  9> * xyz 0 1
| 10> C -1.2745583432 0.2991364147 -0.1701618376
| 11> C 0.1483490937 0.6536464321 0.2761597027
| 12> C 1.1862670352 -0.2613833556 -0.3987485581
| 13> O 1.2204604725 -1.5461390606 0.171382203
| 14> O 0.3395570431 2.008524954 -0.0624772044
| 15> O -1.5503189246 -1.0413746577 0.1692655818
| 16> H -1.3422595538 0.455815803 -1.254397304
| 17> H -1.9686987092 0.9875325073 0.3261435718
| 18> H 0.2211034085 0.5058295402 1.3646970815
| 19> H 2.1890269071 0.1532215304 -0.262123604
| 20> H 0.9771752741 -0.3164793069 -1.4765621372
| 21> H 0.3098011726 -1.8838556805 0.2011358018
| 22> H 1.2031509015 2.3042708804 0.2578488675
| 23> H -2.4589039766 -1.2546335046 -0.0837932929
| 24> *
| 25>
| 26>                          ****END OF INPUT****

CARTESIAN COORDINATES (ANGSTROEM)
---------------------------------
  C     -1.274558    0.299136   -0.170162
  C      0.148349    0.653646    0.276160
  C      1.186267   -0.261383   -0.398749
  O      1.220460   -1.546139    0.171382
  O      0.339557    2.008525   -0.062477
  O     -1.550319   -1.041375    0.169266
  H     -1.342260    0.455816   -1.254397
  H     -1.968699    0.987533    0.326144
  H      0.221103    0.505830    1.364697
  H      2.189027    0.153222   -0.262124
  H      0.977175   -0.316479   -1.476562
  H      0.309801   -1.883856    0.201136
  H      1.203151    2.304271    0.257849
  H     -2.458904   -1.254634   -0.083793

 Total Charge           Charge          ....    0
 Multiplicity           Mult            ....    1
 Number of Electrons    NEL             ....   50
 Basis Dimension        Dim             ....  169

ORBITAL ENERGIES
----------------

  NO   OCC          E(Eh)            E(eV)
   0   2.0000     -18.962328      -515.9912
   1   2.0000     -18.959426      -515.9122
   2   2.0000     -18.949956      -515.6545
   3   2.0000     -10.082006      -274.3453
   4   2.0000     -10.075001      -274.1547
   5   2.0000     -10.069985      -274.0182
   6   2.0000      -1.006109       -27.3776
   7   2.0000      -0.991638       -26.9838
   8   2.0000      -0.984367       -26.7860
   9   2.0000      -0.720966       -19.6185
  10   2.0000      -0.640901       -17.4398
  11   2.0000      -0.560773       -15.2594
  12   2.0000      -0.513037       -13.9604
  13   2.0000      -0.485875       -13.2213
  14   2.0000      -0.454544       -12.3688
  15   2.0000      -0.420514       -11.4428
  16   2.0000      -0.414530       -11.2799
  17   2.0000      -0.374852       -10.2002
  18   2.0000      -0.368706       -10.0330
  19   2.0000      -0.342157        -9.3106
  20   2.0000      -0.336344        -9.1524
  21   2.0000      -0.276516        -7.5244
  22   2.0000      -0.264142        -7.1877
  23   2.0000      -0.247630        -6.7383
  24   2.0000      -0.230971        -6.2850
  25   0.0000       0.041474         1.1286
  26   0.0000       0.091756         2.4968
  27   0.0000       0.104983         2.8567
  28   0.0000       0.137045         3.7292
  29   0.0000       0.141108         3.8398

MULLIKEN ATOMIC CHARGES
-----------------------
   0 C :   -0.174078
   1 C :    0.041031
   2 C :   -0.188887
   3 O :   -0.502210
   4 O :   -0.499996
   5 O :   -0.490985
   6 H :    0.150077
   7 H :    0.149228
   8 H :    0.154650
   9 H :    0.156427
  10 H :    0.150039
  11 H :    0.349607
  12 H :    0.351524
  13 H :    0.353573
Sum of atomic charges:    0.0000000

LOEWDIN ATOMIC CHARGES
----------------------
   0 C :    0.044467
   1 C :    0.090137
   2 C :    0.020246
   3 O :   -0.648099
   4 O :   -0.621503
   5 O :   -0.638377
   6 H :    0.172969
   7 H :    0.174102
   8 H :    0.178074
   9 H :    0.186164
  10 H :    0.169791
  11 H :    0.286160
  12 H :    0.292716
  13 H :    0.293152

  Mayer bond orders larger than 0.100000
B(  0-C ,  1-C ) :   0.9606 B(  0-C ,  5-O ) :   0.9393 B(  0-C ,  6-H ) :   0.9593
B(  0-C ,  7-H ) :   0.9542 B(  1-C ,  2-C ) :   0.9173 B(  1-C ,  4-O ) :   0.8920
B(  1-C ,  8-H ) :   0.9504 B(  2-C ,  3-O ) :   0.9462 B(  2-C ,  9-H ) :   0.9665
B(  2-C , 10-H ) :   0.9626 B(  3-O , 11-H ) :   0.8341 B(  4-O , 12-H ) :   0.8679
B(  5-O , 13-H ) :   0.8666

Dispersion correction           -0.003051261
FINAL SINGLE POINT ENERGY      -344.742330412230

DIPOLE MOMENT
-------------

Method             : SCF
Type of density    : Electron Density
Multiplicity       :   1
Irrep              :   0
Energy             :  -344.7501550218750026 Eh
Relativity type    :
Basis              : AO
                                X                 Y                 Z
Electronic contribution:     -0.013683952      -0.427199535       0.693610337
Nuclear contribution   :     -0.815695824       0.884262507      -0.865603377
                        -----------------------------------------
Total Dipole Moment    :     -0.829379776       0.457062971      -0.171993040
                        -----------------------------------------
Magnitude (a.u.)       :      0.962475443
Magnitude (Debye)      :      2.446418155

Rotational constants in cm-1:             0.130036             0.112724             0.064935
Rotational constants in MHz :          3898.391900          3379.374993          1946.702755

                             ****ORCA TERMINATED NORMALLY****
TOTAL RUN TIME: 0 days 0 hours 0 minutes 23 seconds 690 msec
