                         Program Version 6.0.0  -   RELEASE  -
|  1> ! r2scan-3c def2/J RI DEFGRID2 scfconv6 printgap
|  2> %output
|  3>     printlevel normal
|  4> end
|  5> * xyz 0 1
|  6> C -2.8177401103 0.0407989283 0.5825554688
|  7> C -1.6815798695 0.7808598532 -0.1229686058
|  8> C -0.4955481099 -0.1293668157 -0.3164726064
|  9> O -0.5301426624 -1.2069021696 -0.8753185376
| 10> O 0.6104132542 0.385646118 0.2001693101
| 11> C 1.8299581793 -0.367814449 0.0815901208
| 12> C 2.989177241 0.5468654809 0.4269058385
| 13> H -3.0589231012 -0.8692707995 0.0386952037
| 14> H -2.526506829 -0.2288034425 1.594625832
| 15> H -3.7001477499 0.6714582751 0.6282214368
| 16> H -1.3626197376 1.6529223976 0.4456278584
| 17> H -2.0161397607 1.0963253081 -1.1128317956
| 18> H 1.7715313893 -1.2204569656 0.7657451231
| 19> H 1.9009910668 -0.7531942254 -0.9408187835
| 20> H 2.8712648841 0.9291320479 1.4364122751
| 21> H 3.9179599423 -0.0099190798 0.3598057345
| 22> H 3.0225559515 1.384751544 -0.2633127803
| 23> *
| 24>
| 25>                          ****END OF INPUT****

CARTESIAN COORDINATES (ANGSTROEM)
---------------------------------
  C     -2.817740    0.040799    0.582555
  C     -1.681580    0.780860   -0.122969
  C     -0.495548   -0.129367   -0.316473
  O     -0.530143   -1.206902   -0.875319
  O      0.610413    0.385646    0.200169
  C      1.829958   -0.367814    0.081590
  C      2.989177    0.546865    0.426906
  H     -3.058923   -0.869271    0.038695
  H     -2.526507   -0.228803    1.594626
  H     -3.700148    0.671458    0.628221
  H     -1.362620    1.652922    0.445628
  H     -2.016140    1.096325   -1.112832
  H      1.771531   -1.220457    0.765745
  H      1.900991   -0.753194   -0.940819
  H      2.871265    0.929132    1.436412
  H      3.917960   -0.009919    0.359806
  H      3.022556    1.384752   -0.263313

 Total Charge           Charge          ....    0
 Multiplicity           Mult            ....    1
 Number of Electrons    NEL             ....   56
 Basis Dimension        Dim             ....  193

ORBITAL ENERGIES
----------------

  NO   OCC          E(Eh)            E(eV)
   0   2.0000     -18.997394      -516.9454
   1   2.0000     -18.926315      -515.0112
   2   2.0000     -10.150460      -276.2081
   3   2.0000     -10.091485      -274.6033
   4   2.0000     -10.043076      -273.2860
   5   2.0000     -10.032486      -272.9978
   6   2.0000     -10.026908      -272.8460
   7   2.0000      -1.071861       -29.1668
   8   2.0000      -0.973827       -26.4992
   9   2.0000      -0.764588       -20.8055
  10   2.0000      -0.733817       -19.9682
  11   2.0000      -0.640489       -17.4286
  12   2.0000      -0.590203       -16.0603
  13   2.0000      -0.532777       -14.4976
  14   2.0000      -0.470321       -12.7981
  15   2.0000      -0.459229       -12.4963
  16   2.0000      -0.436200       -11.8696
  17   2.0000      -0.419925       -11.4268
  18   2.0000      -0.397525       -10.8172
  19   2.0000      -0.375776       -10.2254
  20   2.0000      -0.372327       -10.1315
  21   2.0000      -0.352672        -9.5967
  22   2.0000      -0.338839        -9.2203
  23   2.0000      -0.328018        -8.9258
  24   2.0000      -0.318135        -8.6569
  25   2.0000      -0.310421        -8.4470
  26   2.0000      -0.271571        -7.3898
  27   2.0000      -0.234254        -6.3744
  28   0.0000      -0.014448        -0.3931
  29   0.0000       0.075235         2.0473
  30   0.0000       0.097548         2.6544
  31   0.0000       0.113870         3.0986
  32   0.0000       0.130707         3.5567

MULLIKEN ATOMIC CHARGES
-----------------------
   0 C :   -0.460474
   1 C :   -0.297606
   2 C :    0.390063
   3 O :   -0.430963
   4 O :   -0.165877
   5 C :   -0.152486
   6 C :   -0.440137
   7 H :    0.172166
   8 H :    0.144062
   9 H :    0.149771
  10 H :    0.162110
  11 H :    0.161818
  12 H :    0.150133
  13 H :    0.165910
  14 H :    0.151779
  15 H :    0.147127
  16 H :    0.152604
Sum of atomic charges:   -0.0000000

LOEWDIN ATOMIC CHARGES
----------------------
   0 C :   -0.395764
   1 C :   -0.238198
   2 C :    0.356685
   3 O :   -0.432353
   4 O :   -0.599255
   5 C :    0.033391
   6 C :   -0.386833
   7 H :    0.165755
   8 H :    0.154454
   9 H :    0.151560
  10 H :    0.173913
  11 H :    0.178132
  12 H :    0.176406
  13 H :    0.184144
  14 H :    0.159211
  15 H :    0.159548
  16 H :    0.159201

  Mayer bond orders larger than 0.100000
B(  0-C ,  1-C ) :   0.9040 B(  0-C ,  7-H ) :   0.9713 B(  0-C ,  8-H ) :   0.9752
B(  0-C ,  9-H ) :   0.9738 B(  1-C ,  2-C ) :   0.9541 B(  1-C , 10-H ) :   0.9875
B(  1-C , 11-H ) :   0.9470 B(  2-C ,  3-O ) :   1.8070 B(  2-C ,  4-O ) :   1.0869
B(  4-O ,  5-C ) :   0.8002 B(  5-C ,  6-C ) :   0.9418 B(  5-C , 12-H ) :   0.9477
B(  5-C , 13-H ) :   0.9588 B(  6-C , 14-H ) :   0.9696 B(  6-C , 15-H ) :   0.9680
B(  6-C , 16-H ) :   0.9742

Dispersion correction           -0.003839281
FINAL SINGLE POINT ENERGY      -346.936258181783

DIPOLE MOMENT
-------------

Method             : SCF
Type of density    : Electron Density
Multiplicity       :   1
Irrep              :   0
Energy             :  -346.9427929795768932 Eh
Relativity type    :
Basis              : AO
                                X                 Y                 Z
Electronic contribution:     -0.412668397      -1.848626546      -2.353956830
Nuclear contribution   :      0.770455364       2.476729972       2.759619297
                        -----------------------------------------
Total Dipole Moment    :      0.357786967       0.628103425       0.405662467
                        -----------------------------------------
Magnitude (a.u.)       :      0.828907392
Magnitude (Debye)      :      2.106915150

Rotational constants in cm-1:             0.219641             0.044107             0.039462
Rotational constants in MHz :          6584.657248          1322.289818          1183.034782

                             ****ORCA TERMINATED NORMALLY****
TOTAL RUN TIME: 0 days 0 hours 0 minutes 22 seconds 845 msec
