                         Program Version 6.0.0  -   RELEASE  -
|  1> ! r2scan-3c def2/J RI DEFGRID2 scfconv6 printgap
|  2> %output
|  3>     printlevel normal
|  4> end
|  5> %cpcm
|  6>     smd true
|  7>     smdsolvent "water"
|  8> end
|  9> * xyz 0 1
| 10> C -2.8177401103 0.0407989283 0.5825554688
| 11> C -1.6815798695 0.7808598532 -0.1229686058
| 12> C -0.4955481099 -0.1293668157 -0.3164726064
| 13> O -0.5301426624 -1.2069021696 -0.8753185376
| 14> O 0.6104132542 0.385646118 0.2001693101
| 15> C 1.8299581793 -0.367814449 0.0815901208
| 16> C 2.989177241 0.5468654809 0.4269058385
| 17> H -3.0589231012 -0.8692707995 0.0386952037
| 18> H -2.526506829 -0.2288034425 1.594625832
| 19> H -3.7001477499 0.6714582751 0.6282214368
| 20> H -1.3626197376 1.6529223976 0.4456278584
| 21> H -2.0161397607 1.0963253081 -1.1128317956
| 22> H 1.7715313893 -1.2204569656 0.7657451231
| 23> H 1.9009910668 -0.7531942254 -0.9408187835
| 24> H 2.8712648841 0.9291320479 1.4364122751
| 25> H 3.9179599423 -0.0099190798 0.3598057345
| 26> H 3.0225559515 1.384751544 -0.2633127803
| 27> *
| 28>
| 29>                          ****END OF INPUT****

CARTESIAN COORDINATES (ANGSTROEM)
---------------------------------
  C     -2.817740    0.040799    0.582555
  C     -1.681580    0.780860   -0.122969
  C     -0.495548   -0.129367   -0.316473
  O     -0.530143   -1.206902   -0.875319
  O      0.610413    0.385646    0.200169
  C      1.829958   -0.367814    0.081590
  C      2.989177    0.546865    0.426906
  H     -3.058923   -0.869271    0.038695
  H     -2.526507   -0.228803    1.594626
  H     -3.700148    0.671458    0.628221
  H     -1.362620    1.652922    0.445628
  H     -2.016140    1.096325   -1.112832
  H      1.771531   -1.220457    0.765745
  H      1.900991   -0.753194   -0.940819
  H      2.871265    0.929132    1.436412
  H      3.917960   -0.009919    0.359806
  H      3.022556    1.384752   -0.263313

 Total Charge           Charge          ....    0
 Multiplicity           Mult            ....    1
 Number of Electrons    NEL             ....   56
 Basis Dimension        Dim             ....  193

ORBITAL ENERGIES
----------------

  NO   OCC          E(Eh)            E(eV)
   0   2.0000     -19.003336      -517.1071
   1   2.0000     -18.943167      -515.4698
   2   2.0000     -10.161814      -276.5170
   3   2.0000     -10.083726      -274.3921
   4   2.0000     -10.037576      -273.1363
   5   2.0000     -10.020109      -272.6610
   6   2.0000     -10.018875      -272.6275
   7   2.0000      -1.079589       -29.3771
   8   2.0000      -0.988376       -26.8951
   9   2.0000      -0.760665       -20.6987
  10   2.0000      -0.726112       -19.7585
  11   2.0000      -0.634954       -17.2780
  12   2.0000      -0.583505       -15.8780
  13   2.0000      -0.531745       -14.4695
  14   2.0000      -0.471310       -12.8250
  15   2.0000      -0.462741       -12.5918
  16   2.0000      -0.442367       -12.0374
  17   2.0000      -0.416611       -11.3366
  18   2.0000      -0.397445       -10.8150
  19   2.0000      -0.373290       -10.1577
  20   2.0000      -0.360844        -9.8191
  21   2.0000      -0.345466        -9.4006
  22   2.0000      -0.333885        -9.0855
  23   2.0000      -0.323359        -8.7990
  24   2.0000      -0.317789        -8.6475
  25   2.0000      -0.308537        -8.3957
  26   2.0000      -0.278337        -7.5739
  27   2.0000      -0.251605        -6.8465
  28   0.0000      -0.022884        -0.6227
  29   0.0000       0.078308         2.1309
  30   0.0000       0.107225         2.9178
  31   0.0000       0.121748         3.3129
  32   0.0000       0.138605         3.7716

MULLIKEN ATOMIC CHARGES
-----------------------
   0 C :   -0.493295
   1 C :   -0.308372
   2 C :    0.435768
   3 O :   -0.518845
   4 O :   -0.181509
   5 C :   -0.153645
   6 C :   -0.488235
   7 H :    0.165099
   8 H :    0.163214
   9 H :    0.170117
  10 H :    0.176824
  11 H :    0.189471
  12 H :    0.172817
  13 H :    0.171741
  14 H :    0.164413
  15 H :    0.168865
  16 H :    0.165572
Sum of atomic charges:    0.0000000

LOEWDIN ATOMIC CHARGES
----------------------
   0 C :   -0.399383
   1 C :   -0.234037
   2 C :    0.367600
   3 O :   -0.495046
   4 O :   -0.599785
   5 C :    0.036038
   6 C :   -0.389842
   7 H :    0.161524
   8 H :    0.159763
   9 H :    0.159557
  10 H :    0.181493
  11 H :    0.188110
  12 H :    0.184020
  13 H :    0.186676
  14 H :    0.162646
  15 H :    0.168300
  16 H :    0.162363

  Mayer bond orders larger than 0.100000
B(  0-C ,  1-C ) :   0.8864 B(  0-C ,  7-H ) :   0.9729 B(  0-C ,  8-H ) :   0.9725
B(  0-C ,  9-H ) :   0.9676 B(  1-C ,  2-C ) :   0.9561 B(  1-C , 10-H ) :   0.9785
B(  1-C , 11-H ) :   0.9394 B(  2-C ,  3-O ) :   1.7386 B(  2-C ,  4-O ) :   1.1141
B(  4-O ,  5-C ) :   0.7869 B(  5-C ,  6-C ) :   0.9421 B(  5-C , 12-H ) :   0.9388
B(  5-C , 13-H ) :   0.9527 B(  6-C , 14-H ) :   0.9670 B(  6-C , 15-H ) :   0.9614
B(  6-C , 16-H ) :   0.9728

Dispersion correction           -0.003839281
FINAL SINGLE POINT ENERGY      -346.941801223841

DIPOLE MOMENT
-------------

Method             : SCF
Type of density    : Electron Density
Multiplicity       :   1
Irrep              :   0
Energy             :  -346.9483360216351002 Eh
Relativity type    :
Basis              : AO
                                X                 Y                 Z
Electronic contribution:     -0.306576121      -1.566694650      -2.188962877
Nuclear contribution   :      0.770455364       2.476729972       2.759619297
                        -----------------------------------------
Total Dipole Moment    :      0.463879243       0.910035322       0.570656419
                        -----------------------------------------
Magnitude (a.u.)       :      1.170041447
Magnitude (Debye)      :      2.974009010

Rotational constants in cm-1:             0.219641             0.044107             0.039462
Rotational constants in MHz :          6584.657248          1322.289818          1183.034782

                             ****ORCA TERMINATED NORMALLY****
TOTAL RUN TIME: 0 days 0 hours 0 minutes 26 seconds 622 msec
