                         Program Version 6.0.0  -   RELEASE  -
|  1> ! pbe def2-sv(p) def2/J RI DEFGRID1 loosescf d4 GCP(DFT/SV(P)) printgap
|  2> %output
|  3>     printlevel normal
|  4> end
|  5> * xyz 0 1
|  6> C -0.0769304046 -2.546569427 -0.024169338
|  7> C -0.0154572034 -1.0377226116 -0.1611708463
|  8> O 1.071073675 -0.5505106313 0.6144584453
|  9> C 1.8653704686 0.4171764353 0.1245389653
| 10> O 1.7399185186 0.8803799106 -0.9849786904
| 11> C 2.903615634 0.8117245676 1.1240300863
| 12> O -1.2037533483 -0.4780764739 0.3809477533
| 13> C -1.8237371827 0.5297232243 -0.257629043
| 14> O -1.4551030968 0.9671023459 -1.3224740307
| 15> C -3.007471722 1.004755137 0.5204017191
| 16> H -0.9227367758 -2.9247661198 -0.5886066319
| 17> H -0.1940233975 -2.7978582144 1.0255128846
| 18> H 0.8420399383 -2.979711709 -0.4047933027
| 19> H 0.101989747 -0.6977590768 -1.2012517504
| 20> H 3.8698902515 0.8715619161 0.6314097514
| 21> H 2.6602126761 1.8023489254 1.5022136448
| 22> H 2.9209811736 0.0992378244 1.9411059767
| 23> H -3.2895116954 0.2604410939 1.2567684706
| 24> H -2.7369106421 1.9301412404 1.0250202873
| 25> H -3.8244633307 1.2199250367 -0.1617293712
| 26> *
| 27>
| 28>                          ****END OF INPUT****

CARTESIAN COORDINATES (ANGSTROEM)
---------------------------------
  C     -0.076930   -2.546569   -0.024169
  C     -0.015457   -1.037723   -0.161171
  O      1.071074   -0.550511    0.614458
  C      1.865370    0.417176    0.124539
  O      1.739919    0.880380   -0.984979
  C      2.903616    0.811725    1.124030
  O     -1.203753   -0.478076    0.380948
  C     -1.823737    0.529723   -0.257629
  O     -1.455103    0.967102   -1.322474
  C     -3.007472    1.004755    0.520402
  H     -0.922737   -2.924766   -0.588607
  H     -0.194023   -2.797858    1.025513
  H      0.842040   -2.979712   -0.404793
  H      0.101990   -0.697759   -1.201252
  H      3.869890    0.871562    0.631410
  H      2.660213    1.802349    1.502214
  H      2.920981    0.099238    1.941106
  H     -3.289512    0.260441    1.256768
  H     -2.736911    1.930141    1.025020
  H     -3.824463    1.219925   -0.161729

 Total Charge           Charge          ....    0
 Multiplicity           Mult            ....    1
 Number of Electrons    NEL             ....   78
 Basis Dimension        Dim             ....  160

ORBITAL ENERGIES
----------------

  NO   OCC          E(Eh)            E(eV)
   0   2.0000     -18.804860      -511.7063
   1   2.0000     -18.804620      -511.6997
   2   2.0000     -18.736584      -509.8484
   3   2.0000     -18.736426      -509.8441
   4   2.0000     -10.015800      -272.5438
   5   2.0000     -10.015740      -272.5421
   6   2.0000     -10.005990      -272.2768
   7   2.0000      -9.898677      -269.3567
   8   2.0000      -9.898646      -269.3558
   9   2.0000      -9.896148      -269.2879
  10   2.0000      -1.030223       -28.0338
  11   2.0000      -0.995431       -27.0870
  12   2.0000      -0.925596       -25.1867
  13   2.0000      -0.907895       -24.7051
  14   2.0000      -0.731418       -19.9029
  15   2.0000      -0.683951       -18.6113
  16   2.0000      -0.668983       -18.2040
  17   2.0000      -0.600228       -16.3330
  18   2.0000      -0.556585       -15.1454
  19   2.0000      -0.510907       -13.9025
  20   2.0000      -0.447308       -12.1719
  21   2.0000      -0.436475       -11.8771
  22   2.0000      -0.431893       -11.7524
  23   2.0000      -0.419136       -11.4053
  24   2.0000      -0.410350       -11.1662
  25   2.0000      -0.407250       -11.0818
  26   2.0000      -0.379499       -10.3267
  27   2.0000      -0.377971       -10.2851
  28   2.0000      -0.372032       -10.1235
  29   2.0000      -0.359574        -9.7845
  30   2.0000      -0.358564        -9.7570
  31   2.0000      -0.341566        -9.2945
  32   2.0000      -0.338653        -9.2152
  33   2.0000      -0.322686        -8.7807
  34   2.0000      -0.288852        -7.8601
  35   2.0000      -0.280041        -7.6203
  36   2.0000      -0.262463        -7.1420
  37   2.0000      -0.229343        -6.2407
  38   2.0000      -0.218170        -5.9367
  39   0.0000      -0.032366        -0.8807
  40   0.0000      -0.024363        -0.6629
  41   0.0000       0.043340         1.1793
  42   0.0000       0.056051         1.5252
  43   0.0000       0.061232         1.6662

MULLIKEN ATOMIC CHARGES
-----------------------
   0 C :   -0.222895
   1 C :    0.132343
   2 O :   -0.236634
   3 C :    0.084414
   4 O :   -0.180921
   5 C :   -0.252382
   6 O :   -0.237649
   7 C :    0.084408
   8 O :   -0.180003
   9 C :   -0.251454
  10 H :    0.117363
  11 H :    0.115019
  12 H :    0.117141
  13 H :    0.121440
  14 H :    0.134405
  15 H :    0.140163
  16 H :    0.120582
  17 H :    0.121230
  18 H :    0.140423
  19 H :    0.133009
Sum of atomic charges:   -0.0000000

LOEWDIN ATOMIC CHARGES
----------------------
   0 C :   -0.343430
   1 C :    0.032570
   2 O :   -0.072300
   3 C :    0.037947
   4 O :   -0.147078
   5 C :   -0.359481
   6 O :   -0.072931
   7 C :    0.038104
   8 O :   -0.146289
   9 C :   -0.359154
  10 H :    0.133956
  11 H :    0.131255
  12 H :    0.133890
  13 H :    0.120851
  14 H :    0.147738
  15 H :    0.152447
  16 H :    0.135938
  17 H :    0.136679
  18 H :    0.152867
  19 H :    0.146420

  Mayer bond orders larger than 0.100000
B(  0-C ,  1-C ) :   1.1182 B(  0-C , 10-H ) :   0.9417 B(  0-C , 11-H ) :   0.9334
B(  0-C , 12-H ) :   0.9417 B(  1-C ,  2-O ) :   0.9654 B(  1-C ,  6-O ) :   0.9663
B(  1-C , 13-H ) :   0.8815 B(  2-O ,  3-C ) :   1.1476 B(  3-C ,  4-O ) :   2.0949
B(  3-C ,  5-C ) :   1.0808 B(  5-C , 14-H ) :   0.9315 B(  5-C , 15-H ) :   0.9245
B(  5-C , 16-H ) :   0.9365 B(  6-O ,  7-C ) :   1.1436 B(  7-C ,  8-O ) :   2.0971
B(  7-C ,  9-C ) :   1.0812 B(  9-C , 17-H ) :   0.9357 B(  9-C , 18-H ) :   0.9233
B(  9-C , 19-H ) :   0.9335

Dispersion correction           -0.016399700
FINAL SINGLE POINT ENERGY      -534.469790565389

DIPOLE MOMENT
-------------

Method             : SCF
Type of density    : Electron Density
Multiplicity       :   1
Irrep              :   0
Energy             :  -534.5496296400751817 Eh
Relativity type    :
Basis              : AO
                                X                 Y                 Z
Electronic contribution:      0.414536243       2.388946916      -3.587009020
Nuclear contribution   :     -0.534878461      -3.005434469       4.695475652
                        -----------------------------------------
Total Dipole Moment    :     -0.120342218      -0.616487552       1.108466632
                        -----------------------------------------
Magnitude (a.u.)       :      1.274063352
Magnitude (Debye)      :      3.238411681

Rotational constants in cm-1:             0.063187             0.029949             0.024960
Rotational constants in MHz :          1894.310028           897.858499           748.294050

                             ****ORCA TERMINATED NORMALLY****
TOTAL RUN TIME: 0 days 0 hours 0 minutes 12 seconds 892 msec
