                         Program Version 6.0.0  -   RELEASE  -
|  1> ! r2scan-3c def2/J RI DEFGRID2 scfconv6 printgap
|  2> %output
|  3>     printlevel normal
|  4> end
|  5> * xyz 0 1
|  6> C 2.7914573099 -0.1430039683 -0.2666774163
|  7> C 1.3643677881 -0.0748768066 -0.8024169788
|  8> C 0.3087088042 -0.200520425 0.3063435029
|  9> H 0.6046988895 -1.0285508308 0.9741610375
| 10> C -1.0897154057 -0.5349915823 -0.2491517074
| 11> C -2.0535671808 -0.802018204 0.9061660103
| 12> C -1.6259511828 0.5861198152 -1.136296033
| 13> O 0.2032921065 0.990115106 1.0682121964
| 14> H 3.0035687109 0.6890552491 0.4007962682
| 15> H 3.5002204771 -0.1001171717 -1.0896358403
| 16> H 2.9510408703 -1.0725665687 0.2758950493
| 17> H 1.2140241708 0.8730997062 -1.3207551367
| 18> H 1.210778146 -0.8845063644 -1.5171906017
| 19> H -0.9935208247 -1.4497277923 -0.8442190771
| 20> H -2.1263969695 0.0830116485 1.5330686317
| 21> H -3.0420168156 -1.0462108304 0.5260189079
| 22> H -1.7012603342 -1.6309341869 1.5160552505
| 23> H -1.6118086101 1.5235771024 -0.5863979146
| 24> H -2.6491036954 0.3692925467 -1.4322916095
| 25> H -1.0246034705 0.6955603093 -2.0344492249
| 26> H 1.0683861775 1.1962099877 1.4432736677
| 27> *
| 28>
| 29>                          ****END OF INPUT****

CARTESIAN COORDINATES (ANGSTROEM)
---------------------------------
  C      2.791457   -0.143004   -0.266677
  C      1.364368   -0.074877   -0.802417
  C      0.308709   -0.200520    0.306344
  H      0.604699   -1.028551    0.974161
  C     -1.089715   -0.534992   -0.249152
  C     -2.053567   -0.802018    0.906166
  C     -1.625951    0.586120   -1.136296
  O      0.203292    0.990115    1.068212
  H      3.003569    0.689055    0.400796
  H      3.500220   -0.100117   -1.089636
  H      2.951041   -1.072567    0.275895
  H      1.214024    0.873100   -1.320755
  H      1.210778   -0.884506   -1.517191
  H     -0.993521   -1.449728   -0.844219
  H     -2.126397    0.083012    1.533069
  H     -3.042017   -1.046211    0.526019
  H     -1.701260   -1.630934    1.516055
  H     -1.611809    1.523577   -0.586398
  H     -2.649104    0.369293   -1.432292
  H     -1.024603    0.695560   -2.034449
  H      1.068386    1.196210    1.443274

 Total Charge           Charge          ....    0
 Multiplicity           Mult            ....    1
 Number of Electrons    NEL             ....   58
 Basis Dimension        Dim             ....  208

ORBITAL ENERGIES
----------------

  NO   OCC          E(Eh)            E(eV)
   0   2.0000     -18.946039      -515.5479
   1   2.0000     -10.076032      -274.1828
   2   2.0000     -10.029617      -272.9197
   3   2.0000     -10.025855      -272.8174
   4   2.0000     -10.025177      -272.7989
   5   2.0000     -10.007089      -272.3067
   6   2.0000     -10.006582      -272.2929
   7   2.0000      -0.985042       -26.8044
   8   2.0000      -0.769132       -20.9292
   9   2.0000      -0.732834       -19.9414
  10   2.0000      -0.643093       -17.4995
  11   2.0000      -0.640577       -17.4310
  12   2.0000      -0.566231       -15.4079
  13   2.0000      -0.522094       -14.2069
  14   2.0000      -0.482108       -13.1188
  15   2.0000      -0.430424       -11.7124
  16   2.0000      -0.408996       -11.1293
  17   2.0000      -0.402572       -10.9546
  18   2.0000      -0.398228       -10.8363
  19   2.0000      -0.363881        -9.9017
  20   2.0000      -0.349880        -9.5207
  21   2.0000      -0.343448        -9.3457
  22   2.0000      -0.334251        -9.0954
  23   2.0000      -0.325619        -8.8606
  24   2.0000      -0.312478        -8.5030
  25   2.0000      -0.294571        -8.0157
  26   2.0000      -0.291819        -7.9408
  27   2.0000      -0.270843        -7.3700
  28   2.0000      -0.232546        -6.3279
  29   0.0000       0.055902         1.5212
  30   0.0000       0.098320         2.6754
  31   0.0000       0.108534         2.9534
  32   0.0000       0.123088         3.3494
  33   0.0000       0.128659         3.5010

MULLIKEN ATOMIC CHARGES
-----------------------
   0 C :   -0.488245
   1 C :   -0.297673
   2 C :    0.065515
   3 H :    0.133137
   4 C :    0.006470
   5 C :   -0.522950
   6 C :   -0.549805
   7 O :   -0.447481
   8 H :    0.129211
   9 H :    0.153288
  10 H :    0.150326
  11 H :    0.163903
  12 H :    0.142330
  13 H :    0.143680
  14 H :    0.174652
  15 H :    0.144955
  16 H :    0.139532
  17 H :    0.182136
  18 H :    0.143285
  19 H :    0.148579
  20 H :    0.285154
Sum of atomic charges:   -0.0000000

LOEWDIN ATOMIC CHARGES
----------------------
   0 C :   -0.422856
   1 C :   -0.295730
   2 C :    0.059452
   3 H :    0.166068
   4 C :   -0.214388
   5 C :   -0.409549
   6 C :   -0.409125
   7 O :   -0.623184
   8 H :    0.143670
   9 H :    0.154164
  10 H :    0.152205
  11 H :    0.165722
  12 H :    0.160325
  13 H :    0.159070
  14 H :    0.167386
  15 H :    0.150771
  16 H :    0.152620
  17 H :    0.169223
  18 H :    0.152062
  19 H :    0.153414
  20 H :    0.268680

  Mayer bond orders larger than 0.100000
B(  0-C ,  1-C ) :   0.8966 B(  0-C ,  8-H ) :   0.9782 B(  0-C ,  9-H ) :   0.9730
B(  0-C , 10-H ) :   0.9868 B(  1-C ,  2-C ) :   0.8881 B(  1-C , 11-H ) :   0.9743
B(  1-C , 12-H ) :   0.9743 B(  2-C ,  3-H ) :   0.9702 B(  2-C ,  4-C ) :   0.9339
B(  2-C ,  7-O ) :   0.7985 B(  4-C ,  5-C ) :   0.9137 B(  4-C ,  6-C ) :   0.8832
B(  4-C , 13-H ) :   0.9612 B(  5-C , 14-H ) :   0.9830 B(  5-C , 15-H ) :   0.9788
B(  5-C , 16-H ) :   0.9745 B(  6-C , 17-H ) :   0.9831 B(  6-C , 18-H ) :   0.9735
B(  6-C , 19-H ) :   0.9725 B(  7-O , 20-H ) :   0.9013

Dispersion correction           -0.005585788
FINAL SINGLE POINT ENERGY      -312.202729214846

DIPOLE MOMENT
-------------

Method             : SCF
Type of density    : Electron Density
Multiplicity       :   1
Irrep              :   0
Energy             :  -312.2082829835347866 Eh
Relativity type    :
Basis              : AO
                                X                 Y                 Z
Electronic contribution:      0.154947374       1.388128834       1.893847717
Nuclear contribution   :      0.382041392      -1.657870648      -2.006518473
                        -----------------------------------------
Total Dipole Moment    :      0.536988766      -0.269741813      -0.112670756
                        -----------------------------------------
Magnitude (a.u.)       :      0.611401897
Magnitude (Debye)      :      1.554060118

Rotational constants in cm-1:             0.141699             0.051790             0.047693
Rotational constants in MHz :          4248.042286          1552.625809          1429.796097

                             ****ORCA TERMINATED NORMALLY****
TOTAL RUN TIME: 0 days 0 hours 0 minutes 27 seconds 725 msec
