                         Program Version 6.0.0  -   RELEASE  -
|  1> ! r2scan-3c def2/J RI DEFGRID2 scfconv6 printgap
|  2> %output
|  3>     printlevel normal
|  4> end
|  5> %cpcm
|  6>     smd true
|  7>     smdsolvent "water"
|  8> end
|  9> * xyz 0 1
| 10> C 2.7914573099 -0.1430039683 -0.2666774163
| 11> C 1.3643677881 -0.0748768066 -0.8024169788
| 12> C 0.3087088042 -0.200520425 0.3063435029
| 13> H 0.6046988895 -1.0285508308 0.9741610375
| 14> C -1.0897154057 -0.5349915823 -0.2491517074
| 15> C -2.0535671808 -0.802018204 0.9061660103
| 16> C -1.6259511828 0.5861198152 -1.136296033
| 17> O 0.2032921065 0.990115106 1.0682121964
| 18> H 3.0035687109 0.6890552491 0.4007962682
| 19> H 3.5002204771 -0.1001171717 -1.0896358403
| 20> H 2.9510408703 -1.0725665687 0.2758950493
| 21> H 1.2140241708 0.8730997062 -1.3207551367
| 22> H 1.210778146 -0.8845063644 -1.5171906017
| 23> H -0.9935208247 -1.4497277923 -0.8442190771
| 24> H -2.1263969695 0.0830116485 1.5330686317
| 25> H -3.0420168156 -1.0462108304 0.5260189079
| 26> H -1.7012603342 -1.6309341869 1.5160552505
| 27> H -1.6118086101 1.5235771024 -0.5863979146
| 28> H -2.6491036954 0.3692925467 -1.4322916095
| 29> H -1.0246034705 0.6955603093 -2.0344492249
| 30> H 1.0683861775 1.1962099877 1.4432736677
| 31> *
| 32>
| 33>                          ****END OF INPUT****

CARTESIAN COORDINATES (ANGSTROEM)
---------------------------------
  C      2.791457   -0.143004   -0.266677
  C      1.364368   -0.074877   -0.802417
  C      0.308709   -0.200520    0.306344
  H      0.604699   -1.028551    0.974161
  C     -1.089715   -0.534992   -0.249152
  C     -2.053567   -0.802018    0.906166
  C     -1.625951    0.586120   -1.136296
  O      0.203292    0.990115    1.068212
  H      3.003569    0.689055    0.400796
  H      3.500220   -0.100117   -1.089636
  H      2.951041   -1.072567    0.275895
  H      1.214024    0.873100   -1.320755
  H      1.210778   -0.884506   -1.517191
  H     -0.993521   -1.449728   -0.844219
  H     -2.126397    0.083012    1.533069
  H     -3.042017   -1.046211    0.526019
  H     -1.701260   -1.630934    1.516055
  H     -1.611809    1.523577   -0.586398
  H     -2.649104    0.369293   -1.432292
  H     -1.024603    0.695560   -2.034449
  H      1.068386    1.196210    1.443274

 Total Charge           Charge          ....    0
 Multiplicity           Mult            ....    1
 Number of Electrons    NEL             ....   58
 Basis Dimension        Dim             ....  208

ORBITAL ENERGIES
----------------

  NO   OCC          E(Eh)            E(eV)
   0   2.0000     -18.947729      -515.5939
   1   2.0000     -10.070415      -274.0299
   2   2.0000     -10.025405      -272.8051
   3   2.0000     -10.015872      -272.5457
   4   2.0000     -10.010250      -272.3928
   5   2.0000     -10.005672      -272.2682
   6   2.0000     -10.005501      -272.2635
   7   2.0000      -0.985834       -26.8259
   8   2.0000      -0.764795       -20.8111
   9   2.0000      -0.723681       -19.6924
  10   2.0000      -0.642172       -17.4744
  11   2.0000      -0.633504       -17.2385
  12   2.0000      -0.557938       -15.1823
  13   2.0000      -0.519209       -14.1284
  14   2.0000      -0.477003       -12.9799
  15   2.0000      -0.423028       -11.5112
  16   2.0000      -0.404686       -11.0121
  17   2.0000      -0.399442       -10.8694
  18   2.0000      -0.390549       -10.6274
  19   2.0000      -0.357255        -9.7214
  20   2.0000      -0.348706        -9.4888
  21   2.0000      -0.339672        -9.2429
  22   2.0000      -0.331322        -9.0157
  23   2.0000      -0.317287        -8.6338
  24   2.0000      -0.304583        -8.2881
  25   2.0000      -0.292701        -7.9648
  26   2.0000      -0.288433        -7.8487
  27   2.0000      -0.266828        -7.2608
  28   2.0000      -0.234114        -6.3706
  29   0.0000       0.071753         1.9525
  30   0.0000       0.108106         2.9417
  31   0.0000       0.117570         3.1993
  32   0.0000       0.129536         3.5249
  33   0.0000       0.136035         3.7017

MULLIKEN ATOMIC CHARGES
-----------------------
   0 C :   -0.524659
   1 C :   -0.306929
   2 C :    0.066412
   3 H :    0.147585
   4 C :    0.027352
   5 C :   -0.565791
   6 C :   -0.589345
   7 O :   -0.530534
   8 H :    0.154318
   9 H :    0.161259
  10 H :    0.158923
  11 H :    0.163960
  12 H :    0.156718
  13 H :    0.161466
  14 H :    0.165410
  15 H :    0.160661
  16 H :    0.157928
  17 H :    0.171383
  18 H :    0.158762
  19 H :    0.165122
  20 H :    0.339999
Sum of atomic charges:   -0.0000000

LOEWDIN ATOMIC CHARGES
----------------------
   0 C :   -0.428923
   1 C :   -0.294247
   2 C :    0.060730
   3 H :    0.173287
   4 C :   -0.213999
   5 C :   -0.418861
   6 C :   -0.417704
   7 O :   -0.656882
   8 H :    0.152361
   9 H :    0.155138
  10 H :    0.155070
  11 H :    0.165109
  12 H :    0.165272
  13 H :    0.166050
  14 H :    0.161405
  15 H :    0.155371
  16 H :    0.157232
  17 H :    0.163128
  18 H :    0.156209
  19 H :    0.158255
  20 H :    0.285999

  Mayer bond orders larger than 0.100000
B(  0-C ,  1-C ) :   0.8954 B(  0-C ,  8-H ) :   0.9732 B(  0-C ,  9-H ) :   0.9716
B(  0-C , 10-H ) :   0.9831 B(  1-C ,  2-C ) :   0.9084 B(  1-C , 11-H ) :   0.9719
B(  1-C , 12-H ) :   0.9737 B(  2-C ,  3-H ) :   0.9642 B(  2-C ,  4-C ) :   0.9262
B(  2-C ,  7-O ) :   0.7895 B(  4-C ,  5-C ) :   0.8973 B(  4-C ,  6-C ) :   0.8742
B(  4-C , 13-H ) :   0.9554 B(  5-C , 14-H ) :   0.9856 B(  5-C , 15-H ) :   0.9751
B(  5-C , 16-H ) :   0.9732 B(  6-C , 17-H ) :   0.9853 B(  6-C , 18-H ) :   0.9709
B(  6-C , 19-H ) :   0.9694 B(  7-O , 20-H ) :   0.8767

Dispersion correction           -0.005585788
FINAL SINGLE POINT ENERGY      -312.207300225120

DIPOLE MOMENT
-------------

Method             : SCF
Type of density    : Electron Density
Multiplicity       :   1
Irrep              :   0
Energy             :  -312.2128539938092899 Eh
Relativity type    :
Basis              : AO
                                X                 Y                 Z
Electronic contribution:      0.366073854       1.187397894       1.830091001
Nuclear contribution   :      0.382041392      -1.657870648      -2.006518473
                        -----------------------------------------
Total Dipole Moment    :      0.748115246      -0.470472754      -0.176427472
                        -----------------------------------------
Magnitude (a.u.)       :      0.901192369
Magnitude (Debye)      :      2.290648962

Rotational constants in cm-1:             0.141699             0.051790             0.047693
Rotational constants in MHz :          4248.042286          1552.625809          1429.796097

                             ****ORCA TERMINATED NORMALLY****
TOTAL RUN TIME: 0 days 0 hours 0 minutes 33 seconds 78 msec
