                         Program Version 6.0.0  -   RELEASE  -
|  1> ! pbe def2-sv(p) def2/J RI DEFGRID1 loosescf d4 GCP(DFT/SV(P)) printgap
|  2> %output
|  3>     printlevel normal
|  4> end
|  5> * xyz 0 1
|  6> C -2.9432689728 0.5002797799 3.9449e-05
|  7> C -1.7756550323 -0.4791098966 -0.0026375267
|  8> C -0.4351665472 0.2521999266 0.0024672103
|  9> C 0.7370800364 -0.7394434014 0.0015869234
| 10> C 1.9957282684 -0.0518737177 0.0004186528
| 11> N 2.992483245 0.5137283346 -0.0018140489
| 12> H -3.8888939859 -0.0354991518 -0.0043840894
| 13> H -2.909967412 1.1319438558 0.8848282352
| 14> H -2.9066647256 1.1407150316 -0.8782829811
| 15> H -1.8415198749 -1.1229517247 0.8769780257
| 16> H -1.8388832903 -1.1150180806 -0.8882142647
| 17> H -0.3688532872 0.8902487594 0.8864108033
| 18> H -0.3653506242 0.8957639726 -0.8772029246
| 19> H 0.6944777843 -1.3764226732 0.8887236316
| 20> H 0.6933166749 -1.3758129956 -0.8859870095
| 21> *
| 22>
| 23>                          ****END OF INPUT****

CARTESIAN COORDINATES (ANGSTROEM)
---------------------------------
  C     -2.943269    0.500280    0.000039
  C     -1.775655   -0.479110   -0.002638
  C     -0.435167    0.252200    0.002467
  C      0.737080   -0.739443    0.001587
  C      1.995728   -0.051874    0.000419
  N      2.992483    0.513728   -0.001814
  H     -3.888894   -0.035499   -0.004384
  H     -2.909967    1.131944    0.884828
  H     -2.906665    1.140715   -0.878283
  H     -1.841520   -1.122952    0.876978
  H     -1.838883   -1.115018   -0.888214
  H     -0.368853    0.890249    0.886411
  H     -0.365351    0.895764   -0.877203
  H      0.694478   -1.376423    0.888724
  H      0.693317   -1.375813   -0.885987

 Total Charge           Charge          ....    0
 Multiplicity           Mult            ....    1
 Number of Electrons    NEL             ....   46
 Basis Dimension        Dim             ....  102

ORBITAL ENERGIES
----------------

  NO   OCC          E(Eh)            E(eV)
   0   2.0000     -13.973481      -380.2378
   1   2.0000      -9.935824      -270.3675
   2   2.0000      -9.923238      -270.0250
   3   2.0000      -9.911593      -269.7082
   4   2.0000      -9.902681      -269.4657
   5   2.0000      -9.886624      -269.0287
   6   2.0000      -0.811756       -22.0890
   7   2.0000      -0.749795       -20.4030
   8   2.0000      -0.692142       -18.8341
   9   2.0000      -0.603396       -16.4192
  10   2.0000      -0.538248       -14.6465
  11   2.0000      -0.461015       -12.5449
  12   2.0000      -0.456436       -12.4202
  13   2.0000      -0.410078       -11.1588
  14   2.0000      -0.406005       -11.0480
  15   2.0000      -0.363576        -9.8934
  16   2.0000      -0.342896        -9.3307
  17   2.0000      -0.329234        -8.9589
  18   2.0000      -0.312823        -8.5123
  19   2.0000      -0.305760        -8.3202
  20   2.0000      -0.291610        -7.9351
  21   2.0000      -0.285108        -7.7582
  22   2.0000      -0.280718        -7.6387
  23   0.0000       0.002654         0.0722
  24   0.0000       0.009522         0.2591
  25   0.0000       0.029969         0.8155
  26   0.0000       0.047670         1.2972
  27   0.0000       0.056514         1.5378

MULLIKEN ATOMIC CHARGES
-----------------------
   0 C :   -0.257205
   1 C :   -0.167557
   2 C :   -0.244761
   3 C :   -0.115712
   4 C :   -0.242244
   5 N :    0.071346
   6 H :    0.108448
   7 H :    0.103642
   8 H :    0.103644
   9 H :    0.088485
  10 H :    0.088561
  11 H :    0.109209
  12 H :    0.109308
  13 H :    0.122414
  14 H :    0.122422
Sum of atomic charges:    0.0000000

LOEWDIN ATOMIC CHARGES
----------------------
   0 C :   -0.338290
   1 C :   -0.234501
   2 C :   -0.213697
   3 C :   -0.240861
   4 C :   -0.056935
   5 N :   -0.070278
   6 H :    0.122515
   7 H :    0.120014
   8 H :    0.120023
   9 H :    0.117081
  10 H :    0.117091
  11 H :    0.126307
  12 H :    0.126347
  13 H :    0.152579
  14 H :    0.152604

  Mayer bond orders larger than 0.100000
B(  0-C ,  1-C ) :   1.1613 B(  0-C ,  6-H ) :   0.9515 B(  0-C ,  7-H ) :   0.9538
B(  0-C ,  8-H ) :   0.9538 B(  1-C ,  2-C ) :   1.1380 B(  1-C ,  9-H ) :   0.9224
B(  1-C , 10-H ) :   0.9225 B(  2-C ,  3-C ) :   1.1361 B(  2-C , 11-H ) :   0.9225
B(  2-C , 12-H ) :   0.9226 B(  3-C ,  4-C ) :   1.2165 B(  3-C , 13-H ) :   0.8694
B(  3-C , 14-H ) :   0.8697 B(  4-C ,  5-N ) :   3.0586

Dispersion correction           -0.009952280
FINAL SINGLE POINT ENERGY      -250.095927925542

DIPOLE MOMENT
-------------

Method             : SCF
Type of density    : Electron Density
Multiplicity       :   1
Irrep              :   0
Energy             :  -250.1439540581428673 Eh
Relativity type    :
Basis              : AO
                                X                 Y                 Z
Electronic contribution:     10.505467865       0.281576711      -0.001022480
Nuclear contribution   :    -11.928649967      -0.904414407       0.002682026
                        -----------------------------------------
Total Dipole Moment    :     -1.423182101      -0.622837696       0.001659546
                        -----------------------------------------
Magnitude (a.u.)       :      1.553504697
Magnitude (Debye)      :      3.948695131

Rotational constants in cm-1:             0.500670             0.045481             0.043033
Rotational constants in MHz :         15009.704961          1363.500424          1290.109769

                             ****ORCA TERMINATED NORMALLY****
TOTAL RUN TIME: 0 days 0 hours 0 minutes 6 seconds 392 msec
