                         Program Version 6.0.0  -   RELEASE  -
|  1> ! pbe def2-sv(p) def2/J RI DEFGRID1 loosescf d4 GCP(DFT/SV(P)) printgap
|  2> %output
|  3>     printlevel normal
|  4> end
|  5> * xyz 0 1
|  6> C -3.1511334331 -0.2093615884 0.14013575
|  7> C -1.7208111809 0.0988177396 0.5632705988
|  8> C -0.8434724513 0.3974742965 -0.6495101574
|  9> O 0.4762508711 0.7941531993 -0.2529428477
| 10> C 1.3840603035 -0.15075127 -0.029881125
| 11> O 1.1661586734 -1.3363484553 -0.1733752168
| 12> C 2.6901884338 0.434808671 0.4147380624
| 13> H -3.7595097884 -0.4260524457 1.0132368692
| 14> H -3.5842965986 0.6387332608 -0.383477728
| 15> H -3.1740533763 -1.0726131402 -0.5200890803
| 16> H -1.2977359851 -0.7538735415 1.0992539656
| 17> H -1.7033773049 0.963155332 1.2295436956
| 18> H -0.7691956043 -0.4852049549 -1.2926761521
| 19> H -1.2326776239 1.2446864472 -1.215737823
| 20> H 2.7201883223 1.4932743967 0.1806952371
| 21> H 3.5073551543 -0.0978121554 -0.0622901647
| 22> H 2.7792691922 0.2981313749 1.4903539704
| 23> *
| 24>
| 25>                          ****END OF INPUT****

CARTESIAN COORDINATES (ANGSTROEM)
---------------------------------
  C     -3.151133   -0.209362    0.140136
  C     -1.720811    0.098818    0.563271
  C     -0.843472    0.397474   -0.649510
  O      0.476251    0.794153   -0.252943
  C      1.384060   -0.150751   -0.029881
  O      1.166159   -1.336348   -0.173375
  C      2.690188    0.434809    0.414738
  H     -3.759510   -0.426052    1.013237
  H     -3.584297    0.638733   -0.383478
  H     -3.174053   -1.072613   -0.520089
  H     -1.297736   -0.753874    1.099254
  H     -1.703377    0.963155    1.229544
  H     -0.769196   -0.485205   -1.292676
  H     -1.232678    1.244686   -1.215738
  H      2.720188    1.493274    0.180695
  H      3.507355   -0.097812   -0.062290
  H      2.779269    0.298131    1.490354

 Total Charge           Charge          ....    0
 Multiplicity           Mult            ....    1
 Number of Electrons    NEL             ....   56
 Basis Dimension        Dim             ....  118

ORBITAL ENERGIES
----------------

  NO   OCC          E(Eh)            E(eV)
   0   2.0000     -18.796344      -511.4745
   1   2.0000     -18.728969      -509.6411
   2   2.0000     -10.007008      -272.3045
   3   2.0000      -9.942849      -270.5587
   4   2.0000      -9.892901      -269.1995
   5   2.0000      -9.892840      -269.1979
   6   2.0000      -9.884264      -268.9645
   7   2.0000      -1.002877       -27.2897
   8   2.0000      -0.906789       -24.6750
   9   2.0000      -0.723024       -19.6745
  10   2.0000      -0.679447       -18.4887
  11   2.0000      -0.622792       -16.9470
  12   2.0000      -0.549168       -14.9436
  13   2.0000      -0.499348       -13.5880
  14   2.0000      -0.451178       -12.2772
  15   2.0000      -0.425325       -11.5737
  16   2.0000      -0.417999       -11.3743
  17   2.0000      -0.401349       -10.9213
  18   2.0000      -0.385083       -10.4787
  19   2.0000      -0.363910        -9.9025
  20   2.0000      -0.357527        -9.7288
  21   2.0000      -0.346351        -9.4247
  22   2.0000      -0.326817        -8.8931
  23   2.0000      -0.312644        -8.5075
  24   2.0000      -0.304182        -8.2772
  25   2.0000      -0.288807        -7.8588
  26   2.0000      -0.251711        -6.8494
  27   2.0000      -0.216412        -5.8889
  28   0.0000      -0.018513        -0.5038
  29   0.0000       0.039487         1.0745
  30   0.0000       0.053301         1.4504
  31   0.0000       0.071610         1.9486
  32   0.0000       0.080626         2.1940

MULLIKEN ATOMIC CHARGES
-----------------------
   0 C :   -0.289132
   1 C :   -0.209639
   2 C :    0.008716
   3 O :   -0.234617
   4 C :    0.084219
   5 O :   -0.215854
   6 C :   -0.249848
   7 H :    0.112605
   8 H :    0.102006
   9 H :    0.109312
  10 H :    0.108943
  11 H :    0.095329
  12 H :    0.101239
  13 H :    0.094029
  14 H :    0.117923
  15 H :    0.129551
  16 H :    0.135218
Sum of atomic charges:   -0.0000000

LOEWDIN ATOMIC CHARGES
----------------------
   0 C :   -0.338516
   1 C :   -0.249835
   2 C :   -0.109167
   3 O :   -0.068199
   4 C :    0.030493
   5 O :   -0.176534
   6 C :   -0.359560
   7 H :    0.124985
   8 H :    0.118292
   9 H :    0.121850
  10 H :    0.125743
  11 H :    0.118953
  12 H :    0.117733
  13 H :    0.115262
  14 H :    0.134950
  15 H :    0.144198
  16 H :    0.149351

  Mayer bond orders larger than 0.100000
B(  0-C ,  1-C ) :   1.1469 B(  0-C ,  7-H ) :   0.9516 B(  0-C ,  8-H ) :   0.9546
B(  0-C ,  9-H ) :   0.9553 B(  1-C ,  2-C ) :   1.1407 B(  1-C , 10-H ) :   0.9187
B(  1-C , 11-H ) :   0.9221 B(  2-C ,  3-O ) :   0.9315 B(  2-C , 12-H ) :   0.9088
B(  2-C , 13-H ) :   0.9316 B(  3-O ,  4-C ) :   1.2091 B(  4-C ,  5-O ) :   2.0393
B(  4-C ,  6-C ) :   1.0825 B(  6-C , 14-H ) :   0.9371 B(  6-C , 15-H ) :   0.9350
B(  6-C , 16-H ) :   0.9263

Dispersion correction           -0.011757846
FINAL SINGLE POINT ENERGY      -346.244674360986

DIPOLE MOMENT
-------------

Method             : SCF
Type of density    : Electron Density
Multiplicity       :   1
Irrep              :   0
Energy             :  -346.3095268262829904 Eh
Relativity type    :
Basis              : AO
                                X                 Y                 Z
Electronic contribution:      5.851928582      -1.029443551      -1.321095816
Nuclear contribution   :     -6.086902063       1.682936946       1.437343030
                        -----------------------------------------
Total Dipole Moment    :     -0.234973481       0.653493395       0.116247214
                        -----------------------------------------
Magnitude (a.u.)       :      0.704116162
Magnitude (Debye)      :      1.789721051

Rotational constants in cm-1:             0.229365             0.042918             0.039985
Rotational constants in MHz :          6876.188845          1286.651954          1198.722223

                             ****ORCA TERMINATED NORMALLY****
TOTAL RUN TIME: 0 days 0 hours 0 minutes 8 seconds 960 msec
