                         Program Version 6.0.0  -   RELEASE  -
|  1> ! r2scan-3c def2/J RI DEFGRID2 scfconv6 printgap
|  2> %output
|  3>     printlevel normal
|  4> end
|  5> * xyz 0 1
|  6> C -2.1578774375 -0.051955822 -1.2478014383
|  7> C -2.1606687222 0.3446776782 0.2237922282
|  8> C -1.2165469092 -0.451651353 1.1314150577
|  9> C 0.3039548071 -0.3277744882 0.9306043005
| 10> C 0.8654003377 -1.2012892014 -0.2067764655
| 11> C 2.0873549428 -0.4379175628 -0.7091513373
| 12> C 1.6255367883 1.0148375235 -0.6513793947
| 13> C 0.8394732305 1.0966054291 0.6608242283
| 14> H -2.2971523193 -1.1256000179 -1.3565764056
| 15> H -2.9729153159 0.4504114499 -1.7654518054
| 16> H -1.228925224 0.2350845642 -1.7313272184
| 17> H -1.947330142 1.4116627722 0.3055949688
| 18> H -3.1703868529 0.1944185622 0.6161101993
| 19> H -1.437934127 -0.142887781 2.1570590503
| 20> H -1.4720551255 -1.511651527 1.0528056888
| 21> H 0.7530303113 -0.6844528943 1.8642185108
| 22> H 1.1170519805 -2.2015238285 0.145434759
| 23> H 0.1395777529 -1.3021342937 -1.0099753262
| 24> H 2.9285110693 -0.5866650323 -0.0296409183
| 25> H 2.3923193437 -0.7444903413 -1.7088940793
| 26> H 2.4541851063 1.7212837146 -0.6806550233
| 27> H 0.9709889481 1.2251658834 -1.4986513327
| 28> H 1.5038163902 1.399459477 1.4709957291
| 29> H 0.0432105181 1.8343299542 0.6015626417
| 30> *
| 31>
| 32>                          ****END OF INPUT****

CARTESIAN COORDINATES (ANGSTROEM)
---------------------------------
  C     -2.157877   -0.051956   -1.247801
  C     -2.160669    0.344678    0.223792
  C     -1.216547   -0.451651    1.131415
  C      0.303955   -0.327774    0.930604
  C      0.865400   -1.201289   -0.206776
  C      2.087355   -0.437918   -0.709151
  C      1.625537    1.014838   -0.651379
  C      0.839473    1.096605    0.660824
  H     -2.297152   -1.125600   -1.356576
  H     -2.972915    0.450411   -1.765452
  H     -1.228925    0.235085   -1.731327
  H     -1.947330    1.411663    0.305595
  H     -3.170387    0.194419    0.616110
  H     -1.437934   -0.142888    2.157059
  H     -1.472055   -1.511652    1.052806
  H      0.753030   -0.684453    1.864219
  H      1.117052   -2.201524    0.145435
  H      0.139578   -1.302134   -1.009975
  H      2.928511   -0.586665   -0.029641
  H      2.392319   -0.744490   -1.708894
  H      2.454185    1.721284   -0.680655
  H      0.970989    1.225166   -1.498651
  H      1.503816    1.399459    1.470996
  H      0.043211    1.834330    0.601563

 Total Charge           Charge          ....    0
 Multiplicity           Mult            ....    1
 Number of Electrons    NEL             ....   64
 Basis Dimension        Dim             ....  232

ORBITAL ENERGIES
----------------

  NO   OCC          E(Eh)            E(eV)
   0   2.0000     -10.024668      -272.7851
   1   2.0000     -10.022206      -272.7181
   2   2.0000     -10.019183      -272.6358
   3   2.0000     -10.018127      -272.6071
   4   2.0000     -10.017475      -272.5894
   5   2.0000     -10.015610      -272.5386
   6   2.0000     -10.013933      -272.4930
   7   2.0000     -10.013866      -272.4912
   8   2.0000      -0.803387       -21.8613
   9   2.0000      -0.747014       -20.3273
  10   2.0000      -0.687111       -18.6972
  11   2.0000      -0.670919       -18.2566
  12   2.0000      -0.624848       -17.0030
  13   2.0000      -0.555631       -15.1195
  14   2.0000      -0.533043       -14.5048
  15   2.0000      -0.496748       -13.5172
  16   2.0000      -0.454658       -12.3719
  17   2.0000      -0.439165       -11.9503
  18   2.0000      -0.409194       -11.1347
  19   2.0000      -0.403731       -10.9861
  20   2.0000      -0.379997       -10.3402
  21   2.0000      -0.371305       -10.1037
  22   2.0000      -0.362461        -9.8631
  23   2.0000      -0.326657        -8.8888
  24   2.0000      -0.318488        -8.6665
  25   2.0000      -0.309268        -8.4156
  26   2.0000      -0.300552        -8.1784
  27   2.0000      -0.298785        -8.1304
  28   2.0000      -0.285935        -7.7807
  29   2.0000      -0.276382        -7.5207
  30   2.0000      -0.270985        -7.3739
  31   2.0000      -0.262896        -7.1538
  32   0.0000       0.076230         2.0743
  33   0.0000       0.089480         2.4349
  34   0.0000       0.097542         2.6542
  35   0.0000       0.116860         3.1799
  36   0.0000       0.126581         3.4444

MULLIKEN ATOMIC CHARGES
-----------------------
   0 C :   -0.504294
   1 C :   -0.205404
   2 C :   -0.367256
   3 C :    0.021436
   4 C :   -0.399467
   5 C :   -0.264051
   6 C :   -0.285683
   7 C :   -0.381604
   8 H :    0.148836
   9 H :    0.145136
  10 H :    0.148956
  11 H :    0.130157
  12 H :    0.141475
  13 H :    0.144269
  14 H :    0.149665
  15 H :    0.157392
  16 H :    0.151278
  17 H :    0.165770
  18 H :    0.147425
  19 H :    0.150799
  20 H :    0.149458
  21 H :    0.148905
  22 H :    0.156110
  23 H :    0.150694
Sum of atomic charges:   -0.0000000

LOEWDIN ATOMIC CHARGES
----------------------
   0 C :   -0.431225
   1 C :   -0.316224
   2 C :   -0.299252
   3 C :   -0.224077
   4 C :   -0.300803
   5 C :   -0.301754
   6 C :   -0.303189
   7 C :   -0.299037
   8 H :    0.149664
   9 H :    0.149806
  10 H :    0.147727
  11 H :    0.148690
  12 H :    0.153037
  13 H :    0.156925
  14 H :    0.158583
  15 H :    0.160931
  16 H :    0.156372
  17 H :    0.161563
  18 H :    0.155134
  19 H :    0.155281
  20 H :    0.154771
  21 H :    0.152338
  22 H :    0.157391
  23 H :    0.157346

  Mayer bond orders larger than 0.100000
B(  0-C ,  1-C ) :   0.8744 B(  0-C ,  8-H ) :   0.9828 B(  0-C ,  9-H ) :   0.9675
B(  0-C , 10-H ) :   0.9811 B(  1-C ,  2-C ) :   0.9258 B(  1-C , 11-H ) :   0.9765
B(  1-C , 12-H ) :   0.9639 B(  2-C ,  3-C ) :   0.8512 B(  2-C , 13-H ) :   0.9705
B(  2-C , 14-H ) :   0.9992 B(  3-C ,  4-C ) :   0.9331 B(  3-C ,  7-C ) :   0.9208
B(  3-C , 15-H ) :   0.9678 B(  4-C ,  5-C ) :   0.8790 B(  4-C , 16-H ) :   0.9523
B(  4-C , 17-H ) :   0.9926 B(  5-C ,  6-C ) :   0.8961 B(  5-C , 18-H ) :   0.9882
B(  5-C , 19-H ) :   0.9581 B(  6-C ,  7-C ) :   0.9097 B(  6-C , 20-H ) :   0.9483
B(  6-C , 21-H ) :   0.9990 B(  7-C , 22-H ) :   0.9755 B(  7-C , 23-H ) :   0.9794

Dispersion correction           -0.007430812
FINAL SINGLE POINT ENERGY      -314.376058641574

DIPOLE MOMENT
-------------

Method             : SCF
Type of density    : Electron Density
Multiplicity       :   1
Irrep              :   0
Energy             :  -314.3791718093164036 Eh
Relativity type    :
Basis              : AO
                                X                 Y                 Z
Electronic contribution:      2.063662392      -0.164247742       1.518704272
Nuclear contribution   :     -2.086481811       0.161749310      -1.470467893
                        -----------------------------------------
Total Dipole Moment    :     -0.022819419      -0.002498432       0.048236379
                        -----------------------------------------
Magnitude (a.u.)       :      0.053420186
Magnitude (Debye)      :      0.135783323

Rotational constants in cm-1:             0.103137             0.045787             0.044224
Rotational constants in MHz :          3091.955139          1372.670817          1325.812725

                             ****ORCA TERMINATED NORMALLY****
TOTAL RUN TIME: 0 days 0 hours 0 minutes 25 seconds 750 msec
