                         Program Version 6.0.0  -   RELEASE  -
|  1> ! r2scan-3c def2/J RI DEFGRID2 scfconv6 printgap
|  2> %output
|  3>     printlevel normal
|  4> end
|  5> %cpcm
|  6>     smd true
|  7>     smdsolvent "water"
|  8> end
|  9> * xyz 0 1
| 10> C -2.1578774375 -0.051955822 -1.2478014383
| 11> C -2.1606687222 0.3446776782 0.2237922282
| 12> C -1.2165469092 -0.451651353 1.1314150577
| 13> C 0.3039548071 -0.3277744882 0.9306043005
| 14> C 0.8654003377 -1.2012892014 -0.2067764655
| 15> C 2.0873549428 -0.4379175628 -0.7091513373
| 16> C 1.6255367883 1.0148375235 -0.6513793947
| 17> C 0.8394732305 1.0966054291 0.6608242283
| 18> H -2.2971523193 -1.1256000179 -1.3565764056
| 19> H -2.9729153159 0.4504114499 -1.7654518054
| 20> H -1.228925224 0.2350845642 -1.7313272184
| 21> H -1.947330142 1.4116627722 0.3055949688
| 22> H -3.1703868529 0.1944185622 0.6161101993
| 23> H -1.437934127 -0.142887781 2.1570590503
| 24> H -1.4720551255 -1.511651527 1.0528056888
| 25> H 0.7530303113 -0.6844528943 1.8642185108
| 26> H 1.1170519805 -2.2015238285 0.145434759
| 27> H 0.1395777529 -1.3021342937 -1.0099753262
| 28> H 2.9285110693 -0.5866650323 -0.0296409183
| 29> H 2.3923193437 -0.7444903413 -1.7088940793
| 30> H 2.4541851063 1.7212837146 -0.6806550233
| 31> H 0.9709889481 1.2251658834 -1.4986513327
| 32> H 1.5038163902 1.399459477 1.4709957291
| 33> H 0.0432105181 1.8343299542 0.6015626417
| 34> *
| 35>
| 36>                          ****END OF INPUT****

CARTESIAN COORDINATES (ANGSTROEM)
---------------------------------
  C     -2.157877   -0.051956   -1.247801
  C     -2.160669    0.344678    0.223792
  C     -1.216547   -0.451651    1.131415
  C      0.303955   -0.327774    0.930604
  C      0.865400   -1.201289   -0.206776
  C      2.087355   -0.437918   -0.709151
  C      1.625537    1.014838   -0.651379
  C      0.839473    1.096605    0.660824
  H     -2.297152   -1.125600   -1.356576
  H     -2.972915    0.450411   -1.765452
  H     -1.228925    0.235085   -1.731327
  H     -1.947330    1.411663    0.305595
  H     -3.170387    0.194419    0.616110
  H     -1.437934   -0.142888    2.157059
  H     -1.472055   -1.511652    1.052806
  H      0.753030   -0.684453    1.864219
  H      1.117052   -2.201524    0.145435
  H      0.139578   -1.302134   -1.009975
  H      2.928511   -0.586665   -0.029641
  H      2.392319   -0.744490   -1.708894
  H      2.454185    1.721284   -0.680655
  H      0.970989    1.225166   -1.498651
  H      1.503816    1.399459    1.470996
  H      0.043211    1.834330    0.601563

 Total Charge           Charge          ....    0
 Multiplicity           Mult            ....    1
 Number of Electrons    NEL             ....   64
 Basis Dimension        Dim             ....  232

ORBITAL ENERGIES
----------------

  NO   OCC          E(Eh)            E(eV)
   0   2.0000     -10.017596      -272.5926
   1   2.0000     -10.014308      -272.5032
   2   2.0000     -10.012012      -272.4407
   3   2.0000     -10.011172      -272.4178
   4   2.0000     -10.011010      -272.4134
   5   2.0000     -10.008422      -272.3430
   6   2.0000     -10.007187      -272.3094
   7   2.0000     -10.005509      -272.2637
   8   2.0000      -0.796551       -21.6752
   9   2.0000      -0.739702       -20.1283
  10   2.0000      -0.680072       -18.5057
  11   2.0000      -0.664457       -18.0808
  12   2.0000      -0.617894       -16.8137
  13   2.0000      -0.548484       -14.9250
  14   2.0000      -0.526606       -14.3297
  15   2.0000      -0.489957       -13.3324
  16   2.0000      -0.447437       -12.1754
  17   2.0000      -0.432344       -11.7647
  18   2.0000      -0.402007       -10.9392
  19   2.0000      -0.396436       -10.7876
  20   2.0000      -0.372782       -10.1439
  21   2.0000      -0.363861        -9.9012
  22   2.0000      -0.354991        -9.6598
  23   2.0000      -0.319210        -8.6861
  24   2.0000      -0.311098        -8.4654
  25   2.0000      -0.301750        -8.2110
  26   2.0000      -0.294127        -8.0036
  27   2.0000      -0.292375        -7.9559
  28   2.0000      -0.278587        -7.5807
  29   2.0000      -0.269273        -7.3273
  30   2.0000      -0.264071        -7.1857
  31   2.0000      -0.255443        -6.9510
  32   0.0000       0.084924         2.3109
  33   0.0000       0.096879         2.6362
  34   0.0000       0.104263         2.8371
  35   0.0000       0.123608         3.3635
  36   0.0000       0.133146         3.6231

MULLIKEN ATOMIC CHARGES
-----------------------
   0 C :   -0.536713
   1 C :   -0.219362
   2 C :   -0.384667
   3 C :    0.023620
   4 C :   -0.409571
   5 C :   -0.288216
   6 C :   -0.300654
   7 C :   -0.403396
   8 H :    0.157257
   9 H :    0.153204
  10 H :    0.162187
  11 H :    0.141283
  12 H :    0.148513
  13 H :    0.150690
  14 H :    0.156015
  15 H :    0.164529
  16 H :    0.158362
  17 H :    0.170816
  18 H :    0.156286
  19 H :    0.157590
  20 H :    0.156211
  21 H :    0.160277
  22 H :    0.163664
  23 H :    0.162073
Sum of atomic charges:    0.0000000

LOEWDIN ATOMIC CHARGES
----------------------
   0 C :   -0.438764
   1 C :   -0.318960
   2 C :   -0.302743
   3 C :   -0.223826
   4 C :   -0.304194
   5 C :   -0.306473
   6 C :   -0.307525
   7 C :   -0.303152
   8 H :    0.151851
   9 H :    0.151109
  10 H :    0.151510
  11 H :    0.151610
  12 H :    0.154333
  13 H :    0.157936
  14 H :    0.159934
  15 H :    0.162770
  16 H :    0.157511
  17 H :    0.163034
  18 H :    0.157072
  19 H :    0.156580
  20 H :    0.155830
  21 H :    0.155733
  22 H :    0.158821
  23 H :    0.160001

  Mayer bond orders larger than 0.100000
B(  0-C ,  1-C ) :   0.8681 B(  0-C ,  8-H ) :   0.9793 B(  0-C ,  9-H ) :   0.9658
B(  0-C , 10-H ) :   0.9790 B(  1-C ,  2-C ) :   0.9207 B(  1-C , 11-H ) :   0.9770
B(  1-C , 12-H ) :   0.9644 B(  2-C ,  3-C ) :   0.8464 B(  2-C , 13-H ) :   0.9714
B(  2-C , 14-H ) :   0.9979 B(  3-C ,  4-C ) :   0.9315 B(  3-C ,  7-C ) :   0.9184
B(  3-C , 15-H ) :   0.9680 B(  4-C ,  5-C ) :   0.8785 B(  4-C , 16-H ) :   0.9517
B(  4-C , 17-H ) :   0.9916 B(  5-C ,  6-C ) :   0.8944 B(  5-C , 18-H ) :   0.9866
B(  5-C , 19-H ) :   0.9567 B(  6-C ,  7-C ) :   0.9043 B(  6-C , 20-H ) :   0.9479
B(  6-C , 21-H ) :   0.9961 B(  7-C , 22-H ) :   0.9748 B(  7-C , 23-H ) :   0.9794

Dispersion correction           -0.007430812
FINAL SINGLE POINT ENERGY      -314.373617160943

DIPOLE MOMENT
-------------

Method             : SCF
Type of density    : Electron Density
Multiplicity       :   1
Irrep              :   0
Energy             :  -314.3767303286852552 Eh
Relativity type    :
Basis              : AO
                                X                 Y                 Z
Electronic contribution:      2.055768856      -0.155696201       1.522917739
Nuclear contribution   :     -2.086481811       0.161749310      -1.470467893
                        -----------------------------------------
Total Dipole Moment    :     -0.030712955       0.006053109       0.052449846
                        -----------------------------------------
Magnitude (a.u.)       :      0.061081193
Magnitude (Debye)      :      0.155256053

Rotational constants in cm-1:             0.103137             0.045787             0.044224
Rotational constants in MHz :          3091.955139          1372.670817          1325.812725

                             ****ORCA TERMINATED NORMALLY****
TOTAL RUN TIME: 0 days 0 hours 0 minutes 31 seconds 144 msec
