                         Program Version 6.0.0  -   RELEASE  -
|  1> ! pbe def2-sv(p) def2/J RI DEFGRID1 loosescf d4 GCP(DFT/SV(P)) printgap
|  2> %output
|  3>     printlevel normal
|  4> end
|  5> * xyz 0 1
|  6> C -2.4146963155 0.7208655333 0.6580948832
|  7> C -1.28477325 -0.1850067703 0.1689795007
|  8> C -1.6954278002 -0.8606377812 -1.1378464219
|  9> C -4.5533e-06 0.6355625942 -0.0003711922
| 10> C 1.2849000016 -0.1849210404 -0.1690973238
| 11> C 2.4149234308 0.7210778716 -0.6577517353
| 12> C 1.6950903049 -0.8604127971 1.1379491341
| 13> H -3.3349525247 0.1535354919 0.7769120533
| 14> H -2.1620655506 1.1682375448 1.6166684486
| 15> H -2.5944465243 1.5203533977 -0.0576577621
| 16> H -1.1187054458 -0.9597652841 0.9242127086
| 17> H -2.6113768466 -1.4301563346 -0.9972985893
| 18> H -1.8711119377 -0.1136493386 -1.9093225285
| 19> H -0.924758401 -1.5420207545 -1.4881167491
| 20> H 0.1225305464 1.283301204 0.8714138293
| 21> H -0.1226153624 1.2826411758 -0.8726365769
| 22> H 1.1192356045 -0.9597475651 -0.9243567236
| 23> H 2.1628339994 1.1680810402 -1.6166380195
| 24> H 2.5939740157 1.5208411399 0.0578699509
| 25> H 3.3354127892 0.1539559575 -0.7757520237
| 26> H 2.6114696561 -1.4293750514 0.9979548935
| 27> H 1.8698171907 -0.1133825032 1.9095992865
| 28> H 0.9246179539 -1.5423015793 1.4876620765
| 29> *
| 30>
| 31>                          ****END OF INPUT****

CARTESIAN COORDINATES (ANGSTROEM)
---------------------------------
  C     -2.414696    0.720866    0.658095
  C     -1.284773   -0.185007    0.168980
  C     -1.695428   -0.860638   -1.137846
  C     -0.000005    0.635563   -0.000371
  C      1.284900   -0.184921   -0.169097
  C      2.414923    0.721078   -0.657752
  C      1.695090   -0.860413    1.137949
  H     -3.334953    0.153535    0.776912
  H     -2.162066    1.168238    1.616668
  H     -2.594447    1.520353   -0.057658
  H     -1.118705   -0.959765    0.924213
  H     -2.611377   -1.430156   -0.997299
  H     -1.871112   -0.113649   -1.909323
  H     -0.924758   -1.542021   -1.488117
  H      0.122531    1.283301    0.871414
  H     -0.122615    1.282641   -0.872637
  H      1.119236   -0.959748   -0.924357
  H      2.162834    1.168081   -1.616638
  H      2.593974    1.520841    0.057870
  H      3.335413    0.153956   -0.775752
  H      2.611470   -1.429375    0.997955
  H      1.869817   -0.113383    1.909599
  H      0.924618   -1.542302    1.487662

 Total Charge           Charge          ....    0
 Multiplicity           Mult            ....    1
 Number of Electrons    NEL             ....   58
 Basis Dimension        Dim             ....  130

ORBITAL ENERGIES
----------------

  NO   OCC          E(Eh)            E(eV)
   0   2.0000      -9.889654      -269.1112
   1   2.0000      -9.889631      -269.1105
   2   2.0000      -9.875436      -268.7243
   3   2.0000      -9.868688      -268.5407
   4   2.0000      -9.868683      -268.5405
   5   2.0000      -9.867996      -268.5218
   6   2.0000      -9.867985      -268.5215
   7   2.0000      -0.739192       -20.1144
   8   2.0000      -0.698092       -18.9960
   9   2.0000      -0.607238       -16.5238
  10   2.0000      -0.606791       -16.5116
  11   2.0000      -0.599992       -16.3266
  12   2.0000      -0.507521       -13.8103
  13   2.0000      -0.487380       -13.2623
  14   2.0000      -0.426232       -11.5984
  15   2.0000      -0.400310       -10.8930
  16   2.0000      -0.391998       -10.6668
  17   2.0000      -0.375390       -10.2149
  18   2.0000      -0.363161        -9.8821
  19   2.0000      -0.349667        -9.5149
  20   2.0000      -0.336797        -9.1647
  21   2.0000      -0.335631        -9.1330
  22   2.0000      -0.314867        -8.5680
  23   2.0000      -0.306405        -8.3377
  24   2.0000      -0.297180        -8.0867
  25   2.0000      -0.290519        -7.9054
  26   2.0000      -0.274557        -7.4711
  27   2.0000      -0.267896        -7.2898
  28   2.0000      -0.261822        -7.1245
  29   0.0000       0.032461         0.8833
  30   0.0000       0.055954         1.5226
  31   0.0000       0.063960         1.7404
  32   0.0000       0.065033         1.7696
  33   0.0000       0.092611         2.5201

MULLIKEN ATOMIC CHARGES
-----------------------
   0 C :   -0.234267
   1 C :   -0.173488
   2 C :   -0.253513
   3 C :   -0.114332
   4 C :   -0.173528
   5 C :   -0.234245
   6 C :   -0.253521
   7 H :    0.095224
   8 H :    0.096613
   9 H :    0.090530
  10 H :    0.073776
  11 H :    0.096639
  12 H :    0.091143
  13 H :    0.105386
  14 H :    0.069126
  15 H :    0.069133
  16 H :    0.073777
  17 H :    0.096610
  18 H :    0.090528
  19 H :    0.095227
  20 H :    0.096638
  21 H :    0.091138
  22 H :    0.105406
Sum of atomic charges:   -0.0000000

LOEWDIN ATOMIC CHARGES
----------------------
   0 C :   -0.327508
   1 C :   -0.158635
   2 C :   -0.329704
   3 C :   -0.207809
   4 C :   -0.158631
   5 C :   -0.327508
   6 C :   -0.329710
   7 H :    0.115369
   8 H :    0.115586
   9 H :    0.115547
  10 H :    0.113113
  11 H :    0.117127
  12 H :    0.115816
  13 H :    0.115235
  14 H :    0.111955
  15 H :    0.111960
  16 H :    0.113110
  17 H :    0.115589
  18 H :    0.115549
  19 H :    0.115367
  20 H :    0.117128
  21 H :    0.115818
  22 H :    0.115237

  Mayer bond orders larger than 0.100000
B(  0-C ,  1-C ) :   1.1122 B(  0-C ,  7-H ) :   0.9513 B(  0-C ,  8-H ) :   0.9493
B(  0-C ,  9-H ) :   0.9497 B(  1-C ,  2-C ) :   1.1084 B(  1-C ,  3-C ) :   1.0818
B(  1-C , 10-H ) :   0.8957 B(  2-C , 11-H ) :   0.9497 B(  2-C , 12-H ) :   0.9489
B(  2-C , 13-H ) :   0.9452 B(  3-C ,  4-C ) :   1.0818 B(  3-C , 14-H ) :   0.9143
B(  3-C , 15-H ) :   0.9143 B(  4-C ,  5-C ) :   1.1122 B(  4-C ,  6-C ) :   1.1084
B(  4-C , 16-H ) :   0.8957 B(  5-C , 17-H ) :   0.9493 B(  5-C , 18-H ) :   0.9497
B(  5-C , 19-H ) :   0.9513 B(  6-C , 20-H ) :   0.9497 B(  6-C , 21-H ) :   0.9489
B(  6-C , 22-H ) :   0.9452

Dispersion correction           -0.018324833
FINAL SINGLE POINT ENERGY      -275.663220897425

DIPOLE MOMENT
-------------

Method             : SCF
Type of density    : Electron Density
Multiplicity       :   1
Irrep              :   0
Energy             :  -275.7409429228522981 Eh
Relativity type    :
Basis              : AO
                                X                 Y                 Z
Electronic contribution:      0.000173778      -0.203181033      -0.000478617
Nuclear contribution   :     -0.000132128       0.150620450       0.000482472
                        -----------------------------------------
Total Dipole Moment    :      0.000041650      -0.052560583       0.000003856
                        -----------------------------------------
Magnitude (a.u.)       :      0.052560600
Magnitude (Debye)      :      0.133598427

Rotational constants in cm-1:             0.136825             0.044730             0.043783
Rotational constants in MHz :          4101.914845          1340.985051          1312.585240

                             ****ORCA TERMINATED NORMALLY****
TOTAL RUN TIME: 0 days 0 hours 0 minutes 10 seconds 572 msec
