                         Program Version 6.0.0  -   RELEASE  -
|  1> ! pbe def2-sv(p) def2/J RI DEFGRID1 loosescf d4 GCP(DFT/SV(P)) printgap
|  2> %output
|  3>     printlevel normal
|  4> end
|  5> * xyz 0 1
|  6> C 1.6082100891 -0.8367574107 -0.0377566132
|  7> O 1.2842934831 0.5063057805 0.2574672289
|  8> C 0.0432959958 0.9516143237 -0.2596597677
|  9> C -1.1994670282 0.3148091259 0.405499292
| 10> N -1.7901862227 -0.8193279909 -0.2836140893
| 11> H 0.9736215233 -1.5352448845 0.5162539023
| 12> H 2.6417940907 -0.9700664212 0.2737294691
| 13> H 1.5213816316 -1.0319566476 -1.1125577639
| 14> H 0.0535540954 2.0270202266 -0.0739507749
| 15> H 0.0122300343 0.7799607373 -1.3472605923
| 16> H -0.9256543658 0.0005430588 1.4159695801
| 17> H -1.9765395514 1.0773805712 0.488944246
| 18> H -1.1205009068 -1.5746746044 -0.3778554393
| 19> H -2.0754214189 -0.5440110919 -1.2168681778
| 20> *
| 21>
| 22>                          ****END OF INPUT****

CARTESIAN COORDINATES (ANGSTROEM)
---------------------------------
  C      1.608210   -0.836757   -0.037757
  O      1.284293    0.506306    0.257467
  C      0.043296    0.951614   -0.259660
  C     -1.199467    0.314809    0.405499
  N     -1.790186   -0.819328   -0.283614
  H      0.973622   -1.535245    0.516254
  H      2.641794   -0.970066    0.273729
  H      1.521382   -1.031957   -1.112558
  H      0.053554    2.027020   -0.073951
  H      0.012230    0.779961   -1.347261
  H     -0.925654    0.000543    1.415970
  H     -1.976540    1.077381    0.488944
  H     -1.120501   -1.574675   -0.377855
  H     -2.075421   -0.544011   -1.216868

 Total Charge           Charge          ....    0
 Multiplicity           Mult            ....    1
 Number of Electrons    NEL             ....   42
 Basis Dimension        Dim             ....   88

ORBITAL ENERGIES
----------------

  NO   OCC          E(Eh)            E(eV)
   0   2.0000     -18.749743      -510.2064
   1   2.0000     -13.964276      -379.9873
   2   2.0000      -9.928087      -270.1570
   3   2.0000      -9.925980      -270.0997
   4   2.0000      -9.906908      -269.5807
   5   2.0000      -0.930118       -25.3098
   6   2.0000      -0.796161       -21.6646
   7   2.0000      -0.663276       -18.0486
   8   2.0000      -0.598824       -16.2948
   9   2.0000      -0.534902       -14.5554
  10   2.0000      -0.461286       -12.5522
  11   2.0000      -0.431340       -11.7374
  12   2.0000      -0.419628       -11.4186
  13   2.0000      -0.408630       -11.1194
  14   2.0000      -0.378861       -10.3093
  15   2.0000      -0.354891        -9.6571
  16   2.0000      -0.327522        -8.9123
  17   2.0000      -0.312899        -8.5144
  18   2.0000      -0.267984        -7.2922
  19   2.0000      -0.215293        -5.8584
  20   2.0000      -0.177629        -4.8335
  21   0.0000       0.026418         0.7189
  22   0.0000       0.061789         1.6814
  23   0.0000       0.065738         1.7888
  24   0.0000       0.072131         1.9628
  25   0.0000       0.095308         2.5935

MULLIKEN ATOMIC CHARGES
-----------------------
   0 C :   -0.119895
   1 O :   -0.338649
   2 C :    0.009121
   3 C :   -0.119958
   4 N :   -0.454603
   5 H :    0.096280
   6 H :    0.116700
   7 H :    0.081398
   8 H :    0.083926
   9 H :    0.054173
  10 H :    0.102820
  11 H :    0.089987
  12 H :    0.198716
  13 H :    0.199984
Sum of atomic charges:    0.0000000

LOEWDIN ATOMIC CHARGES
----------------------
   0 C :   -0.211131
   1 O :   -0.182197
   2 C :   -0.135314
   3 C :   -0.206775
   4 N :   -0.407057
   5 H :    0.093347
   6 H :    0.117182
   7 H :    0.094248
   8 H :    0.112375
   9 H :    0.087205
  10 H :    0.121182
  11 H :    0.118387
  12 H :    0.197520
  13 H :    0.201028

  Mayer bond orders larger than 0.100000
B(  0-C ,  1-O ) :   1.0290 B(  0-C ,  5-H ) :   0.9328 B(  0-C ,  6-H ) :   0.9607
B(  0-C ,  7-H ) :   0.9365 B(  1-O ,  2-C ) :   1.0446 B(  2-C ,  3-C ) :   1.0409
B(  2-C ,  8-H ) :   0.9246 B(  2-C ,  9-H ) :   0.9198 B(  3-C ,  4-N ) :   1.1430
B(  3-C , 10-H ) :   0.9246 B(  3-C , 11-H ) :   0.9283 B(  4-N , 12-H ) :   0.9111
B(  4-N , 13-H ) :   0.9080

Dispersion correction           -0.008679863
FINAL SINGLE POINT ENERGY      -249.088215310395

DIPOLE MOMENT
-------------

Method             : SCF
Type of density    : Electron Density
Multiplicity       :   1
Irrep              :   0
Energy             :  -249.1492779719532678 Eh
Relativity type    :
Basis              : AO
                                X                 Y                 Z
Electronic contribution:      0.942191436       1.468763667       0.825045960
Nuclear contribution   :     -0.830922832      -1.658530764      -1.342691953
                        -----------------------------------------
Total Dipole Moment    :      0.111268604      -0.189767097      -0.517645993
                        -----------------------------------------
Magnitude (a.u.)       :      0.562449667
Magnitude (Debye)      :      1.429633438

Rotational constants in cm-1:             0.286992             0.110555             0.089491
Rotational constants in MHz :          8603.793742          3314.341155          2682.865815

                             ****ORCA TERMINATED NORMALLY****
TOTAL RUN TIME: 0 days 0 hours 0 minutes 6 seconds 30 msec
