                         Program Version 6.0.0  -   RELEASE  -
|  1> ! wb97x-v def2-tzvp def2/J RIJCOSX DEFGRID2 scfconv7 GCP(DFT/TZ) printgap
|  2> %output
|  3>     printlevel normal
|  4> end
|  5> * xyz 0 1
|  6> C -2.540637534063469 -0.12979545339145163 0.49989105977141307
|  7> C -1.7969585120862326 -1.2667789658002653 0.19536395706095078
|  8> C -0.5120839645600039 -1.1425136661004542 -0.3310613007301314
|  9> C 0.04856914052220857 0.11779450057940029 -0.561790967629093
| 10> C -0.7075874666871881 1.253027888421254 -0.24751613529377445
| 11> C -1.99125804904121 1.1321017377993396 0.2762059364591497
| 12> C 1.4582096110206555 0.2564973738609547 -1.070664246310311
| 13> C 2.4565375853480713 0.4703711065570895 0.06887971153521251
| 14> O 2.5161181044380174 -0.6500380740768266 0.96677535614965
| 15> H -3.5429330326900286 -0.22477786603584707 0.9058582754952402
| 16> H -2.217453638439489 -2.2536342249781263 0.3640692944175701
| 17> H 0.060970161135088366 -2.033040292921593 -0.5753276334486822
| 18> H -0.2846357926587197 2.2392739468403113 -0.4213376397332655
| 19> H -2.566550855791307 2.023693972831225 0.5071004469890128
| 20> H 1.7481483714012094 -0.6373246973243093 -1.6335720306039927
| 21> H 1.533225473690499 1.1194759979111482 -1.7425694781126195
| 22> H 3.465295637785661 0.5830519174035933 -0.33864700180271246
| 23> H 2.202807255869452 1.3861614330216852 0.6216800545293183
| 24> H 1.6406949867907465 -0.747648431747307 1.3660070927222236
| 25> *
| 26>
| 27>                          ****END OF INPUT****

CARTESIAN COORDINATES (ANGSTROEM)
---------------------------------
  C     -2.540638   -0.129795    0.499891
  C     -1.796959   -1.266779    0.195364
  C     -0.512084   -1.142514   -0.331061
  C      0.048569    0.117795   -0.561791
  C     -0.707587    1.253028   -0.247516
  C     -1.991258    1.132102    0.276206
  C      1.458210    0.256497   -1.070664
  C      2.456538    0.470371    0.068880
  O      2.516118   -0.650038    0.966775
  H     -3.542933   -0.224778    0.905858
  H     -2.217454   -2.253634    0.364069
  H      0.060970   -2.033040   -0.575328
  H     -0.284636    2.239274   -0.421338
  H     -2.566551    2.023694    0.507100
  H      1.748148   -0.637325   -1.633572
  H      1.533225    1.119476   -1.742569
  H      3.465296    0.583052   -0.338647
  H      2.202807    1.386161    0.621680
  H      1.640695   -0.747648    1.366007

 Total Charge           Charge          ....    0
 Multiplicity           Mult            ....    1
 Number of Electrons    NEL             ....   66
 Basis Dimension        Dim             ....  339

ORBITAL ENERGIES
----------------

  NO   OCC          E(Eh)            E(eV)
   0   2.0000     -21.667284      -589.5968
   1   2.0000     -12.094622      -329.1114
   2   2.0000     -12.064984      -328.3049
   3   2.0000     -12.058187      -328.1200
   4   2.0000     -12.057814      -328.1098
   5   2.0000     -12.055357      -328.0429
   6   2.0000     -12.054762      -328.0267
   7   2.0000     -12.053942      -328.0044
   8   2.0000     -12.052288      -327.9594
   9   2.0000      -1.666339       -45.3434
  10   2.0000      -1.390783       -37.8451
  11   2.0000      -1.311319       -35.6828
  12   2.0000      -1.277455       -34.7613
  13   2.0000      -1.247930       -33.9579
  14   2.0000      -1.154137       -31.4057
  15   2.0000      -1.111800       -30.2536
  16   2.0000      -1.087103       -29.5816
  17   2.0000      -1.017900       -27.6985
  18   2.0000      -0.969517       -26.3819
  19   2.0000      -0.961948       -26.1759
  20   2.0000      -0.948692       -25.8152
  21   2.0000      -0.930429       -25.3183
  22   2.0000      -0.910831       -24.7850
  23   2.0000      -0.879742       -23.9390
  24   2.0000      -0.878008       -23.8918
  25   2.0000      -0.842986       -22.9388
  26   2.0000      -0.832879       -22.6638
  27   2.0000      -0.813704       -22.1420
  28   2.0000      -0.805625       -21.9222
  29   2.0000      -0.782885       -21.3034
  30   2.0000      -0.768362       -20.9082
  31   2.0000      -0.643771       -17.5179
  32   2.0000      -0.641604       -17.4589
  33   0.0000      -0.247885        -6.7453
  34   0.0000      -0.242653        -6.6029
  35   0.0000      -0.138290        -3.7631
  36   0.0000      -0.080128        -2.1804
  37   0.0000      -0.050010        -1.3608

MULLIKEN ATOMIC CHARGES
-----------------------
   0 C :   -0.136826
   1 C :   -0.078905
   2 C :   -0.273202
   3 C :    0.151427
   4 C :   -0.210203
   5 C :   -0.105577
   6 C :   -0.194677
   7 C :   -0.032532
   8 O :   -0.456167
   9 H :    0.119699
  10 H :    0.120895
  11 H :    0.129282
  12 H :    0.119835
  13 H :    0.119111
  14 H :    0.111752
  15 H :    0.108585
  16 H :    0.102391
  17 H :    0.095881
  18 H :    0.309231
Sum of atomic charges:    0.0000000

LOEWDIN ATOMIC CHARGES
----------------------
   0 C :   -0.143372
   1 C :   -0.138236
   2 C :   -0.122913
   3 C :   -0.155008
   4 C :   -0.113530
   5 C :   -0.137096
   6 C :   -0.227084
   7 C :   -0.322930
   8 O :   -0.054509
   9 H :    0.141419
  10 H :    0.142452
  11 H :    0.147082
  12 H :    0.144716
  13 H :    0.142164
  14 H :    0.143784
  15 H :    0.145403
  16 H :    0.124299
  17 H :    0.115051
  18 H :    0.168307

  Mayer bond orders larger than 0.100000
B(  0-C ,  1-C ) :   1.4287 B(  0-C ,  5-C ) :   1.4136 B(  0-C ,  9-H ) :   0.9724
B(  1-C ,  2-C ) :   1.4188 B(  1-C , 10-H ) :   0.9744 B(  2-C ,  3-C ) :   1.4006
B(  2-C , 11-H ) :   0.9760 B(  3-C ,  4-C ) :   1.3644 B(  3-C ,  6-C ) :   0.8933
B(  4-C ,  5-C ) :   1.4561 B(  4-C , 12-H ) :   0.9731 B(  5-C , 13-H ) :   0.9740
B(  6-C ,  7-C ) :   0.9742 B(  6-C , 14-H ) :   0.9853 B(  6-C , 15-H ) :   0.9721
B(  7-C ,  8-O ) :   1.0157 B(  7-C , 16-H ) :   0.9712 B(  7-C , 17-H ) :   0.9808
B(  8-O , 18-H ) :   0.8966

FINAL SINGLE POINT ENERGY      -386.111420912519

DIPOLE MOMENT
-------------

Method             : SCF
Type of density    : Electron Density
Multiplicity       :   1
Irrep              :   0
Energy             :  -386.1223409735193854 Eh
Relativity type    :
Basis              : AO
                                X                 Y                 Z
Electronic contribution:     -2.522727454      -1.023863730       0.698227746
Nuclear contribution   :      2.008426470       1.404648350      -0.908671554
                        -----------------------------------------
Total Dipole Moment    :     -0.514300984       0.380784620      -0.210443808
                        -----------------------------------------
Magnitude (a.u.)       :      0.673638646
Magnitude (Debye)      :      1.712253363

Rotational constants in cm-1:             0.111295             0.036068             0.031906
Rotational constants in MHz :          3336.529600          1081.287431           956.509285

                             ****ORCA TERMINATED NORMALLY****
TOTAL RUN TIME: 0 days 0 hours 2 minutes 52 seconds 937 msec
