                         Program Version 6.0.0  -   RELEASE  -
|  1> ! wb97x-v def2-tzvp def2/J RIJCOSX DEFGRID2 scfconv7 GCP(DFT/TZ) printgap
|  2> %output
|  3>     printlevel normal
|  4> end
|  5> %cpcm
|  6>     smd true
|  7>     smdsolvent "water"
|  8> end
|  9> * xyz 0 1
| 10> C -2.540637534063469 -0.12979545339145163 0.49989105977141307
| 11> C -1.7969585120862326 -1.2667789658002653 0.19536395706095078
| 12> C -0.5120839645600039 -1.1425136661004542 -0.3310613007301314
| 13> C 0.04856914052220857 0.11779450057940029 -0.561790967629093
| 14> C -0.7075874666871881 1.253027888421254 -0.24751613529377445
| 15> C -1.99125804904121 1.1321017377993396 0.2762059364591497
| 16> C 1.4582096110206555 0.2564973738609547 -1.070664246310311
| 17> C 2.4565375853480713 0.4703711065570895 0.06887971153521251
| 18> O 2.5161181044380174 -0.6500380740768266 0.96677535614965
| 19> H -3.5429330326900286 -0.22477786603584707 0.9058582754952402
| 20> H -2.217453638439489 -2.2536342249781263 0.3640692944175701
| 21> H 0.060970161135088366 -2.033040292921593 -0.5753276334486822
| 22> H -0.2846357926587197 2.2392739468403113 -0.4213376397332655
| 23> H -2.566550855791307 2.023693972831225 0.5071004469890128
| 24> H 1.7481483714012094 -0.6373246973243093 -1.6335720306039927
| 25> H 1.533225473690499 1.1194759979111482 -1.7425694781126195
| 26> H 3.465295637785661 0.5830519174035933 -0.33864700180271246
| 27> H 2.202807255869452 1.3861614330216852 0.6216800545293183
| 28> H 1.6406949867907465 -0.747648431747307 1.3660070927222236
| 29> *
| 30>
| 31>                          ****END OF INPUT****

CARTESIAN COORDINATES (ANGSTROEM)
---------------------------------
  C     -2.540638   -0.129795    0.499891
  C     -1.796959   -1.266779    0.195364
  C     -0.512084   -1.142514   -0.331061
  C      0.048569    0.117795   -0.561791
  C     -0.707587    1.253028   -0.247516
  C     -1.991258    1.132102    0.276206
  C      1.458210    0.256497   -1.070664
  C      2.456538    0.470371    0.068880
  O      2.516118   -0.650038    0.966775
  H     -3.542933   -0.224778    0.905858
  H     -2.217454   -2.253634    0.364069
  H      0.060970   -2.033040   -0.575328
  H     -0.284636    2.239274   -0.421338
  H     -2.566551    2.023694    0.507100
  H      1.748148   -0.637325   -1.633572
  H      1.533225    1.119476   -1.742569
  H      3.465296    0.583052   -0.338647
  H      2.202807    1.386161    0.621680
  H      1.640695   -0.747648    1.366007

 Total Charge           Charge          ....    0
 Multiplicity           Mult            ....    1
 Number of Electrons    NEL             ....   66
 Basis Dimension        Dim             ....  339

ORBITAL ENERGIES
----------------

  NO   OCC          E(Eh)            E(eV)
   0   2.0000     -21.673513      -589.7663
   1   2.0000     -12.088025      -328.9319
   2   2.0000     -12.057359      -328.0974
   3   2.0000     -12.049624      -327.8869
   4   2.0000     -12.049445      -327.8821
   5   2.0000     -12.046765      -327.8091
   6   2.0000     -12.046308      -327.7967
   7   2.0000     -12.045586      -327.7771
   8   2.0000     -12.041210      -327.6580
   9   2.0000      -1.672831       -45.5200
  10   2.0000      -1.383914       -37.6582
  11   2.0000      -1.303465       -35.4691
  12   2.0000      -1.270042       -34.5596
  13   2.0000      -1.241631       -33.7865
  14   2.0000      -1.150163       -31.2975
  15   2.0000      -1.103454       -30.0265
  16   2.0000      -1.080587       -29.4043
  17   2.0000      -1.019626       -27.7454
  18   2.0000      -0.965588       -26.2750
  19   2.0000      -0.955996       -26.0140
  20   2.0000      -0.946027       -25.7427
  21   2.0000      -0.930727       -25.3264
  22   2.0000      -0.903615       -24.5886
  23   2.0000      -0.871923       -23.7262
  24   2.0000      -0.868976       -23.6461
  25   2.0000      -0.834820       -22.7166
  26   2.0000      -0.825595       -22.4656
  27   2.0000      -0.806321       -21.9411
  28   2.0000      -0.796091       -21.6627
  29   2.0000      -0.775234       -21.0952
  30   2.0000      -0.762750       -20.7555
  31   2.0000      -0.637794       -17.3552
  32   2.0000      -0.635492       -17.2926
  33   0.0000      -0.241667        -6.5761
  34   0.0000      -0.236138        -6.4256
  35   0.0000      -0.134401        -3.6572
  36   0.0000      -0.073204        -1.9920
  37   0.0000      -0.037186        -1.0119

MULLIKEN ATOMIC CHARGES
-----------------------
   0 C :   -0.186085
   1 C :   -0.132221
   2 C :   -0.285897
   3 C :    0.147304
   4 C :   -0.254943
   5 C :   -0.145838
   6 C :   -0.199556
   7 C :   -0.051653
   8 O :   -0.558391
   9 H :    0.160346
  10 H :    0.160159
  11 H :    0.157460
  12 H :    0.159316
  13 H :    0.159880
  14 H :    0.130658
  15 H :    0.131382
  16 H :    0.127314
  17 H :    0.121445
  18 H :    0.359321
Sum of atomic charges:    0.0000000

LOEWDIN ATOMIC CHARGES
----------------------
   0 C :   -0.156042
   1 C :   -0.149179
   2 C :   -0.126155
   3 C :   -0.157960
   4 C :   -0.117758
   5 C :   -0.148681
   6 C :   -0.223580
   7 C :   -0.320857
   8 O :   -0.096077
   9 H :    0.149673
  10 H :    0.150685
  11 H :    0.153453
  12 H :    0.154651
  13 H :    0.150679
  14 H :    0.146943
  15 H :    0.153797
  16 H :    0.128966
  17 H :    0.122586
  18 H :    0.184857

  Mayer bond orders larger than 0.100000
B(  0-C ,  1-C ) :   1.4078 B(  0-C ,  5-C ) :   1.3911 B(  0-C ,  9-H ) :   0.9753
B(  1-C ,  2-C ) :   1.4084 B(  1-C , 10-H ) :   0.9769 B(  2-C ,  3-C ) :   1.3764
B(  2-C , 11-H ) :   0.9783 B(  3-C ,  4-C ) :   1.3516 B(  3-C ,  6-C ) :   0.9053
B(  4-C ,  5-C ) :   1.4316 B(  4-C , 12-H ) :   0.9784 B(  5-C , 13-H ) :   0.9774
B(  6-C ,  7-C ) :   0.9770 B(  6-C , 14-H ) :   0.9839 B(  6-C , 15-H ) :   0.9623
B(  7-C ,  8-O ) :   0.9727 B(  7-C , 16-H ) :   0.9689 B(  7-C , 17-H ) :   0.9847
B(  8-O , 18-H ) :   0.8671

FINAL SINGLE POINT ENERGY      -386.120986322957

DIPOLE MOMENT
-------------

Method             : SCF
Type of density    : Electron Density
Multiplicity       :   1
Irrep              :   0
Energy             :  -386.1319063839571299 Eh
Relativity type    :
Basis              : AO
                                X                 Y                 Z
Electronic contribution:     -2.590072647      -0.840246148       0.647886193
Nuclear contribution   :      2.008426470       1.404648350      -0.908671554
                        -----------------------------------------
Total Dipole Moment    :     -0.581646177       0.564402202      -0.260785361
                        -----------------------------------------
Magnitude (a.u.)       :      0.851393637
Magnitude (Debye)      :      2.164070645

Rotational constants in cm-1:             0.111295             0.036068             0.031906
Rotational constants in MHz :          3336.529600          1081.287431           956.509285

                             ****ORCA TERMINATED NORMALLY****
TOTAL RUN TIME: 0 days 0 hours 2 minutes 58 seconds 354 msec
