                         Program Version 6.0.0  -   RELEASE  -
|  1> ! wb97x-v def2-tzvp def2/J RIJCOSX DEFGRID2 scfconv7 GCP(DFT/TZ) printgap
|  2> %output
|  3>     printlevel normal
|  4> end
|  5> * xyz 0 1
|  6> C 2.23845223922345 -0.5598360287725616 0.5656669237663112
|  7> C 1.5354750947990181 -0.09076915270566698 -0.7062007637092975
|  8> C 0.55929320435407 1.065835079865883 -0.4803771606938227
|  9> C -0.5287258395168529 0.805885367032391 0.5541205257287736
| 10> S -1.6777622920986994 -0.5844036597988577 0.13389375032763529
| 11> H 2.746620062439926 0.27335593718012446 1.064408645612736
| 12> H 2.989120107040287 -1.3231175846722336 0.3375809784792841
| 13> H 1.536020760009547 -0.9982317431553852 1.2827909555844037
| 14> H 1.0075231056041296 -0.9344506789622026 -1.168183178368343
| 15> H 2.285295024517591 0.23469552235293345 -1.4367666516669593
| 16> H 0.09326438166793663 1.3444129535526002 -1.4327053122509048
| 17> H 1.1218064946496442 1.9435273427005821 -0.13066778854077948
| 18> H -0.10852663951015835 0.6158363485411691 1.5453261115251749
| 19> H -1.183671581769592 1.678049475594201 0.640740145508414
| 20> H -0.7789304186707128 -1.5815058323923747 0.2316732332893548
| 21> *
| 22>
| 23>                          ****END OF INPUT****

CARTESIAN COORDINATES (ANGSTROEM)
---------------------------------
  C      2.238452   -0.559836    0.565667
  C      1.535475   -0.090769   -0.706201
  C      0.559293    1.065835   -0.480377
  C     -0.528726    0.805885    0.554121
  S     -1.677762   -0.584404    0.133894
  H      2.746620    0.273356    1.064409
  H      2.989120   -1.323118    0.337581
  H      1.536021   -0.998232    1.282791
  H      1.007523   -0.934451   -1.168183
  H      2.285295    0.234696   -1.436767
  H      0.093264    1.344413   -1.432705
  H      1.121806    1.943527   -0.130668
  H     -0.108527    0.615836    1.545326
  H     -1.183672    1.678049    0.640740
  H     -0.778930   -1.581506    0.231673

 Total Charge           Charge          ....    0
 Multiplicity           Mult            ....    1
 Number of Electrons    NEL             ....   50
 Basis Dimension        Dim             ....  221

ORBITAL ENERGIES
----------------

  NO   OCC          E(Eh)            E(eV)
   0   2.0000     -94.118242     -2561.0876
   1   2.0000     -12.080549      -328.7285
   2   2.0000     -12.050086      -327.8995
   3   2.0000     -12.046064      -327.7901
   4   2.0000     -12.039836      -327.6206
   5   2.0000      -9.629512      -262.0323
   6   2.0000      -7.607175      -207.0017
   7   2.0000      -7.606054      -206.9713
   8   2.0000      -7.605478      -206.9556
   9   2.0000      -1.319225       -35.8979
  10   2.0000      -1.259782       -34.2804
  11   2.0000      -1.192873       -32.4597
  12   2.0000      -1.118405       -30.4334
  13   2.0000      -1.039073       -28.2746
  14   2.0000      -0.904316       -24.6077
  15   2.0000      -0.895380       -24.3645
  16   2.0000      -0.861016       -23.4294
  17   2.0000      -0.845776       -23.0147
  18   2.0000      -0.833549       -22.6820
  19   2.0000      -0.809129       -22.0175
  20   2.0000      -0.783052       -21.3079
  21   2.0000      -0.772289       -21.0150
  22   2.0000      -0.762487       -20.7483
  23   2.0000      -0.740204       -20.1420
  24   2.0000      -0.643285       -17.5047
  25   0.0000      -0.196382        -5.3438
  26   0.0000      -0.110872        -3.0170
  27   0.0000      -0.024154        -0.6573
  28   0.0000      -0.022264        -0.6058
  29   0.0000      -0.013825        -0.3762

MULLIKEN ATOMIC CHARGES
-----------------------
   0 C :   -0.354329
   1 C :   -0.217029
   2 C :   -0.129934
   3 C :   -0.224732
   4 S :   -0.222903
   5 H :    0.108715
   6 H :    0.119412
   7 H :    0.108721
   8 H :    0.109718
   9 H :    0.100309
  10 H :    0.106056
  11 H :    0.094447
  12 H :    0.137801
  13 H :    0.129221
  14 H :    0.134528
Sum of atomic charges:   -0.0000000

LOEWDIN ATOMIC CHARGES
----------------------
   0 C :   -0.310142
   1 C :   -0.301081
   2 C :   -0.299356
   3 C :   -0.468310
   4 S :    0.218890
   5 H :    0.117411
   6 H :    0.117913
   7 H :    0.112954
   8 H :    0.128483
   9 H :    0.133433
  10 H :    0.135566
  11 H :    0.137023
  12 H :    0.120831
  13 H :    0.126870
  14 H :    0.029515

  Mayer bond orders larger than 0.100000
B(  0-C ,  1-C ) :   0.9652 B(  0-C ,  5-H ) :   0.9782 B(  0-C ,  6-H ) :   0.9816
B(  0-C ,  7-H ) :   0.9792 B(  1-C ,  2-C ) :   0.9735 B(  1-C ,  8-H ) :   0.9831
B(  1-C ,  9-H ) :   0.9773 B(  2-C ,  3-C ) :   0.9476 B(  2-C , 10-H ) :   0.9734
B(  2-C , 11-H ) :   0.9660 B(  3-C ,  4-S ) :   1.0362 B(  3-C , 12-H ) :   0.9736
B(  3-C , 13-H ) :   0.9657 B(  4-S , 14-H ) :   0.9701

FINAL SINGLE POINT ENERGY      -556.595081814899

DIPOLE MOMENT
-------------

Method             : SCF
Type of density    : Electron Density
Multiplicity       :   1
Irrep              :   0
Energy             :  -556.6057287061989882 Eh
Relativity type    :
Basis              : AO
                                X                 Y                 Z
Electronic contribution:     -8.330408602      -1.225485166      -0.332041994
Nuclear contribution   :      8.981306509       1.483115847       0.412922415
                        -----------------------------------------
Total Dipole Moment    :      0.650897907       0.257630681       0.080880421
                        -----------------------------------------
Magnitude (a.u.)       :      0.704686665
Magnitude (Debye)      :      1.791171155

Rotational constants in cm-1:             0.217667             0.069722             0.062851
Rotational constants in MHz :          6525.482878          2090.205669          1884.219265

                             ****ORCA TERMINATED NORMALLY****
TOTAL RUN TIME: 0 days 0 hours 1 minutes 11 seconds 710 msec
