                         Program Version 6.0.0  -   RELEASE  -
|  1> ! wb97x-v def2-tzvp def2/J RIJCOSX DEFGRID2 scfconv7 GCP(DFT/TZ) printgap
|  2> %output
|  3>     printlevel normal
|  4> end
|  5> %cpcm
|  6>     smd true
|  7>     smdsolvent "water"
|  8> end
|  9> * xyz 0 1
| 10> C 2.23845223922345 -0.5598360287725616 0.5656669237663112
| 11> C 1.5354750947990181 -0.09076915270566698 -0.7062007637092975
| 12> C 0.55929320435407 1.065835079865883 -0.4803771606938227
| 13> C -0.5287258395168529 0.805885367032391 0.5541205257287736
| 14> S -1.6777622920986994 -0.5844036597988577 0.13389375032763529
| 15> H 2.746620062439926 0.27335593718012446 1.064408645612736
| 16> H 2.989120107040287 -1.3231175846722336 0.3375809784792841
| 17> H 1.536020760009547 -0.9982317431553852 1.2827909555844037
| 18> H 1.0075231056041296 -0.9344506789622026 -1.168183178368343
| 19> H 2.285295024517591 0.23469552235293345 -1.4367666516669593
| 20> H 0.09326438166793663 1.3444129535526002 -1.4327053122509048
| 21> H 1.1218064946496442 1.9435273427005821 -0.13066778854077948
| 22> H -0.10852663951015835 0.6158363485411691 1.5453261115251749
| 23> H -1.183671581769592 1.678049475594201 0.640740145508414
| 24> H -0.7789304186707128 -1.5815058323923747 0.2316732332893548
| 25> *
| 26>
| 27>                          ****END OF INPUT****

CARTESIAN COORDINATES (ANGSTROEM)
---------------------------------
  C      2.238452   -0.559836    0.565667
  C      1.535475   -0.090769   -0.706201
  C      0.559293    1.065835   -0.480377
  C     -0.528726    0.805885    0.554121
  S     -1.677762   -0.584404    0.133894
  H      2.746620    0.273356    1.064409
  H      2.989120   -1.323118    0.337581
  H      1.536021   -0.998232    1.282791
  H      1.007523   -0.934451   -1.168183
  H      2.285295    0.234696   -1.436767
  H      0.093264    1.344413   -1.432705
  H      1.121806    1.943527   -0.130668
  H     -0.108527    0.615836    1.545326
  H     -1.183672    1.678049    0.640740
  H     -0.778930   -1.581506    0.231673

 Total Charge           Charge          ....    0
 Multiplicity           Mult            ....    1
 Number of Electrons    NEL             ....   50
 Basis Dimension        Dim             ....  221

ORBITAL ENERGIES
----------------

  NO   OCC          E(Eh)            E(eV)
   0   2.0000     -94.115368     -2561.0094
   1   2.0000     -12.069175      -328.4189
   2   2.0000     -12.037007      -327.5436
   3   2.0000     -12.032809      -327.4294
   4   2.0000     -12.024906      -327.2143
   5   2.0000      -9.626788      -261.9582
   6   2.0000      -7.604476      -206.9283
   7   2.0000      -7.603362      -206.8980
   8   2.0000      -7.603011      -206.8884
   9   2.0000      -1.307568       -35.5807
  10   2.0000      -1.249880       -34.0110
  11   2.0000      -1.183171       -32.1957
  12   2.0000      -1.106931       -30.1211
  13   2.0000      -1.026737       -27.9389
  14   2.0000      -0.892043       -24.2737
  15   2.0000      -0.882337       -24.0096
  16   2.0000      -0.849676       -23.1208
  17   2.0000      -0.833543       -22.6818
  18   2.0000      -0.820368       -22.3234
  19   2.0000      -0.797834       -21.7102
  20   2.0000      -0.771296       -20.9880
  21   2.0000      -0.758880       -20.6502
  22   2.0000      -0.750883       -20.4326
  23   2.0000      -0.732775       -19.9398
  24   2.0000      -0.641554       -17.4576
  25   0.0000      -0.190829        -5.1927
  26   0.0000      -0.101281        -2.7560
  27   0.0000      -0.011259        -0.3064
  28   0.0000      -0.008965        -0.2440
  29   0.0000      -0.000841        -0.0229

MULLIKEN ATOMIC CHARGES
-----------------------
   0 C :   -0.395621
   1 C :   -0.221569
   2 C :   -0.159280
   3 C :   -0.228809
   4 S :   -0.302923
   5 H :    0.121653
   6 H :    0.130569
   7 H :    0.125935
   8 H :    0.110395
   9 H :    0.112238
  10 H :    0.112477
  11 H :    0.111989
  12 H :    0.158182
  13 H :    0.154641
  14 H :    0.170123
Sum of atomic charges:   -0.0000000

LOEWDIN ATOMIC CHARGES
----------------------
   0 C :   -0.314706
   1 C :   -0.303014
   2 C :   -0.299562
   3 C :   -0.463033
   4 S :    0.181527
   5 H :    0.119600
   6 H :    0.118785
   7 H :    0.116826
   8 H :    0.128376
   9 H :    0.135232
  10 H :    0.135424
  11 H :    0.142573
  12 H :    0.126941
  13 H :    0.132801
  14 H :    0.042231

  Mayer bond orders larger than 0.100000
B(  0-C ,  1-C ) :   0.9658 B(  0-C ,  5-H ) :   0.9764 B(  0-C ,  6-H ) :   0.9789
B(  0-C ,  7-H ) :   0.9756 B(  1-C ,  2-C ) :   0.9752 B(  1-C ,  8-H ) :   0.9809
B(  1-C ,  9-H ) :   0.9763 B(  2-C ,  3-C ) :   0.9536 B(  2-C , 10-H ) :   0.9751
B(  2-C , 11-H ) :   0.9642 B(  3-C ,  4-S ) :   1.0106 B(  3-C , 12-H ) :   0.9688
B(  3-C , 13-H ) :   0.9591 B(  4-S , 14-H ) :   0.9648

FINAL SINGLE POINT ENERGY      -556.597121061799

DIPOLE MOMENT
-------------

Method             : SCF
Type of density    : Electron Density
Multiplicity       :   1
Irrep              :   0
Energy             :  -556.6077679530988007 Eh
Relativity type    :
Basis              : AO
                                X                 Y                 Z
Electronic contribution:     -8.131025108      -1.123575307      -0.251394532
Nuclear contribution   :      8.981306509       1.483115847       0.412922415
                        -----------------------------------------
Total Dipole Moment    :      0.850281401       0.359540540       0.161527883
                        -----------------------------------------
Magnitude (a.u.)       :      0.937197481
Magnitude (Debye)      :      2.382166683

Rotational constants in cm-1:             0.217667             0.069722             0.062851
Rotational constants in MHz :          6525.482878          2090.205669          1884.219265

                             ****ORCA TERMINATED NORMALLY****
TOTAL RUN TIME: 0 days 0 hours 1 minutes 14 seconds 358 msec
