                         Program Version 6.0.0  -   RELEASE  -
|  1> ! pbe def2-sv(p) def2/J RI DEFGRID1 loosescf d4 GCP(DFT/SV(P)) printgap
|  2> %output
|  3>     printlevel normal
|  4> end
|  5> * xyz 0 1
|  6> C -3.1003241152 0.4280241931 -0.3054495714
|  7> C -1.783173798 -0.3367267367 -0.3599021996
|  8> C -0.8334803064 0.0571022227 0.78207447
|  9> O 0.3720777817 0.6573983204 0.287283714
| 10> C 1.3977018669 -0.134515012 -0.0112956903
| 11> O 1.3749312818 -1.3399705037 0.1263039188
| 12> C 2.567351426 0.6536723839 -0.5195347784
| 13> H -3.7366287084 0.1336697592 -1.1354774508
| 14> H -3.6243942079 0.2153380117 0.6225164616
| 15> H -2.9216014725 1.4980933782 -0.3691926379
| 16> H -1.2819493959 -0.1289656673 -1.3074992063
| 17> H -1.9755692335 -1.4090564504 -0.3213212664
| 18> H -1.2792455496 0.8241570119 1.416113468
| 19> H -0.5589689582 -0.8122945035 1.3858723431
| 20> H 3.3917873372 -0.0167259825 -0.7376126889
| 21> H 2.8597433979 1.3823863042 0.2314594195
| 22> H 2.2722514213 1.1933640578 -1.4152836339
| 23> *
| 24>
| 25>                          ****END OF INPUT****

CARTESIAN COORDINATES (ANGSTROEM)
---------------------------------
  C     -3.100324    0.428024   -0.305450
  C     -1.783174   -0.336727   -0.359902
  C     -0.833480    0.057102    0.782074
  O      0.372078    0.657398    0.287284
  C      1.397702   -0.134515   -0.011296
  O      1.374931   -1.339971    0.126304
  C      2.567351    0.653672   -0.519535
  H     -3.736629    0.133670   -1.135477
  H     -3.624394    0.215338    0.622516
  H     -2.921601    1.498093   -0.369193
  H     -1.281949   -0.128966   -1.307499
  H     -1.975569   -1.409056   -0.321321
  H     -1.279246    0.824157    1.416113
  H     -0.558969   -0.812295    1.385872
  H      3.391787   -0.016726   -0.737613
  H      2.859743    1.382386    0.231459
  H      2.272251    1.193364   -1.415284

 Total Charge           Charge          ....    0
 Multiplicity           Mult            ....    1
 Number of Electrons    NEL             ....   56
 Basis Dimension        Dim             ....  118

ORBITAL ENERGIES
----------------

  NO   OCC          E(Eh)            E(eV)
   0   2.0000     -18.794333      -511.4198
   1   2.0000     -18.729976      -509.6686
   2   2.0000     -10.006690      -272.2959
   3   2.0000      -9.942053      -270.5370
   4   2.0000      -9.893184      -269.2072
   5   2.0000      -9.893102      -269.2050
   6   2.0000      -9.883193      -268.9354
   7   2.0000      -1.002030       -27.2666
   8   2.0000      -0.906828       -24.6760
   9   2.0000      -0.721594       -19.6356
  10   2.0000      -0.679046       -18.4778
  11   2.0000      -0.621741       -16.9184
  12   2.0000      -0.552722       -15.0403
  13   2.0000      -0.496391       -13.5075
  14   2.0000      -0.447011       -12.1638
  15   2.0000      -0.427190       -11.6244
  16   2.0000      -0.416537       -11.3346
  17   2.0000      -0.401556       -10.9269
  18   2.0000      -0.384829       -10.4717
  19   2.0000      -0.371805       -10.1173
  20   2.0000      -0.360206        -9.8017
  21   2.0000      -0.341224        -9.2852
  22   2.0000      -0.319666        -8.6986
  23   2.0000      -0.312909        -8.5147
  24   2.0000      -0.310067        -8.4373
  25   2.0000      -0.283834        -7.7235
  26   2.0000      -0.251681        -6.8486
  27   2.0000      -0.216265        -5.8849
  28   0.0000      -0.017802        -0.4844
  29   0.0000       0.040908         1.1131
  30   0.0000       0.054495         1.4829
  31   0.0000       0.065423         1.7803
  32   0.0000       0.076278         2.0756

MULLIKEN ATOMIC CHARGES
-----------------------
   0 C :   -0.302268
   1 C :   -0.203137
   2 C :    0.018589
   3 O :   -0.249629
   4 C :    0.079023
   5 O :   -0.209833
   6 C :   -0.244604
   7 H :    0.108610
   8 H :    0.107960
   9 H :    0.109751
  10 H :    0.104116
  11 H :    0.104506
  12 H :    0.096009
  13 H :    0.103493
  14 H :    0.123029
  15 H :    0.127891
  16 H :    0.126495
Sum of atomic charges:    0.0000000

LOEWDIN ATOMIC CHARGES
----------------------
   0 C :   -0.341677
   1 C :   -0.249435
   2 C :   -0.105490
   3 O :   -0.074623
   4 C :    0.028062
   5 O :   -0.171097
   6 C :   -0.358649
   7 H :    0.121895
   8 H :    0.118469
   9 H :    0.119568
  10 H :    0.125152
  11 H :    0.126005
  12 H :    0.115188
  13 H :    0.119582
  14 H :    0.138802
  15 H :    0.144384
  16 H :    0.143864

  Mayer bond orders larger than 0.100000
B(  0-C ,  1-C ) :   1.1539 B(  0-C ,  7-H ) :   0.9530 B(  0-C ,  8-H ) :   0.9552
B(  0-C ,  9-H ) :   0.9547 B(  1-C ,  2-C ) :   1.0974 B(  1-C , 10-H ) :   0.9338
B(  1-C , 11-H ) :   0.9281 B(  2-C ,  3-O ) :   0.9323 B(  2-C , 12-H ) :   0.9427
B(  2-C , 13-H ) :   0.9104 B(  3-O ,  4-C ) :   1.1848 B(  4-C ,  5-O ) :   2.0668
B(  4-C ,  6-C ) :   1.0814 B(  6-C , 14-H ) :   0.9429 B(  6-C , 15-H ) :   0.9290
B(  6-C , 16-H ) :   0.9289

Dispersion correction           -0.011735220
FINAL SINGLE POINT ENERGY      -346.238947919921

DIPOLE MOMENT
-------------

Method             : SCF
Type of density    : Electron Density
Multiplicity       :   1
Irrep              :   0
Energy             :  -346.3036938185024951 Eh
Relativity type    :
Basis              : AO
                                X                 Y                 Z
Electronic contribution:      6.064746637      -2.032079636       1.472044768
Nuclear contribution   :     -6.404836362       2.691769645      -1.523479524
                        -----------------------------------------
Total Dipole Moment    :     -0.340089725       0.659690008      -0.051434757
                        -----------------------------------------
Magnitude (a.u.)       :      0.743974101
Magnitude (Debye)      :      1.891031881

Rotational constants in cm-1:             0.215818             0.043170             0.040134
Rotational constants in MHz :          6470.047754          1294.204462          1203.177941

                             ****ORCA TERMINATED NORMALLY****
TOTAL RUN TIME: 0 days 0 hours 0 minutes 8 seconds 184 msec
