                         Program Version 6.0.0  -   RELEASE  -
|  1> ! r2scan-3c def2/J RI DEFGRID2 scfconv6 printgap
|  2> %output
|  3>     printlevel normal
|  4> end
|  5> * xyz 0 1
|  6> C 2.3766016786 -0.5025833813 0.4797937907
|  7> C 1.5592647556 0.1657611578 -0.6214351158
|  8> C 0.2762434178 0.8337081523 -0.1038858572
|  9> C -1.0044252437 0.0229796056 -0.3390603738
| 10> C -2.220676873 0.848770279 0.0796473755
| 11> C -0.9969597276 -1.3051887284 0.4133541022
| 12> H 2.6957046652 0.2354877245 1.212617517
| 13> H 1.7972607473 -1.2644109762 0.9932800695
| 14> H 3.2640593391 -0.9712679652 0.0597597266
| 15> H 2.1882985894 0.9190994627 -1.1006124019
| 16> H 1.303669378 -0.5714619041 -1.3852675815
| 17> H 0.3779471891 1.0339188919 0.9647982481
| 18> H 0.1512699887 1.7974164194 -0.6027916276
| 19> H -1.0840551339 -0.1870912958 -1.412413665
| 20> H -3.139759554 0.3005067752 -0.1135393965
| 21> H -2.2586030419 1.7860085642 -0.4709205899
| 22> H -2.1741115722 1.0766587365 1.1424596211
| 23> H -0.861281812 -1.1352584898 1.4794230198
| 24> H -1.9420296155 -1.8241309107 0.2673423045
| 25> H -0.1997726985 -1.9515648602 0.0572829408
| 26> *
| 27>
| 28>                          ****END OF INPUT****

CARTESIAN COORDINATES (ANGSTROEM)
---------------------------------
  C      2.376602   -0.502583    0.479794
  C      1.559265    0.165761   -0.621435
  C      0.276243    0.833708   -0.103886
  C     -1.004425    0.022980   -0.339060
  C     -2.220677    0.848770    0.079647
  C     -0.996960   -1.305189    0.413354
  H      2.695705    0.235488    1.212618
  H      1.797261   -1.264411    0.993280
  H      3.264059   -0.971268    0.059760
  H      2.188299    0.919099   -1.100612
  H      1.303669   -0.571462   -1.385268
  H      0.377947    1.033919    0.964798
  H      0.151270    1.797416   -0.602792
  H     -1.084055   -0.187091   -1.412414
  H     -3.139760    0.300507   -0.113539
  H     -2.258603    1.786009   -0.470921
  H     -2.174112    1.076659    1.142460
  H     -0.861282   -1.135258    1.479423
  H     -1.942030   -1.824131    0.267342
  H     -0.199773   -1.951565    0.057283

 Total Charge           Charge          ....    0
 Multiplicity           Mult            ....    1
 Number of Electrons    NEL             ....   50
 Basis Dimension        Dim             ....  184

ORBITAL ENERGIES
----------------

  NO   OCC          E(Eh)            E(eV)
   0   2.0000     -10.029856      -272.9263
   1   2.0000     -10.021259      -272.6923
   2   2.0000     -10.017719      -272.5960
   3   2.0000     -10.012737      -272.4604
   4   2.0000     -10.012479      -272.4534
   5   2.0000     -10.011727      -272.4329
   6   2.0000      -0.778801       -21.1922
   7   2.0000      -0.725357       -19.7380
   8   2.0000      -0.648819       -17.6553
   9   2.0000      -0.640240       -17.4218
  10   2.0000      -0.557024       -15.1574
  11   2.0000      -0.521413       -14.1884
  12   2.0000      -0.430693       -11.7197
  13   2.0000      -0.423947       -11.5362
  14   2.0000      -0.409401       -11.1404
  15   2.0000      -0.378582       -10.3017
  16   2.0000      -0.362855        -9.8738
  17   2.0000      -0.358888        -9.7658
  18   2.0000      -0.347779        -9.4635
  19   2.0000      -0.329576        -8.9682
  20   2.0000      -0.308650        -8.3988
  21   2.0000      -0.307839        -8.3767
  22   2.0000      -0.287298        -7.8178
  23   2.0000      -0.280713        -7.6386
  24   2.0000      -0.272542        -7.4162
  25   0.0000       0.086218         2.3461
  26   0.0000       0.103677         2.8212
  27   0.0000       0.117155         3.1880
  28   0.0000       0.119346         3.2476
  29   0.0000       0.137957         3.7540

MULLIKEN ATOMIC CHARGES
-----------------------
   0 C :   -0.489106
   1 C :   -0.246149
   2 C :   -0.265175
   3 C :   -0.048768
   4 C :   -0.482504
   5 C :   -0.514756
   6 H :    0.146545
   7 H :    0.149686
   8 H :    0.144007
   9 H :    0.140203
  10 H :    0.142099
  11 H :    0.145912
  12 H :    0.143214
  13 H :    0.148289
  14 H :    0.145538
  15 H :    0.143115
  16 H :    0.145633
  17 H :    0.155557
  18 H :    0.143376
  19 H :    0.153284
Sum of atomic charges:    0.0000000

LOEWDIN ATOMIC CHARGES
----------------------
   0 C :   -0.427172
   1 C :   -0.318530
   2 C :   -0.306373
   3 C :   -0.247063
   4 C :   -0.419309
   5 C :   -0.419509
   6 H :    0.148569
   7 H :    0.149990
   8 H :    0.149193
   9 H :    0.152225
  10 H :    0.153110
  11 H :    0.157721
  12 H :    0.156972
  13 H :    0.153421
  14 H :    0.151744
  15 H :    0.152317
  16 H :    0.153310
  17 H :    0.153419
  18 H :    0.152649
  19 H :    0.153314

  Mayer bond orders larger than 0.100000
B(  0-C ,  1-C ) :   0.9107 B(  0-C ,  6-H ) :   0.9867 B(  0-C ,  7-H ) :   0.9741
B(  0-C ,  8-H ) :   0.9756 B(  1-C ,  2-C ) :   0.8367 B(  1-C ,  9-H ) :   0.9709
B(  1-C , 10-H ) :   0.9784 B(  2-C ,  3-C ) :   0.9053 B(  2-C , 11-H ) :   0.9917
B(  2-C , 12-H ) :   0.9716 B(  3-C ,  4-C ) :   0.9157 B(  3-C ,  5-C ) :   0.8845
B(  3-C , 13-H ) :   0.9678 B(  4-C , 14-H ) :   0.9765 B(  4-C , 15-H ) :   0.9755
B(  4-C , 16-H ) :   0.9860 B(  5-C , 17-H ) :   0.9861 B(  5-C , 18-H ) :   0.9706
B(  5-C , 19-H ) :   0.9705

Dispersion correction           -0.005060042
FINAL SINGLE POINT ENERGY      -236.985103389887

DIPOLE MOMENT
-------------

Method             : SCF
Type of density    : Electron Density
Multiplicity       :   1
Irrep              :   0
Energy             :  -236.9895516374079421 Eh
Relativity type    :
Basis              : AO
                                X                 Y                 Z
Electronic contribution:     -0.105651621       0.726180718      -1.079614329
Nuclear contribution   :      0.111262602      -0.709334121       1.023926167
                        -----------------------------------------
Total Dipole Moment    :      0.005610981       0.016846596      -0.055688162
                        -----------------------------------------
Magnitude (a.u.)       :      0.058450512
Magnitude (Debye)      :      0.148569393

Rotational constants in cm-1:             0.202355             0.065758             0.055874
Rotational constants in MHz :          6066.459688          1971.364040          1675.069818

                             ****ORCA TERMINATED NORMALLY****
TOTAL RUN TIME: 0 days 0 hours 0 minutes 16 seconds 810 msec
