                         Program Version 6.0.0  -   RELEASE  -
|  1> ! r2scan-3c def2/J RI DEFGRID2 scfconv6 printgap
|  2> %output
|  3>     printlevel normal
|  4> end
|  5> %cpcm
|  6>     smd true
|  7>     smdsolvent "water"
|  8> end
|  9> * xyz 0 1
| 10> C 2.3766016786 -0.5025833813 0.4797937907
| 11> C 1.5592647556 0.1657611578 -0.6214351158
| 12> C 0.2762434178 0.8337081523 -0.1038858572
| 13> C -1.0044252437 0.0229796056 -0.3390603738
| 14> C -2.220676873 0.848770279 0.0796473755
| 15> C -0.9969597276 -1.3051887284 0.4133541022
| 16> H 2.6957046652 0.2354877245 1.212617517
| 17> H 1.7972607473 -1.2644109762 0.9932800695
| 18> H 3.2640593391 -0.9712679652 0.0597597266
| 19> H 2.1882985894 0.9190994627 -1.1006124019
| 20> H 1.303669378 -0.5714619041 -1.3852675815
| 21> H 0.3779471891 1.0339188919 0.9647982481
| 22> H 0.1512699887 1.7974164194 -0.6027916276
| 23> H -1.0840551339 -0.1870912958 -1.412413665
| 24> H -3.139759554 0.3005067752 -0.1135393965
| 25> H -2.2586030419 1.7860085642 -0.4709205899
| 26> H -2.1741115722 1.0766587365 1.1424596211
| 27> H -0.861281812 -1.1352584898 1.4794230198
| 28> H -1.9420296155 -1.8241309107 0.2673423045
| 29> H -0.1997726985 -1.9515648602 0.0572829408
| 30> *
| 31>
| 32>                          ****END OF INPUT****

CARTESIAN COORDINATES (ANGSTROEM)
---------------------------------
  C      2.376602   -0.502583    0.479794
  C      1.559265    0.165761   -0.621435
  C      0.276243    0.833708   -0.103886
  C     -1.004425    0.022980   -0.339060
  C     -2.220677    0.848770    0.079647
  C     -0.996960   -1.305189    0.413354
  H      2.695705    0.235488    1.212618
  H      1.797261   -1.264411    0.993280
  H      3.264059   -0.971268    0.059760
  H      2.188299    0.919099   -1.100612
  H      1.303669   -0.571462   -1.385268
  H      0.377947    1.033919    0.964798
  H      0.151270    1.797416   -0.602792
  H     -1.084055   -0.187091   -1.412414
  H     -3.139760    0.300507   -0.113539
  H     -2.258603    1.786009   -0.470921
  H     -2.174112    1.076659    1.142460
  H     -0.861282   -1.135258    1.479423
  H     -1.942030   -1.824131    0.267342
  H     -0.199773   -1.951565    0.057283

 Total Charge           Charge          ....    0
 Multiplicity           Mult            ....    1
 Number of Electrons    NEL             ....   50
 Basis Dimension        Dim             ....  184

ORBITAL ENERGIES
----------------

  NO   OCC          E(Eh)            E(eV)
   0   2.0000     -10.022407      -272.7236
   1   2.0000     -10.013901      -272.4921
   2   2.0000     -10.009989      -272.3856
   3   2.0000     -10.005874      -272.2737
   4   2.0000     -10.004522      -272.2369
   5   2.0000     -10.004404      -272.2337
   6   2.0000      -0.771383       -20.9904
   7   2.0000      -0.718408       -19.5489
   8   2.0000      -0.641673       -17.4608
   9   2.0000      -0.633596       -17.2410
  10   2.0000      -0.550288       -14.9741
  11   2.0000      -0.514079       -13.9888
  12   2.0000      -0.423234       -11.5168
  13   2.0000      -0.416574       -11.3356
  14   2.0000      -0.402324       -10.9478
  15   2.0000      -0.371418       -10.1068
  16   2.0000      -0.355971        -9.6865
  17   2.0000      -0.351728        -9.5710
  18   2.0000      -0.340647        -9.2695
  19   2.0000      -0.322214        -8.7679
  20   2.0000      -0.301641        -8.2081
  21   2.0000      -0.300595        -8.1796
  22   2.0000      -0.279461        -7.6045
  23   2.0000      -0.273442        -7.4407
  24   2.0000      -0.265199        -7.2164
  25   0.0000       0.094166         2.5624
  26   0.0000       0.110956         3.0193
  27   0.0000       0.123638         3.3644
  28   0.0000       0.126517         3.4427
  29   0.0000       0.144102         3.9212

MULLIKEN ATOMIC CHARGES
-----------------------
   0 C :   -0.524612
   1 C :   -0.256388
   2 C :   -0.289160
   3 C :   -0.025521
   4 C :   -0.529101
   5 C :   -0.553851
   6 H :    0.156591
   7 H :    0.157946
   8 H :    0.152765
   9 H :    0.148325
  10 H :    0.150778
  11 H :    0.154946
  12 H :    0.152685
  13 H :    0.154327
  14 H :    0.156740
  15 H :    0.154262
  16 H :    0.156765
  17 H :    0.165243
  18 H :    0.153706
  19 H :    0.163553
Sum of atomic charges:    0.0000000

LOEWDIN ATOMIC CHARGES
----------------------
   0 C :   -0.435062
   1 C :   -0.321172
   2 C :   -0.309775
   3 C :   -0.244961
   4 C :   -0.428689
   5 C :   -0.427271
   6 H :    0.150772
   7 H :    0.151830
   8 H :    0.150952
   9 H :    0.153803
  10 H :    0.155502
  11 H :    0.159595
  12 H :    0.158832
  13 H :    0.155322
  14 H :    0.154151
  15 H :    0.154517
  16 H :    0.155449
  17 H :    0.155685
  18 H :    0.154430
  19 H :    0.156091

  Mayer bond orders larger than 0.100000
B(  0-C ,  1-C ) :   0.9019 B(  0-C ,  6-H ) :   0.9836 B(  0-C ,  7-H ) :   0.9730
B(  0-C ,  8-H ) :   0.9736 B(  1-C ,  2-C ) :   0.8321 B(  1-C ,  9-H ) :   0.9719
B(  1-C , 10-H ) :   0.9783 B(  2-C ,  3-C ) :   0.9012 B(  2-C , 11-H ) :   0.9911
B(  2-C , 12-H ) :   0.9717 B(  3-C ,  4-C ) :   0.9030 B(  3-C ,  5-C ) :   0.8785
B(  3-C , 13-H ) :   0.9682 B(  4-C , 14-H ) :   0.9741 B(  4-C , 15-H ) :   0.9736
B(  4-C , 16-H ) :   0.9847 B(  5-C , 17-H ) :   0.9836 B(  5-C , 18-H ) :   0.9694
B(  5-C , 19-H ) :   0.9679

Dispersion correction           -0.005060042
FINAL SINGLE POINT ENERGY      -236.981698301172

DIPOLE MOMENT
-------------

Method             : SCF
Type of density    : Electron Density
Multiplicity       :   1
Irrep              :   0
Energy             :  -236.9861465486927159 Eh
Relativity type    :
Basis              : AO
                                X                 Y                 Z
Electronic contribution:     -0.102422375       0.724253466      -1.095580507
Nuclear contribution   :      0.111262602      -0.709334121       1.023926167
                        -----------------------------------------
Total Dipole Moment    :      0.008840228       0.014919345      -0.071654340
                        -----------------------------------------
Magnitude (a.u.)       :      0.073723002
Magnitude (Debye)      :      0.187388978

Rotational constants in cm-1:             0.202355             0.065758             0.055874
Rotational constants in MHz :          6066.459688          1971.364040          1675.069818

                             ****ORCA TERMINATED NORMALLY****
TOTAL RUN TIME: 0 days 0 hours 0 minutes 20 seconds 11 msec
