                         Program Version 6.0.0  -   RELEASE  -
|  1> ! pbe def2-sv(p) def2/J RI DEFGRID1 loosescf d4 GCP(DFT/SV(P)) printgap
|  2> %output
|  3>     printlevel normal
|  4> end
|  5> * xyz 0 1
|  6> C -2.9637570171 0.151588247 -0.1070887158
|  7> C -1.6381903634 0.6208233148 0.4805810753
|  8> C -0.4730542146 -0.1812659966 -0.0416792536
|  9> O -0.5321555563 -1.3304915023 -0.426433342
| 10> O 0.6479790316 0.5283963116 -0.0104939703
| 11> C 1.8828444681 -0.0895801594 -0.4144821577
| 12> C 2.9847440296 0.3428409523 0.5365769667
| 13> H -3.0777895455 -0.9188247302 0.0443491021
| 14> H -3.7897027764 0.6688338202 0.3709759327
| 15> H -2.9971125308 0.3471801473 -1.1757613046
| 16> H -1.6455117471 0.4881340016 1.5653006286
| 17> H -1.4521825583 1.6740940746 0.2730094731
| 18> H 1.7443738369 -1.1752876307 -0.4129239361
| 19> H 2.091236733 0.2423718966 -1.4356789666
| 20> H 2.7687458924 0.0017475317 1.5451909725
| 21> H 3.9271193379 -0.0844591974 0.2100397496
| 22> H 3.0639542275 1.425995805 0.5421248744
| 23> *
| 24>
| 25>                          ****END OF INPUT****

CARTESIAN COORDINATES (ANGSTROEM)
---------------------------------
  C     -2.963757    0.151588   -0.107089
  C     -1.638190    0.620823    0.480581
  C     -0.473054   -0.181266   -0.041679
  O     -0.532156   -1.330492   -0.426433
  O      0.647979    0.528396   -0.010494
  C      1.882844   -0.089580   -0.414482
  C      2.984744    0.342841    0.536577
  H     -3.077790   -0.918825    0.044349
  H     -3.789703    0.668834    0.370976
  H     -2.997113    0.347180   -1.175761
  H     -1.645512    0.488134    1.565301
  H     -1.452183    1.674094    0.273009
  H      1.744374   -1.175288   -0.412924
  H      2.091237    0.242372   -1.435679
  H      2.768746    0.001748    1.545191
  H      3.927119   -0.084459    0.210040
  H      3.063954    1.425996    0.542125

 Total Charge           Charge          ....    0
 Multiplicity           Mult            ....    1
 Number of Electrons    NEL             ....   56
 Basis Dimension        Dim             ....  118

ORBITAL ENERGIES
----------------

  NO   OCC          E(Eh)            E(eV)
   0   2.0000     -18.796388      -511.4757
   1   2.0000     -18.731150      -509.7005
   2   2.0000     -10.004999      -272.2499
   3   2.0000      -9.945182      -270.6222
   4   2.0000      -9.899199      -269.3709
   5   2.0000      -9.889381      -269.1037
   6   2.0000      -9.878656      -268.8119
   7   2.0000      -1.002719       -27.2854
   8   2.0000      -0.908324       -24.7167
   9   2.0000      -0.719220       -19.5710
  10   2.0000      -0.688587       -18.7374
  11   2.0000      -0.605903       -16.4875
  12   2.0000      -0.553713       -15.0673
  13   2.0000      -0.501641       -13.6504
  14   2.0000      -0.452076       -12.3016
  15   2.0000      -0.437105       -11.8942
  16   2.0000      -0.411899       -11.2083
  17   2.0000      -0.402825       -10.9614
  18   2.0000      -0.378373       -10.2960
  19   2.0000      -0.358252        -9.7485
  20   2.0000      -0.352779        -9.5996
  21   2.0000      -0.341022        -9.2797
  22   2.0000      -0.322407        -8.7731
  23   2.0000      -0.317231        -8.6323
  24   2.0000      -0.304194        -8.2775
  25   2.0000      -0.289577        -7.8798
  26   2.0000      -0.254476        -6.9246
  27   2.0000      -0.218357        -5.9418
  28   0.0000      -0.017797        -0.4843
  29   0.0000       0.041530         1.1301
  30   0.0000       0.054792         1.4910
  31   0.0000       0.081407         2.2152
  32   0.0000       0.087919         2.3924

MULLIKEN ATOMIC CHARGES
-----------------------
   0 C :   -0.277897
   1 C :   -0.181850
   2 C :    0.106316
   3 O :   -0.205489
   4 O :   -0.241987
   5 C :   -0.028788
   6 C :   -0.283204
   7 H :    0.120988
   8 H :    0.102903
   9 H :    0.107950
  10 H :    0.118291
  11 H :    0.105170
  12 H :    0.116004
  13 H :    0.103229
  14 H :    0.112765
  15 H :    0.111382
  16 H :    0.114217
Sum of atomic charges:    0.0000000

LOEWDIN ATOMIC CHARGES
----------------------
   0 C :   -0.336817
   1 C :   -0.257781
   2 C :    0.036466
   3 O :   -0.169070
   4 O :   -0.072372
   5 C :   -0.112628
   6 C :   -0.351131
   7 H :    0.127996
   8 H :    0.120572
   9 H :    0.122696
  10 H :    0.143892
  11 H :    0.131661
  12 H :    0.119784
  13 H :    0.115957
  14 H :    0.125636
  15 H :    0.129738
  16 H :    0.125400

  Mayer bond orders larger than 0.100000
B(  0-C ,  1-C ) :   1.1498 B(  0-C ,  7-H ) :   0.9463 B(  0-C ,  8-H ) :   0.9506
B(  0-C ,  9-H ) :   0.9607 B(  1-C ,  2-C ) :   1.0157 B(  1-C , 10-H ) :   0.8949
B(  1-C , 11-H ) :   0.9149 B(  2-C ,  3-O ) :   2.0629 B(  2-C ,  4-O ) :   1.2113
B(  4-O ,  5-C ) :   0.9137 B(  5-C ,  6-C ) :   1.1619 B(  5-C , 12-H ) :   0.9113
B(  5-C , 13-H ) :   0.9360 B(  6-C , 14-H ) :   0.9523 B(  6-C , 15-H ) :   0.9449
B(  6-C , 16-H ) :   0.9491

Dispersion correction           -0.011550950
FINAL SINGLE POINT ENERGY      -346.244969735406

DIPOLE MOMENT
-------------

Method             : SCF
Type of density    : Electron Density
Multiplicity       :   1
Irrep              :   0
Energy             :  -346.3098466518737837 Eh
Relativity type    :
Basis              : AO
                                X                 Y                 Z
Electronic contribution:     -0.191890419      -1.893390270      -1.204271503
Nuclear contribution   :      0.595699833       2.492813407       1.425752982
                        -----------------------------------------
Total Dipole Moment    :      0.403809414       0.599423137       0.221481480
                        -----------------------------------------
Magnitude (a.u.)       :      0.755926046
Magnitude (Debye)      :      1.921411312

Rotational constants in cm-1:             0.249802             0.042993             0.038727
Rotational constants in MHz :          7488.888843          1288.907227          1161.018097

                             ****ORCA TERMINATED NORMALLY****
TOTAL RUN TIME: 0 days 0 hours 0 minutes 8 seconds 950 msec
