                         Program Version 6.0.0  -   RELEASE  -
|  1> ! r2scan-3c def2/J RI DEFGRID2 scfconv6 printgap
|  2> %output
|  3>     printlevel normal
|  4> end
|  5> * xyz 0 1
|  6> C -3.4274074549 -1.0232807113 -0.0016779911
|  7> C -2.5513841331 0.1994600137 -0.0002271882
|  8> O -3.0386846576 1.3241512506 -5.5253e-06
|  9> C -1.0930642296 -0.0024504288 0.0006598229
| 10> C -0.2673084611 1.1238046188 0.0008152192
| 11> C 1.1069229578 1.0153738513 0.000743456
| 12> C 1.6975086372 -0.2479905203 0.0004824711
| 13> C 0.8786837659 -1.3840918764 0.0008833934
| 14> C -0.4903873167 -1.265715721 0.0009264556
| 15> O 3.0287116257 -0.4824364801 -0.0001273523
| 16> C 3.9234389205 0.6171363115 -0.0016922574
| 17> H -4.46970667 -0.7151627856 -0.003152825
| 18> H -3.2273107156 -1.6230814614 0.8822617095
| 19> H -3.2247752207 -1.622812142 -0.8851780419
| 20> H -0.7367436522 2.0967442819 0.0008492587
| 21> H 1.7068900898 1.9104759598 0.0008853766
| 22> H 1.3555750758 -2.3511157246 0.000950811
| 23> H -1.0904763118 -2.1601924432 0.0009390679
| 24> H 4.9171818646 0.1756589924 -0.002660013
| 25> H 3.793622206 1.2307784645 0.892673607
| 26> H 3.7914822602 1.2299218104 -0.8963442879
| 27> *
| 28>
| 29>                          ****END OF INPUT****

CARTESIAN COORDINATES (ANGSTROEM)
---------------------------------
  C     -3.427407   -1.023281   -0.001678
  C     -2.551384    0.199460   -0.000227
  O     -3.038685    1.324151   -0.000006
  C     -1.093064   -0.002450    0.000660
  C     -0.267308    1.123805    0.000815
  C      1.106923    1.015374    0.000743
  C      1.697509   -0.247991    0.000482
  C      0.878684   -1.384092    0.000883
  C     -0.490387   -1.265716    0.000926
  O      3.028712   -0.482436   -0.000127
  C      3.923439    0.617136   -0.001692
  H     -4.469707   -0.715163   -0.003153
  H     -3.227311   -1.623081    0.882262
  H     -3.224775   -1.622812   -0.885178
  H     -0.736744    2.096744    0.000849
  H      1.706890    1.910476    0.000885
  H      1.355575   -2.351116    0.000951
  H     -1.090476   -2.160192    0.000939
  H      4.917182    0.175659   -0.002660
  H      3.793622    1.230778    0.892674
  H      3.791482    1.229922   -0.896344

 Total Charge           Charge          ....    0
 Multiplicity           Mult            ....    1
 Number of Electrons    NEL             ....   80
 Basis Dimension        Dim             ....  269

ORBITAL ENERGIES
----------------

  NO   OCC          E(Eh)            E(eV)
   0   2.0000     -19.003055      -517.0994
   1   2.0000     -18.924883      -514.9722
   2   2.0000     -10.112713      -275.1809
   3   2.0000     -10.112249      -275.1683
   4   2.0000     -10.098931      -274.8059
   5   2.0000     -10.051534      -273.5161
   6   2.0000     -10.046276      -273.3731
   7   2.0000     -10.045248      -273.3451
   8   2.0000     -10.042611      -273.2733
   9   2.0000     -10.041479      -273.2425
  10   2.0000     -10.029088      -272.9053
  11   2.0000      -1.052157       -28.6306
  12   2.0000      -0.990331       -26.9483
  13   2.0000      -0.836879       -22.7726
  14   2.0000      -0.750718       -20.4281
  15   2.0000      -0.735173       -20.0051
  16   2.0000      -0.706915       -19.2361
  17   2.0000      -0.678268       -18.4566
  18   2.0000      -0.592024       -16.1098
  19   2.0000      -0.589083       -16.0298
  20   2.0000      -0.528272       -14.3750
  21   2.0000      -0.511944       -13.9307
  22   2.0000      -0.468635       -12.7522
  23   2.0000      -0.452543       -12.3143
  24   2.0000      -0.444470       -12.0946
  25   2.0000      -0.428558       -11.6617
  26   2.0000      -0.414892       -11.2898
  27   2.0000      -0.407049       -11.0764
  28   2.0000      -0.400866       -10.9081
  29   2.0000      -0.381165       -10.3720
  30   2.0000      -0.375406       -10.2153
  31   2.0000      -0.367797       -10.0083
  32   2.0000      -0.344536        -9.3753
  33   2.0000      -0.337364        -9.1801
  34   2.0000      -0.332687        -9.0529
  35   2.0000      -0.305426        -8.3111
  36   2.0000      -0.300444        -8.1755
  37   2.0000      -0.251425        -6.8416
  38   2.0000      -0.216520        -5.8918
  39   2.0000      -0.210218        -5.7203
  40   0.0000      -0.077050        -2.0966
  41   0.0000      -0.042395        -1.1536
  42   0.0000       0.019313         0.5255
  43   0.0000       0.054750         1.4898
  44   0.0000       0.075465         2.0535

MULLIKEN ATOMIC CHARGES
-----------------------
   0 C :   -0.572055
   1 C :    0.272985
   2 O :   -0.361412
   3 C :    0.121783
   4 C :   -0.196076
   5 C :   -0.270580
   6 C :    0.370682
   7 C :   -0.339190
   8 C :   -0.149769
   9 O :   -0.177914
  10 C :   -0.327371
  11 H :    0.182731
  12 H :    0.168456
  13 H :    0.168467
  14 H :    0.182894
  15 H :    0.149750
  16 H :    0.157484
  17 H :    0.147139
  18 H :    0.158323
  19 H :    0.156815
  20 H :    0.156858
Sum of atomic charges:    0.0000000

LOEWDIN ATOMIC CHARGES
----------------------
   0 C :   -0.384467
   1 C :    0.233513
   2 O :   -0.490514
   3 C :   -0.099990
   4 C :   -0.084474
   5 C :   -0.166507
   6 C :    0.205411
   7 C :   -0.130434
   8 C :   -0.126556
   9 O :   -0.670141
  10 C :   -0.050625
  11 H :    0.176475
  12 H :    0.172010
  13 H :    0.171981
  14 H :    0.193122
  15 H :    0.176816
  16 H :    0.182097
  17 H :    0.174721
  18 H :    0.182278
  19 H :    0.167629
  20 H :    0.167657

  Mayer bond orders larger than 0.100000
B(  0-C ,  1-C ) :   0.8762 B(  0-C , 11-H ) :   0.9810 B(  0-C , 12-H ) :   0.9626
B(  0-C , 13-H ) :   0.9627 B(  1-C ,  2-O ) :   1.8900 B(  1-C ,  3-C ) :   0.9422
B(  2-O ,  3-C ) :  -0.1177 B(  2-O ,  4-C ) :   0.1047 B(  3-C ,  4-C ) :   1.4017
B(  3-C ,  8-C ) :   1.3395 B(  4-C ,  5-C ) :   1.3600 B(  4-C , 14-H ) :   0.9833
B(  5-C ,  6-C ) :   1.3098 B(  5-C , 15-H ) :   0.9246 B(  6-C ,  7-C ) :   1.3778
B(  6-C ,  9-O ) :   1.0616 B(  7-C ,  8-C ) :   1.3977 B(  7-C , 16-H ) :   0.9510
B(  8-C , 17-H ) :   0.9261 B(  9-O , 10-C ) :   0.8513 B( 10-C , 18-H ) :   0.9672
B( 10-C , 19-H ) :   0.9622 B( 10-C , 20-H ) :   0.9623

Dispersion correction           -0.007184056
FINAL SINGLE POINT ENERGY      -499.304228577888

DIPOLE MOMENT
-------------

Method             : SCF
Type of density    : Electron Density
Multiplicity       :   1
Irrep              :   0
Energy             :  -499.3066032496691378 Eh
Relativity type    :
Basis              : AO
                                X                 Y                 Z
Electronic contribution:     -1.313603545       1.139928799       0.007203244
Nuclear contribution   :      2.641494465      -1.703242072      -0.008234728
                        -----------------------------------------
Total Dipole Moment    :      1.327890920      -0.563313273      -0.001031484
                        -----------------------------------------
Magnitude (a.u.)       :      1.442434471
Magnitude (Debye)      :      3.666377054

Rotational constants in cm-1:             0.112063             0.019166             0.016469
Rotational constants in MHz :          3359.561707           574.576742           493.716341

                             ****ORCA TERMINATED NORMALLY****
TOTAL RUN TIME: 0 days 0 hours 0 minutes 37 seconds 959 msec
