                         Program Version 6.0.0  -   RELEASE  -
|  1> ! r2scan-3c def2/J RI DEFGRID2 scfconv6 printgap
|  2> %output
|  3>     printlevel normal
|  4> end
|  5> %cpcm
|  6>     smd true
|  7>     smdsolvent "water"
|  8> end
|  9> * xyz 0 1
| 10> C -3.4274074549 -1.0232807113 -0.0016779911
| 11> C -2.5513841331 0.1994600137 -0.0002271882
| 12> O -3.0386846576 1.3241512506 -5.5253e-06
| 13> C -1.0930642296 -0.0024504288 0.0006598229
| 14> C -0.2673084611 1.1238046188 0.0008152192
| 15> C 1.1069229578 1.0153738513 0.000743456
| 16> C 1.6975086372 -0.2479905203 0.0004824711
| 17> C 0.8786837659 -1.3840918764 0.0008833934
| 18> C -0.4903873167 -1.265715721 0.0009264556
| 19> O 3.0287116257 -0.4824364801 -0.0001273523
| 20> C 3.9234389205 0.6171363115 -0.0016922574
| 21> H -4.46970667 -0.7151627856 -0.003152825
| 22> H -3.2273107156 -1.6230814614 0.8822617095
| 23> H -3.2247752207 -1.622812142 -0.8851780419
| 24> H -0.7367436522 2.0967442819 0.0008492587
| 25> H 1.7068900898 1.9104759598 0.0008853766
| 26> H 1.3555750758 -2.3511157246 0.000950811
| 27> H -1.0904763118 -2.1601924432 0.0009390679
| 28> H 4.9171818646 0.1756589924 -0.002660013
| 29> H 3.793622206 1.2307784645 0.892673607
| 30> H 3.7914822602 1.2299218104 -0.8963442879
| 31> *
| 32>
| 33>                          ****END OF INPUT****

CARTESIAN COORDINATES (ANGSTROEM)
---------------------------------
  C     -3.427407   -1.023281   -0.001678
  C     -2.551384    0.199460   -0.000227
  O     -3.038685    1.324151   -0.000006
  C     -1.093064   -0.002450    0.000660
  C     -0.267308    1.123805    0.000815
  C      1.106923    1.015374    0.000743
  C      1.697509   -0.247991    0.000482
  C      0.878684   -1.384092    0.000883
  C     -0.490387   -1.265716    0.000926
  O      3.028712   -0.482436   -0.000127
  C      3.923439    0.617136   -0.001692
  H     -4.469707   -0.715163   -0.003153
  H     -3.227311   -1.623081    0.882262
  H     -3.224775   -1.622812   -0.885178
  H     -0.736744    2.096744    0.000849
  H      1.706890    1.910476    0.000885
  H      1.355575   -2.351116    0.000951
  H     -1.090476   -2.160192    0.000939
  H      4.917182    0.175659   -0.002660
  H      3.793622    1.230778    0.892674
  H      3.791482    1.229922   -0.896344

 Total Charge           Charge          ....    0
 Multiplicity           Mult            ....    1
 Number of Electrons    NEL             ....   80
 Basis Dimension        Dim             ....  269

ORBITAL ENERGIES
----------------

  NO   OCC          E(Eh)            E(eV)
   0   2.0000     -18.998668      -516.9800
   1   2.0000     -18.940278      -515.3912
   2   2.0000     -10.123512      -275.4748
   3   2.0000     -10.110580      -275.1229
   4   2.0000     -10.076113      -274.1850
   5   2.0000     -10.047668      -273.4109
   6   2.0000     -10.045663      -273.3564
   7   2.0000     -10.041394      -273.2402
   8   2.0000     -10.040442      -273.2143
   9   2.0000     -10.038451      -273.1601
  10   2.0000     -10.022267      -272.7197
  11   2.0000      -1.046472       -28.4760
  12   2.0000      -1.007993       -27.4289
  13   2.0000      -0.835507       -22.7353
  14   2.0000      -0.747872       -20.3506
  15   2.0000      -0.731435       -19.9034
  16   2.0000      -0.701214       -19.0810
  17   2.0000      -0.668779       -18.1984
  18   2.0000      -0.588835       -16.0230
  19   2.0000      -0.582950       -15.8629
  20   2.0000      -0.525247       -14.2927
  21   2.0000      -0.504204       -13.7201
  22   2.0000      -0.464240       -12.6326
  23   2.0000      -0.448787       -12.2121
  24   2.0000      -0.439104       -11.9486
  25   2.0000      -0.420384       -11.4392
  26   2.0000      -0.414254       -11.2724
  27   2.0000      -0.404180       -10.9983
  28   2.0000      -0.396545       -10.7905
  29   2.0000      -0.381221       -10.3736
  30   2.0000      -0.373585       -10.1658
  31   2.0000      -0.361189        -9.8284
  32   2.0000      -0.343660        -9.3515
  33   2.0000      -0.336404        -9.1540
  34   2.0000      -0.329686        -8.9712
  35   2.0000      -0.300127        -8.1669
  36   2.0000      -0.299923        -8.1613
  37   2.0000      -0.250084        -6.8051
  38   2.0000      -0.227311        -6.1855
  39   2.0000      -0.216797        -5.8994
  40   0.0000      -0.082639        -2.2487
  41   0.0000      -0.040393        -1.0992
  42   0.0000       0.017148         0.4666
  43   0.0000       0.068545         1.8652
  44   0.0000       0.084250         2.2926

MULLIKEN ATOMIC CHARGES
-----------------------
   0 C :   -0.590380
   1 C :    0.308640
   2 O :   -0.464967
   3 C :    0.101957
   4 C :   -0.210153
   5 C :   -0.296543
   6 C :    0.374121
   7 C :   -0.378944
   8 C :   -0.164314
   9 O :   -0.208633
  10 C :   -0.338911
  11 H :    0.183926
  12 H :    0.199484
  13 H :    0.199478
  14 H :    0.193945
  15 H :    0.189385
  16 H :    0.187448
  17 H :    0.184140
  18 H :    0.176887
  19 H :    0.176708
  20 H :    0.176726
Sum of atomic charges:    0.0000000

LOEWDIN ATOMIC CHARGES
----------------------
   0 C :   -0.380997
   1 C :    0.243817
   2 O :   -0.570707
   3 C :   -0.112882
   4 C :   -0.098214
   5 C :   -0.160609
   6 C :    0.203348
   7 C :   -0.136164
   8 C :   -0.118808
   9 O :   -0.685292
  10 C :   -0.045786
  11 H :    0.175925
  12 H :    0.186554
  13 H :    0.186519
  14 H :    0.194051
  15 H :    0.192669
  16 H :    0.192182
  17 H :    0.189551
  18 H :    0.189327
  19 H :    0.177749
  20 H :    0.177768

  Mayer bond orders larger than 0.100000
B(  0-C ,  1-C ) :   0.8945 B(  0-C , 11-H ) :   0.9812 B(  0-C , 12-H ) :   0.9453
B(  0-C , 13-H ) :   0.9455 B(  1-C ,  2-O ) :   1.8138 B(  1-C ,  3-C ) :   0.9667
B(  2-O ,  3-C ) :  -0.1057 B(  3-C ,  4-C ) :   1.3149 B(  3-C ,  8-C ) :   1.3318
B(  4-C ,  5-C ) :   1.3855 B(  4-C , 14-H ) :   0.9829 B(  5-C ,  6-C ) :   1.2996
B(  5-C , 15-H ) :   0.9296 B(  6-C ,  7-C ) :   1.3187 B(  6-C ,  9-O ) :   1.0541
B(  7-C ,  8-C ) :   1.4070 B(  7-C , 16-H ) :   0.9592 B(  8-C , 17-H ) :   0.9293
B(  9-O , 10-C ) :   0.8426 B( 10-C , 18-H ) :   0.9592 B( 10-C , 19-H ) :   0.9542
B( 10-C , 20-H ) :   0.9542

Dispersion correction           -0.007184056
FINAL SINGLE POINT ENERGY      -499.314419409307

DIPOLE MOMENT
-------------

Method             : SCF
Type of density    : Electron Density
Multiplicity       :   1
Irrep              :   0
Energy             :  -499.3167940810876644 Eh
Relativity type    :
Basis              : AO
                                X                 Y                 Z
Electronic contribution:     -0.789876529       0.775295819       0.006851122
Nuclear contribution   :      2.641494465      -1.703242072      -0.008234728
                        -----------------------------------------
Total Dipole Moment    :      1.851617936      -0.927946253      -0.001383606
                        -----------------------------------------
Magnitude (a.u.)       :      2.071128954
Magnitude (Debye)      :      5.264391433

Rotational constants in cm-1:             0.112063             0.019166             0.016469
Rotational constants in MHz :          3359.561707           574.576742           493.716341

                             ****ORCA TERMINATED NORMALLY****
TOTAL RUN TIME: 0 days 0 hours 0 minutes 44 seconds 746 msec
