                         Program Version 6.0.0  -   RELEASE  -
|  1> ! pbe def2-sv(p) def2/J RI DEFGRID1 loosescf d4 GCP(DFT/SV(P)) printgap
|  2> %output
|  3>     printlevel normal
|  4> end
|  5> * xyz 0 1
|  6> C 1.7607652488 -0.8747613549 1.1958676484
|  7> C 1.4876762091 -0.2572796502 -0.1698778313
|  8> C 0.3056847282 0.7213095631 -0.2095618271
|  9> H 0.4689439201 1.4931644778 0.5629258666
| 10> C -1.1049704753 0.13290476 0.0080074361
| 11> C -1.3100496475 -1.1980209905 -0.7109460539
| 12> C -1.4886479328 0.0263349354 1.481903734
| 13> O 0.2534759344 1.3587818851 -1.4818836885
| 14> H 1.0039791878 -1.6071983201 1.4590105134
| 15> H 1.7836509925 -0.1060761271 1.9647790877
| 16> H 2.724495767 -1.378313622 1.1834919569
| 17> H 2.3757675417 0.3057482873 -0.4731762938
| 18> H 1.3308049408 -1.039545062 -0.9128973957
| 19> H -1.7736274177 0.8669787385 -0.4586630768
| 20> H -1.0123978198 -1.1085576178 -1.7527952919
| 21> H -0.7343415396 -1.9911159122 -0.2414762686
| 22> H -2.3611695747 -1.4741736669 -0.6770295622
| 23> H -0.9023974407 -0.7311165642 1.9917662097
| 24> H -2.5385866693 -0.2442235053 1.5638530013
| 25> H -1.3405996982 0.9774379106 1.9878244108
| 26> H 1.1172424002 1.7413293043 -1.6862694854
| 27> *
| 28>
| 29>                          ****END OF INPUT****

CARTESIAN COORDINATES (ANGSTROEM)
---------------------------------
  C      1.760765   -0.874761    1.195868
  C      1.487676   -0.257280   -0.169878
  C      0.305685    0.721310   -0.209562
  H      0.468944    1.493164    0.562926
  C     -1.104970    0.132905    0.008007
  C     -1.310050   -1.198021   -0.710946
  C     -1.488648    0.026335    1.481904
  O      0.253476    1.358782   -1.481884
  H      1.003979   -1.607198    1.459011
  H      1.783651   -0.106076    1.964779
  H      2.724496   -1.378314    1.183492
  H      2.375768    0.305748   -0.473176
  H      1.330805   -1.039545   -0.912897
  H     -1.773627    0.866979   -0.458663
  H     -1.012398   -1.108558   -1.752795
  H     -0.734342   -1.991116   -0.241476
  H     -2.361170   -1.474174   -0.677030
  H     -0.902397   -0.731117    1.991766
  H     -2.538587   -0.244224    1.563853
  H     -1.340600    0.977438    1.987824
  H      1.117242    1.741329   -1.686269

 Total Charge           Charge          ....    0
 Multiplicity           Mult            ....    1
 Number of Electrons    NEL             ....   58
 Basis Dimension        Dim             ....  126

ORBITAL ENERGIES
----------------

  NO   OCC          E(Eh)            E(eV)
   0   2.0000     -18.735352      -509.8149
   1   2.0000      -9.931260      -270.2433
   2   2.0000      -9.887533      -269.0535
   3   2.0000      -9.884893      -268.9816
   4   2.0000      -9.877888      -268.7910
   5   2.0000      -9.870079      -268.5785
   6   2.0000      -9.866727      -268.4873
   7   2.0000      -0.912359       -24.8266
   8   2.0000      -0.724074       -19.7031
   9   2.0000      -0.684067       -18.6144
  10   2.0000      -0.607767       -16.5382
  11   2.0000      -0.599371       -16.3097
  12   2.0000      -0.545691       -14.8490
  13   2.0000      -0.479692       -13.0531
  14   2.0000      -0.454792       -12.3755
  15   2.0000      -0.430864       -11.7244
  16   2.0000      -0.391443       -10.6517
  17   2.0000      -0.376415       -10.2428
  18   2.0000      -0.371625       -10.1124
  19   2.0000      -0.354516        -9.6469
  20   2.0000      -0.340679        -9.2703
  21   2.0000      -0.336430        -9.1547
  22   2.0000      -0.321522        -8.7491
  23   2.0000      -0.305036        -8.3004
  24   2.0000      -0.292392        -7.9564
  25   2.0000      -0.288955        -7.8629
  26   2.0000      -0.275335        -7.4922
  27   2.0000      -0.257028        -6.9941
  28   2.0000      -0.208008        -5.6602
  29   0.0000       0.027105         0.7376
  30   0.0000       0.039975         1.0878
  31   0.0000       0.064394         1.7523
  32   0.0000       0.071169         1.9366
  33   0.0000       0.077708         2.1145

MULLIKEN ATOMIC CHARGES
-----------------------
   0 C :   -0.287650
   1 C :   -0.179921
   2 C :    0.050211
   3 H :    0.047071
   4 C :   -0.147045
   5 C :   -0.259732
   6 C :   -0.250866
   7 O :   -0.425694
   8 H :    0.122083
   9 H :    0.099039
  10 H :    0.102343
  11 H :    0.067189
  12 H :    0.093271
  13 H :    0.080264
  14 H :    0.112836
  15 H :    0.096025
  16 H :    0.096820
  17 H :    0.096515
  18 H :    0.098866
  19 H :    0.097173
  20 H :    0.291202
Sum of atomic charges:    0.0000000

LOEWDIN ATOMIC CHARGES
----------------------
   0 C :   -0.342073
   1 C :   -0.246464
   2 C :   -0.042680
   3 H :    0.091197
   4 C :   -0.160163
   5 C :   -0.331403
   6 C :   -0.331301
   7 O :   -0.332809
   8 H :    0.117765
   9 H :    0.117993
  10 H :    0.121673
  11 H :    0.109527
  12 H :    0.120048
  13 H :    0.124294
  14 H :    0.122361
  15 H :    0.113435
  16 H :    0.118973
  17 H :    0.115292
  18 H :    0.119579
  19 H :    0.116495
  20 H :    0.278264

  Mayer bond orders larger than 0.100000
B(  0-C ,  1-C ) :   1.1497 B(  0-C ,  8-H ) :   0.9388 B(  0-C ,  9-H ) :   0.9496
B(  0-C , 10-H ) :   0.9444 B(  1-C ,  2-C ) :   1.0832 B(  1-C , 11-H ) :   0.9150
B(  1-C , 12-H ) :   0.9028 B(  2-C ,  3-H ) :   0.9086 B(  2-C ,  4-C ) :   1.0176
B(  2-C ,  7-O ) :   1.0424 B(  4-C ,  5-C ) :   1.1190 B(  4-C ,  6-C ) :   1.1097
B(  4-C , 13-H ) :   0.8911 B(  5-C , 14-H ) :   0.9433 B(  5-C , 15-H ) :   0.9382
B(  5-C , 16-H ) :   0.9476 B(  6-C , 17-H ) :   0.9400 B(  6-C , 18-H ) :   0.9490
B(  6-C , 19-H ) :   0.9471 B(  7-O , 20-H ) :   0.8503

Dispersion correction           -0.017164264
FINAL SINGLE POINT ENERGY      -311.515345976257

DIPOLE MOMENT
-------------

Method             : SCF
Type of density    : Electron Density
Multiplicity       :   1
Irrep              :   0
Energy             :  -311.5946087501340571 Eh
Relativity type    :
Basis              : AO
                                X                 Y                 Z
Electronic contribution:      0.359625805       4.009294012      -3.967173216
Nuclear contribution   :      0.136760150      -4.009867823       4.210385881
                        -----------------------------------------
Total Dipole Moment    :      0.496385955      -0.000573811       0.243212665
                        -----------------------------------------
Magnitude (a.u.)       :      0.552767353
Magnitude (Debye)      :      1.405022952

Rotational constants in cm-1:             0.086227             0.074687             0.055083
Rotational constants in MHz :          2585.033512          2239.066808          1651.335504

                             ****ORCA TERMINATED NORMALLY****
TOTAL RUN TIME: 0 days 0 hours 0 minutes 9 seconds 224 msec
