                         Program Version 6.0.0  -   RELEASE  -
|  1> ! pbe def2-sv(p) def2/J RI DEFGRID1 loosescf d4 GCP(DFT/SV(P)) printgap
|  2> %output
|  3>     printlevel normal
|  4> end
|  5> * xyz 0 1
|  6> C -2.3235261479 0.4291438857 0.4917106561
|  7> C -0.9831153626 0.692952308 -0.18762014
|  8> C 0.062180339 -0.3916784801 0.1003532975
|  9> C 1.461152354 0.0156656661 -0.3765504176
| 10> C 2.1411964521 1.0289598486 0.5340490916
| 11> O -0.247758885 -1.6092566593 -0.5627365474
| 12> H -2.1903654395 0.3208024241 1.5661659401
| 13> H -3.0009893447 1.259947774 0.3121650627
| 14> H -2.7931380303 -0.4729968076 0.1063392925
| 15> H -1.1206974837 0.7558727565 -1.2691690397
| 16> H -0.5903519306 1.647942216 0.1609578287
| 17> H 0.1004520759 -0.5766783488 1.1872319602
| 18> H 2.0605695995 -0.8957915426 -0.4225359092
| 19> H 1.3838549645 0.409508759 -1.3913724815
| 20> H 1.5887114554 1.9643579023 0.5637578164
| 21> H 2.2162158983 0.64037633 1.5469409656
| 22> H 3.1435160348 1.2375111338 0.1701145951
| 23> H -1.1297500938 -1.8984557519 -0.2943068183
| 24> *
| 25>
| 26>                          ****END OF INPUT****

CARTESIAN COORDINATES (ANGSTROEM)
---------------------------------
  C     -2.323526    0.429144    0.491711
  C     -0.983115    0.692952   -0.187620
  C      0.062180   -0.391678    0.100353
  C      1.461152    0.015666   -0.376550
  C      2.141196    1.028960    0.534049
  O     -0.247759   -1.609257   -0.562737
  H     -2.190365    0.320802    1.566166
  H     -3.000989    1.259948    0.312165
  H     -2.793138   -0.472997    0.106339
  H     -1.120697    0.755873   -1.269169
  H     -0.590352    1.647942    0.160958
  H      0.100452   -0.576678    1.187232
  H      2.060570   -0.895792   -0.422536
  H      1.383855    0.409509   -1.391372
  H      1.588711    1.964358    0.563758
  H      2.216216    0.640376    1.546941
  H      3.143516    1.237511    0.170115
  H     -1.129750   -1.898456   -0.294307

 Total Charge           Charge          ....    0
 Multiplicity           Mult            ....    1
 Number of Electrons    NEL             ....   50
 Basis Dimension        Dim             ....  108

ORBITAL ENERGIES
----------------

  NO   OCC          E(Eh)            E(eV)
   0   2.0000     -18.736050      -509.8338
   1   2.0000      -9.931500      -270.2498
   2   2.0000      -9.883403      -268.9411
   3   2.0000      -9.881747      -268.8960
   4   2.0000      -9.877117      -268.7700
   5   2.0000      -9.874219      -268.6912
   6   2.0000      -0.913324       -24.8528
   7   2.0000      -0.713628       -19.4188
   8   2.0000      -0.678176       -18.4541
   9   2.0000      -0.602891       -16.4055
  10   2.0000      -0.547186       -14.8897
  11   2.0000      -0.505092       -13.7442
  12   2.0000      -0.455730       -12.4010
  13   2.0000      -0.414910       -11.2903
  14   2.0000      -0.402524       -10.9532
  15   2.0000      -0.389062       -10.5869
  16   2.0000      -0.360720        -9.8157
  17   2.0000      -0.339207        -9.2303
  18   2.0000      -0.325952        -8.8696
  19   2.0000      -0.314018        -8.5449
  20   2.0000      -0.306553        -8.3417
  21   2.0000      -0.299099        -8.1389
  22   2.0000      -0.288305        -7.8452
  23   2.0000      -0.261022        -7.1028
  24   2.0000      -0.209384        -5.6976
  25   0.0000       0.023859         0.6492
  26   0.0000       0.046839         1.2746
  27   0.0000       0.066007         1.7961
  28   0.0000       0.074071         2.0156
  29   0.0000       0.086486         2.3534

MULLIKEN ATOMIC CHARGES
-----------------------
   0 C :   -0.276978
   1 C :   -0.188768
   2 C :    0.019740
   3 C :   -0.137261
   4 C :   -0.291842
   5 O :   -0.425878
   6 H :    0.101821
   7 H :    0.110023
   8 H :    0.086636
   9 H :    0.088782
  10 H :    0.085624
  11 H :    0.048456
  12 H :    0.093265
  13 H :    0.081683
  14 H :    0.105540
  15 H :    0.099927
  16 H :    0.106276
  17 H :    0.292955
Sum of atomic charges:   -0.0000000

LOEWDIN ATOMIC CHARGES
----------------------
   0 C :   -0.345649
   1 C :   -0.249809
   2 C :   -0.049917
   3 C :   -0.234764
   4 C :   -0.341290
   5 O :   -0.333580
   6 H :    0.118225
   7 H :    0.124246
   8 H :    0.108880
   9 H :    0.119980
  10 H :    0.118973
  11 H :    0.091123
  12 H :    0.122429
  13 H :    0.117855
  14 H :    0.114939
  15 H :    0.117462
  16 H :    0.122633
  17 H :    0.278264

  Mayer bond orders larger than 0.100000
B(  0-C ,  1-C ) :   1.1468 B(  0-C ,  6-H ) :   0.9531 B(  0-C ,  7-H ) :   0.9513
B(  0-C ,  8-H ) :   0.9450 B(  1-C ,  2-C ) :   1.0658 B(  1-C ,  9-H ) :   0.9111
B(  1-C , 10-H ) :   0.9080 B(  2-C ,  3-C ) :   1.0777 B(  2-C ,  5-O ) :   1.0611
B(  2-C , 11-H ) :   0.9096 B(  3-C ,  4-C ) :   1.1450 B(  3-C , 12-H ) :   0.9173
B(  3-C , 13-H ) :   0.9169 B(  4-C , 14-H ) :   0.9478 B(  4-C , 15-H ) :   0.9524
B(  4-C , 16-H ) :   0.9501 B(  5-O , 17-H ) :   0.8484

Dispersion correction           -0.012541838
FINAL SINGLE POINT ENERGY      -272.304888176558

DIPOLE MOMENT
-------------

Method             : SCF
Type of density    : Electron Density
Multiplicity       :   1
Irrep              :   0
Energy             :  -272.3747948776270391 Eh
Relativity type    :
Basis              : AO
                                X                 Y                 Z
Electronic contribution:     -0.069706738      -3.829663486      -1.757619264
Nuclear contribution   :     -0.315121185       4.096904865       2.089653937
                        -----------------------------------------
Total Dipole Moment    :     -0.384827923       0.267241378       0.332034673
                        -----------------------------------------
Magnitude (a.u.)       :      0.574245164
Magnitude (Debye)      :      1.459615210

Rotational constants in cm-1:             0.165184             0.075268             0.057019
Rotational constants in MHz :          4952.101846          2256.488314          1709.371846

                             ****ORCA TERMINATED NORMALLY****
TOTAL RUN TIME: 0 days 0 hours 0 minutes 8 seconds 211 msec
