                         Program Version 6.0.0  -   RELEASE  -
|  1> ! r2scan-3c def2/J RI DEFGRID2 scfconv6 printgap
|  2> %output
|  3>     printlevel normal
|  4> end
|  5> * xyz 0 1
|  6> C -1.8211800519 0.9060660618 -0.5881732007
|  7> C -0.9538350421 0.6229111178 0.6335964794
|  8> C 0.0341038525 -0.542686828 0.472628821
|  9> H 0.4650045096 -0.7346780628 1.4638064369
| 10> C -0.638934314 -1.8256310982 -0.0085697429
| 11> C 1.1921336188 -0.1733087783 -0.4649780508
| 12> O 1.9597762442 0.9190531593 -0.0053504004
| 13> H -2.4444993328 1.7766268704 -0.3977899442
| 14> H -1.2090438182 1.1160255785 -1.461372824
| 15> H -2.4721484191 0.0653122037 -0.8107811501
| 16> H -1.6044565599 0.4104796012 1.4849489337
| 17> H -0.3766470441 1.5200347521 0.8699562993
| 18> H -1.5034310391 -2.050817526 0.6104645724
| 19> H 0.0549108383 -2.660829928 0.0514843449
| 20> H -0.9623838671 -1.7275462057 -1.0410112016
| 21> H 0.8100131995 0.1324976436 -1.4409562666
| 22> H 1.8364515103 -1.0510170008 -0.6132451785
| 23> H 2.3674008027 0.6824658252 0.8390767665
| 24> *
| 25>
| 26>                          ****END OF INPUT****

CARTESIAN COORDINATES (ANGSTROEM)
---------------------------------
  C     -1.821180    0.906066   -0.588173
  C     -0.953835    0.622911    0.633596
  C      0.034104   -0.542687    0.472629
  H      0.465005   -0.734678    1.463806
  C     -0.638934   -1.825631   -0.008570
  C      1.192134   -0.173309   -0.464978
  O      1.959776    0.919053   -0.005350
  H     -2.444499    1.776627   -0.397790
  H     -1.209044    1.116026   -1.461373
  H     -2.472148    0.065312   -0.810781
  H     -1.604457    0.410480    1.484949
  H     -0.376647    1.520035    0.869956
  H     -1.503431   -2.050818    0.610465
  H      0.054911   -2.660830    0.051484
  H     -0.962384   -1.727546   -1.041011
  H      0.810013    0.132498   -1.440956
  H      1.836452   -1.051017   -0.613245
  H      2.367401    0.682466    0.839077

 Total Charge           Charge          ....    0
 Multiplicity           Mult            ....    1
 Number of Electrons    NEL             ....   50
 Basis Dimension        Dim             ....  179

ORBITAL ENERGIES
----------------

  NO   OCC          E(Eh)            E(eV)
   0   2.0000     -18.946785      -515.5682
   1   2.0000     -10.070969      -274.0450
   2   2.0000     -10.033881      -273.0358
   3   2.0000     -10.020330      -272.6670
   4   2.0000     -10.020191      -272.6633
   5   2.0000     -10.013785      -272.4889
   6   2.0000      -0.983710       -26.7681
   7   2.0000      -0.774258       -21.0686
   8   2.0000      -0.696403       -18.9501
   9   2.0000      -0.640852       -17.4385
  10   2.0000      -0.602487       -16.3945
  11   2.0000      -0.525075       -14.2880
  12   2.0000      -0.462588       -12.5877
  13   2.0000      -0.445523       -12.1233
  14   2.0000      -0.425729       -11.5847
  15   2.0000      -0.387690       -10.5496
  16   2.0000      -0.379066       -10.3149
  17   2.0000      -0.359496        -9.7824
  18   2.0000      -0.352239        -9.5849
  19   2.0000      -0.345747        -9.4083
  20   2.0000      -0.310980        -8.4622
  21   2.0000      -0.295930        -8.0527
  22   2.0000      -0.292659        -7.9637
  23   2.0000      -0.277495        -7.5510
  24   2.0000      -0.233172        -6.3449
  25   0.0000       0.060339         1.6419
  26   0.0000       0.085127         2.3164
  27   0.0000       0.108407         2.9499
  28   0.0000       0.126332         3.4377
  29   0.0000       0.131349         3.5742

MULLIKEN ATOMIC CHARGES
-----------------------
   0 C :   -0.505949
   1 C :   -0.252429
   2 C :    0.006264
   3 H :    0.137829
   4 C :   -0.526030
   5 C :   -0.232640
   6 O :   -0.416668
   7 H :    0.147743
   8 H :    0.151922
   9 H :    0.150916
  10 H :    0.144704
  11 H :    0.162281
  12 H :    0.155110
  13 H :    0.148226
  14 H :    0.159370
  15 H :    0.147094
  16 H :    0.128704
  17 H :    0.293551
Sum of atomic charges:   -0.0000000

LOEWDIN ATOMIC CHARGES
----------------------
   0 C :   -0.422684
   1 C :   -0.309906
   2 C :   -0.233951
   3 H :    0.156338
   4 C :   -0.414718
   5 C :    0.004469
   6 O :   -0.619810
   7 H :    0.152865
   8 H :    0.150327
   9 H :    0.149777
  10 H :    0.152922
  11 H :    0.166663
  12 H :    0.157219
  13 H :    0.154160
  14 H :    0.156401
  15 H :    0.177431
  16 H :    0.158347
  17 H :    0.264150

  Mayer bond orders larger than 0.100000
B(  0-C ,  1-C ) :   0.8857 B(  0-C ,  7-H ) :   0.9683 B(  0-C ,  8-H ) :   0.9863
B(  0-C ,  9-H ) :   0.9772 B(  1-C ,  2-C ) :   0.8847 B(  1-C , 10-H ) :   0.9677
B(  1-C , 11-H ) :   0.9728 B(  2-C ,  3-H ) :   0.9626 B(  2-C ,  4-C ) :   0.8865
B(  2-C ,  5-C ) :   0.9199 B(  4-C , 12-H ) :   0.9728 B(  4-C , 13-H ) :   0.9687
B(  4-C , 14-H ) :   0.9794 B(  5-C ,  6-O ) :   0.9571 B(  5-C , 15-H ) :   0.9824
B(  5-C , 16-H ) :   0.9747 B(  6-O , 17-H ) :   0.8954

Dispersion correction           -0.004470355
FINAL SINGLE POINT ENERGY      -272.897769978304

DIPOLE MOMENT
-------------

Method             : SCF
Type of density    : Electron Density
Multiplicity       :   1
Irrep              :   0
Energy             :  -272.9032563730238508 Eh
Relativity type    :
Basis              : AO
                                X                 Y                 Z
Electronic contribution:      4.608661871       1.857532784       0.782931345
Nuclear contribution   :     -4.698162338      -2.351889997      -0.417955506
                        -----------------------------------------
Total Dipole Moment    :     -0.089500467      -0.494357213       0.364975839
                        -----------------------------------------
Magnitude (a.u.)       :      0.620972424
Magnitude (Debye)      :      1.578386465

Rotational constants in cm-1:             0.139328             0.087800             0.064984
Rotational constants in MHz :          4176.934457          2632.166383          1948.180894

                             ****ORCA TERMINATED NORMALLY****
TOTAL RUN TIME: 0 days 0 hours 0 minutes 23 seconds 757 msec
