                         Program Version 6.0.0  -   RELEASE  -
|  1> ! r2scan-3c def2/J RI DEFGRID2 scfconv6 printgap
|  2> %output
|  3>     printlevel normal
|  4> end
|  5> %cpcm
|  6>     smd true
|  7>     smdsolvent "water"
|  8> end
|  9> * xyz 0 1
| 10> C -1.8211800519 0.9060660618 -0.5881732007
| 11> C -0.9538350421 0.6229111178 0.6335964794
| 12> C 0.0341038525 -0.542686828 0.472628821
| 13> H 0.4650045096 -0.7346780628 1.4638064369
| 14> C -0.638934314 -1.8256310982 -0.0085697429
| 15> C 1.1921336188 -0.1733087783 -0.4649780508
| 16> O 1.9597762442 0.9190531593 -0.0053504004
| 17> H -2.4444993328 1.7766268704 -0.3977899442
| 18> H -1.2090438182 1.1160255785 -1.461372824
| 19> H -2.4721484191 0.0653122037 -0.8107811501
| 20> H -1.6044565599 0.4104796012 1.4849489337
| 21> H -0.3766470441 1.5200347521 0.8699562993
| 22> H -1.5034310391 -2.050817526 0.6104645724
| 23> H 0.0549108383 -2.660829928 0.0514843449
| 24> H -0.9623838671 -1.7275462057 -1.0410112016
| 25> H 0.8100131995 0.1324976436 -1.4409562666
| 26> H 1.8364515103 -1.0510170008 -0.6132451785
| 27> H 2.3674008027 0.6824658252 0.8390767665
| 28> *
| 29>
| 30>                          ****END OF INPUT****

CARTESIAN COORDINATES (ANGSTROEM)
---------------------------------
  C     -1.821180    0.906066   -0.588173
  C     -0.953835    0.622911    0.633596
  C      0.034104   -0.542687    0.472629
  H      0.465005   -0.734678    1.463806
  C     -0.638934   -1.825631   -0.008570
  C      1.192134   -0.173309   -0.464978
  O      1.959776    0.919053   -0.005350
  H     -2.444499    1.776627   -0.397790
  H     -1.209044    1.116026   -1.461373
  H     -2.472148    0.065312   -0.810781
  H     -1.604457    0.410480    1.484949
  H     -0.376647    1.520035    0.869956
  H     -1.503431   -2.050818    0.610465
  H      0.054911   -2.660830    0.051484
  H     -0.962384   -1.727546   -1.041011
  H      0.810013    0.132498   -1.440956
  H      1.836452   -1.051017   -0.613245
  H      2.367401    0.682466    0.839077

 Total Charge           Charge          ....    0
 Multiplicity           Mult            ....    1
 Number of Electrons    NEL             ....   50
 Basis Dimension        Dim             ....  179

ORBITAL ENERGIES
----------------

  NO   OCC          E(Eh)            E(eV)
   0   2.0000     -18.949220      -515.6345
   1   2.0000     -10.063958      -273.8542
   2   2.0000     -10.023961      -272.7658
   3   2.0000     -10.014170      -272.4994
   4   2.0000     -10.008652      -272.3493
   5   2.0000     -10.006518      -272.2912
   6   2.0000      -0.984896       -26.8004
   7   2.0000      -0.765799       -20.8385
   8   2.0000      -0.688805       -18.7433
   9   2.0000      -0.633317       -17.2334
  10   2.0000      -0.595333       -16.1998
  11   2.0000      -0.518129       -14.0990
  12   2.0000      -0.457355       -12.4453
  13   2.0000      -0.437552       -11.9064
  14   2.0000      -0.419345       -11.4110
  15   2.0000      -0.385035       -10.4773
  16   2.0000      -0.371425       -10.1070
  17   2.0000      -0.352194        -9.5837
  18   2.0000      -0.343625        -9.3505
  19   2.0000      -0.337465        -9.1829
  20   2.0000      -0.307914        -8.3788
  21   2.0000      -0.290350        -7.9008
  22   2.0000      -0.284247        -7.7348
  23   2.0000      -0.272020        -7.4020
  24   2.0000      -0.235055        -6.3962
  25   0.0000       0.074889         2.0378
  26   0.0000       0.095868         2.6087
  27   0.0000       0.118437         3.2228
  28   0.0000       0.134207         3.6520
  29   0.0000       0.140504         3.8233

MULLIKEN ATOMIC CHARGES
-----------------------
   0 C :   -0.537760
   1 C :   -0.273709
   2 C :    0.020168
   3 H :    0.157635
   4 C :   -0.563278
   5 C :   -0.231885
   6 O :   -0.505982
   7 H :    0.156284
   8 H :    0.162934
   9 H :    0.161439
  10 H :    0.156586
  11 H :    0.150692
  12 H :    0.165574
  13 H :    0.161117
  14 H :    0.168648
  15 H :    0.161253
  16 H :    0.140566
  17 H :    0.349718
Sum of atomic charges:   -0.0000000

LOEWDIN ATOMIC CHARGES
----------------------
   0 C :   -0.431109
   1 C :   -0.312874
   2 C :   -0.229260
   3 H :    0.163817
   4 C :   -0.420219
   5 C :    0.003572
   6 O :   -0.657273
   7 H :    0.153734
   8 H :    0.153090
   9 H :    0.153432
  10 H :    0.156690
  11 H :    0.160767
  12 H :    0.159972
  13 H :    0.157727
  14 H :    0.158675
  15 H :    0.180702
  16 H :    0.165545
  17 H :    0.283010

  Mayer bond orders larger than 0.100000
B(  0-C ,  1-C ) :   0.8845 B(  0-C ,  7-H ) :   0.9669 B(  0-C ,  8-H ) :   0.9822
B(  0-C ,  9-H ) :   0.9739 B(  1-C ,  2-C ) :   0.8775 B(  1-C , 10-H ) :   0.9673
B(  1-C , 11-H ) :   0.9792 B(  2-C ,  3-H ) :   0.9611 B(  2-C ,  4-C ) :   0.8810
B(  2-C ,  5-C ) :   0.9225 B(  4-C , 12-H ) :   0.9701 B(  4-C , 13-H ) :   0.9666
B(  4-C , 14-H ) :   0.9760 B(  5-C ,  6-O ) :   0.9445 B(  5-C , 15-H ) :   0.9797
B(  5-C , 16-H ) :   0.9662 B(  6-O , 17-H ) :   0.8673

Dispersion correction           -0.004470355
FINAL SINGLE POINT ENERGY      -272.903773254005

DIPOLE MOMENT
-------------

Method             : SCF
Type of density    : Electron Density
Multiplicity       :   1
Irrep              :   0
Energy             :  -272.9092596487254241 Eh
Relativity type    :
Basis              : AO
                                X                 Y                 Z
Electronic contribution:      4.592271550       1.607964929       0.918342027
Nuclear contribution   :     -4.698162338      -2.351889997      -0.417955506
                        -----------------------------------------
Total Dipole Moment    :     -0.105890788      -0.743925068       0.500386522
                        -----------------------------------------
Magnitude (a.u.)       :      0.902786817
Magnitude (Debye)      :      2.294701725

Rotational constants in cm-1:             0.139328             0.087800             0.064984
Rotational constants in MHz :          4176.934457          2632.166383          1948.180894

                             ****ORCA TERMINATED NORMALLY****
TOTAL RUN TIME: 0 days 0 hours 0 minutes 28 seconds 530 msec
