                         Program Version 6.0.0  -   RELEASE  -
|  1> ! r2scan-3c def2/J RI DEFGRID2 scfconv6 printgap
|  2> %output
|  3>     printlevel normal
|  4> end
|  5> * xyz 0 1
|  6> C -3.6683088152 -0.3894970355 -0.9043631529
|  7> C -3.0079469407 -0.4309592877 0.4656108192
|  8> O -1.5890185453 -0.6141206429 0.3519620494
|  9> C -0.8270276366 0.4662379813 0.1962309063
| 10> O -1.2747172571 1.5995378013 0.1701689848
| 11> C 0.6099580008 0.1447352494 0.0730866602
| 12> C 1.5160498539 1.1940136757 -0.0740795283
| 13> C 2.8671190939 0.9302806078 -0.1921505123
| 14> C 3.3207105251 -0.3797354477 -0.1647673957
| 15> C 2.4227567203 -1.4265692689 -0.0194380794
| 16> C 1.069581886 -1.1710306598 0.0996571762
| 17> H -3.4269039358 -1.2893230127 -1.4637490237
| 18> H -4.7442240478 -0.3192624153 -0.7824813247
| 19> H -3.3180866377 0.4776841327 -1.4600163365
| 20> H -3.3494597919 -1.2894945323 1.044949086
| 21> H -3.1985317582 0.4975577921 1.0127827548
| 22> H 1.1356076962 2.2043620993 -0.0921820483
| 23> H 3.5657896346 1.7443567347 -0.3054354797
| 24> H 4.3759685719 -0.5850910549 -0.257123235
| 25> H 2.7795401473 -2.444459488 0.001105328
| 26> H 0.3622730644 -1.9768891365 0.2131497406
| 27> *
| 28>
| 29>                          ****END OF INPUT****

CARTESIAN COORDINATES (ANGSTROEM)
---------------------------------
  C     -3.668309   -0.389497   -0.904363
  C     -3.007947   -0.430959    0.465611
  O     -1.589019   -0.614121    0.351962
  C     -0.827028    0.466238    0.196231
  O     -1.274717    1.599538    0.170169
  C      0.609958    0.144735    0.073087
  C      1.516050    1.194014   -0.074080
  C      2.867119    0.930281   -0.192151
  C      3.320711   -0.379735   -0.164767
  C      2.422757   -1.426569   -0.019438
  C      1.069582   -1.171031    0.099657
  H     -3.426904   -1.289323   -1.463749
  H     -4.744224   -0.319262   -0.782481
  H     -3.318087    0.477684   -1.460016
  H     -3.349460   -1.289495    1.044949
  H     -3.198532    0.497558    1.012783
  H      1.135608    2.204362   -0.092182
  H      3.565790    1.744357   -0.305435
  H      4.375969   -0.585091   -0.257123
  H      2.779540   -2.444459    0.001105
  H      0.362273   -1.976889    0.213150

 Total Charge           Charge          ....    0
 Multiplicity           Mult            ....    1
 Number of Electrons    NEL             ....   80
 Basis Dimension        Dim             ....  269

ORBITAL ENERGIES
----------------

  NO   OCC          E(Eh)            E(eV)
   0   2.0000     -18.998192      -516.9671
   1   2.0000     -18.929201      -515.0897
   2   2.0000     -10.156134      -276.3625
   3   2.0000     -10.092272      -274.6247
   4   2.0000     -10.054095      -273.5858
   5   2.0000     -10.047943      -273.4184
   6   2.0000     -10.047026      -273.3935
   7   2.0000     -10.045154      -273.3425
   8   2.0000     -10.044714      -273.3306
   9   2.0000     -10.044194      -273.3164
  10   2.0000     -10.028697      -272.8947
  11   2.0000      -1.072591       -29.1867
  12   2.0000      -0.975889       -26.5553
  13   2.0000      -0.838733       -22.8231
  14   2.0000      -0.756753       -20.5923
  15   2.0000      -0.728041       -19.8110
  16   2.0000      -0.724938       -19.7266
  17   2.0000      -0.642187       -17.4748
  18   2.0000      -0.593535       -16.1509
  19   2.0000      -0.580663       -15.8006
  20   2.0000      -0.530017       -14.4225
  21   2.0000      -0.510393       -13.8885
  22   2.0000      -0.463518       -12.6130
  23   2.0000      -0.454350       -12.3635
  24   2.0000      -0.436611       -11.8808
  25   2.0000      -0.425532       -11.5793
  26   2.0000      -0.413968       -11.2647
  27   2.0000      -0.406253       -11.0547
  28   2.0000      -0.400080       -10.8867
  29   2.0000      -0.380103       -10.3431
  30   2.0000      -0.364300        -9.9131
  31   2.0000      -0.348834        -9.4923
  32   2.0000      -0.342572        -9.3219
  33   2.0000      -0.330223        -8.9858
  34   2.0000      -0.321697        -8.7538
  35   2.0000      -0.307020        -8.3545
  36   2.0000      -0.273163        -7.4332
  37   2.0000      -0.248216        -6.7543
  38   2.0000      -0.246469        -6.7068
  39   2.0000      -0.240595        -6.5469
  40   0.0000      -0.075642        -2.0583
  41   0.0000      -0.040062        -1.0901
  42   0.0000       0.026782         0.7288
  43   0.0000       0.070812         1.9269
  44   0.0000       0.091060         2.4779

MULLIKEN ATOMIC CHARGES
-----------------------
   0 C :   -0.465102
   1 C :   -0.140043
   2 O :   -0.158544
   3 C :    0.373744
   4 O :   -0.436970
   5 C :    0.087505
   6 C :   -0.228662
   7 C :   -0.154819
   8 C :   -0.113691
   9 C :   -0.153758
  10 C :   -0.198383
  11 H :    0.151781
  12 H :    0.147286
  13 H :    0.173677
  14 H :    0.148371
  15 H :    0.169402
  16 H :    0.181688
  17 H :    0.147922
  18 H :    0.148610
  19 H :    0.147398
  20 H :    0.172589
Sum of atomic charges:   -0.0000000

LOEWDIN ATOMIC CHARGES
----------------------
   0 C :   -0.389422
   1 C :    0.030755
   2 O :   -0.602550
   3 C :    0.388892
   4 O :   -0.442636
   5 C :   -0.032399
   6 C :   -0.105877
   7 C :   -0.160027
   8 C :   -0.145019
   9 C :   -0.162282
  10 C :   -0.113714
  11 H :    0.157081
  12 H :    0.159272
  13 H :    0.165735
  14 H :    0.177749
  15 H :    0.189577
  16 H :    0.190281
  17 H :    0.169586
  18 H :    0.168331
  19 H :    0.168787
  20 H :    0.187878

  Mayer bond orders larger than 0.100000
B(  0-C ,  1-C ) :   0.9357 B(  0-C , 11-H ) :   0.9736 B(  0-C , 12-H ) :   0.9648
B(  0-C , 13-H ) :   0.9717 B(  1-C ,  2-O ) :   0.8053 B(  1-C , 14-H ) :   0.9637
B(  1-C , 15-H ) :   0.9686 B(  2-O ,  3-C ) :   1.1602 B(  2-O ,  5-C ) :  -0.1214
B(  3-C ,  4-O ) :   1.8777 B(  3-C ,  5-C ) :   1.0088 B(  5-C ,  6-C ) :   1.4745
B(  5-C , 10-C ) :   1.3875 B(  6-C ,  7-C ) :   1.3750 B(  6-C , 16-H ) :   0.9420
B(  7-C ,  8-C ) :   1.3996 B(  7-C , 17-H ) :   0.9551 B(  8-C ,  9-C ) :   1.4062
B(  8-C , 18-H ) :   0.9458 B(  9-C , 10-C ) :   1.3816 B(  9-C , 19-H ) :   0.9522
B( 10-C , 20-H ) :   0.9506

Dispersion correction           -0.006944889
FINAL SINGLE POINT ENERGY      -499.330372940155

DIPOLE MOMENT
-------------

Method             : SCF
Type of density    : Electron Density
Multiplicity       :   1
Irrep              :   0
Energy             :  -499.3329080654525569 Eh
Relativity type    :
Basis              : AO
                                X                 Y                 Z
Electronic contribution:      5.632530874       1.999314643       1.909804895
Nuclear contribution   :     -5.500723742      -2.781673041      -1.952102908
                        -----------------------------------------
Total Dipole Moment    :      0.131807132      -0.782358399      -0.042298013
                        -----------------------------------------
Magnitude (a.u.)       :      0.794510482
Magnitude (Debye)      :      2.019485154

Rotational constants in cm-1:             0.099228             0.020443             0.017797
Rotational constants in MHz :          2974.772443           612.861313           533.526247

                             ****ORCA TERMINATED NORMALLY****
TOTAL RUN TIME: 0 days 0 hours 0 minutes 42 seconds 862 msec
