                         Program Version 6.0.0  -   RELEASE  -
|  1> ! r2scan-3c def2/J RI DEFGRID2 scfconv6 printgap
|  2> %output
|  3>     printlevel normal
|  4> end
|  5> %cpcm
|  6>     smd true
|  7>     smdsolvent "water"
|  8> end
|  9> * xyz 0 1
| 10> C -3.6683088152 -0.3894970355 -0.9043631529
| 11> C -3.0079469407 -0.4309592877 0.4656108192
| 12> O -1.5890185453 -0.6141206429 0.3519620494
| 13> C -0.8270276366 0.4662379813 0.1962309063
| 14> O -1.2747172571 1.5995378013 0.1701689848
| 15> C 0.6099580008 0.1447352494 0.0730866602
| 16> C 1.5160498539 1.1940136757 -0.0740795283
| 17> C 2.8671190939 0.9302806078 -0.1921505123
| 18> C 3.3207105251 -0.3797354477 -0.1647673957
| 19> C 2.4227567203 -1.4265692689 -0.0194380794
| 20> C 1.069581886 -1.1710306598 0.0996571762
| 21> H -3.4269039358 -1.2893230127 -1.4637490237
| 22> H -4.7442240478 -0.3192624153 -0.7824813247
| 23> H -3.3180866377 0.4776841327 -1.4600163365
| 24> H -3.3494597919 -1.2894945323 1.044949086
| 25> H -3.1985317582 0.4975577921 1.0127827548
| 26> H 1.1356076962 2.2043620993 -0.0921820483
| 27> H 3.5657896346 1.7443567347 -0.3054354797
| 28> H 4.3759685719 -0.5850910549 -0.257123235
| 29> H 2.7795401473 -2.444459488 0.001105328
| 30> H 0.3622730644 -1.9768891365 0.2131497406
| 31> *
| 32>
| 33>                          ****END OF INPUT****

CARTESIAN COORDINATES (ANGSTROEM)
---------------------------------
  C     -3.668309   -0.389497   -0.904363
  C     -3.007947   -0.430959    0.465611
  O     -1.589019   -0.614121    0.351962
  C     -0.827028    0.466238    0.196231
  O     -1.274717    1.599538    0.170169
  C      0.609958    0.144735    0.073087
  C      1.516050    1.194014   -0.074080
  C      2.867119    0.930281   -0.192151
  C      3.320711   -0.379735   -0.164767
  C      2.422757   -1.426569   -0.019438
  C      1.069582   -1.171031    0.099657
  H     -3.426904   -1.289323   -1.463749
  H     -4.744224   -0.319262   -0.782481
  H     -3.318087    0.477684   -1.460016
  H     -3.349460   -1.289495    1.044949
  H     -3.198532    0.497558    1.012783
  H      1.135608    2.204362   -0.092182
  H      3.565790    1.744357   -0.305435
  H      4.375969   -0.585091   -0.257123
  H      2.779540   -2.444459    0.001105
  H      0.362273   -1.976889    0.213150

 Total Charge           Charge          ....    0
 Multiplicity           Mult            ....    1
 Number of Electrons    NEL             ....   80
 Basis Dimension        Dim             ....  269

ORBITAL ENERGIES
----------------

  NO   OCC          E(Eh)            E(eV)
   0   2.0000     -19.003191      -517.1031
   1   2.0000     -18.944521      -515.5066
   2   2.0000     -10.168450      -276.6976
   3   2.0000     -10.084877      -274.4234
   4   2.0000     -10.055632      -273.6277
   5   2.0000     -10.045942      -273.3640
   6   2.0000     -10.045471      -273.3512
   7   2.0000     -10.044587      -273.3271
   8   2.0000     -10.041326      -273.2384
   9   2.0000     -10.041193      -273.2348
  10   2.0000     -10.018463      -272.6162
  11   2.0000      -1.080196       -29.3936
  12   2.0000      -0.989519       -26.9262
  13   2.0000      -0.839061       -22.8320
  14   2.0000      -0.755225       -20.5507
  15   2.0000      -0.726477       -19.7684
  16   2.0000      -0.721063       -19.6211
  17   2.0000      -0.639517       -17.4021
  18   2.0000      -0.591737       -16.1020
  19   2.0000      -0.577860       -15.7244
  20   2.0000      -0.527271       -14.3478
  21   2.0000      -0.510556       -13.8929
  22   2.0000      -0.464753       -12.6466
  23   2.0000      -0.457103       -12.4384
  24   2.0000      -0.440480       -11.9861
  25   2.0000      -0.422393       -11.4939
  26   2.0000      -0.420926       -11.4540
  27   2.0000      -0.402486       -10.9522
  28   2.0000      -0.396363       -10.7856
  29   2.0000      -0.378391       -10.2966
  30   2.0000      -0.360851        -9.8193
  31   2.0000      -0.345584        -9.4038
  32   2.0000      -0.342764        -9.3271
  33   2.0000      -0.328118        -8.9286
  34   2.0000      -0.317304        -8.6343
  35   2.0000      -0.304501        -8.2859
  36   2.0000      -0.280326        -7.6281
  37   2.0000      -0.257357        -7.0030
  38   2.0000      -0.249723        -6.7953
  39   2.0000      -0.248257        -6.7554
  40   0.0000      -0.080607        -2.1934
  41   0.0000      -0.040344        -1.0978
  42   0.0000       0.021677         0.5899
  43   0.0000       0.072383         1.9697
  44   0.0000       0.096904         2.6369

MULLIKEN ATOMIC CHARGES
-----------------------
   0 C :   -0.493365
   1 C :   -0.141821
   2 O :   -0.170662
   3 C :    0.413893
   4 O :   -0.509492
   5 C :    0.089246
   6 C :   -0.250292
   7 C :   -0.199673
   8 C :   -0.131450
   9 C :   -0.192621
  10 C :   -0.211054
  11 H :    0.166367
  12 H :    0.171056
  13 H :    0.169758
  14 H :    0.175193
  15 H :    0.172727
  16 H :    0.195345
  17 H :    0.182642
  18 H :    0.185230
  19 H :    0.182869
  20 H :    0.196104
Sum of atomic charges:   -0.0000000

LOEWDIN ATOMIC CHARGES
----------------------
   0 C :   -0.392138
   1 C :    0.035908
   2 O :   -0.601134
   3 C :    0.394669
   4 O :   -0.498868
   5 C :   -0.044486
   6 C :   -0.116909
   7 C :   -0.162207
   8 C :   -0.142885
   9 C :   -0.163020
  10 C :   -0.115937
  11 H :    0.162088
  12 H :    0.168151
  13 H :    0.162571
  14 H :    0.189635
  15 H :    0.190651
  16 H :    0.192992
  17 H :    0.181949
  18 H :    0.181425
  19 H :    0.181693
  20 H :    0.195852

  Mayer bond orders larger than 0.100000
B(  0-C ,  1-C ) :   0.9331 B(  0-C , 11-H ) :   0.9700 B(  0-C , 12-H ) :   0.9593
B(  0-C , 13-H ) :   0.9701 B(  1-C ,  2-O ) :   0.7888 B(  1-C , 14-H ) :   0.9535
B(  1-C , 15-H ) :   0.9642 B(  2-O ,  3-C ) :   1.1763 B(  2-O ,  5-C ) :  -0.1073
B(  3-C ,  4-O ) :   1.8225 B(  3-C ,  5-C ) :   1.0120 B(  5-C ,  6-C ) :   1.4026
B(  5-C , 10-C ) :   1.3401 B(  6-C ,  7-C ) :   1.3731 B(  6-C , 16-H ) :   0.9513
B(  7-C ,  8-C ) :   1.3745 B(  7-C , 17-H ) :   0.9602 B(  8-C ,  9-C ) :   1.3758
B(  8-C , 18-H ) :   0.9484 B(  9-C , 10-C ) :   1.3688 B(  9-C , 19-H ) :   0.9589
B( 10-C , 20-H ) :   0.9590

Dispersion correction           -0.006944889
FINAL SINGLE POINT ENERGY      -499.335798452130

DIPOLE MOMENT
-------------

Method             : SCF
Type of density    : Electron Density
Multiplicity       :   1
Irrep              :   0
Energy             :  -499.3383335774273064 Eh
Relativity type    :
Basis              : AO
                                X                 Y                 Z
Electronic contribution:      5.809059277       1.583539467       1.916173802
Nuclear contribution   :     -5.500723742      -2.781673041      -1.952102908
                        -----------------------------------------
Total Dipole Moment    :      0.308335535      -1.198133574      -0.035929106
                        -----------------------------------------
Magnitude (a.u.)       :      1.237693728
Magnitude (Debye)      :      3.145967443

Rotational constants in cm-1:             0.099228             0.020443             0.017797
Rotational constants in MHz :          2974.772443           612.861313           533.526247

                             ****ORCA TERMINATED NORMALLY****
TOTAL RUN TIME: 0 days 0 hours 0 minutes 48 seconds 798 msec
