                         Program Version 6.0.0  -   RELEASE  -
|  1> ! r2scan-3c def2/J RI DEFGRID2 scfconv6 printgap
|  2> %output
|  3>     printlevel normal
|  4> end
|  5> * xyz 0 1
|  6> C -2.2982637839 0.3602618266 -1.0417094745
|  7> C -1.8175600735 0.4119479918 0.411850077
|  8> C -0.4489907636 -0.2121981772 0.4959991923
|  9> O -0.2373529149 -1.3961792407 0.6589480345
| 10> O 0.5074871679 0.6941313542 0.3439986305
| 11> C 1.8758658252 0.2552261651 0.3189740283
| 12> C 2.3141731023 -0.0757107984 -1.0994865943
| 13> H -3.2945478172 0.7856446072 -1.1136054264
| 14> H -1.6268908201 0.9267266519 -1.6819645725
| 15> H -2.3296765288 -0.6693750317 -1.3903435061
| 16> H -2.4968712457 -0.1549056795 1.0473958435
| 17> H -1.7563725171 1.4454211162 0.748785278
| 18> H 2.443915047 1.0929734972 0.7247495104
| 19> H 1.9728408411 -0.620339049 0.9681092134
| 20> H 3.3648763537 -0.3464879117 -1.0975599571
| 21> H 1.7344976377 -0.9125028923 -1.4829304872
| 22> H 2.1662674331 0.7843121637 -1.7469572741
| 23> *
| 24>
| 25>                          ****END OF INPUT****

CARTESIAN COORDINATES (ANGSTROEM)
---------------------------------
  C     -2.298264    0.360262   -1.041709
  C     -1.817560    0.411948    0.411850
  C     -0.448991   -0.212198    0.495999
  O     -0.237353   -1.396179    0.658948
  O      0.507487    0.694131    0.343999
  C      1.875866    0.255226    0.318974
  C      2.314173   -0.075711   -1.099487
  H     -3.294548    0.785645   -1.113605
  H     -1.626891    0.926727   -1.681965
  H     -2.329677   -0.669375   -1.390344
  H     -2.496871   -0.154906    1.047396
  H     -1.756373    1.445421    0.748785
  H      2.443915    1.092973    0.724750
  H      1.972841   -0.620339    0.968109
  H      3.364876   -0.346488   -1.097560
  H      1.734498   -0.912503   -1.482930
  H      2.166267    0.784312   -1.746957

 Total Charge           Charge          ....    0
 Multiplicity           Mult            ....    1
 Number of Electrons    NEL             ....   56
 Basis Dimension        Dim             ....  193

ORBITAL ENERGIES
----------------

  NO   OCC          E(Eh)            E(eV)
   0   2.0000     -18.996348      -516.9169
   1   2.0000     -18.926661      -515.0206
   2   2.0000     -10.150905      -276.2202
   3   2.0000     -10.090767      -274.5837
   4   2.0000     -10.042972      -273.2832
   5   2.0000     -10.031983      -272.9841
   6   2.0000     -10.029665      -272.9211
   7   2.0000      -1.071021       -29.1440
   8   2.0000      -0.974502       -26.5176
   9   2.0000      -0.765632       -20.8339
  10   2.0000      -0.730844       -19.8873
  11   2.0000      -0.642279       -17.4773
  12   2.0000      -0.598849       -16.2955
  13   2.0000      -0.522374       -14.2145
  14   2.0000      -0.472057       -12.8453
  15   2.0000      -0.455444       -12.3933
  16   2.0000      -0.437793       -11.9130
  17   2.0000      -0.410246       -11.1634
  18   2.0000      -0.407034       -11.0760
  19   2.0000      -0.381114       -10.3706
  20   2.0000      -0.372664       -10.1407
  21   2.0000      -0.354791        -9.6544
  22   2.0000      -0.336907        -9.1677
  23   2.0000      -0.328038        -8.9264
  24   2.0000      -0.325286        -8.8515
  25   2.0000      -0.305802        -8.3213
  26   2.0000      -0.270377        -7.3573
  27   2.0000      -0.233620        -6.3571
  28   0.0000      -0.013915        -0.3786
  29   0.0000       0.075380         2.0512
  30   0.0000       0.092069         2.5053
  31   0.0000       0.116319         3.1652
  32   0.0000       0.124205         3.3798

MULLIKEN ATOMIC CHARGES
-----------------------
   0 C :   -0.471817
   1 C :   -0.296158
   2 C :    0.414984
   3 O :   -0.431854
   4 O :   -0.178796
   5 C :   -0.142390
   6 C :   -0.464956
   7 H :    0.153909
   8 H :    0.152381
   9 H :    0.162980
  10 H :    0.160581
  11 H :    0.155000
  12 H :    0.147420
  13 H :    0.171289
  14 H :    0.147516
  15 H :    0.168066
  16 H :    0.151846
Sum of atomic charges:    0.0000000

LOEWDIN ATOMIC CHARGES
----------------------
   0 C :   -0.392433
   1 C :   -0.236122
   2 C :    0.356203
   3 O :   -0.434408
   4 O :   -0.596048
   5 C :    0.027154
   6 C :   -0.390362
   7 H :    0.153256
   8 H :    0.156458
   9 H :    0.160413
  10 H :    0.174864
  11 H :    0.173809
  12 H :    0.177349
  13 H :    0.189914
  14 H :    0.159352
  15 H :    0.163845
  16 H :    0.156756

  Mayer bond orders larger than 0.100000
B(  0-C ,  1-C ) :   0.8932 B(  0-C ,  7-H ) :   0.9707 B(  0-C ,  8-H ) :   0.9760
B(  0-C ,  9-H ) :   0.9755 B(  1-C ,  2-C ) :   0.9510 B(  1-C , 10-H ) :   0.9715
B(  1-C , 11-H ) :   0.9770 B(  2-C ,  3-O ) :   1.8388 B(  2-C ,  4-O ) :   1.0460
B(  4-O ,  5-C ) :   0.8116 B(  5-C ,  6-C ) :   0.9368 B(  5-C , 12-H ) :   0.9624
B(  5-C , 13-H ) :   0.9657 B(  6-C , 14-H ) :   0.9658 B(  6-C , 15-H ) :   0.9713
B(  6-C , 16-H ) :   0.9742

Dispersion correction           -0.004045262
FINAL SINGLE POINT ENERGY      -346.936113236173

DIPOLE MOMENT
-------------

Method             : SCF
Type of density    : Electron Density
Multiplicity       :   1
Irrep              :   0
Energy             :  -346.9424644885299927 Eh
Relativity type    :
Basis              : AO
                                X                 Y                 Z
Electronic contribution:      0.005671347      -1.432163501       4.423211255
Nuclear contribution   :      0.171034825       2.176897641      -4.698783682
                        -----------------------------------------
Total Dipole Moment    :      0.176706172       0.744734140      -0.275572427
                        -----------------------------------------
Magnitude (a.u.)       :      0.813507329
Magnitude (Debye)      :      2.067771301

Rotational constants in cm-1:             0.154650             0.053299             0.049137
Rotational constants in MHz :          4636.297914          1597.860318          1473.079059

                             ****ORCA TERMINATED NORMALLY****
TOTAL RUN TIME: 0 days 0 hours 0 minutes 23 seconds 90 msec
