                         Program Version 6.0.0  -   RELEASE  -
|  1> ! r2scan-3c def2/J RI DEFGRID2 scfconv6 printgap
|  2> %output
|  3>     printlevel normal
|  4> end
|  5> %cpcm
|  6>     smd true
|  7>     smdsolvent "water"
|  8> end
|  9> * xyz 0 1
| 10> C -2.2982637839 0.3602618266 -1.0417094745
| 11> C -1.8175600735 0.4119479918 0.411850077
| 12> C -0.4489907636 -0.2121981772 0.4959991923
| 13> O -0.2373529149 -1.3961792407 0.6589480345
| 14> O 0.5074871679 0.6941313542 0.3439986305
| 15> C 1.8758658252 0.2552261651 0.3189740283
| 16> C 2.3141731023 -0.0757107984 -1.0994865943
| 17> H -3.2945478172 0.7856446072 -1.1136054264
| 18> H -1.6268908201 0.9267266519 -1.6819645725
| 19> H -2.3296765288 -0.6693750317 -1.3903435061
| 20> H -2.4968712457 -0.1549056795 1.0473958435
| 21> H -1.7563725171 1.4454211162 0.748785278
| 22> H 2.443915047 1.0929734972 0.7247495104
| 23> H 1.9728408411 -0.620339049 0.9681092134
| 24> H 3.3648763537 -0.3464879117 -1.0975599571
| 25> H 1.7344976377 -0.9125028923 -1.4829304872
| 26> H 2.1662674331 0.7843121637 -1.7469572741
| 27> *
| 28>
| 29>                          ****END OF INPUT****

CARTESIAN COORDINATES (ANGSTROEM)
---------------------------------
  C     -2.298264    0.360262   -1.041709
  C     -1.817560    0.411948    0.411850
  C     -0.448991   -0.212198    0.495999
  O     -0.237353   -1.396179    0.658948
  O      0.507487    0.694131    0.343999
  C      1.875866    0.255226    0.318974
  C      2.314173   -0.075711   -1.099487
  H     -3.294548    0.785645   -1.113605
  H     -1.626891    0.926727   -1.681965
  H     -2.329677   -0.669375   -1.390344
  H     -2.496871   -0.154906    1.047396
  H     -1.756373    1.445421    0.748785
  H      2.443915    1.092973    0.724750
  H      1.972841   -0.620339    0.968109
  H      3.364876   -0.346488   -1.097560
  H      1.734498   -0.912503   -1.482930
  H      2.166267    0.784312   -1.746957

 Total Charge           Charge          ....    0
 Multiplicity           Mult            ....    1
 Number of Electrons    NEL             ....   56
 Basis Dimension        Dim             ....  193

ORBITAL ENERGIES
----------------

  NO   OCC          E(Eh)            E(eV)
   0   2.0000     -19.002301      -517.0789
   1   2.0000     -18.943051      -515.4666
   2   2.0000     -10.161911      -276.5197
   3   2.0000     -10.083008      -274.3726
   4   2.0000     -10.037282      -273.1283
   5   2.0000     -10.022520      -272.7266
   6   2.0000     -10.018449      -272.6159
   7   2.0000      -1.078671       -29.3521
   8   2.0000      -0.988716       -26.9043
   9   2.0000      -0.761506       -20.7216
  10   2.0000      -0.723118       -19.6770
  11   2.0000      -0.636800       -17.3282
  12   2.0000      -0.592534       -16.1237
  13   2.0000      -0.520443       -14.1620
  14   2.0000      -0.471972       -12.8430
  15   2.0000      -0.460108       -12.5202
  16   2.0000      -0.442093       -12.0300
  17   2.0000      -0.411972       -11.2103
  18   2.0000      -0.400918       -10.9095
  19   2.0000      -0.376347       -10.2409
  20   2.0000      -0.367530       -10.0010
  21   2.0000      -0.346690        -9.4339
  22   2.0000      -0.332363        -9.0441
  23   2.0000      -0.327194        -8.9034
  24   2.0000      -0.317214        -8.6318
  25   2.0000      -0.304086        -8.2746
  26   2.0000      -0.277810        -7.5596
  27   2.0000      -0.249936        -6.8011
  28   0.0000      -0.022416        -0.6100
  29   0.0000       0.078079         2.1246
  30   0.0000       0.100027         2.7219
  31   0.0000       0.125503         3.4151
  32   0.0000       0.134650         3.6640

MULLIKEN ATOMIC CHARGES
-----------------------
   0 C :   -0.492994
   1 C :   -0.311582
   2 C :    0.451691
   3 O :   -0.516132
   4 O :   -0.196926
   5 C :   -0.145996
   6 C :   -0.490713
   7 H :    0.173338
   8 H :    0.164739
   9 H :    0.166129
  10 H :    0.175441
  11 H :    0.174453
  12 H :    0.173313
  13 H :    0.172228
  14 H :    0.170402
  15 H :    0.166620
  16 H :    0.165989
Sum of atomic charges:    0.0000000

LOEWDIN ATOMIC CHARGES
----------------------
   0 C :   -0.393849
   1 C :   -0.233296
   2 C :    0.365282
   3 O :   -0.495022
   4 O :   -0.597658
   5 C :    0.032017
   6 C :   -0.393084
   7 H :    0.160721
   8 H :    0.160499
   9 H :    0.160791
  10 H :    0.180462
  11 H :    0.182459
  12 H :    0.188681
  13 H :    0.190295
  14 H :    0.167767
  15 H :    0.162081
  16 H :    0.161854

  Mayer bond orders larger than 0.100000
B(  0-C ,  1-C ) :   0.8833 B(  0-C ,  7-H ) :   0.9655 B(  0-C ,  8-H ) :   0.9714
B(  0-C ,  9-H ) :   0.9731 B(  1-C ,  2-C ) :   0.9518 B(  1-C , 10-H ) :   0.9671
B(  1-C , 11-H ) :   0.9678 B(  2-C ,  3-O ) :   1.7676 B(  2-C ,  4-O ) :   1.0712
B(  4-O ,  5-C ) :   0.7951 B(  5-C ,  6-C ) :   0.9363 B(  5-C , 12-H ) :   0.9530
B(  5-C , 13-H ) :   0.9620 B(  6-C , 14-H ) :   0.9608 B(  6-C , 15-H ) :   0.9684
B(  6-C , 16-H ) :   0.9703

Dispersion correction           -0.004045262
FINAL SINGLE POINT ENERGY      -346.941229389374

DIPOLE MOMENT
-------------

Method             : SCF
Type of density    : Electron Density
Multiplicity       :   1
Irrep              :   0
Energy             :  -346.9475806417307240 Eh
Relativity type    :
Basis              : AO
                                X                 Y                 Z
Electronic contribution:      0.058140329      -1.088935641       4.347772944
Nuclear contribution   :      0.171034825       2.176897641      -4.698783682
                        -----------------------------------------
Total Dipole Moment    :      0.229175154       1.087962000      -0.351010738
                        -----------------------------------------
Magnitude (a.u.)       :      1.165929288
Magnitude (Debye)      :      2.963556732

Rotational constants in cm-1:             0.154650             0.053299             0.049137
Rotational constants in MHz :          4636.297914          1597.860318          1473.079059

                             ****ORCA TERMINATED NORMALLY****
TOTAL RUN TIME: 0 days 0 hours 0 minutes 25 seconds 150 msec
