                         Program Version 6.0.0  -   RELEASE  -
|  1> ! r2scan-3c def2/J RI DEFGRID2 scfconv6 printgap
|  2> %output
|  3>     printlevel normal
|  4> end
|  5> * xyz 0 1
|  6> C -1.0815379647 -0.6187990592 -0.0220589031
|  7> C 0.017583277 0.2479852113 0.6228137599
|  8> C 1.348428001 -0.515431698 0.6503697542
|  9> O 1.7985262757 -0.8396667092 -0.6412904918
| 10> O 0.2357767148 1.4372833171 -0.1154662301
| 11> O -2.2609695554 0.1118489119 -0.2780746053
| 12> H -1.3546610821 -1.4152090017 0.6724347944
| 13> H -0.6905386255 -1.0691840198 -0.9401738244
| 14> H -0.2693084994 0.4951788354 1.6533101911
| 15> H 1.2227336255 -1.459536249 1.1820238186
| 16> H 2.0944052763 0.0969739098 1.172418538
| 17> H 1.8656935607 -0.0134413842 -1.1438506108
| 18> H -0.5265124103 2.0207137815 -0.0020598982
| 19> H -2.133668343 0.6435056478 -1.0763965882
| 20> *
| 21>
| 22>                          ****END OF INPUT****

CARTESIAN COORDINATES (ANGSTROEM)
---------------------------------
  C     -1.081538   -0.618799   -0.022059
  C      0.017583    0.247985    0.622814
  C      1.348428   -0.515432    0.650370
  O      1.798526   -0.839667   -0.641290
  O      0.235777    1.437283   -0.115466
  O     -2.260970    0.111849   -0.278075
  H     -1.354661   -1.415209    0.672435
  H     -0.690539   -1.069184   -0.940174
  H     -0.269308    0.495179    1.653310
  H      1.222734   -1.459536    1.182024
  H      2.094405    0.096974    1.172419
  H      1.865694   -0.013441   -1.143851
  H     -0.526512    2.020714   -0.002060
  H     -2.133668    0.643506   -1.076397

 Total Charge           Charge          ....    0
 Multiplicity           Mult            ....    1
 Number of Electrons    NEL             ....   50
 Basis Dimension        Dim             ....  169

ORBITAL ENERGIES
----------------

  NO   OCC          E(Eh)            E(eV)
   0   2.0000     -18.965969      -516.0902
   1   2.0000     -18.958337      -515.8826
   2   2.0000     -18.950521      -515.6699
   3   2.0000     -10.087665      -274.4993
   4   2.0000     -10.081156      -274.3222
   5   2.0000     -10.076826      -274.2044
   6   2.0000      -1.013722       -27.5848
   7   2.0000      -0.990762       -26.9600
   8   2.0000      -0.981046       -26.6956
   9   2.0000      -0.730355       -19.8740
  10   2.0000      -0.643879       -17.5209
  11   2.0000      -0.574718       -15.6389
  12   2.0000      -0.500807       -13.6277
  13   2.0000      -0.495369       -13.4797
  14   2.0000      -0.469055       -12.7636
  15   2.0000      -0.419997       -11.4287
  16   2.0000      -0.407003       -11.0751
  17   2.0000      -0.393906       -10.7187
  18   2.0000      -0.380841       -10.3632
  19   2.0000      -0.337635        -9.1875
  20   2.0000      -0.308915        -8.4060
  21   2.0000      -0.291143        -7.9224
  22   2.0000      -0.276403        -7.5213
  23   2.0000      -0.251271        -6.8374
  24   2.0000      -0.226319        -6.1584
  25   0.0000       0.031100         0.8463
  26   0.0000       0.067213         1.8290
  27   0.0000       0.091874         2.5000
  28   0.0000       0.110801         3.0150
  29   0.0000       0.127555         3.4709

MULLIKEN ATOMIC CHARGES
-----------------------
   0 C :   -0.266566
   1 C :    0.136115
   2 C :   -0.186285
   3 O :   -0.438038
   4 O :   -0.460887
   5 O :   -0.430001
   6 H :    0.139178
   7 H :    0.172985
   8 H :    0.134601
   9 H :    0.136072
  10 H :    0.141510
  11 H :    0.316762
  12 H :    0.298612
  13 H :    0.305942
Sum of atomic charges:    0.0000000

LOEWDIN ATOMIC CHARGES
----------------------
   0 C :    0.017690
   1 C :    0.065833
   2 C :    0.028649
   3 O :   -0.602897
   4 O :   -0.601516
   5 O :   -0.603018
   6 H :    0.180190
   7 H :    0.176806
   8 H :    0.171258
   9 H :    0.182272
  10 H :    0.167198
  11 H :    0.275907
  12 H :    0.274649
  13 H :    0.266980

  Mayer bond orders larger than 0.100000
B(  0-C ,  1-C ) :   0.8784 B(  0-C ,  5-O ) :   0.9705 B(  0-C ,  6-H ) :   0.9679
B(  0-C ,  7-H ) :   0.9928 B(  1-C ,  2-C ) :   0.9483 B(  1-C ,  4-O ) :   0.8780
B(  1-C ,  8-H ) :   0.9331 B(  2-C ,  3-O ) :   0.9724 B(  2-C ,  9-H ) :   0.9692
B(  2-C , 10-H ) :   0.9677 B(  3-O , 11-H ) :   0.8770 B(  4-O , 12-H ) :   0.8886
B(  5-O , 13-H ) :   0.8884

Dispersion correction           -0.003048731
FINAL SINGLE POINT ENERGY      -344.725614983908

DIPOLE MOMENT
-------------

Method             : SCF
Type of density    : Electron Density
Multiplicity       :   1
Irrep              :   0
Energy             :  -344.7332396578686939 Eh
Relativity type    :
Basis              : AO
                                X                 Y                 Z
Electronic contribution:     -0.314143126       1.153707822      -1.279063441
Nuclear contribution   :      0.191908391      -0.647121602       1.408503131
                        -----------------------------------------
Total Dipole Moment    :     -0.122234735       0.506586221       0.129439690
                        -----------------------------------------
Magnitude (a.u.)       :      0.536959554
Magnitude (Debye)      :      1.364842720

Rotational constants in cm-1:             0.197224             0.077117             0.067259
Rotational constants in MHz :          5912.639947          2311.904674          2016.371204

                             ****ORCA TERMINATED NORMALLY****
TOTAL RUN TIME: 0 days 0 hours 0 minutes 20 seconds 355 msec
