                         Program Version 6.0.0  -   RELEASE  -
|  1> ! r2scan-3c def2/J RI DEFGRID2 scfconv6 printgap
|  2> %output
|  3>     printlevel normal
|  4> end
|  5> %cpcm
|  6>     smd true
|  7>     smdsolvent "water"
|  8> end
|  9> * xyz 0 1
| 10> C -1.0815379647 -0.6187990592 -0.0220589031
| 11> C 0.017583277 0.2479852113 0.6228137599
| 12> C 1.348428001 -0.515431698 0.6503697542
| 13> O 1.7985262757 -0.8396667092 -0.6412904918
| 14> O 0.2357767148 1.4372833171 -0.1154662301
| 15> O -2.2609695554 0.1118489119 -0.2780746053
| 16> H -1.3546610821 -1.4152090017 0.6724347944
| 17> H -0.6905386255 -1.0691840198 -0.9401738244
| 18> H -0.2693084994 0.4951788354 1.6533101911
| 19> H 1.2227336255 -1.459536249 1.1820238186
| 20> H 2.0944052763 0.0969739098 1.172418538
| 21> H 1.8656935607 -0.0134413842 -1.1438506108
| 22> H -0.5265124103 2.0207137815 -0.0020598982
| 23> H -2.133668343 0.6435056478 -1.0763965882
| 24> *
| 25>
| 26>                          ****END OF INPUT****

CARTESIAN COORDINATES (ANGSTROEM)
---------------------------------
  C     -1.081538   -0.618799   -0.022059
  C      0.017583    0.247985    0.622814
  C      1.348428   -0.515432    0.650370
  O      1.798526   -0.839667   -0.641290
  O      0.235777    1.437283   -0.115466
  O     -2.260970    0.111849   -0.278075
  H     -1.354661   -1.415209    0.672435
  H     -0.690539   -1.069184   -0.940174
  H     -0.269308    0.495179    1.653310
  H      1.222734   -1.459536    1.182024
  H      2.094405    0.096974    1.172419
  H      1.865694   -0.013441   -1.143851
  H     -0.526512    2.020714   -0.002060
  H     -2.133668    0.643506   -1.076397

 Total Charge           Charge          ....    0
 Multiplicity           Mult            ....    1
 Number of Electrons    NEL             ....   50
 Basis Dimension        Dim             ....  169

ORBITAL ENERGIES
----------------

  NO   OCC          E(Eh)            E(eV)
   0   2.0000     -18.956811      -515.8411
   1   2.0000     -18.955026      -515.7925
   2   2.0000     -18.954086      -515.7669
   3   2.0000     -10.077825      -274.2316
   4   2.0000     -10.073081      -274.1025
   5   2.0000     -10.068760      -273.9849
   6   2.0000      -1.007694       -27.4207
   7   2.0000      -0.989859       -26.9354
   8   2.0000      -0.976875       -26.5821
   9   2.0000      -0.721577       -19.6351
  10   2.0000      -0.636959       -17.3325
  11   2.0000      -0.566982       -15.4284
  12   2.0000      -0.490745       -13.3539
  13   2.0000      -0.488650       -13.2969
  14   2.0000      -0.464623       -12.6430
  15   2.0000      -0.415601       -11.3091
  16   2.0000      -0.401161       -10.9161
  17   2.0000      -0.390433       -10.6242
  18   2.0000      -0.374242       -10.1836
  19   2.0000      -0.335348        -9.1253
  20   2.0000      -0.308900        -8.4056
  21   2.0000      -0.287930        -7.8350
  22   2.0000      -0.274427        -7.4675
  23   2.0000      -0.251033        -6.8310
  24   2.0000      -0.224217        -6.1013
  25   0.0000       0.050817         1.3828
  26   0.0000       0.078508         2.1363
  27   0.0000       0.109389         2.9766
  28   0.0000       0.126682         3.4472
  29   0.0000       0.138415         3.7665

MULLIKEN ATOMIC CHARGES
-----------------------
   0 C :   -0.270029
   1 C :    0.137119
   2 C :   -0.195164
   3 O :   -0.509076
   4 O :   -0.515390
   5 O :   -0.500173
   6 H :    0.160264
   7 H :    0.166436
   8 H :    0.155342
   9 H :    0.160107
  10 H :    0.153330
  11 H :    0.355367
  12 H :    0.344710
  13 H :    0.357159
Sum of atomic charges:   -0.0000000

LOEWDIN ATOMIC CHARGES
----------------------
   0 C :    0.016070
   1 C :    0.071233
   2 C :    0.027851
   3 O :   -0.638374
   4 O :   -0.619042
   5 O :   -0.631499
   6 H :    0.187114
   7 H :    0.176617
   8 H :    0.181256
   9 H :    0.191051
  10 H :    0.173091
  11 H :    0.287927
  12 H :    0.290967
  13 H :    0.285739

  Mayer bond orders larger than 0.100000
B(  0-C ,  1-C ) :   0.8990 B(  0-C ,  5-O ) :   0.9618 B(  0-C ,  6-H ) :   0.9636
B(  0-C ,  7-H ) :   0.9848 B(  1-C ,  2-C ) :   0.9545 B(  1-C ,  4-O ) :   0.8715
B(  1-C ,  8-H ) :   0.9260 B(  2-C ,  3-O ) :   0.9506 B(  2-C ,  9-H ) :   0.9635
B(  2-C , 10-H ) :   0.9605 B(  3-O , 11-H ) :   0.8570 B(  4-O , 12-H ) :   0.8679
B(  5-O , 13-H ) :   0.8619

Dispersion correction           -0.003048731
FINAL SINGLE POINT ENERGY      -344.745153634687

DIPOLE MOMENT
-------------

Method             : SCF
Type of density    : Electron Density
Multiplicity       :   1
Irrep              :   0
Energy             :  -344.7527783086480326 Eh
Relativity type    :
Basis              : AO
                                X                 Y                 Z
Electronic contribution:     -0.377100498       1.341879792      -1.189275941
Nuclear contribution   :      0.191908391      -0.647121602       1.408503131
                        -----------------------------------------
Total Dipole Moment    :     -0.185192107       0.694758190       0.219227190
                        -----------------------------------------
Magnitude (a.u.)       :      0.751695165
Magnitude (Debye)      :      1.910657266

Rotational constants in cm-1:             0.197224             0.077117             0.067259
Rotational constants in MHz :          5912.639947          2311.904674          2016.371204

                             ****ORCA TERMINATED NORMALLY****
TOTAL RUN TIME: 0 days 0 hours 0 minutes 23 seconds 759 msec
