                         Program Version 6.0.0  -   RELEASE  -
|  1> ! r2scan-3c def2/J RI DEFGRID2 scfconv6 printgap
|  2> %output
|  3>     printlevel normal
|  4> end
|  5> * xyz 0 1
|  6> C -2.997403377 0.7530003306 0.1903493835
|  7> C -1.802977073 -0.1801019547 0.3685103387
|  8> C -2.0203896667 -1.4960447276 -0.3739586965
|  9> C -0.5342819382 0.5085257349 -0.1296674925
| 10> O 0.5978154933 -0.2992157319 0.2182347966
| 11> C 1.8043365727 0.1840800257 -0.0483014388
| 12> O 1.983271524 1.2601701507 -0.5828477688
| 13> C 2.8905527081 -0.7441121294 0.4044109992
| 14> H -3.1290717617 1.0011188798 -0.8600789802
| 15> H -2.8540289912 1.6755418503 0.7469072869
| 16> H -3.9025224465 0.2703777283 0.5474338544
| 17> H -1.6656373303 -0.3935823227 1.4330033719
| 18> H -2.8874038795 -2.0147804194 0.0254339541
| 19> H -1.1497349949 -2.1370570223 -0.2649671416
| 20> H -2.1850333027 -1.3093141379 -1.4327865753
| 21> H -0.5518836831 0.6368468315 -1.2173928717
| 22> H -0.4088827743 1.497015407 0.3253320216
| 23> H 3.1973714862 -0.4483291503 1.4055518316
| 24> H 3.7458686919 -0.6544502769 -0.2577690641
| 25> H 2.5195743797 -1.7627764955 0.4352802145
| 26> *
| 27>
| 28>                          ****END OF INPUT****

CARTESIAN COORDINATES (ANGSTROEM)
---------------------------------
  C     -2.997403    0.753000    0.190349
  C     -1.802977   -0.180102    0.368510
  C     -2.020390   -1.496045   -0.373959
  C     -0.534282    0.508526   -0.129667
  O      0.597815   -0.299216    0.218235
  C      1.804337    0.184080   -0.048301
  O      1.983272    1.260170   -0.582848
  C      2.890553   -0.744112    0.404411
  H     -3.129072    1.001119   -0.860079
  H     -2.854029    1.675542    0.746907
  H     -3.902522    0.270378    0.547434
  H     -1.665637   -0.393582    1.433003
  H     -2.887404   -2.014780    0.025434
  H     -1.149735   -2.137057   -0.264967
  H     -2.185033   -1.309314   -1.432787
  H     -0.551884    0.636847   -1.217393
  H     -0.408883    1.497015    0.325332
  H      3.197371   -0.448329    1.405552
  H      3.745869   -0.654450   -0.257769
  H      2.519574   -1.762776    0.435280

 Total Charge           Charge          ....    0
 Multiplicity           Mult            ....    1
 Number of Electrons    NEL             ....   64
 Basis Dimension        Dim             ....  222

ORBITAL ENERGIES
----------------

  NO   OCC          E(Eh)            E(eV)
   0   2.0000     -18.997833      -516.9573
   1   2.0000     -18.926873      -515.0264
   2   2.0000     -10.154676      -276.3228
   3   2.0000     -10.086904      -274.4786
   4   2.0000     -10.045521      -273.3525
   5   2.0000     -10.039395      -273.1858
   6   2.0000     -10.026581      -272.8371
   7   2.0000     -10.020762      -272.6788
   8   2.0000      -1.073108       -29.2008
   9   2.0000      -0.974284       -26.5116
  10   2.0000      -0.786387       -21.3987
  11   2.0000      -0.727876       -19.8065
  12   2.0000      -0.662082       -18.0162
  13   2.0000      -0.659037       -17.9333
  14   2.0000      -0.551590       -15.0095
  15   2.0000      -0.534359       -14.5407
  16   2.0000      -0.467889       -12.7319
  17   2.0000      -0.455034       -12.3821
  18   2.0000      -0.442474       -12.0403
  19   2.0000      -0.426516       -11.6061
  20   2.0000      -0.402605       -10.9555
  21   2.0000      -0.398141       -10.8340
  22   2.0000      -0.380136       -10.3440
  23   2.0000      -0.369836       -10.0637
  24   2.0000      -0.359865        -9.7924
  25   2.0000      -0.336956        -9.1690
  26   2.0000      -0.335104        -9.1186
  27   2.0000      -0.316080        -8.6010
  28   2.0000      -0.306670        -8.3449
  29   2.0000      -0.300519        -8.1776
  30   2.0000      -0.271564        -7.3896
  31   2.0000      -0.235004        -6.3948
  32   0.0000      -0.013683        -0.3723
  33   0.0000       0.070803         1.9267
  34   0.0000       0.079701         2.1688
  35   0.0000       0.117772         3.2047
  36   0.0000       0.124784         3.3955

MULLIKEN ATOMIC CHARGES
-----------------------
   0 C :   -0.482195
   1 C :    0.014096
   2 C :   -0.496657
   3 C :   -0.223260
   4 O :   -0.160651
   5 C :    0.408059
   6 O :   -0.421138
   7 C :   -0.526165
   8 H :    0.148232
   9 H :    0.148588
  10 H :    0.152326
  11 H :    0.145497
  12 H :    0.148791
  13 H :    0.161944
  14 H :    0.147193
  15 H :    0.161980
  16 H :    0.156638
  17 H :    0.173974
  18 H :    0.175040
  19 H :    0.167708
Sum of atomic charges:    0.0000000

LOEWDIN ATOMIC CHARGES
----------------------
   0 C :   -0.409427
   1 C :   -0.219550
   2 C :   -0.408569
   3 C :    0.046405
   4 O :   -0.605055
   5 C :    0.352250
   6 O :   -0.427752
   7 C :   -0.336782
   8 H :    0.156242
   9 H :    0.155573
  10 H :    0.157220
  11 H :    0.164566
  12 H :    0.154015
  13 H :    0.163288
  14 H :    0.154917
  15 H :    0.184373
  16 H :    0.186321
  17 H :    0.181260
  18 H :    0.176718
  19 H :    0.173987

  Mayer bond orders larger than 0.100000
B(  0-C ,  1-C ) :   0.9058 B(  0-C ,  8-H ) :   0.9796 B(  0-C ,  9-H ) :   0.9728
B(  0-C , 10-H ) :   0.9718 B(  1-C ,  2-C ) :   0.9170 B(  1-C ,  3-C ) :   0.9223
B(  1-C , 11-H ) :   0.9479 B(  2-C , 12-H ) :   0.9740 B(  2-C , 13-H ) :   0.9702
B(  2-C , 14-H ) :   0.9817 B(  3-C ,  4-O ) :   0.8186 B(  3-C , 15-H ) :   0.9613
B(  3-C , 16-H ) :   0.9546 B(  4-O ,  5-C ) :   1.0588 B(  5-C ,  6-O ) :   1.8192
B(  5-C ,  7-C ) :   0.9422 B(  7-C , 17-H ) :   0.9384 B(  7-C , 18-H ) :   0.9761
B(  7-C , 19-H ) :   0.9801

Dispersion correction           -0.005074483
FINAL SINGLE POINT ENERGY      -386.238421826499

DIPOLE MOMENT
-------------

Method             : SCF
Type of density    : Electron Density
Multiplicity       :   1
Irrep              :   0
Energy             :  -386.2452106549928317 Eh
Relativity type    :
Basis              : AO
                                X                 Y                 Z
Electronic contribution:      8.174661241       2.741304400      -0.422052915
Nuclear contribution   :     -8.659831501      -3.400104492       0.825760277
                        -----------------------------------------
Total Dipole Moment    :     -0.485170259      -0.658800092       0.403707362
                        -----------------------------------------
Magnitude (a.u.)       :      0.912352660
Magnitude (Debye)      :      2.319016166

Rotational constants in cm-1:             0.149292             0.032974             0.028929
Rotational constants in MHz :          4475.675341           988.537841           867.267125

                             ****ORCA TERMINATED NORMALLY****
TOTAL RUN TIME: 0 days 0 hours 0 minutes 33 seconds 117 msec
