                         Program Version 6.0.0  -   RELEASE  -
|  1> ! r2scan-3c def2/J RI DEFGRID2 scfconv6 printgap
|  2> %output
|  3>     printlevel normal
|  4> end
|  5> %cpcm
|  6>     smd true
|  7>     smdsolvent "water"
|  8> end
|  9> * xyz 0 1
| 10> C -2.997403377 0.7530003306 0.1903493835
| 11> C -1.802977073 -0.1801019547 0.3685103387
| 12> C -2.0203896667 -1.4960447276 -0.3739586965
| 13> C -0.5342819382 0.5085257349 -0.1296674925
| 14> O 0.5978154933 -0.2992157319 0.2182347966
| 15> C 1.8043365727 0.1840800257 -0.0483014388
| 16> O 1.983271524 1.2601701507 -0.5828477688
| 17> C 2.8905527081 -0.7441121294 0.4044109992
| 18> H -3.1290717617 1.0011188798 -0.8600789802
| 19> H -2.8540289912 1.6755418503 0.7469072869
| 20> H -3.9025224465 0.2703777283 0.5474338544
| 21> H -1.6656373303 -0.3935823227 1.4330033719
| 22> H -2.8874038795 -2.0147804194 0.0254339541
| 23> H -1.1497349949 -2.1370570223 -0.2649671416
| 24> H -2.1850333027 -1.3093141379 -1.4327865753
| 25> H -0.5518836831 0.6368468315 -1.2173928717
| 26> H -0.4088827743 1.497015407 0.3253320216
| 27> H 3.1973714862 -0.4483291503 1.4055518316
| 28> H 3.7458686919 -0.6544502769 -0.2577690641
| 29> H 2.5195743797 -1.7627764955 0.4352802145
| 30> *
| 31>
| 32>                          ****END OF INPUT****

CARTESIAN COORDINATES (ANGSTROEM)
---------------------------------
  C     -2.997403    0.753000    0.190349
  C     -1.802977   -0.180102    0.368510
  C     -2.020390   -1.496045   -0.373959
  C     -0.534282    0.508526   -0.129667
  O      0.597815   -0.299216    0.218235
  C      1.804337    0.184080   -0.048301
  O      1.983272    1.260170   -0.582848
  C      2.890553   -0.744112    0.404411
  H     -3.129072    1.001119   -0.860079
  H     -2.854029    1.675542    0.746907
  H     -3.902522    0.270378    0.547434
  H     -1.665637   -0.393582    1.433003
  H     -2.887404   -2.014780    0.025434
  H     -1.149735   -2.137057   -0.264967
  H     -2.185033   -1.309314   -1.432787
  H     -0.551884    0.636847   -1.217393
  H     -0.408883    1.497015    0.325332
  H      3.197371   -0.448329    1.405552
  H      3.745869   -0.654450   -0.257769
  H      2.519574   -1.762776    0.435280

 Total Charge           Charge          ....    0
 Multiplicity           Mult            ....    1
 Number of Electrons    NEL             ....   64
 Basis Dimension        Dim             ....  222

ORBITAL ENERGIES
----------------

  NO   OCC          E(Eh)            E(eV)
   0   2.0000     -19.003154      -517.1021
   1   2.0000     -18.943331      -515.4742
   2   2.0000     -10.165322      -276.6125
   3   2.0000     -10.079683      -274.2821
   4   2.0000     -10.034670      -273.0573
   5   2.0000     -10.030478      -272.9432
   6   2.0000     -10.012149      -272.4444
   7   2.0000     -10.009321      -272.3675
   8   2.0000      -1.080285       -29.3960
   9   2.0000      -0.988526       -26.8992
  10   2.0000      -0.777231       -21.1495
  11   2.0000      -0.722654       -19.6644
  12   2.0000      -0.655042       -17.8246
  13   2.0000      -0.647242       -17.6123
  14   2.0000      -0.545233       -14.8366
  15   2.0000      -0.529546       -14.4097
  16   2.0000      -0.465649       -12.6710
  17   2.0000      -0.462463       -12.5843
  18   2.0000      -0.447023       -12.1641
  19   2.0000      -0.419807       -11.4235
  20   2.0000      -0.398316       -10.8387
  21   2.0000      -0.388950       -10.5839
  22   2.0000      -0.373062       -10.1515
  23   2.0000      -0.360264        -9.8033
  24   2.0000      -0.347721        -9.4620
  25   2.0000      -0.337634        -9.1875
  26   2.0000      -0.333707        -9.0806
  27   2.0000      -0.305843        -8.3224
  28   2.0000      -0.298598        -8.1253
  29   2.0000      -0.292495        -7.9592
  30   2.0000      -0.276664        -7.5284
  31   2.0000      -0.252750        -6.8777
  32   0.0000      -0.021486        -0.5847
  33   0.0000       0.075464         2.0535
  34   0.0000       0.091838         2.4990
  35   0.0000       0.123952         3.3729
  36   0.0000       0.134257         3.6533

MULLIKEN ATOMIC CHARGES
-----------------------
   0 C :   -0.530212
   1 C :    0.021899
   2 C :   -0.536206
   3 C :   -0.237879
   4 O :   -0.174375
   5 C :    0.460464
   6 O :   -0.511904
   7 C :   -0.561546
   8 H :    0.162298
   9 H :    0.161241
  10 H :    0.165904
  11 H :    0.157843
  12 H :    0.164008
  13 H :    0.161494
  14 H :    0.163251
  15 H :    0.180048
  16 H :    0.170002
  17 H :    0.205773
  18 H :    0.189245
  19 H :    0.188652
Sum of atomic charges:    0.0000000

LOEWDIN ATOMIC CHARGES
----------------------
   0 C :   -0.415025
   1 C :   -0.214783
   2 C :   -0.415746
   3 C :    0.046327
   4 O :   -0.604479
   5 C :    0.363802
   6 O :   -0.492964
   7 C :   -0.334623
   8 H :    0.159859
   9 H :    0.159033
  10 H :    0.160807
  11 H :    0.167926
  12 H :    0.158293
  13 H :    0.161502
  14 H :    0.159279
  15 H :    0.190150
  16 H :    0.190667
  17 H :    0.193713
  18 H :    0.182593
  19 H :    0.183670

  Mayer bond orders larger than 0.100000
B(  0-C ,  1-C ) :   0.8980 B(  0-C ,  8-H ) :   0.9785 B(  0-C ,  9-H ) :   0.9699
B(  0-C , 10-H ) :   0.9688 B(  1-C ,  2-C ) :   0.9077 B(  1-C ,  3-C ) :   0.9360
B(  1-C , 11-H ) :   0.9514 B(  2-C , 12-H ) :   0.9716 B(  2-C , 13-H ) :   0.9689
B(  2-C , 14-H ) :   0.9794 B(  3-C ,  4-O ) :   0.8036 B(  3-C , 15-H ) :   0.9509
B(  3-C , 16-H ) :   0.9466 B(  4-O ,  5-C ) :   1.0896 B(  5-C ,  6-O ) :   1.7444
B(  5-C ,  7-C ) :   0.9424 B(  7-C , 17-H ) :   0.9255 B(  7-C , 18-H ) :   0.9679
B(  7-C , 19-H ) :   0.9690

Dispersion correction           -0.005074483
FINAL SINGLE POINT ENERGY      -386.243766450826

DIPOLE MOMENT
-------------

Method             : SCF
Type of density    : Electron Density
Multiplicity       :   1
Irrep              :   0
Energy             :  -386.2505552793204515 Eh
Relativity type    :
Basis              : AO
                                X                 Y                 Z
Electronic contribution:      8.026026903       2.493523589      -0.266486663
Nuclear contribution   :     -8.659831501      -3.400104492       0.825760277
                        -----------------------------------------
Total Dipole Moment    :     -0.633804598      -0.906580902       0.559273614
                        -----------------------------------------
Magnitude (a.u.)       :      1.239509651
Magnitude (Debye)      :      3.150583153

Rotational constants in cm-1:             0.149292             0.032974             0.028929
Rotational constants in MHz :          4475.675341           988.537841           867.267125

                             ****ORCA TERMINATED NORMALLY****
TOTAL RUN TIME: 0 days 0 hours 0 minutes 37 seconds 343 msec
