                         Program Version 6.0.0  -   RELEASE  -
|  1> ! r2scan-3c def2/J RI DEFGRID2 scfconv6 printgap
|  2> %output
|  3>     printlevel normal
|  4> end
|  5> * xyz 0 1
|  6> C -2.3486881682 -0.3228262891 0.6781785438
|  7> C -1.7459087145 0.0054336965 -0.6820630415
|  8> C -0.4410613978 0.7999708793 -0.5949422688
|  9> C 0.7896244225 0.0631734099 -0.0305140632
| 10> C 2.0306681802 0.9365222044 -0.272954223
| 11> C 0.9973200867 -1.3050565927 -0.6911477593
| 12> O 0.5890879957 -0.0919787382 1.3715716674
| 13> H -3.2682362737 -0.8916371129 0.5584180866
| 14> H -2.5749258655 0.5920268107 1.2211828462
| 15> H -1.6519999541 -0.9012852103 1.2772620002
| 16> H -1.5834880006 -0.9146190408 -1.244450038
| 17> H -2.4615750615 0.6088868616 -1.2464030219
| 18> H -0.1832484885 1.1473240113 -1.5969321965
| 19> H -0.6080251612 1.6763518269 0.0350991426
| 20> H 2.9130902476 0.4706391129 0.1613761603
| 21> H 1.8932753456 1.912793407 0.1860001739
| 22> H 2.1988780697 1.0680040082 -1.3376682574
| 23> H 1.9632500931 -1.7165397103 -0.4050966393
| 24> H 0.9690054746 -1.2071008848 -1.7723200734
| 25> H 0.2223679327 -1.9982998913 -0.3756671756
| 26> H 1.3772979937 -0.4983474084 1.755706464
| 27> *
| 28>
| 29>                          ****END OF INPUT****

CARTESIAN COORDINATES (ANGSTROEM)
---------------------------------
  C     -2.348688   -0.322826    0.678179
  C     -1.745909    0.005434   -0.682063
  C     -0.441061    0.799971   -0.594942
  C      0.789624    0.063173   -0.030514
  C      2.030668    0.936522   -0.272954
  C      0.997320   -1.305057   -0.691148
  O      0.589088   -0.091979    1.371572
  H     -3.268236   -0.891637    0.558418
  H     -2.574926    0.592027    1.221183
  H     -1.652000   -0.901285    1.277262
  H     -1.583488   -0.914619   -1.244450
  H     -2.461575    0.608887   -1.246403
  H     -0.183248    1.147324   -1.596932
  H     -0.608025    1.676352    0.035099
  H      2.913090    0.470639    0.161376
  H      1.893275    1.912793    0.186000
  H      2.198878    1.068004   -1.337668
  H      1.963250   -1.716540   -0.405097
  H      0.969005   -1.207101   -1.772320
  H      0.222368   -1.998300   -0.375667
  H      1.377298   -0.498347    1.755706

 Total Charge           Charge          ....    0
 Multiplicity           Mult            ....    1
 Number of Electrons    NEL             ....   58
 Basis Dimension        Dim             ....  208

ORBITAL ENERGIES
----------------

  NO   OCC          E(Eh)            E(eV)
   0   2.0000     -18.943038      -515.4663
   1   2.0000     -10.088301      -274.5166
   2   2.0000     -10.020681      -272.6766
   3   2.0000     -10.018836      -272.6264
   4   2.0000     -10.018225      -272.6098
   5   2.0000     -10.017726      -272.5962
   6   2.0000     -10.000836      -272.1366
   7   2.0000      -0.983463       -26.7614
   8   2.0000      -0.767103       -20.8739
   9   2.0000      -0.720855       -19.6155
  10   2.0000      -0.658599       -17.9214
  11   2.0000      -0.642011       -17.4700
  12   2.0000      -0.569106       -15.4861
  13   2.0000      -0.518965       -14.1218
  14   2.0000      -0.458570       -12.4783
  15   2.0000      -0.437614       -11.9081
  16   2.0000      -0.411169       -11.1885
  17   2.0000      -0.391439       -10.6516
  18   2.0000      -0.385160       -10.4807
  19   2.0000      -0.375521       -10.2184
  20   2.0000      -0.365197        -9.9375
  21   2.0000      -0.347586        -9.4583
  22   2.0000      -0.325337        -8.8529
  23   2.0000      -0.322080        -8.7642
  24   2.0000      -0.312466        -8.5026
  25   2.0000      -0.297807        -8.1037
  26   2.0000      -0.289106        -7.8670
  27   2.0000      -0.268688        -7.3114
  28   2.0000      -0.231964        -6.3121
  29   0.0000       0.058804         1.6001
  30   0.0000       0.102601         2.7919
  31   0.0000       0.112749         3.0681
  32   0.0000       0.122329         3.3287
  33   0.0000       0.130187         3.5426

MULLIKEN ATOMIC CHARGES
-----------------------
   0 C :   -0.480415
   1 C :   -0.275376
   2 C :   -0.278005
   3 C :    0.169898
   4 C :   -0.468510
   5 C :   -0.518260
   6 O :   -0.400818
   7 H :    0.138565
   8 H :    0.139479
   9 H :    0.174532
  10 H :    0.143856
  11 H :    0.142287
  12 H :    0.144404
  13 H :    0.158426
  14 H :    0.139689
  15 H :    0.159622
  16 H :    0.151748
  17 H :    0.142394
  18 H :    0.160611
  19 H :    0.171465
  20 H :    0.284406
Sum of atomic charges:    0.0000000

LOEWDIN ATOMIC CHARGES
----------------------
   0 C :   -0.423828
   1 C :   -0.309435
   2 C :   -0.267236
   3 C :    0.057710
   4 C :   -0.389453
   5 C :   -0.392097
   6 O :   -0.608497
   7 H :    0.145085
   8 H :    0.151199
   9 H :    0.166455
  10 H :    0.152901
  11 H :    0.151614
  12 H :    0.163681
  13 H :    0.172330
  14 H :    0.153206
  15 H :    0.164605
  16 H :    0.158956
  17 H :    0.155804
  18 H :    0.162099
  19 H :    0.165174
  20 H :    0.269728

  Mayer bond orders larger than 0.100000
B(  0-C ,  1-C ) :   0.8980 B(  0-C ,  7-H ) :   0.9740 B(  0-C ,  8-H ) :   0.9774
B(  0-C ,  9-H ) :   0.9764 B(  1-C ,  2-C ) :   0.9029 B(  1-C , 10-H ) :   0.9851
B(  1-C , 11-H ) :   0.9692 B(  2-C ,  3-C ) :   0.9157 B(  2-C , 12-H ) :   0.9722
B(  2-C , 13-H ) :   0.9811 B(  3-C ,  4-C ) :   0.9481 B(  3-C ,  5-C ) :   0.9172
B(  3-C ,  6-O ) :   0.8374 B(  4-C , 14-H ) :   0.9690 B(  4-C , 15-H ) :   0.9754
B(  4-C , 16-H ) :   0.9774 B(  5-C , 17-H ) :   0.9591 B(  5-C , 18-H ) :   0.9745
B(  5-C , 19-H ) :   0.9746 B(  6-O , 20-H ) :   0.9025

Dispersion correction           -0.005776253
FINAL SINGLE POINT ENERGY      -312.205237114723

DIPOLE MOMENT
-------------

Method             : SCF
Type of density    : Electron Density
Multiplicity       :   1
Irrep              :   0
Energy             :  -312.2105357684820888 Eh
Relativity type    :
Basis              : AO
                                X                 Y                 Z
Electronic contribution:      1.237490751       0.477643070       2.288045485
Nuclear contribution   :     -0.736472351      -0.612863057      -2.591016039
                        -----------------------------------------
Total Dipole Moment    :      0.501018400      -0.135219987      -0.302970554
                        -----------------------------------------
Magnitude (a.u.)       :      0.600911840
Magnitude (Debye)      :      1.527396512

Rotational constants in cm-1:             0.130449             0.057378             0.055367
Rotational constants in MHz :          3910.749894          1720.147082          1659.875199

                             ****ORCA TERMINATED NORMALLY****
TOTAL RUN TIME: 0 days 0 hours 0 minutes 27 seconds 584 msec
