                         Program Version 6.0.0  -   RELEASE  -
|  1> ! r2scan-3c def2/J RI DEFGRID2 scfconv6 printgap
|  2> %output
|  3>     printlevel normal
|  4> end
|  5> %cpcm
|  6>     smd true
|  7>     smdsolvent "water"
|  8> end
|  9> * xyz 0 1
| 10> C -2.3486881682 -0.3228262891 0.6781785438
| 11> C -1.7459087145 0.0054336965 -0.6820630415
| 12> C -0.4410613978 0.7999708793 -0.5949422688
| 13> C 0.7896244225 0.0631734099 -0.0305140632
| 14> C 2.0306681802 0.9365222044 -0.272954223
| 15> C 0.9973200867 -1.3050565927 -0.6911477593
| 16> O 0.5890879957 -0.0919787382 1.3715716674
| 17> H -3.2682362737 -0.8916371129 0.5584180866
| 18> H -2.5749258655 0.5920268107 1.2211828462
| 19> H -1.6519999541 -0.9012852103 1.2772620002
| 20> H -1.5834880006 -0.9146190408 -1.244450038
| 21> H -2.4615750615 0.6088868616 -1.2464030219
| 22> H -0.1832484885 1.1473240113 -1.5969321965
| 23> H -0.6080251612 1.6763518269 0.0350991426
| 24> H 2.9130902476 0.4706391129 0.1613761603
| 25> H 1.8932753456 1.912793407 0.1860001739
| 26> H 2.1988780697 1.0680040082 -1.3376682574
| 27> H 1.9632500931 -1.7165397103 -0.4050966393
| 28> H 0.9690054746 -1.2071008848 -1.7723200734
| 29> H 0.2223679327 -1.9982998913 -0.3756671756
| 30> H 1.3772979937 -0.4983474084 1.755706464
| 31> *
| 32>
| 33>                          ****END OF INPUT****

CARTESIAN COORDINATES (ANGSTROEM)
---------------------------------
  C     -2.348688   -0.322826    0.678179
  C     -1.745909    0.005434   -0.682063
  C     -0.441061    0.799971   -0.594942
  C      0.789624    0.063173   -0.030514
  C      2.030668    0.936522   -0.272954
  C      0.997320   -1.305057   -0.691148
  O      0.589088   -0.091979    1.371572
  H     -3.268236   -0.891637    0.558418
  H     -2.574926    0.592027    1.221183
  H     -1.652000   -0.901285    1.277262
  H     -1.583488   -0.914619   -1.244450
  H     -2.461575    0.608887   -1.246403
  H     -0.183248    1.147324   -1.596932
  H     -0.608025    1.676352    0.035099
  H      2.913090    0.470639    0.161376
  H      1.893275    1.912793    0.186000
  H      2.198878    1.068004   -1.337668
  H      1.963250   -1.716540   -0.405097
  H      0.969005   -1.207101   -1.772320
  H      0.222368   -1.998300   -0.375667
  H      1.377298   -0.498347    1.755706

 Total Charge           Charge          ....    0
 Multiplicity           Mult            ....    1
 Number of Electrons    NEL             ....   58
 Basis Dimension        Dim             ....  208

ORBITAL ENERGIES
----------------

  NO   OCC          E(Eh)            E(eV)
   0   2.0000     -18.944194      -515.4977
   1   2.0000     -10.082776      -274.3663
   2   2.0000     -10.015410      -272.5332
   3   2.0000     -10.014914      -272.5197
   4   2.0000     -10.007436      -272.3162
   5   2.0000     -10.007160      -272.3087
   6   2.0000     -10.003433      -272.2073
   7   2.0000      -0.983612       -26.7654
   8   2.0000      -0.761980       -20.7345
   9   2.0000      -0.716682       -19.5019
  10   2.0000      -0.649328       -17.6691
  11   2.0000      -0.638460       -17.3734
  12   2.0000      -0.566354       -15.4113
  13   2.0000      -0.515646       -14.0314
  14   2.0000      -0.452826       -12.3220
  15   2.0000      -0.432675       -11.7737
  16   2.0000      -0.406418       -11.0592
  17   2.0000      -0.386625       -10.5206
  18   2.0000      -0.381231       -10.3738
  19   2.0000      -0.369664       -10.0591
  20   2.0000      -0.357201        -9.7199
  21   2.0000      -0.343244        -9.3401
  22   2.0000      -0.319426        -8.6920
  23   2.0000      -0.317583        -8.6419
  24   2.0000      -0.312182        -8.4949
  25   2.0000      -0.294911        -8.0249
  26   2.0000      -0.286525        -7.7967
  27   2.0000      -0.265725        -7.2307
  28   2.0000      -0.233423        -6.3518
  29   0.0000       0.074331         2.0227
  30   0.0000       0.109689         2.9848
  31   0.0000       0.121209         3.2983
  32   0.0000       0.131370         3.5748
  33   0.0000       0.135481         3.6866

MULLIKEN ATOMIC CHARGES
-----------------------
   0 C :   -0.531246
   1 C :   -0.271287
   2 C :   -0.303445
   3 C :    0.211317
   4 C :   -0.521364
   5 C :   -0.557453
   6 O :   -0.484427
   7 H :    0.152230
   8 H :    0.154283
   9 H :    0.167382
  10 H :    0.155917
  11 H :    0.153518
  12 H :    0.163636
  13 H :    0.162602
  14 H :    0.165059
  15 H :    0.161405
  16 H :    0.169819
  17 H :    0.163737
  18 H :    0.177041
  19 H :    0.172178
  20 H :    0.339098
Sum of atomic charges:   -0.0000000

LOEWDIN ATOMIC CHARGES
----------------------
   0 C :   -0.434460
   1 C :   -0.311419
   2 C :   -0.270740
   3 C :    0.060838
   4 C :   -0.395154
   5 C :   -0.395266
   6 O :   -0.641866
   7 H :    0.149210
   8 H :    0.152523
   9 H :    0.160682
  10 H :    0.157065
  11 H :    0.154830
  12 H :    0.170799
  13 H :    0.170816
  14 H :    0.161485
  15 H :    0.163505
  16 H :    0.164950
  17 H :    0.162957
  18 H :    0.167493
  19 H :    0.164779
  20 H :    0.286972

  Mayer bond orders larger than 0.100000
B(  0-C ,  1-C ) :   0.8772 B(  0-C ,  7-H ) :   0.9706 B(  0-C ,  8-H ) :   0.9789
B(  0-C ,  9-H ) :   0.9785 B(  1-C ,  2-C ) :   0.8939 B(  1-C , 10-H ) :   0.9821
B(  1-C , 11-H ) :   0.9697 B(  2-C ,  3-C ) :   0.9143 B(  2-C , 12-H ) :   0.9669
B(  2-C , 13-H ) :   0.9866 B(  3-C ,  4-C ) :   0.9341 B(  3-C ,  5-C ) :   0.9154
B(  3-C ,  6-O ) :   0.8284 B(  4-C , 14-H ) :   0.9693 B(  4-C , 15-H ) :   0.9711
B(  4-C , 16-H ) :   0.9734 B(  5-C , 17-H ) :   0.9598 B(  5-C , 18-H ) :   0.9708
B(  5-C , 19-H ) :   0.9685 B(  6-O , 20-H ) :   0.8775

Dispersion correction           -0.005776253
FINAL SINGLE POINT ENERGY      -312.209993844874

DIPOLE MOMENT
-------------

Method             : SCF
Type of density    : Electron Density
Multiplicity       :   1
Irrep              :   0
Energy             :  -312.2152924986336302 Eh
Relativity type    :
Basis              : AO
                                X                 Y                 Z
Electronic contribution:      1.451255974       0.391181811       2.073496384
Nuclear contribution   :     -0.736472351      -0.612863057      -2.591016039
                        -----------------------------------------
Total Dipole Moment    :      0.714783623      -0.221681246      -0.517519654
                        -----------------------------------------
Magnitude (a.u.)       :      0.909881748
Magnitude (Debye)      :      2.312735608

Rotational constants in cm-1:             0.130449             0.057378             0.055367
Rotational constants in MHz :          3910.749894          1720.147082          1659.875199

                             ****ORCA TERMINATED NORMALLY****
TOTAL RUN TIME: 0 days 0 hours 0 minutes 32 seconds 629 msec
