                         Program Version 6.0.0  -   RELEASE  -
|  1> ! pbe def2-sv(p) def2/J RI DEFGRID1 loosescf d4 GCP(DFT/SV(P)) printgap
|  2> %output
|  3>     printlevel normal
|  4> end
|  5> * xyz 0 1
|  6> C -3.5607262841 1.3039434566 -0.0230496698
|  7> C -2.9295110291 0.080309707 0.6342463155
|  8> C -2.0229530535 -0.7129773546 -0.3201894572
|  9> C -0.5500659367 -0.4277497486 -0.1835371293
| 10> C 0.3669376957 -1.4573348295 -0.3577736886
| 11> C 1.7286545241 -1.2382868497 -0.2593341547
| 12> C 2.2078803954 0.0341536928 0.0234102399
| 13> C 1.3021247389 1.0741146866 0.2011748984
| 14> C -0.055047039 0.8409765857 0.0953433132
| 15> O 3.5387363459 0.3094405382 0.1366031987
| 16> H -2.8039092577 1.9752707611 -0.4203902233
| 17> H -4.2062040341 0.9996269777 -0.8442414829
| 18> H -4.1618568936 1.8531386175 0.69817426
| 19> H -3.7332231936 -0.5709333468 0.9834617964
| 20> H -2.355251051 0.3849280795 1.511226831
| 21> H -2.3239927993 -0.502412478 -1.3507947843
| 22> H -2.1729876994 -1.782149672 -0.1580169582
| 23> H 0.0122311137 -2.4545806784 -0.5754409498
| 24> H 2.4179773636 -2.0589066992 -0.3991093831
| 25> H 1.6822032097 2.0597606224 0.4208238294
| 26> H -0.7310360619 1.6685200519 0.2379220599
| 27> H 4.062579051 -0.4919206784 -0.0113145916
| 28> *
| 29>
| 30>                          ****END OF INPUT****

CARTESIAN COORDINATES (ANGSTROEM)
---------------------------------
  C     -3.560726    1.303943   -0.023050
  C     -2.929511    0.080310    0.634246
  C     -2.022953   -0.712977   -0.320189
  C     -0.550066   -0.427750   -0.183537
  C      0.366938   -1.457335   -0.357774
  C      1.728655   -1.238287   -0.259334
  C      2.207880    0.034154    0.023410
  C      1.302125    1.074115    0.201175
  C     -0.055047    0.840977    0.095343
  O      3.538736    0.309441    0.136603
  H     -2.803909    1.975271   -0.420390
  H     -4.206204    0.999627   -0.844241
  H     -4.161857    1.853139    0.698174
  H     -3.733223   -0.570933    0.983462
  H     -2.355251    0.384928    1.511227
  H     -2.323993   -0.502412   -1.350795
  H     -2.172988   -1.782150   -0.158017
  H      0.012231   -2.454581   -0.575441
  H      2.417977   -2.058907   -0.399109
  H      1.682203    2.059761    0.420824
  H     -0.731036    1.668520    0.237922
  H      4.062579   -0.491921   -0.011315

 Total Charge           Charge          ....    0
 Multiplicity           Mult            ....    1
 Number of Electrons    NEL             ....   74
 Basis Dimension        Dim             ....  164

ORBITAL ENERGIES
----------------

  NO   OCC          E(Eh)            E(eV)
   0   2.0000     -18.776750      -510.9413
   1   2.0000      -9.946570      -270.6599
   2   2.0000      -9.891069      -269.1497
   3   2.0000      -9.887892      -269.0632
   4   2.0000      -9.887594      -269.0551
   5   2.0000      -9.887152      -269.0431
   6   2.0000      -9.885407      -268.9956
   7   2.0000      -9.883851      -268.9533
   8   2.0000      -9.882497      -268.9164
   9   2.0000      -9.874386      -268.6957
  10   2.0000      -0.957825       -26.0637
  11   2.0000      -0.772451       -21.0195
  12   2.0000      -0.714530       -19.4434
  13   2.0000      -0.670268       -18.2389
  14   2.0000      -0.662365       -18.0239
  15   2.0000      -0.605871       -16.4866
  16   2.0000      -0.558976       -15.2105
  17   2.0000      -0.534983       -14.5576
  18   2.0000      -0.514353       -13.9963
  19   2.0000      -0.492745       -13.4083
  20   2.0000      -0.431701       -11.7472
  21   2.0000      -0.423523       -11.5246
  22   2.0000      -0.399445       -10.8695
  23   2.0000      -0.385947       -10.5022
  24   2.0000      -0.374448       -10.1893
  25   2.0000      -0.367994       -10.0136
  26   2.0000      -0.366251        -9.9662
  27   2.0000      -0.354531        -9.6473
  28   2.0000      -0.330128        -8.9832
  29   2.0000      -0.326722        -8.8906
  30   2.0000      -0.305562        -8.3148
  31   2.0000      -0.293703        -7.9921
  32   2.0000      -0.285272        -7.7626
  33   2.0000      -0.282004        -7.6737
  34   2.0000      -0.276318        -7.5190
  35   2.0000      -0.225716        -6.1421
  36   2.0000      -0.186398        -5.0721
  37   0.0000      -0.031914        -0.8684
  38   0.0000      -0.013966        -0.3800
  39   0.0000       0.025410         0.6914
  40   0.0000       0.041252         1.1225
  41   0.0000       0.061047         1.6612

MULLIKEN ATOMIC CHARGES
-----------------------
   0 C :   -0.299172
   1 C :   -0.186187
   2 C :   -0.095324
   3 C :    0.071351
   4 C :   -0.132070
   5 C :   -0.158382
   6 C :    0.251223
   7 C :   -0.120580
   8 C :   -0.130037
   9 O :   -0.339966
  10 H :    0.112001
  11 H :    0.101069
  12 H :    0.103326
  13 H :    0.085339
  14 H :    0.100019
  15 H :    0.098438
  16 H :    0.077694
  17 H :    0.035420
  18 H :    0.023845
  19 H :    0.041511
  20 H :    0.045161
  21 H :    0.315321
Sum of atomic charges:    0.0000000

LOEWDIN ATOMIC CHARGES
----------------------
   0 C :   -0.342724
   1 C :   -0.234307
   2 C :   -0.211073
   3 C :   -0.059821
   4 C :   -0.117295
   5 C :   -0.175581
   6 C :    0.018921
   7 C :   -0.146088
   8 C :   -0.117280
   9 O :   -0.240554
  10 H :    0.114875
  11 H :    0.117378
  12 H :    0.119190
  13 H :    0.118072
  14 H :    0.118398
  15 H :    0.127760
  16 H :    0.121028
  17 H :    0.120525
  18 H :    0.118761
  19 H :    0.129401
  20 H :    0.123625
  21 H :    0.296791

  Mayer bond orders larger than 0.100000
B(  0-C ,  1-C ) :   1.1507 B(  0-C , 10-H ) :   0.9503 B(  0-C , 11-H ) :   0.9513
B(  0-C , 12-H ) :   0.9504 B(  1-C ,  2-C ) :   1.0918 B(  1-C , 13-H ) :   0.9285
B(  1-C , 14-H ) :   0.9330 B(  2-C ,  3-C ) :   1.0745 B(  2-C , 15-H ) :   0.9014
B(  2-C , 16-H ) :   0.9089 B(  3-C ,  4-C ) :   1.3906 B(  3-C ,  8-C ) :   1.3686
B(  4-C ,  5-C ) :   1.3573 B(  4-C , 17-H ) :   0.9565 B(  5-C ,  6-C ) :   1.3107
B(  5-C , 18-H ) :   0.9574 B(  6-C ,  7-C ) :   1.3588 B(  6-C ,  9-O ) :   1.1802
B(  7-C ,  8-C ) :   1.3689 B(  7-C , 19-H ) :   0.9641 B(  8-C , 20-H ) :   0.9515
B(  9-O , 21-H ) :   0.8435

Dispersion correction           -0.021886535
FINAL SINGLE POINT ENERGY      -424.443440835061

DIPOLE MOMENT
-------------

Method             : SCF
Type of density    : Electron Density
Multiplicity       :   1
Irrep              :   0
Energy             :  -424.5130379655788033 Eh
Relativity type    :
Basis              : AO
                                X                 Y                 Z
Electronic contribution:     13.445160861      -1.528147342      -0.189635415
Nuclear contribution   :    -13.375989165       1.018128682       0.088618086
                        -----------------------------------------
Total Dipole Moment    :      0.069171696      -0.510018661      -0.101017329
                        -----------------------------------------
Magnitude (a.u.)       :      0.524507634
Magnitude (Debye)      :      1.333192456

Rotational constants in cm-1:             0.121352             0.022743             0.019717
Rotational constants in MHz :          3638.056242           681.829515           591.091756

                             ****ORCA TERMINATED NORMALLY****
TOTAL RUN TIME: 0 days 0 hours 0 minutes 11 seconds 66 msec
