                         Program Version 6.0.0  -   RELEASE  -
|  1> ! r2scan-3c def2/J RI DEFGRID2 scfconv6 printgap
|  2> %output
|  3>     printlevel normal
|  4> end
|  5> * xyz 0 1
|  6> C 2.0364116961 1.4004574884 -0.5632119984
|  7> C 1.6190311363 0.2458115739 0.3413204138
|  8> C 0.4115435419 -0.5549168936 -0.1687637379
|  9> H 0.6635905601 -0.9193826206 -1.1729371871
| 10> C 0.2098791274 -1.773442429 0.7329384386
| 11> C -0.8632692773 0.3008051414 -0.3202920882
| 12> C -1.9618549092 -0.4630810695 -1.0619307821
| 13> C -1.4099733217 0.8280070417 1.0049712501
| 14> H 1.2974263203 2.1972675861 -0.5566638918
| 15> H 2.9812234237 1.8171838437 -0.2217417384
| 16> H 2.1642576496 1.0555382438 -1.5870656415
| 17> H 1.4119239883 0.6256047662 1.3432827104
| 18> H 2.4609439049 -0.4457876254 0.4276778824
| 19> H 1.1019445127 -2.3960535529 0.7171798076
| 20> H 0.0314006697 -1.4683387017 1.7606935094
| 21> H -0.6270229425 -2.3780278518 0.3962941642
| 22> H -0.5968186769 1.1617700972 -0.9422254859
| 23> H -2.3596888089 -1.2692885683 -0.4509994729
| 24> H -1.5798311035 -0.8861951771 -1.9883429274
| 25> H -2.7824717182 0.208070227 -1.3057003137
| 26> H -2.261171097 1.4790681214 0.8172118326
| 27> H -0.6591401601 1.4021715009 1.5407755249
| 28> H -1.744309721 0.0113493206 1.6392758852
| 29> *
| 30>
| 31>                          ****END OF INPUT****

CARTESIAN COORDINATES (ANGSTROEM)
---------------------------------
  C      2.036412    1.400457   -0.563212
  C      1.619031    0.245812    0.341320
  C      0.411544   -0.554917   -0.168764
  H      0.663591   -0.919383   -1.172937
  C      0.209879   -1.773442    0.732938
  C     -0.863269    0.300805   -0.320292
  C     -1.961855   -0.463081   -1.061931
  C     -1.409973    0.828007    1.004971
  H      1.297426    2.197268   -0.556664
  H      2.981223    1.817184   -0.221742
  H      2.164258    1.055538   -1.587066
  H      1.411924    0.625605    1.343283
  H      2.460944   -0.445788    0.427678
  H      1.101945   -2.396054    0.717180
  H      0.031401   -1.468339    1.760694
  H     -0.627023   -2.378028    0.396294
  H     -0.596819    1.161770   -0.942225
  H     -2.359689   -1.269289   -0.450999
  H     -1.579831   -0.886195   -1.988343
  H     -2.782472    0.208070   -1.305700
  H     -2.261171    1.479068    0.817212
  H     -0.659140    1.402172    1.540776
  H     -1.744310    0.011349    1.639276

 Total Charge           Charge          ....    0
 Multiplicity           Mult            ....    1
 Number of Electrons    NEL             ....   58
 Basis Dimension        Dim             ....  213

ORBITAL ENERGIES
----------------

  NO   OCC          E(Eh)            E(eV)
   0   2.0000     -10.028142      -272.8796
   1   2.0000     -10.026971      -272.8478
   2   2.0000     -10.019865      -272.6544
   3   2.0000     -10.013703      -272.4867
   4   2.0000     -10.012227      -272.4465
   5   2.0000     -10.011755      -272.4337
   6   2.0000     -10.011103      -272.4160
   7   2.0000      -0.788349       -21.4521
   8   2.0000      -0.726981       -19.7822
   9   2.0000      -0.685117       -18.6430
  10   2.0000      -0.646912       -17.6034
  11   2.0000      -0.600734       -16.3468
  12   2.0000      -0.565626       -15.3915
  13   2.0000      -0.497102       -13.5268
  14   2.0000      -0.443529       -12.0690
  15   2.0000      -0.424008       -11.5378
  16   2.0000      -0.403691       -10.9850
  17   2.0000      -0.387368       -10.5408
  18   2.0000      -0.382025       -10.3954
  19   2.0000      -0.365158        -9.9364
  20   2.0000      -0.352311        -9.5869
  21   2.0000      -0.343617        -9.3503
  22   2.0000      -0.332793        -9.0558
  23   2.0000      -0.316112        -8.6018
  24   2.0000      -0.310246        -8.4422
  25   2.0000      -0.307368        -8.3639
  26   2.0000      -0.279979        -7.6186
  27   2.0000      -0.273576        -7.4444
  28   2.0000      -0.269555        -7.3350
  29   0.0000       0.079840         2.1726
  30   0.0000       0.102574         2.7912
  31   0.0000       0.113138         3.0786
  32   0.0000       0.116337         3.1657
  33   0.0000       0.130821         3.5598

MULLIKEN ATOMIC CHARGES
-----------------------
   0 C :   -0.506092
   1 C :   -0.260663
   2 C :   -0.052922
   3 H :    0.155005
   4 C :   -0.526274
   5 C :   -0.025531
   6 C :   -0.517257
   7 C :   -0.522216
   8 H :    0.150875
   9 H :    0.147826
  10 H :    0.148729
  11 H :    0.148558
  12 H :    0.141354
  13 H :    0.145361
  14 H :    0.158794
  15 H :    0.154248
  16 H :    0.155407
  17 H :    0.154187
  18 H :    0.146774
  19 H :    0.148118
  20 H :    0.146411
  21 H :    0.151448
  22 H :    0.157859
Sum of atomic charges:   -0.0000000

LOEWDIN ATOMIC CHARGES
----------------------
   0 C :   -0.426178
   1 C :   -0.309842
   2 C :   -0.236353
   3 H :    0.158510
   4 C :   -0.414730
   5 C :   -0.241493
   6 C :   -0.415718
   7 C :   -0.415196
   8 H :    0.148299
   9 H :    0.150927
  10 H :    0.151275
  11 H :    0.153737
  12 H :    0.154720
  13 H :    0.154007
  14 H :    0.154670
  15 H :    0.153974
  16 H :    0.158773
  17 H :    0.151805
  18 H :    0.153584
  19 H :    0.152775
  20 H :    0.154389
  21 H :    0.153367
  22 H :    0.154697

  Mayer bond orders larger than 0.100000
B(  0-C ,  1-C ) :   0.8775 B(  0-C ,  8-H ) :   0.9824 B(  0-C ,  9-H ) :   0.9731
B(  0-C , 10-H ) :   0.9854 B(  1-C ,  2-C ) :   0.9106 B(  1-C , 11-H ) :   0.9866
B(  1-C , 12-H ) :   0.9731 B(  2-C ,  3-H ) :   0.9859 B(  2-C ,  4-C ) :   0.8835
B(  2-C ,  5-C ) :   0.8530 B(  4-C , 13-H ) :   0.9718 B(  4-C , 14-H ) :   0.9846
B(  4-C , 15-H ) :   0.9794 B(  5-C ,  6-C ) :   0.9079 B(  5-C ,  7-C ) :   0.8804
B(  5-C , 16-H ) :   0.9711 B(  6-C , 17-H ) :   0.9900 B(  6-C , 18-H ) :   0.9778
B(  6-C , 19-H ) :   0.9746 B(  7-C , 20-H ) :   0.9702 B(  7-C , 21-H ) :   0.9772
B(  7-C , 22-H ) :   0.9816

Dispersion correction           -0.006601290
FINAL SINGLE POINT ENERGY      -276.286802606067

DIPOLE MOMENT
-------------

Method             : SCF
Type of density    : Electron Density
Multiplicity       :   1
Irrep              :   0
Energy             :  -276.2914467296028533 Eh
Relativity type    :
Basis              : AO
                                X                 Y                 Z
Electronic contribution:      0.504563548      -0.161687527      -0.423945840
Nuclear contribution   :     -0.466963474       0.182894205       0.390945622
                        -----------------------------------------
Total Dipole Moment    :      0.037600074       0.021206678      -0.033000218
                        -----------------------------------------
Magnitude (a.u.)       :      0.054336941
Magnitude (Debye)      :      0.138113527

Rotational constants in cm-1:             0.104074             0.059927             0.051568
Rotational constants in MHz :          3120.057795          1796.570304          1545.973337

                             ****ORCA TERMINATED NORMALLY****
TOTAL RUN TIME: 0 days 0 hours 0 minutes 23 seconds 819 msec
