                         Program Version 6.0.0  -   RELEASE  -
|  1> ! r2scan-3c def2/J RI DEFGRID2 scfconv6 printgap
|  2> %output
|  3>     printlevel normal
|  4> end
|  5> %cpcm
|  6>     smd true
|  7>     smdsolvent "water"
|  8> end
|  9> * xyz 0 1
| 10> C 2.0364116961 1.4004574884 -0.5632119984
| 11> C 1.6190311363 0.2458115739 0.3413204138
| 12> C 0.4115435419 -0.5549168936 -0.1687637379
| 13> H 0.6635905601 -0.9193826206 -1.1729371871
| 14> C 0.2098791274 -1.773442429 0.7329384386
| 15> C -0.8632692773 0.3008051414 -0.3202920882
| 16> C -1.9618549092 -0.4630810695 -1.0619307821
| 17> C -1.4099733217 0.8280070417 1.0049712501
| 18> H 1.2974263203 2.1972675861 -0.5566638918
| 19> H 2.9812234237 1.8171838437 -0.2217417384
| 20> H 2.1642576496 1.0555382438 -1.5870656415
| 21> H 1.4119239883 0.6256047662 1.3432827104
| 22> H 2.4609439049 -0.4457876254 0.4276778824
| 23> H 1.1019445127 -2.3960535529 0.7171798076
| 24> H 0.0314006697 -1.4683387017 1.7606935094
| 25> H -0.6270229425 -2.3780278518 0.3962941642
| 26> H -0.5968186769 1.1617700972 -0.9422254859
| 27> H -2.3596888089 -1.2692885683 -0.4509994729
| 28> H -1.5798311035 -0.8861951771 -1.9883429274
| 29> H -2.7824717182 0.208070227 -1.3057003137
| 30> H -2.261171097 1.4790681214 0.8172118326
| 31> H -0.6591401601 1.4021715009 1.5407755249
| 32> H -1.744309721 0.0113493206 1.6392758852
| 33> *
| 34>
| 35>                          ****END OF INPUT****

CARTESIAN COORDINATES (ANGSTROEM)
---------------------------------
  C      2.036412    1.400457   -0.563212
  C      1.619031    0.245812    0.341320
  C      0.411544   -0.554917   -0.168764
  H      0.663591   -0.919383   -1.172937
  C      0.209879   -1.773442    0.732938
  C     -0.863269    0.300805   -0.320292
  C     -1.961855   -0.463081   -1.061931
  C     -1.409973    0.828007    1.004971
  H      1.297426    2.197268   -0.556664
  H      2.981223    1.817184   -0.221742
  H      2.164258    1.055538   -1.587066
  H      1.411924    0.625605    1.343283
  H      2.460944   -0.445788    0.427678
  H      1.101945   -2.396054    0.717180
  H      0.031401   -1.468339    1.760694
  H     -0.627023   -2.378028    0.396294
  H     -0.596819    1.161770   -0.942225
  H     -2.359689   -1.269289   -0.450999
  H     -1.579831   -0.886195   -1.988343
  H     -2.782472    0.208070   -1.305700
  H     -2.261171    1.479068    0.817212
  H     -0.659140    1.402172    1.540776
  H     -1.744310    0.011349    1.639276

 Total Charge           Charge          ....    0
 Multiplicity           Mult            ....    1
 Number of Electrons    NEL             ....   58
 Basis Dimension        Dim             ....  213

ORBITAL ENERGIES
----------------

  NO   OCC          E(Eh)            E(eV)
   0   2.0000     -10.020382      -272.6684
   1   2.0000     -10.019048      -272.6322
   2   2.0000     -10.011851      -272.4363
   3   2.0000     -10.006005      -272.2773
   4   2.0000     -10.004163      -272.2271
   5   2.0000     -10.004039      -272.2237
   6   2.0000     -10.003481      -272.2085
   7   2.0000      -0.780557       -21.2400
   8   2.0000      -0.719460       -19.5775
   9   2.0000      -0.677883       -18.4461
  10   2.0000      -0.639685       -17.4067
  11   2.0000      -0.593566       -16.1518
  12   2.0000      -0.558208       -15.1896
  13   2.0000      -0.489536       -13.3209
  14   2.0000      -0.435603       -11.8534
  15   2.0000      -0.416319       -11.3286
  16   2.0000      -0.396229       -10.7820
  17   2.0000      -0.379953       -10.3391
  18   2.0000      -0.374506       -10.1908
  19   2.0000      -0.357588        -9.7305
  20   2.0000      -0.344774        -9.3818
  21   2.0000      -0.336070        -9.1449
  22   2.0000      -0.325415        -8.8550
  23   2.0000      -0.308293        -8.3891
  24   2.0000      -0.302461        -8.2304
  25   2.0000      -0.299811        -8.1583
  26   2.0000      -0.272083        -7.4038
  27   2.0000      -0.265960        -7.2371
  28   2.0000      -0.261701        -7.1212
  29   0.0000       0.088476         2.4076
  30   0.0000       0.109867         2.9896
  31   0.0000       0.120886         3.2895
  32   0.0000       0.123712         3.3664
  33   0.0000       0.137789         3.7494

MULLIKEN ATOMIC CHARGES
-----------------------
   0 C :   -0.545573
   1 C :   -0.274887
   2 C :   -0.045263
   3 H :    0.162153
   4 C :   -0.566283
   5 C :   -0.011171
   6 C :   -0.560292
   7 C :   -0.563110
   8 H :    0.161874
   9 H :    0.157028
  10 H :    0.158518
  11 H :    0.158190
  12 H :    0.150063
  13 H :    0.156529
  14 H :    0.167773
  15 H :    0.164165
  16 H :    0.161999
  17 H :    0.166216
  18 H :    0.156729
  19 H :    0.158637
  20 H :    0.156834
  21 H :    0.162669
  22 H :    0.167201
Sum of atomic charges:   -0.0000000

LOEWDIN ATOMIC CHARGES
----------------------
   0 C :   -0.434463
   1 C :   -0.312630
   2 C :   -0.235463
   3 H :    0.160540
   4 C :   -0.423146
   5 C :   -0.239812
   6 C :   -0.424702
   7 C :   -0.423365
   8 H :    0.151080
   9 H :    0.152612
  10 H :    0.153412
  11 H :    0.156112
  12 H :    0.156286
  13 H :    0.155857
  14 H :    0.156641
  15 H :    0.156296
  16 H :    0.160676
  17 H :    0.154653
  18 H :    0.155577
  19 H :    0.154661
  20 H :    0.156193
  21 H :    0.156283
  22 H :    0.156702

  Mayer bond orders larger than 0.100000
B(  0-C ,  1-C ) :   0.8715 B(  0-C ,  8-H ) :   0.9795 B(  0-C ,  9-H ) :   0.9713
B(  0-C , 10-H ) :   0.9829 B(  1-C ,  2-C ) :   0.9073 B(  1-C , 11-H ) :   0.9849
B(  1-C , 12-H ) :   0.9740 B(  2-C ,  3-H ) :   0.9852 B(  2-C ,  4-C ) :   0.8786
B(  2-C ,  5-C ) :   0.8537 B(  4-C , 13-H ) :   0.9709 B(  4-C , 14-H ) :   0.9821
B(  4-C , 15-H ) :   0.9759 B(  5-C ,  6-C ) :   0.8978 B(  5-C ,  7-C ) :   0.8748
B(  5-C , 16-H ) :   0.9720 B(  6-C , 17-H ) :   0.9869 B(  6-C , 18-H ) :   0.9760
B(  6-C , 19-H ) :   0.9730 B(  7-C , 20-H ) :   0.9692 B(  7-C , 21-H ) :   0.9741
B(  7-C , 22-H ) :   0.9792

Dispersion correction           -0.006601290
FINAL SINGLE POINT ENERGY      -276.282980805432

DIPOLE MOMENT
-------------

Method             : SCF
Type of density    : Electron Density
Multiplicity       :   1
Irrep              :   0
Energy             :  -276.2876249289672614 Eh
Relativity type    :
Basis              : AO
                                X                 Y                 Z
Electronic contribution:      0.511373188      -0.154040834      -0.429648858
Nuclear contribution   :     -0.466963474       0.182894205       0.390945622
                        -----------------------------------------
Total Dipole Moment    :      0.044409714       0.028853372      -0.038703236
                        -----------------------------------------
Magnitude (a.u.)       :      0.065594818
Magnitude (Debye)      :      0.166728778

Rotational constants in cm-1:             0.104074             0.059927             0.051568
Rotational constants in MHz :          3120.057795          1796.570304          1545.973337

                             ****ORCA TERMINATED NORMALLY****
TOTAL RUN TIME: 0 days 0 hours 0 minutes 28 seconds 755 msec
