                         Program Version 6.0.0  -   RELEASE  -
|  1> ! r2scan-3c def2/J RI DEFGRID2 scfconv6 printgap
|  2> %output
|  3>     printlevel normal
|  4> end
|  5> * xyz 0 1
|  6> C -2.1781479604 1.0669130821 0.5690420244
|  7> C -2.0882527364 -0.2933006574 -0.1121342489
|  8> C -0.8217072046 -0.4139389408 -0.9652333156
|  9> C 0.4130074978 -0.4082190628 -0.1018889909
| 10> O 0.5954447374 -1.12660105 0.8587035634
| 11> O 1.3014959445 0.4827138758 -0.5282411026
| 12> C 2.5418684169 0.6007863145 0.174359068
| 13> H -2.1642968384 1.865875859 -0.168444085
| 14> H -3.0966511395 1.1423435364 1.1447610641
| 15> H -1.3378886896 1.2081364091 1.246359691
| 16> H -2.9586440094 -0.4416636173 -0.7515785922
| 17> H -2.0764927442 -1.0815735622 0.6428808326
| 18> H -0.7495930149 0.4039084106 -1.6811628678
| 19> H -0.8365048594 -1.3633536348 -1.5035201035
| 20> H 3.2745145106 0.930388688 -0.5565548723
| 21> H 2.8189242767 -0.3620578334 0.6052434608
| 22> H 2.436024952 1.3380840261 0.9702830308
| 23> *
| 24>
| 25>                          ****END OF INPUT****

CARTESIAN COORDINATES (ANGSTROEM)
---------------------------------
  C     -2.178148    1.066913    0.569042
  C     -2.088253   -0.293301   -0.112134
  C     -0.821707   -0.413939   -0.965233
  C      0.413007   -0.408219   -0.101889
  O      0.595445   -1.126601    0.858704
  O      1.301496    0.482714   -0.528241
  C      2.541868    0.600786    0.174359
  H     -2.164297    1.865876   -0.168444
  H     -3.096651    1.142344    1.144761
  H     -1.337889    1.208136    1.246360
  H     -2.958644   -0.441664   -0.751579
  H     -2.076493   -1.081574    0.642881
  H     -0.749593    0.403908   -1.681163
  H     -0.836505   -1.363354   -1.503520
  H      3.274515    0.930389   -0.556555
  H      2.818924   -0.362058    0.605243
  H      2.436025    1.338084    0.970283

 Total Charge           Charge          ....    0
 Multiplicity           Mult            ....    1
 Number of Electrons    NEL             ....   56
 Basis Dimension        Dim             ....  193

ORBITAL ENERGIES
----------------

  NO   OCC          E(Eh)            E(eV)
   0   2.0000     -19.000581      -517.0321
   1   2.0000     -18.929110      -515.0873
   2   2.0000     -10.152931      -276.2753
   3   2.0000     -10.086370      -274.4641
   4   2.0000     -10.041803      -273.2514
   5   2.0000     -10.034210      -273.0447
   6   2.0000     -10.019734      -272.6508
   7   2.0000      -1.073487       -29.2111
   8   2.0000      -0.976924       -26.5834
   9   2.0000      -0.771794       -21.0016
  10   2.0000      -0.711831       -19.3699
  11   2.0000      -0.660691       -17.9783
  12   2.0000      -0.574366       -15.6293
  13   2.0000      -0.526977       -14.3398
  14   2.0000      -0.473046       -12.8722
  15   2.0000      -0.458306       -12.4711
  16   2.0000      -0.444408       -12.0930
  17   2.0000      -0.420460       -11.4413
  18   2.0000      -0.412791       -11.2326
  19   2.0000      -0.376609       -10.2481
  20   2.0000      -0.372142       -10.1265
  21   2.0000      -0.358254        -9.7486
  22   2.0000      -0.326749        -8.8913
  23   2.0000      -0.311451        -8.4750
  24   2.0000      -0.310150        -8.4396
  25   2.0000      -0.308892        -8.4054
  26   2.0000      -0.274314        -7.4645
  27   2.0000      -0.238214        -6.4821
  28   0.0000      -0.016501        -0.4490
  29   0.0000       0.066535         1.8105
  30   0.0000       0.090624         2.4660
  31   0.0000       0.112418         3.0591
  32   0.0000       0.126516         3.4427

MULLIKEN ATOMIC CHARGES
-----------------------
   0 C :   -0.493674
   1 C :   -0.213977
   2 C :   -0.295970
   3 C :    0.349942
   4 O :   -0.426232
   5 O :   -0.186276
   6 C :   -0.298825
   7 H :    0.146038
   8 H :    0.148672
   9 H :    0.156027
  10 H :    0.143767
  11 H :    0.160902
  12 H :    0.163464
  13 H :    0.166345
  14 H :    0.149262
  15 H :    0.178438
  16 H :    0.152096
Sum of atomic charges:   -0.0000000

LOEWDIN ATOMIC CHARGES
----------------------
   0 C :   -0.416721
   1 C :   -0.293846
   2 C :   -0.232002
   3 C :    0.352040
   4 O :   -0.435587
   5 O :   -0.602985
   6 C :   -0.046243
   7 H :    0.150427
   8 H :    0.153025
   9 H :    0.155855
  10 H :    0.152916
  11 H :    0.167796
  12 H :    0.177499
  13 H :    0.182301
  14 H :    0.175492
  15 H :    0.187221
  16 H :    0.172813

  Mayer bond orders larger than 0.100000
B(  0-C ,  1-C ) :   0.9057 B(  0-C ,  7-H ) :   0.9822 B(  0-C ,  8-H ) :   0.9685
B(  0-C ,  9-H ) :   0.9731 B(  1-C ,  2-C ) :   0.8922 B(  1-C , 10-H ) :   0.9652
B(  1-C , 11-H ) :   0.9655 B(  2-C ,  3-C ) :   0.9500 B(  2-C , 12-H ) :   1.0004
B(  2-C , 13-H ) :   0.9321 B(  3-C ,  4-O ) :   1.8309 B(  3-C ,  5-O ) :   1.0550
B(  5-O ,  6-C ) :   0.8467 B(  6-C , 14-H ) :   0.9694 B(  6-C , 15-H ) :   0.9657
B(  6-C , 16-H ) :   0.9602

Dispersion correction           -0.004112297
FINAL SINGLE POINT ENERGY      -346.931471191704

DIPOLE MOMENT
-------------

Method             : SCF
Type of density    : Electron Density
Multiplicity       :   1
Irrep              :   0
Energy             :  -346.9381004500526160 Eh
Relativity type    :
Basis              : AO
                                X                 Y                 Z
Electronic contribution:      4.460585734      -2.877452760      -0.445809123
Nuclear contribution   :     -4.372449824       3.405465064      -0.043634192
                        -----------------------------------------
Total Dipole Moment    :      0.088135910       0.528012304      -0.489443315
                        -----------------------------------------
Magnitude (a.u.)       :      0.725341086
Magnitude (Debye)      :      1.843670521

Rotational constants in cm-1:             0.164795             0.051413             0.048853
Rotational constants in MHz :          4940.430062          1541.322099          1464.565651

                             ****ORCA TERMINATED NORMALLY****
TOTAL RUN TIME: 0 days 0 hours 0 minutes 25 seconds 494 msec
