                         Program Version 6.0.0  -   RELEASE  -
|  1> ! r2scan-3c def2/J RI DEFGRID2 scfconv6 printgap
|  2> %output
|  3>     printlevel normal
|  4> end
|  5> %cpcm
|  6>     smd true
|  7>     smdsolvent "water"
|  8> end
|  9> * xyz 0 1
| 10> C -2.1781479604 1.0669130821 0.5690420244
| 11> C -2.0882527364 -0.2933006574 -0.1121342489
| 12> C -0.8217072046 -0.4139389408 -0.9652333156
| 13> C 0.4130074978 -0.4082190628 -0.1018889909
| 14> O 0.5954447374 -1.12660105 0.8587035634
| 15> O 1.3014959445 0.4827138758 -0.5282411026
| 16> C 2.5418684169 0.6007863145 0.174359068
| 17> H -2.1642968384 1.865875859 -0.168444085
| 18> H -3.0966511395 1.1423435364 1.1447610641
| 19> H -1.3378886896 1.2081364091 1.246359691
| 20> H -2.9586440094 -0.4416636173 -0.7515785922
| 21> H -2.0764927442 -1.0815735622 0.6428808326
| 22> H -0.7495930149 0.4039084106 -1.6811628678
| 23> H -0.8365048594 -1.3633536348 -1.5035201035
| 24> H 3.2745145106 0.930388688 -0.5565548723
| 25> H 2.8189242767 -0.3620578334 0.6052434608
| 26> H 2.436024952 1.3380840261 0.9702830308
| 27> *
| 28>
| 29>                          ****END OF INPUT****

CARTESIAN COORDINATES (ANGSTROEM)
---------------------------------
  C     -2.178148    1.066913    0.569042
  C     -2.088253   -0.293301   -0.112134
  C     -0.821707   -0.413939   -0.965233
  C      0.413007   -0.408219   -0.101889
  O      0.595445   -1.126601    0.858704
  O      1.301496    0.482714   -0.528241
  C      2.541868    0.600786    0.174359
  H     -2.164297    1.865876   -0.168444
  H     -3.096651    1.142344    1.144761
  H     -1.337889    1.208136    1.246360
  H     -2.958644   -0.441664   -0.751579
  H     -2.076493   -1.081574    0.642881
  H     -0.749593    0.403908   -1.681163
  H     -0.836505   -1.363354   -1.503520
  H      3.274515    0.930389   -0.556555
  H      2.818924   -0.362058    0.605243
  H      2.436025    1.338084    0.970283

 Total Charge           Charge          ....    0
 Multiplicity           Mult            ....    1
 Number of Electrons    NEL             ....   56
 Basis Dimension        Dim             ....  193

ORBITAL ENERGIES
----------------

  NO   OCC          E(Eh)            E(eV)
   0   2.0000     -19.005294      -517.1603
   1   2.0000     -18.944056      -515.4940
   2   2.0000     -10.162721      -276.5417
   3   2.0000     -10.075646      -274.1723
   4   2.0000     -10.035553      -273.0813
   5   2.0000     -10.027806      -272.8705
   6   2.0000     -10.011448      -272.4254
   7   2.0000      -1.079786       -29.3825
   8   2.0000      -0.989656       -26.9299
   9   2.0000      -0.767027       -20.8719
  10   2.0000      -0.707011       -19.2387
  11   2.0000      -0.653915       -17.7939
  12   2.0000      -0.568140       -15.4599
  13   2.0000      -0.525296       -14.2940
  14   2.0000      -0.473652       -12.8887
  15   2.0000      -0.459315       -12.4986
  16   2.0000      -0.450684       -12.2637
  17   2.0000      -0.414786       -11.2869
  18   2.0000      -0.411420       -11.1953
  19   2.0000      -0.372624       -10.1396
  20   2.0000      -0.365952        -9.9581
  21   2.0000      -0.358243        -9.7483
  22   2.0000      -0.325645        -8.8612
  23   2.0000      -0.305952        -8.3254
  24   2.0000      -0.305173        -8.3042
  25   2.0000      -0.303240        -8.2516
  26   2.0000      -0.281303        -7.6547
  27   2.0000      -0.253753        -6.9050
  28   0.0000      -0.023520        -0.6400
  29   0.0000       0.071113         1.9351
  30   0.0000       0.098053         2.6682
  31   0.0000       0.123763         3.3678
  32   0.0000       0.133619         3.6360

MULLIKEN ATOMIC CHARGES
-----------------------
   0 C :   -0.528422
   1 C :   -0.223565
   2 C :   -0.311778
   3 C :    0.390291
   4 O :   -0.510800
   5 O :   -0.203938
   6 C :   -0.323570
   7 H :    0.161855
   8 H :    0.161320
   9 H :    0.161663
  10 H :    0.162930
  11 H :    0.154080
  12 H :    0.178913
  13 H :    0.195729
  14 H :    0.176143
  15 H :    0.179280
  16 H :    0.179869
Sum of atomic charges:   -0.0000000

LOEWDIN ATOMIC CHARGES
----------------------
   0 C :   -0.423806
   1 C :   -0.293447
   2 C :   -0.229138
   3 C :    0.361800
   4 O :   -0.495926
   5 O :   -0.604974
   6 C :   -0.042158
   7 H :    0.155732
   8 H :    0.156197
   9 H :    0.156150
  10 H :    0.160413
  11 H :    0.163529
  12 H :    0.185044
  13 H :    0.192688
  14 H :    0.187334
  15 H :    0.187772
  16 H :    0.182788

  Mayer bond orders larger than 0.100000
B(  0-C ,  1-C ) :   0.9002 B(  0-C ,  7-H ) :   0.9785 B(  0-C ,  8-H ) :   0.9657
B(  0-C ,  9-H ) :   0.9708 B(  1-C ,  2-C ) :   0.8773 B(  1-C , 10-H ) :   0.9611
B(  1-C , 11-H ) :   0.9706 B(  2-C ,  3-C ) :   0.9531 B(  2-C , 12-H ) :   0.9900
B(  2-C , 13-H ) :   0.9252 B(  3-C ,  4-O ) :   1.7644 B(  3-C ,  5-O ) :   1.0790
B(  5-O ,  6-C ) :   0.8310 B(  6-C , 14-H ) :   0.9596 B(  6-C , 15-H ) :   0.9618
B(  6-C , 16-H ) :   0.9524

Dispersion correction           -0.004112297
FINAL SINGLE POINT ENERGY      -346.936187368698

DIPOLE MOMENT
-------------

Method             : SCF
Type of density    : Electron Density
Multiplicity       :   1
Irrep              :   0
Energy             :  -346.9428166270469092 Eh
Relativity type    :
Basis              : AO
                                X                 Y                 Z
Electronic contribution:      4.474929769      -2.647569546      -0.715985171
Nuclear contribution   :     -4.372449824       3.405465064      -0.043634192
                        -----------------------------------------
Total Dipole Moment    :      0.102479945       0.757895518      -0.759619363
                        -----------------------------------------
Magnitude (a.u.)       :      1.077928259
Magnitude (Debye)      :      2.739875893

Rotational constants in cm-1:             0.164795             0.051413             0.048853
Rotational constants in MHz :          4940.430062          1541.322099          1464.565651

                             ****ORCA TERMINATED NORMALLY****
TOTAL RUN TIME: 0 days 0 hours 0 minutes 30 seconds 370 msec
