                         Program Version 6.0.0  -   RELEASE  -
|  1> ! r2scan-3c def2/J RI DEFGRID2 scfconv6 printgap
|  2> %output
|  3>     printlevel normal
|  4> end
|  5> * xyz 0 1
|  6> C -1.8236489735 0.9059348221 -0.5719905541
|  7> C -0.9438134709 0.6227827621 0.6411193059
|  8> C 0.0483787822 -0.5376973694 0.4724838578
|  9> H 0.5166960646 -0.6980371159 1.4505414533
| 10> C -0.6294714285 -1.8327270819 0.0334309362
| 11> C 1.180580607 -0.177067659 -0.4940204338
| 12> O 1.9261327329 0.8980767425 0.0445651172
| 13> H -2.4529688706 1.7695819874 -0.3705246856
| 14> H -1.2236482338 1.1256610134 -1.4510575396
| 15> H -2.4691615861 0.0602679119 -0.792288512
| 16> H -1.5862695637 0.4011685302 1.4962052695
| 17> H -0.3653011198 1.5167311485 0.8834589593
| 18> H -0.9819885041 -1.7552224344 -0.9915436873
| 19> H -1.4756669979 -2.0483987773 0.6801353578
| 20> H 0.0692080663 -2.6638919086 0.0912482218
| 21> H 0.7671211386 0.0960681552 -1.4730236477
| 22> H 1.8286640806 -1.0546908066 -0.6271009946
| 23> H 2.6333348491 1.1352863534 -0.5690174872
| 24> *
| 25>
| 26>                          ****END OF INPUT****

CARTESIAN COORDINATES (ANGSTROEM)
---------------------------------
  C     -1.823649    0.905935   -0.571991
  C     -0.943813    0.622783    0.641119
  C      0.048379   -0.537697    0.472484
  H      0.516696   -0.698037    1.450541
  C     -0.629471   -1.832727    0.033431
  C      1.180581   -0.177068   -0.494020
  O      1.926133    0.898077    0.044565
  H     -2.452969    1.769582   -0.370525
  H     -1.223648    1.125661   -1.451058
  H     -2.469162    0.060268   -0.792289
  H     -1.586270    0.401169    1.496205
  H     -0.365301    1.516731    0.883459
  H     -0.981989   -1.755222   -0.991544
  H     -1.475667   -2.048399    0.680135
  H      0.069208   -2.663892    0.091248
  H      0.767121    0.096068   -1.473024
  H      1.828664   -1.054691   -0.627101
  H      2.633335    1.135286   -0.569017

 Total Charge           Charge          ....    0
 Multiplicity           Mult            ....    1
 Number of Electrons    NEL             ....   50
 Basis Dimension        Dim             ....  179

ORBITAL ENERGIES
----------------

  NO   OCC          E(Eh)            E(eV)
   0   2.0000     -18.946803      -515.5687
   1   2.0000     -10.071289      -274.0537
   2   2.0000     -10.029822      -272.9253
   3   2.0000     -10.017298      -272.5845
   4   2.0000     -10.016435      -272.5611
   5   2.0000     -10.011881      -272.4371
   6   2.0000      -0.982948       -26.7474
   7   2.0000      -0.772114       -21.0103
   8   2.0000      -0.694177       -18.8895
   9   2.0000      -0.640349       -17.4248
  10   2.0000      -0.596737       -16.2381
  11   2.0000      -0.508248       -13.8301
  12   2.0000      -0.480130       -13.0650
  13   2.0000      -0.445323       -12.1178
  14   2.0000      -0.420188       -11.4339
  15   2.0000      -0.394189       -10.7264
  16   2.0000      -0.372675       -10.1410
  17   2.0000      -0.351478        -9.5642
  18   2.0000      -0.349988        -9.5237
  19   2.0000      -0.335384        -9.1263
  20   2.0000      -0.318673        -8.6715
  21   2.0000      -0.289773        -7.8851
  22   2.0000      -0.286156        -7.7867
  23   2.0000      -0.274323        -7.4647
  24   2.0000      -0.234427        -6.3791
  25   0.0000       0.059646         1.6230
  26   0.0000       0.085756         2.3335
  27   0.0000       0.117526         3.1980
  28   0.0000       0.121281         3.3002
  29   0.0000       0.141151         3.8409

MULLIKEN ATOMIC CHARGES
-----------------------
   0 C :   -0.508890
   1 C :   -0.262586
   2 C :    0.001576
   3 H :    0.153840
   4 C :   -0.523649
   5 C :   -0.186940
   6 O :   -0.430513
   7 H :    0.147210
   8 H :    0.148685
   9 H :    0.150776
  10 H :    0.144149
  11 H :    0.166063
  12 H :    0.156760
  13 H :    0.153872
  14 H :    0.148631
  15 H :    0.130170
  16 H :    0.120017
  17 H :    0.290831
Sum of atomic charges:    0.0000000

LOEWDIN ATOMIC CHARGES
----------------------
   0 C :   -0.424303
   1 C :   -0.307437
   2 C :   -0.218392
   3 H :    0.166969
   4 C :   -0.414038
   5 C :    0.010462
   6 O :   -0.632843
   7 H :    0.152297
   8 H :    0.148699
   9 H :    0.149650
  10 H :    0.153433
  11 H :    0.169257
  12 H :    0.154899
  13 H :    0.157328
  14 H :    0.154305
  15 H :    0.156105
  16 H :    0.157495
  17 H :    0.266114

  Mayer bond orders larger than 0.100000
B(  0-C ,  1-C ) :   0.8803 B(  0-C ,  7-H ) :   0.9688 B(  0-C ,  8-H ) :   0.9866
B(  0-C ,  9-H ) :   0.9779 B(  1-C ,  2-C ) :   0.9016 B(  1-C , 10-H ) :   0.9697
B(  1-C , 11-H ) :   0.9718 B(  2-C ,  3-H ) :   0.9615 B(  2-C ,  4-C ) :   0.8812
B(  2-C ,  5-C ) :   0.9588 B(  4-C , 12-H ) :   0.9785 B(  4-C , 13-H ) :   0.9730
B(  4-C , 14-H ) :   0.9705 B(  5-C ,  6-O ) :   0.9282 B(  5-C , 15-H ) :   0.9761
B(  5-C , 16-H ) :   0.9588 B(  6-O , 17-H ) :   0.9013

Dispersion correction           -0.004445642
FINAL SINGLE POINT ENERGY      -272.897469164137

DIPOLE MOMENT
-------------

Method             : SCF
Type of density    : Electron Density
Multiplicity       :   1
Irrep              :   0
Energy             :  -272.9029405747932628 Eh
Relativity type    :
Basis              : AO
                                X                 Y                 Z
Electronic contribution:      4.556337524       1.760916308       1.133384510
Nuclear contribution   :     -4.418292790      -1.971334721      -1.568855698
                        -----------------------------------------
Total Dipole Moment    :      0.138044735      -0.210418414      -0.435471188
                        -----------------------------------------
Magnitude (a.u.)       :      0.502958660
Magnitude (Debye)      :      1.278419315

Rotational constants in cm-1:             0.138895             0.088519             0.065185
Rotational constants in MHz :          4163.978169          2653.738099          1954.184146

                             ****ORCA TERMINATED NORMALLY****
TOTAL RUN TIME: 0 days 0 hours 0 minutes 23 seconds 605 msec
