                         Program Version 6.0.0  -   RELEASE  -
|  1> ! r2scan-3c def2/J RI DEFGRID2 scfconv6 printgap
|  2> %output
|  3>     printlevel normal
|  4> end
|  5> %cpcm
|  6>     smd true
|  7>     smdsolvent "water"
|  8> end
|  9> * xyz 0 1
| 10> C -1.8236489735 0.9059348221 -0.5719905541
| 11> C -0.9438134709 0.6227827621 0.6411193059
| 12> C 0.0483787822 -0.5376973694 0.4724838578
| 13> H 0.5166960646 -0.6980371159 1.4505414533
| 14> C -0.6294714285 -1.8327270819 0.0334309362
| 15> C 1.180580607 -0.177067659 -0.4940204338
| 16> O 1.9261327329 0.8980767425 0.0445651172
| 17> H -2.4529688706 1.7695819874 -0.3705246856
| 18> H -1.2236482338 1.1256610134 -1.4510575396
| 19> H -2.4691615861 0.0602679119 -0.792288512
| 20> H -1.5862695637 0.4011685302 1.4962052695
| 21> H -0.3653011198 1.5167311485 0.8834589593
| 22> H -0.9819885041 -1.7552224344 -0.9915436873
| 23> H -1.4756669979 -2.0483987773 0.6801353578
| 24> H 0.0692080663 -2.6638919086 0.0912482218
| 25> H 0.7671211386 0.0960681552 -1.4730236477
| 26> H 1.8286640806 -1.0546908066 -0.6271009946
| 27> H 2.6333348491 1.1352863534 -0.5690174872
| 28> *
| 29>
| 30>                          ****END OF INPUT****

CARTESIAN COORDINATES (ANGSTROEM)
---------------------------------
  C     -1.823649    0.905935   -0.571991
  C     -0.943813    0.622783    0.641119
  C      0.048379   -0.537697    0.472484
  H      0.516696   -0.698037    1.450541
  C     -0.629471   -1.832727    0.033431
  C      1.180581   -0.177068   -0.494020
  O      1.926133    0.898077    0.044565
  H     -2.452969    1.769582   -0.370525
  H     -1.223648    1.125661   -1.451058
  H     -2.469162    0.060268   -0.792289
  H     -1.586270    0.401169    1.496205
  H     -0.365301    1.516731    0.883459
  H     -0.981989   -1.755222   -0.991544
  H     -1.475667   -2.048399    0.680135
  H      0.069208   -2.663892    0.091248
  H      0.767121    0.096068   -1.473024
  H      1.828664   -1.054691   -0.627101
  H      2.633335    1.135286   -0.569017

 Total Charge           Charge          ....    0
 Multiplicity           Mult            ....    1
 Number of Electrons    NEL             ....   50
 Basis Dimension        Dim             ....  179

ORBITAL ENERGIES
----------------

  NO   OCC          E(Eh)            E(eV)
   0   2.0000     -18.948951      -515.6272
   1   2.0000     -10.064581      -273.8712
   2   2.0000     -10.025227      -272.8003
   3   2.0000     -10.014317      -272.5034
   4   2.0000     -10.008950      -272.3574
   5   2.0000     -10.006684      -272.2957
   6   2.0000      -0.984019       -26.7765
   7   2.0000      -0.767522       -20.8853
   8   2.0000      -0.689504       -18.7624
   9   2.0000      -0.634359       -17.2618
  10   2.0000      -0.592579       -16.1249
  11   2.0000      -0.503958       -13.7134
  12   2.0000      -0.476691       -12.9714
  13   2.0000      -0.440407       -11.9841
  14   2.0000      -0.416760       -11.3406
  15   2.0000      -0.389254       -10.5921
  16   2.0000      -0.368421       -10.0252
  17   2.0000      -0.346851        -9.4383
  18   2.0000      -0.343135        -9.3372
  19   2.0000      -0.333740        -9.0815
  20   2.0000      -0.316604        -8.6152
  21   2.0000      -0.286860        -7.8059
  22   2.0000      -0.282184        -7.6786
  23   2.0000      -0.270796        -7.3687
  24   2.0000      -0.237190        -6.4543
  25   0.0000       0.074760         2.0343
  26   0.0000       0.093932         2.5560
  27   0.0000       0.123206         3.3526
  28   0.0000       0.128802         3.5049
  29   0.0000       0.149049         4.0558

MULLIKEN ATOMIC CHARGES
-----------------------
   0 C :   -0.538706
   1 C :   -0.269860
   2 C :    0.005797
   3 H :    0.156905
   4 C :   -0.559865
   5 C :   -0.196193
   6 O :   -0.513869
   7 H :    0.156474
   8 H :    0.162401
   9 H :    0.161940
  10 H :    0.156273
  11 H :    0.150956
  12 H :    0.169212
  13 H :    0.164932
  14 H :    0.161249
  15 H :    0.150776
  16 H :    0.137230
  17 H :    0.344347
Sum of atomic charges:    0.0000000

LOEWDIN ATOMIC CHARGES
----------------------
   0 C :   -0.431073
   1 C :   -0.311277
   2 C :   -0.220470
   3 H :    0.165828
   4 C :   -0.418777
   5 C :    0.012047
   6 O :   -0.667775
   7 H :    0.153884
   8 H :    0.153002
   9 H :    0.153671
  10 H :    0.157005
  11 H :    0.162111
  12 H :    0.158836
  13 H :    0.160123
  14 H :    0.157996
  15 H :    0.165228
  16 H :    0.165027
  17 H :    0.284613

  Mayer bond orders larger than 0.100000
B(  0-C ,  1-C ) :   0.8845 B(  0-C ,  7-H ) :   0.9668 B(  0-C ,  8-H ) :   0.9811
B(  0-C ,  9-H ) :   0.9746 B(  1-C ,  2-C ) :   0.8906 B(  1-C , 10-H ) :   0.9692
B(  1-C , 11-H ) :   0.9756 B(  2-C ,  3-H ) :   0.9614 B(  2-C ,  4-C ) :   0.8842
B(  2-C ,  5-C ) :   0.9429 B(  4-C , 12-H ) :   0.9763 B(  4-C , 13-H ) :   0.9699
B(  4-C , 14-H ) :   0.9671 B(  5-C ,  6-O ) :   0.9122 B(  5-C , 15-H ) :   0.9740
B(  5-C , 16-H ) :   0.9599 B(  6-O , 17-H ) :   0.8748

Dispersion correction           -0.004445642
FINAL SINGLE POINT ENERGY      -272.903071625681

DIPOLE MOMENT
-------------

Method             : SCF
Type of density    : Electron Density
Multiplicity       :   1
Irrep              :   0
Energy             :  -272.9085430363377327 Eh
Relativity type    :
Basis              : AO
                                X                 Y                 Z
Electronic contribution:      4.568079217       1.610846404       0.893009385
Nuclear contribution   :     -4.418292790      -1.971334721      -1.568855698
                        -----------------------------------------
Total Dipole Moment    :      0.149786428      -0.360488318      -0.675846313
                        -----------------------------------------
Magnitude (a.u.)       :      0.780484490
Magnitude (Debye)      :      1.983833916

Rotational constants in cm-1:             0.138895             0.088519             0.065185
Rotational constants in MHz :          4163.978169          2653.738099          1954.184146

                             ****ORCA TERMINATED NORMALLY****
TOTAL RUN TIME: 0 days 0 hours 0 minutes 27 seconds 52 msec
