                         Program Version 6.0.0  -   RELEASE  -
|  1> ! r2scan-3c def2/J RI DEFGRID2 scfconv6 printgap
|  2> %output
|  3>     printlevel normal
|  4> end
|  5> * xyz 0 1
|  6> C -2.1294898155 0.042329351 0.754960752
|  7> C -1.5403400632 0.1458882689 -0.6471583105
|  8> C -0.22168167 -0.6182345594 -0.7592480562
|  9> C 0.9170596023 0.0464924388 -0.0235897111
| 10> O 0.9192923059 1.2274897906 0.2631242171
| 11> C 2.0605428049 -0.865497524 0.3171142027
| 12> H -3.0687796442 0.5860321602 0.8137152709
| 13> H -1.4427937529 0.4686849968 1.4834238877
| 14> H -2.3150700485 -0.9968487159 1.0178430133
| 15> H -1.3598227156 1.1958344697 -0.8862222597
| 16> H -2.2512678037 -0.2530303658 -1.3721592976
| 17> H -0.337084986 -1.6410934323 -0.3999788591
| 18> H 0.0845878617 -0.6684178524 -1.807807922
| 19> H 2.9328932955 -0.2869239534 0.6082247174
| 20> H 2.2953300805 -1.5122648972 -0.5228305734
| 21> H 1.7599959557 -1.4928703509 1.1541555386
| 22> *
| 23>
| 24>                          ****END OF INPUT****

CARTESIAN COORDINATES (ANGSTROEM)
---------------------------------
  C     -2.129490    0.042329    0.754961
  C     -1.540340    0.145888   -0.647158
  C     -0.221682   -0.618235   -0.759248
  C      0.917060    0.046492   -0.023590
  O      0.919292    1.227490    0.263124
  C      2.060543   -0.865498    0.317114
  H     -3.068780    0.586032    0.813715
  H     -1.442794    0.468685    1.483424
  H     -2.315070   -0.996849    1.017843
  H     -1.359823    1.195834   -0.886222
  H     -2.251268   -0.253030   -1.372159
  H     -0.337085   -1.641093   -0.399979
  H      0.084588   -0.668418   -1.807808
  H      2.932893   -0.286924    0.608225
  H      2.295330   -1.512265   -0.522831
  H      1.759996   -1.492870    1.154156

 Total Charge           Charge          ....    0
 Multiplicity           Mult            ....    1
 Number of Electrons    NEL             ....   48
 Basis Dimension        Dim             ....  169

ORBITAL ENERGIES
----------------

  NO   OCC          E(Eh)            E(eV)
   0   2.0000     -18.938217      -515.3351
   1   2.0000     -10.119514      -275.3660
   2   2.0000     -10.039241      -273.1816
   3   2.0000     -10.034579      -273.0548
   4   2.0000     -10.028623      -272.8927
   5   2.0000     -10.015559      -272.5372
   6   2.0000      -1.004289       -27.3281
   7   2.0000      -0.768687       -20.9170
   8   2.0000      -0.721462       -19.6320
   9   2.0000      -0.661949       -18.0125
  10   2.0000      -0.570017       -15.5109
  11   2.0000      -0.491920       -13.3858
  12   2.0000      -0.446521       -12.1505
  13   2.0000      -0.443989       -12.0816
  14   2.0000      -0.414700       -11.2846
  15   2.0000      -0.398954       -10.8561
  16   2.0000      -0.390791       -10.6340
  17   2.0000      -0.364811        -9.9270
  18   2.0000      -0.356311        -9.6957
  19   2.0000      -0.330624        -8.9967
  20   2.0000      -0.310087        -8.4379
  21   2.0000      -0.309072        -8.4103
  22   2.0000      -0.304764        -8.2930
  23   2.0000      -0.215198        -5.8558
  24   0.0000      -0.044696        -1.2163
  25   0.0000       0.070899         1.9293
  26   0.0000       0.107336         2.9207
  27   0.0000       0.125278         3.4090
  28   0.0000       0.130816         3.5597

MULLIKEN ATOMIC CHARGES
-----------------------
   0 C :   -0.508747
   1 C :   -0.194495
   2 C :   -0.279627
   3 C :    0.290677
   4 O :   -0.357188
   5 C :   -0.516069
   6 H :    0.147760
   7 H :    0.166802
   8 H :    0.136389
   9 H :    0.155031
  10 H :    0.139960
  11 H :    0.149169
  12 H :    0.166338
  13 H :    0.177742
  14 H :    0.153899
  15 H :    0.172359
Sum of atomic charges:    0.0000000

LOEWDIN ATOMIC CHARGES
----------------------
   0 C :   -0.418758
   1 C :   -0.301499
   2 C :   -0.288906
   3 C :    0.217392
   4 O :   -0.472628
   5 C :   -0.388065
   6 H :    0.152894
   7 H :    0.159500
   8 H :    0.146569
   9 H :    0.170193
  10 H :    0.151460
  11 H :    0.168815
  12 H :    0.183486
  13 H :    0.173993
  14 H :    0.168145
  15 H :    0.177407

  Mayer bond orders larger than 0.100000
B(  0-C ,  1-C ) :   0.9065 B(  0-C ,  6-H ) :   0.9697 B(  0-C ,  7-H ) :   0.9804
B(  0-C ,  8-H ) :   0.9825 B(  1-C ,  2-C ) :   0.9142 B(  1-C ,  9-H ) :   0.9603
B(  1-C , 10-H ) :   0.9631 B(  2-C ,  3-C ) :   0.8928 B(  2-C , 11-H ) :   0.9698
B(  2-C , 12-H ) :   0.9184 B(  3-C ,  4-O ) :   1.9424 B(  3-C ,  5-C ) :   0.9122
B(  5-C , 13-H ) :   0.9863 B(  5-C , 14-H ) :   0.9513 B(  5-C , 15-H ) :   0.9478

Dispersion correction           -0.003769858
FINAL SINGLE POINT ENERGY      -271.704797302686

DIPOLE MOMENT
-------------

Method             : SCF
Type of density    : Electron Density
Multiplicity       :   1
Irrep              :   0
Energy             :  -271.7083775588815797 Eh
Relativity type    :
Basis              : AO
                                X                 Y                 Z
Electronic contribution:      3.425471779       3.238669430      -0.372933538
Nuclear contribution   :     -3.459453568      -4.298180283       0.086813353
                        -----------------------------------------
Total Dipole Moment    :     -0.033981789      -1.059510852      -0.286120184
                        -----------------------------------------
Magnitude (a.u.)       :      1.097990332
Magnitude (Debye)      :      2.790869629

Rotational constants in cm-1:             0.208591             0.073124             0.067029
Rotational constants in MHz :          6253.412173          2192.192493          2009.467907

                             ****ORCA TERMINATED NORMALLY****
TOTAL RUN TIME: 0 days 0 hours 0 minutes 23 seconds 182 msec
