                         Program Version 6.0.0  -   RELEASE  -
|  1> ! r2scan-3c def2/J RI DEFGRID2 scfconv6 printgap
|  2> %output
|  3>     printlevel normal
|  4> end
|  5> %cpcm
|  6>     smd true
|  7>     smdsolvent "water"
|  8> end
|  9> * xyz 0 1
| 10> C -2.1294898155 0.042329351 0.754960752
| 11> C -1.5403400632 0.1458882689 -0.6471583105
| 12> C -0.22168167 -0.6182345594 -0.7592480562
| 13> C 0.9170596023 0.0464924388 -0.0235897111
| 14> O 0.9192923059 1.2274897906 0.2631242171
| 15> C 2.0605428049 -0.865497524 0.3171142027
| 16> H -3.0687796442 0.5860321602 0.8137152709
| 17> H -1.4427937529 0.4686849968 1.4834238877
| 18> H -2.3150700485 -0.9968487159 1.0178430133
| 19> H -1.3598227156 1.1958344697 -0.8862222597
| 20> H -2.2512678037 -0.2530303658 -1.3721592976
| 21> H -0.337084986 -1.6410934323 -0.3999788591
| 22> H 0.0845878617 -0.6684178524 -1.807807922
| 23> H 2.9328932955 -0.2869239534 0.6082247174
| 24> H 2.2953300805 -1.5122648972 -0.5228305734
| 25> H 1.7599959557 -1.4928703509 1.1541555386
| 26> *
| 27>
| 28>                          ****END OF INPUT****

CARTESIAN COORDINATES (ANGSTROEM)
---------------------------------
  C     -2.129490    0.042329    0.754961
  C     -1.540340    0.145888   -0.647158
  C     -0.221682   -0.618235   -0.759248
  C      0.917060    0.046492   -0.023590
  O      0.919292    1.227490    0.263124
  C      2.060543   -0.865498    0.317114
  H     -3.068780    0.586032    0.813715
  H     -1.442794    0.468685    1.483424
  H     -2.315070   -0.996849    1.017843
  H     -1.359823    1.195834   -0.886222
  H     -2.251268   -0.253030   -1.372159
  H     -0.337085   -1.641093   -0.399979
  H      0.084588   -0.668418   -1.807808
  H      2.932893   -0.286924    0.608225
  H      2.295330   -1.512265   -0.522831
  H      1.759996   -1.492870    1.154156

 Total Charge           Charge          ....    0
 Multiplicity           Mult            ....    1
 Number of Electrons    NEL             ....   48
 Basis Dimension        Dim             ....  169

ORBITAL ENERGIES
----------------

  NO   OCC          E(Eh)            E(eV)
   0   2.0000     -18.946113      -515.5499
   1   2.0000     -10.124219      -275.4940
   2   2.0000     -10.027746      -272.8688
   3   2.0000     -10.021862      -272.7087
   4   2.0000     -10.021639      -272.7027
   5   2.0000     -10.009052      -272.3602
   6   2.0000      -1.014731       -27.6122
   7   2.0000      -0.760824       -20.7031
   8   2.0000      -0.712770       -19.3955
   9   2.0000      -0.653115       -17.7722
  10   2.0000      -0.563058       -15.3216
  11   2.0000      -0.489799       -13.3281
  12   2.0000      -0.442964       -12.0537
  13   2.0000      -0.435638       -11.8543
  14   2.0000      -0.414929       -11.2908
  15   2.0000      -0.390530       -10.6269
  16   2.0000      -0.385192       -10.4816
  17   2.0000      -0.357972        -9.7409
  18   2.0000      -0.349357        -9.5065
  19   2.0000      -0.331773        -9.0280
  20   2.0000      -0.304126        -8.2757
  21   2.0000      -0.302515        -8.2319
  22   2.0000      -0.298115        -8.1121
  23   2.0000      -0.223851        -6.0913
  24   0.0000      -0.045453        -1.2368
  25   0.0000       0.080800         2.1987
  26   0.0000       0.121267         3.2998
  27   0.0000       0.133406         3.6302
  28   0.0000       0.141799         3.8585

MULLIKEN ATOMIC CHARGES
-----------------------
   0 C :   -0.532837
   1 C :   -0.221869
   2 C :   -0.279129
   3 C :    0.330000
   4 O :   -0.462656
   5 C :   -0.548895
   6 H :    0.158528
   7 H :    0.161234
   8 H :    0.154976
   9 H :    0.145428
  10 H :    0.157005
  11 H :    0.176111
  12 H :    0.197031
  13 H :    0.178598
  14 H :    0.183824
  15 H :    0.202653
Sum of atomic charges:    0.0000000

LOEWDIN ATOMIC CHARGES
----------------------
   0 C :   -0.426169
   1 C :   -0.304198
   2 C :   -0.281925
   3 C :    0.236893
   4 O :   -0.548994
   5 C :   -0.385440
   6 H :    0.154281
   7 H :    0.156041
   8 H :    0.153690
   9 H :    0.163310
  10 H :    0.157828
  11 H :    0.181893
  12 H :    0.196506
  13 H :    0.173492
  14 H :    0.181770
  15 H :    0.191020

  Mayer bond orders larger than 0.100000
B(  0-C ,  1-C ) :   0.9088 B(  0-C ,  6-H ) :   0.9688 B(  0-C ,  7-H ) :   0.9792
B(  0-C ,  8-H ) :   0.9768 B(  1-C ,  2-C ) :   0.8907 B(  1-C ,  9-H ) :   0.9703
B(  1-C , 10-H ) :   0.9602 B(  2-C ,  3-C ) :   0.9099 B(  2-C , 11-H ) :   0.9576
B(  2-C , 12-H ) :   0.9098 B(  3-C ,  4-O ) :   1.8668 B(  3-C ,  5-C ) :   0.9327
B(  5-C , 13-H ) :   0.9829 B(  5-C , 14-H ) :   0.9398 B(  5-C , 15-H ) :   0.9323

Dispersion correction           -0.003769858
FINAL SINGLE POINT ENERGY      -271.711062871083

DIPOLE MOMENT
-------------

Method             : SCF
Type of density    : Electron Density
Multiplicity       :   1
Irrep              :   0
Energy             :  -271.7146431272786344 Eh
Relativity type    :
Basis              : AO
                                X                 Y                 Z
Electronic contribution:      3.412827453       2.654546147      -0.526923077
Nuclear contribution   :     -3.459453568      -4.298180283       0.086813353
                        -----------------------------------------
Total Dipole Moment    :     -0.046626115      -1.643634136      -0.440109723
                        -----------------------------------------
Magnitude (a.u.)       :      1.702176176
Magnitude (Debye)      :      4.326588000

Rotational constants in cm-1:             0.208591             0.073124             0.067029
Rotational constants in MHz :          6253.412173          2192.192493          2009.467907

                             ****ORCA TERMINATED NORMALLY****
TOTAL RUN TIME: 0 days 0 hours 0 minutes 25 seconds 289 msec
