                         Program Version 6.0.0  -   RELEASE  -
|  1> ! r2scan-3c def2/J RI DEFGRID2 scfconv6 printgap
|  2> %output
|  3>     printlevel normal
|  4> end
|  5> * xyz 0 1
|  6> C -1.5444178688 1.1065088757 -0.536282394
|  7> C -1.1518816681 0.422494703 0.7703773168
|  8> C -0.0677176291 -0.6589818199 0.6343574324
|  9> H -0.0614818751 -1.2280614013 1.5720793892
| 10> C -0.34823347 -1.6239962577 -0.5147795353
| 11> C 1.3491391698 -0.0712367769 0.5080468261
| 12> O 1.5561295252 0.6589206312 -0.6903454865
| 13> H -0.6652918371 1.4367209813 -1.0803557666
| 14> H -2.1029457992 0.426530857 -1.1736384895
| 15> H -2.1728074674 1.9694420583 -0.3279701327
| 16> H -2.0430862471 -0.0394412339 1.2022881498
| 17> H -0.8003017268 1.1741378721 1.4817124559
| 18> H 0.3248476607 -2.4764110728 -0.4589994248
| 19> H -0.1879020256 -1.1267136802 -1.4671668036
| 20> H -1.3719403763 -1.9861028848 -0.4677779831
| 21> H 2.0670251326 -0.9024841528 0.507702073
| 22> H 1.5544494632 0.5514876893 1.38301826
| 23> H 1.7681890372 1.5751165048 -0.4813402746
| 24> *
| 25>
| 26>                          ****END OF INPUT****

CARTESIAN COORDINATES (ANGSTROEM)
---------------------------------
  C     -1.544418    1.106509   -0.536282
  C     -1.151882    0.422495    0.770377
  C     -0.067718   -0.658982    0.634357
  H     -0.061482   -1.228061    1.572079
  C     -0.348233   -1.623996   -0.514780
  C      1.349139   -0.071237    0.508047
  O      1.556130    0.658921   -0.690345
  H     -0.665292    1.436721   -1.080356
  H     -2.102946    0.426531   -1.173638
  H     -2.172807    1.969442   -0.327970
  H     -2.043086   -0.039441    1.202288
  H     -0.800302    1.174138    1.481712
  H      0.324848   -2.476411   -0.458999
  H     -0.187902   -1.126714   -1.467167
  H     -1.371940   -1.986103   -0.467778
  H      2.067025   -0.902484    0.507702
  H      1.554449    0.551488    1.383018
  H      1.768189    1.575117   -0.481340

 Total Charge           Charge          ....    0
 Multiplicity           Mult            ....    1
 Number of Electrons    NEL             ....   50
 Basis Dimension        Dim             ....  179

ORBITAL ENERGIES
----------------

  NO   OCC          E(Eh)            E(eV)
   0   2.0000     -18.948142      -515.6052
   1   2.0000     -10.072896      -274.0974
   2   2.0000     -10.030226      -272.9363
   3   2.0000     -10.021729      -272.7051
   4   2.0000     -10.009626      -272.3758
   5   2.0000     -10.006407      -272.2882
   6   2.0000      -0.984249       -26.7828
   7   2.0000      -0.769920       -20.9506
   8   2.0000      -0.692726       -18.8500
   9   2.0000      -0.641438       -17.4544
  10   2.0000      -0.593809       -16.1584
  11   2.0000      -0.513810       -13.9815
  12   2.0000      -0.479879       -13.0582
  13   2.0000      -0.438414       -11.9299
  14   2.0000      -0.420475       -11.4417
  15   2.0000      -0.395049       -10.7498
  16   2.0000      -0.368711       -10.0331
  17   2.0000      -0.355671        -9.6783
  18   2.0000      -0.343860        -9.3569
  19   2.0000      -0.328936        -8.9508
  20   2.0000      -0.308836        -8.4038
  21   2.0000      -0.300312        -8.1719
  22   2.0000      -0.286580        -7.7982
  23   2.0000      -0.281462        -7.6590
  24   2.0000      -0.228031        -6.2050
  25   0.0000       0.049034         1.3343
  26   0.0000       0.098430         2.6784
  27   0.0000       0.115236         3.1357
  28   0.0000       0.128643         3.5006
  29   0.0000       0.134438         3.6582

MULLIKEN ATOMIC CHARGES
-----------------------
   0 C :   -0.516055
   1 C :   -0.277091
   2 C :    0.045770
   3 H :    0.146649
   4 C :   -0.540583
   5 C :   -0.218545
   6 O :   -0.438363
   7 H :    0.180583
   8 H :    0.148314
   9 H :    0.142047
  10 H :    0.148242
  11 H :    0.129801
  12 H :    0.142607
  13 H :    0.180427
  14 H :    0.151787
  15 H :    0.136960
  16 H :    0.130091
  17 H :    0.307359
Sum of atomic charges:    0.0000000

LOEWDIN ATOMIC CHARGES
----------------------
   0 C :   -0.426834
   1 C :   -0.309447
   2 C :   -0.231016
   3 H :    0.161566
   4 C :   -0.411407
   5 C :    0.004650
   6 O :   -0.625595
   7 H :    0.164923
   8 H :    0.151415
   9 H :    0.147782
  10 H :    0.154368
  11 H :    0.152729
  12 H :    0.154271
  13 H :    0.166220
  14 H :    0.153883
  15 H :    0.167792
  16 H :    0.160266
  17 H :    0.264435

  Mayer bond orders larger than 0.100000
B(  0-C ,  1-C ) :   0.8825 B(  0-C ,  7-H ) :   0.9861 B(  0-C ,  8-H ) :   0.9701
B(  0-C ,  9-H ) :   0.9734 B(  1-C ,  2-C ) :   0.8799 B(  1-C , 10-H ) :   0.9687
B(  1-C , 11-H ) :   0.9889 B(  2-C ,  3-H ) :   0.9566 B(  2-C ,  4-C ) :   0.8815
B(  2-C ,  5-C ) :   0.9378 B(  4-C , 12-H ) :   0.9675 B(  4-C , 13-H ) :   0.9729
B(  4-C , 14-H ) :   0.9812 B(  5-C ,  6-O ) :   0.9530 B(  5-C , 15-H ) :   0.9754
B(  5-C , 16-H ) :   0.9829 B(  6-O , 17-H ) :   0.8962

Dispersion correction           -0.004544485
FINAL SINGLE POINT ENERGY      -272.893460901756

DIPOLE MOMENT
-------------

Method             : SCF
Type of density    : Electron Density
Multiplicity       :   1
Irrep              :   0
Energy             :  -272.8989450904770706 Eh
Relativity type    :
Basis              : AO
                                X                 Y                 Z
Electronic contribution:      3.496439145       0.843029797      -0.108762384
Nuclear contribution   :     -3.439899132      -0.577303914       0.636667054
                        -----------------------------------------
Total Dipole Moment    :      0.056540012       0.265725883       0.527904670
                        -----------------------------------------
Magnitude (a.u.)       :      0.593708985
Magnitude (Debye)      :      1.509088310

Rotational constants in cm-1:             0.132770             0.095578             0.076929
Rotational constants in MHz :          3980.356071          2865.368405          2306.262365

                             ****ORCA TERMINATED NORMALLY****
TOTAL RUN TIME: 0 days 0 hours 0 minutes 23 seconds 441 msec
