                         Program Version 6.0.0  -   RELEASE  -
|  1> ! r2scan-3c def2/J RI DEFGRID2 scfconv6 printgap
|  2> %output
|  3>     printlevel normal
|  4> end
|  5> %cpcm
|  6>     smd true
|  7>     smdsolvent "water"
|  8> end
|  9> * xyz 0 1
| 10> C -1.5444178688 1.1065088757 -0.536282394
| 11> C -1.1518816681 0.422494703 0.7703773168
| 12> C -0.0677176291 -0.6589818199 0.6343574324
| 13> H -0.0614818751 -1.2280614013 1.5720793892
| 14> C -0.34823347 -1.6239962577 -0.5147795353
| 15> C 1.3491391698 -0.0712367769 0.5080468261
| 16> O 1.5561295252 0.6589206312 -0.6903454865
| 17> H -0.6652918371 1.4367209813 -1.0803557666
| 18> H -2.1029457992 0.426530857 -1.1736384895
| 19> H -2.1728074674 1.9694420583 -0.3279701327
| 20> H -2.0430862471 -0.0394412339 1.2022881498
| 21> H -0.8003017268 1.1741378721 1.4817124559
| 22> H 0.3248476607 -2.4764110728 -0.4589994248
| 23> H -0.1879020256 -1.1267136802 -1.4671668036
| 24> H -1.3719403763 -1.9861028848 -0.4677779831
| 25> H 2.0670251326 -0.9024841528 0.507702073
| 26> H 1.5544494632 0.5514876893 1.38301826
| 27> H 1.7681890372 1.5751165048 -0.4813402746
| 28> *
| 29>
| 30>                          ****END OF INPUT****

CARTESIAN COORDINATES (ANGSTROEM)
---------------------------------
  C     -1.544418    1.106509   -0.536282
  C     -1.151882    0.422495    0.770377
  C     -0.067718   -0.658982    0.634357
  H     -0.061482   -1.228061    1.572079
  C     -0.348233   -1.623996   -0.514780
  C      1.349139   -0.071237    0.508047
  O      1.556130    0.658921   -0.690345
  H     -0.665292    1.436721   -1.080356
  H     -2.102946    0.426531   -1.173638
  H     -2.172807    1.969442   -0.327970
  H     -2.043086   -0.039441    1.202288
  H     -0.800302    1.174138    1.481712
  H      0.324848   -2.476411   -0.458999
  H     -0.187902   -1.126714   -1.467167
  H     -1.371940   -1.986103   -0.467778
  H      2.067025   -0.902484    0.507702
  H      1.554449    0.551488    1.383018
  H      1.768189    1.575117   -0.481340

 Total Charge           Charge          ....    0
 Multiplicity           Mult            ....    1
 Number of Electrons    NEL             ....   50
 Basis Dimension        Dim             ....  179

ORBITAL ENERGIES
----------------

  NO   OCC          E(Eh)            E(eV)
   0   2.0000     -18.946703      -515.5660
   1   2.0000     -10.064381      -273.8657
   2   2.0000     -10.023261      -272.7468
   3   2.0000     -10.014559      -272.5100
   4   2.0000     -10.006000      -272.2771
   5   2.0000     -10.003216      -272.2013
   6   2.0000      -0.981817       -26.7166
   7   2.0000      -0.763978       -20.7889
   8   2.0000      -0.688072       -18.7234
   9   2.0000      -0.636026       -17.3071
  10   2.0000      -0.588923       -16.0254
  11   2.0000      -0.508382       -13.8338
  12   2.0000      -0.472945       -12.8695
  13   2.0000      -0.433088       -11.7849
  14   2.0000      -0.415024       -11.2934
  15   2.0000      -0.390238       -10.6189
  16   2.0000      -0.365303        -9.9404
  17   2.0000      -0.353268        -9.6129
  18   2.0000      -0.340331        -9.2609
  19   2.0000      -0.326289        -8.8788
  20   2.0000      -0.305074        -8.3015
  21   2.0000      -0.296195        -8.0599
  22   2.0000      -0.281634        -7.6637
  23   2.0000      -0.275607        -7.4997
  24   2.0000      -0.226859        -6.1731
  25   0.0000       0.065973         1.7952
  26   0.0000       0.109266         2.9733
  27   0.0000       0.121503         3.3063
  28   0.0000       0.135241         3.6801
  29   0.0000       0.139506         3.7961

MULLIKEN ATOMIC CHARGES
-----------------------
   0 C :   -0.554682
   1 C :   -0.283902
   2 C :    0.041553
   3 H :    0.160616
   4 C :   -0.570943
   5 C :   -0.221957
   6 O :   -0.511463
   7 H :    0.177820
   8 H :    0.158161
   9 H :    0.153657
  10 H :    0.156796
  11 H :    0.146060
  12 H :    0.157936
  13 H :    0.168707
  14 H :    0.165415
  15 H :    0.142110
  16 H :    0.156002
  17 H :    0.358114
Sum of atomic charges:    0.0000000

LOEWDIN ATOMIC CHARGES
----------------------
   0 C :   -0.434869
   1 C :   -0.310876
   2 C :   -0.229128
   3 H :    0.167227
   4 C :   -0.419882
   5 C :    0.005138
   6 O :   -0.657473
   7 H :    0.161884
   8 H :    0.152420
   9 H :    0.151134
  10 H :    0.156585
  11 H :    0.158021
  12 H :    0.157493
  13 H :    0.160348
  14 H :    0.158019
  15 H :    0.169374
  16 H :    0.172225
  17 H :    0.282360

  Mayer bond orders larger than 0.100000
B(  0-C ,  1-C ) :   0.8669 B(  0-C ,  7-H ) :   0.9866 B(  0-C ,  8-H ) :   0.9697
B(  0-C ,  9-H ) :   0.9701 B(  1-C ,  2-C ) :   0.8826 B(  1-C , 10-H ) :   0.9690
B(  1-C , 11-H ) :   0.9867 B(  2-C ,  3-H ) :   0.9545 B(  2-C ,  4-C ) :   0.8754
B(  2-C ,  5-C ) :   0.9393 B(  4-C , 12-H ) :   0.9675 B(  4-C , 13-H ) :   0.9744
B(  4-C , 14-H ) :   0.9767 B(  5-C ,  6-O ) :   0.9441 B(  5-C , 15-H ) :   0.9742
B(  5-C , 16-H ) :   0.9743 B(  6-O , 17-H ) :   0.8684

Dispersion correction           -0.004544485
FINAL SINGLE POINT ENERGY      -272.898419557016

DIPOLE MOMENT
-------------

Method             : SCF
Type of density    : Electron Density
Multiplicity       :   1
Irrep              :   0
Energy             :  -272.9039037457379777 Eh
Relativity type    :
Basis              : AO
                                X                 Y                 Z
Electronic contribution:      3.485484854       0.945075603       0.189990230
Nuclear contribution   :     -3.439899132      -0.577303914       0.636667054
                        -----------------------------------------
Total Dipole Moment    :      0.045585722       0.367771690       0.826657285
                        -----------------------------------------
Magnitude (a.u.)       :      0.905922922
Magnitude (Debye)      :      2.302673070

Rotational constants in cm-1:             0.132770             0.095578             0.076929
Rotational constants in MHz :          3980.356071          2865.368405          2306.262365

                             ****ORCA TERMINATED NORMALLY****
TOTAL RUN TIME: 0 days 0 hours 0 minutes 27 seconds 610 msec
