                         Program Version 6.0.0  -   RELEASE  -
|  1> ! r2scan-3c def2/J RI DEFGRID2 scfconv6 printgap
|  2> %output
|  3>     printlevel normal
|  4> end
|  5> * xyz 0 1
|  6> C -1.5306446465 1.1389130391 -0.365515242
|  7> C -1.7515387739 -0.330134827 -0.0268424241
|  8> C -0.5943848128 -0.9513777995 0.7546357224
|  9> C 0.6985866066 -1.0787822882 -0.0685734489
| 10> C 1.4515409337 0.1412863972 -0.130595462
| 11> N 2.0895718573 1.0933205506 -0.1613098254
| 12> H -0.6581720887 1.2699661049 -1.0014881454
| 13> H -2.3955174484 1.5401581176 -0.8881225085
| 14> H -1.3772995672 1.7210325775 0.5407254351
| 15> H -2.6577873294 -0.4205994221 0.5757823087
| 16> H -1.910740974 -0.8954116607 -0.9481072601
| 17> H -0.8876245665 -1.953938431 1.0702691157
| 18> H -0.3984473168 -0.3600527589 1.6516046775
| 19> H 1.3534225183 -1.8273213218 0.3856953301
| 20> H 0.4671953632 -1.3964646964 -1.0883672493
| 21> *
| 22>
| 23>                          ****END OF INPUT****

CARTESIAN COORDINATES (ANGSTROEM)
---------------------------------
  C     -1.530645    1.138913   -0.365515
  C     -1.751539   -0.330135   -0.026842
  C     -0.594385   -0.951378    0.754636
  C      0.698587   -1.078782   -0.068573
  C      1.451541    0.141286   -0.130595
  N      2.089572    1.093321   -0.161310
  H     -0.658172    1.269966   -1.001488
  H     -2.395517    1.540158   -0.888123
  H     -1.377300    1.721033    0.540725
  H     -2.657787   -0.420599    0.575782
  H     -1.910741   -0.895412   -0.948107
  H     -0.887625   -1.953938    1.070269
  H     -0.398447   -0.360053    1.651605
  H      1.353423   -1.827321    0.385695
  H      0.467195   -1.396465   -1.088367

 Total Charge           Charge          ....    0
 Multiplicity           Mult            ....    1
 Number of Electrons    NEL             ....   46
 Basis Dimension        Dim             ....  164

ORBITAL ENERGIES
----------------

  NO   OCC          E(Eh)            E(eV)
   0   2.0000     -14.148021      -384.9872
   1   2.0000     -10.083421      -274.3838
   2   2.0000     -10.064277      -273.8629
   3   2.0000     -10.055363      -273.6203
   4   2.0000     -10.041238      -273.2360
   5   2.0000     -10.021957      -272.7113
   6   2.0000      -0.874122       -23.7861
   7   2.0000      -0.797161       -21.6919
   8   2.0000      -0.729812       -19.8592
   9   2.0000      -0.647613       -17.6224
  10   2.0000      -0.562664       -15.3109
  11   2.0000      -0.495867       -13.4932
  12   2.0000      -0.464443       -12.6381
  13   2.0000      -0.425176       -11.5696
  14   2.0000      -0.409482       -11.1426
  15   2.0000      -0.383545       -10.4368
  16   2.0000      -0.366262        -9.9665
  17   2.0000      -0.334340        -9.0978
  18   2.0000      -0.327624        -8.9151
  19   2.0000      -0.316955        -8.6248
  20   2.0000      -0.315536        -8.5862
  21   2.0000      -0.298655        -8.1268
  22   2.0000      -0.287258        -7.8167
  23   0.0000       0.006425         0.1748
  24   0.0000       0.013758         0.3744
  25   0.0000       0.063788         1.7357
  26   0.0000       0.102502         2.7892
  27   0.0000       0.105571         2.8727

MULLIKEN ATOMIC CHARGES
-----------------------
   0 C :   -0.476374
   1 C :   -0.253481
   2 C :   -0.242059
   3 C :   -0.329259
   4 C :    0.140378
   5 N :   -0.238606
   6 H :    0.161298
   7 H :    0.147519
   8 H :    0.151464
   9 H :    0.145151
  10 H :    0.135045
  11 H :    0.153153
  12 H :    0.155803
  13 H :    0.174065
  14 H :    0.175904
Sum of atomic charges:    0.0000000

LOEWDIN ATOMIC CHARGES
----------------------
   0 C :   -0.415414
   1 C :   -0.311445
   2 C :   -0.284837
   3 C :   -0.259005
   4 C :    0.119710
   5 N :   -0.326402
   6 H :    0.162207
   7 H :    0.151837
   8 H :    0.154991
   9 H :    0.155650
  10 H :    0.151396
  11 H :    0.159750
  12 H :    0.166065
  13 H :    0.188700
  14 H :    0.186798

  Mayer bond orders larger than 0.100000
B(  0-C ,  1-C ) :   0.9137 B(  0-C ,  6-H ) :   0.9769 B(  0-C ,  7-H ) :   0.9674
B(  0-C ,  8-H ) :   0.9726 B(  1-C ,  2-C ) :   0.9373 B(  1-C ,  9-H ) :   0.9532
B(  1-C , 10-H ) :   0.9849 B(  2-C ,  3-C ) :   0.8329 B(  2-C , 11-H ) :   0.9606
B(  2-C , 12-H ) :   0.9753 B(  3-C ,  4-C ) :   1.0171 B(  3-C , 13-H ) :   0.9396
B(  3-C , 14-H ) :   0.9741 B(  4-C ,  5-N ) :   2.8946

Dispersion correction           -0.003703989
FINAL SINGLE POINT ENERGY      -250.610346636631

DIPOLE MOMENT
-------------

Method             : SCF
Type of density    : Electron Density
Multiplicity       :   1
Irrep              :   0
Energy             :  -250.6129165667131531 Eh
Relativity type    :
Basis              : AO
                                X                 Y                 Z
Electronic contribution:      6.909428262       0.917154062      -0.172017348
Nuclear contribution   :     -7.930095709      -2.173007552       0.278679205
                        -----------------------------------------
Total Dipole Moment    :     -1.020667447      -1.255853491       0.106661857
                        -----------------------------------------
Magnitude (a.u.)       :      1.621822055
Magnitude (Debye)      :      4.122344056

Rotational constants in cm-1:             0.183491             0.085261             0.063658
Rotational constants in MHz :          5500.908439          2556.066860          1908.414693

                             ****ORCA TERMINATED NORMALLY****
TOTAL RUN TIME: 0 days 0 hours 0 minutes 15 seconds 996 msec
