                         Program Version 6.0.0  -   RELEASE  -
|  1> ! r2scan-3c def2/J RI DEFGRID2 scfconv6 printgap
|  2> %output
|  3>     printlevel normal
|  4> end
|  5> %cpcm
|  6>     smd true
|  7>     smdsolvent "water"
|  8> end
|  9> * xyz 0 1
| 10> C -1.5306446465 1.1389130391 -0.365515242
| 11> C -1.7515387739 -0.330134827 -0.0268424241
| 12> C -0.5943848128 -0.9513777995 0.7546357224
| 13> C 0.6985866066 -1.0787822882 -0.0685734489
| 14> C 1.4515409337 0.1412863972 -0.130595462
| 15> N 2.0895718573 1.0933205506 -0.1613098254
| 16> H -0.6581720887 1.2699661049 -1.0014881454
| 17> H -2.3955174484 1.5401581176 -0.8881225085
| 18> H -1.3772995672 1.7210325775 0.5407254351
| 19> H -2.6577873294 -0.4205994221 0.5757823087
| 20> H -1.910740974 -0.8954116607 -0.9481072601
| 21> H -0.8876245665 -1.953938431 1.0702691157
| 22> H -0.3984473168 -0.3600527589 1.6516046775
| 23> H 1.3534225183 -1.8273213218 0.3856953301
| 24> H 0.4671953632 -1.3964646964 -1.0883672493
| 25> *
| 26>
| 27>                          ****END OF INPUT****

CARTESIAN COORDINATES (ANGSTROEM)
---------------------------------
  C     -1.530645    1.138913   -0.365515
  C     -1.751539   -0.330135   -0.026842
  C     -0.594385   -0.951378    0.754636
  C      0.698587   -1.078782   -0.068573
  C      1.451541    0.141286   -0.130595
  N      2.089572    1.093321   -0.161310
  H     -0.658172    1.269966   -1.001488
  H     -2.395517    1.540158   -0.888123
  H     -1.377300    1.721033    0.540725
  H     -2.657787   -0.420599    0.575782
  H     -1.910741   -0.895412   -0.948107
  H     -0.887625   -1.953938    1.070269
  H     -0.398447   -0.360053    1.651605
  H      1.353423   -1.827321    0.385695
  H      0.467195   -1.396465   -1.088367

 Total Charge           Charge          ....    0
 Multiplicity           Mult            ....    1
 Number of Electrons    NEL             ....   46
 Basis Dimension        Dim             ....  164

ORBITAL ENERGIES
----------------

  NO   OCC          E(Eh)            E(eV)
   0   2.0000     -14.153171      -385.1274
   1   2.0000     -10.073940      -274.1258
   2   2.0000     -10.063475      -273.8411
   3   2.0000     -10.034362      -273.0489
   4   2.0000     -10.021683      -272.7039
   5   2.0000     -10.009175      -272.3635
   6   2.0000      -0.881207       -23.9789
   7   2.0000      -0.780030       -21.2257
   8   2.0000      -0.714348       -19.4384
   9   2.0000      -0.631809       -17.1924
  10   2.0000      -0.545203       -14.8357
  11   2.0000      -0.479006       -13.0344
  12   2.0000      -0.445741       -12.1292
  13   2.0000      -0.407583       -11.0909
  14   2.0000      -0.393418       -10.7055
  15   2.0000      -0.368993       -10.0408
  16   2.0000      -0.351835        -9.5739
  17   2.0000      -0.340732        -9.2718
  18   2.0000      -0.328372        -8.9355
  19   2.0000      -0.309744        -8.4286
  20   2.0000      -0.298514        -8.1230
  21   2.0000      -0.292776        -7.9668
  22   2.0000      -0.281219        -7.6524
  23   0.0000       0.005876         0.1599
  24   0.0000       0.012345         0.3359
  25   0.0000       0.070800         1.9266
  26   0.0000       0.120075         3.2674
  27   0.0000       0.124828         3.3967

MULLIKEN ATOMIC CHARGES
-----------------------
   0 C :   -0.530548
   1 C :   -0.252737
   2 C :   -0.263292
   3 C :   -0.328086
   4 C :    0.192797
   5 N :   -0.358362
   6 H :    0.159255
   7 H :    0.158222
   8 H :    0.161336
   9 H :    0.155193
  10 H :    0.151319
  11 H :    0.172971
  12 H :    0.165850
  13 H :    0.206776
  14 H :    0.209307
Sum of atomic charges:   -0.0000000

LOEWDIN ATOMIC CHARGES
----------------------
   0 C :   -0.426057
   1 C :   -0.311020
   2 C :   -0.280218
   3 C :   -0.252960
   4 C :    0.148722
   5 N :   -0.405217
   6 H :    0.158673
   7 H :    0.154242
   8 H :    0.154767
   9 H :    0.158415
  10 H :    0.156794
  11 H :    0.168092
  12 H :    0.167961
  13 H :    0.204864
  14 H :    0.202942

  Mayer bond orders larger than 0.100000
B(  0-C ,  1-C ) :   0.8918 B(  0-C ,  6-H ) :   0.9801 B(  0-C ,  7-H ) :   0.9650
B(  0-C ,  8-H ) :   0.9725 B(  1-C ,  2-C ) :   0.9340 B(  1-C ,  9-H ) :   0.9539
B(  1-C , 10-H ) :   0.9849 B(  2-C ,  3-C ) :   0.8051 B(  2-C , 11-H ) :   0.9561
B(  2-C , 12-H ) :   0.9788 B(  3-C ,  4-C ) :   1.0305 B(  3-C , 13-H ) :   0.9250
B(  3-C , 14-H ) :   0.9585 B(  4-C ,  5-N ) :   2.8751

Dispersion correction           -0.003703989
FINAL SINGLE POINT ENERGY      -250.616693608627

DIPOLE MOMENT
-------------

Method             : SCF
Type of density    : Electron Density
Multiplicity       :   1
Irrep              :   0
Energy             :  -250.6192635387098733 Eh
Relativity type    :
Basis              : AO
                                X                 Y                 Z
Electronic contribution:      6.636993749       0.397851273      -0.152014484
Nuclear contribution   :     -7.930095709      -2.173007552       0.278679205
                        -----------------------------------------
Total Dipole Moment    :     -1.293101960      -1.775156280       0.126664720
                        -----------------------------------------
Magnitude (a.u.)       :      2.199849188
Magnitude (Debye)      :      5.591572266

Rotational constants in cm-1:             0.183491             0.085261             0.063658
Rotational constants in MHz :          5500.908439          2556.066860          1908.414693

                             ****ORCA TERMINATED NORMALLY****
TOTAL RUN TIME: 0 days 0 hours 0 minutes 22 seconds 121 msec
