                         Program Version 6.0.0  -   RELEASE  -
|  1> ! pbe def2-sv(p) def2/J RI DEFGRID1 loosescf d4 GCP(DFT/SV(P)) printgap
|  2> %output
|  3>     printlevel normal
|  4> end
|  5> * xyz 0 1
|  6> C -1.0349297734 -0.5243922595 -0.2737200302
|  7> C 0.0018758451 0.2509832131 0.5510092108
|  8> C 1.3117058313 -0.5441941748 0.6439529912
|  9> O 1.7717396787 -0.7893762765 -0.6694182913
| 10> O 0.2363854355 1.5379916546 0.0337724701
| 11> O -2.3005747709 0.0703266951 -0.0905005686
| 12> H -1.0469983308 -1.5662515025 0.0717381707
| 13> H -0.7364153555 -0.5026942939 -1.3285994496
| 14> H -0.4026982086 0.411979016 1.5549022942
| 15> H 1.1299835745 -1.4842305267 1.1778203173
| 16> H 2.038564802 0.055904968 1.204300504
| 17> H 2.6221236852 -1.2471064808 -0.6317039061
| 18> H 0.6603406985 1.4409566346 -0.8328315069
| 19> H -2.9431901795 -0.3652665781 -0.6668702625
| 20> *
| 21>
| 22>                          ****END OF INPUT****

CARTESIAN COORDINATES (ANGSTROEM)
---------------------------------
  C     -1.034930   -0.524392   -0.273720
  C      0.001876    0.250983    0.551009
  C      1.311706   -0.544194    0.643953
  O      1.771740   -0.789376   -0.669418
  O      0.236385    1.537992    0.033772
  O     -2.300575    0.070327   -0.090501
  H     -1.046998   -1.566252    0.071738
  H     -0.736415   -0.502694   -1.328599
  H     -0.402698    0.411979    1.554902
  H      1.129984   -1.484231    1.177820
  H      2.038565    0.055905    1.204301
  H      2.622124   -1.247106   -0.631704
  H      0.660341    1.440957   -0.832832
  H     -2.943190   -0.365267   -0.666870

 Total Charge           Charge          ....    0
 Multiplicity           Mult            ....    1
 Number of Electrons    NEL             ....   50
 Basis Dimension        Dim             ....  100

ORBITAL ENERGIES
----------------

  NO   OCC          E(Eh)            E(eV)
   0   2.0000     -18.758039      -510.4322
   1   2.0000     -18.736520      -509.8466
   2   2.0000     -18.732330      -509.7326
   3   2.0000      -9.932356      -270.2731
   4   2.0000      -9.932296      -270.2715
   5   2.0000      -9.923275      -270.0260
   6   2.0000      -0.936932       -25.4952
   7   2.0000      -0.916802       -24.9475
   8   2.0000      -0.901696       -24.5364
   9   2.0000      -0.677971       -18.4485
  10   2.0000      -0.600626       -16.3439
  11   2.0000      -0.536082       -14.5875
  12   2.0000      -0.477057       -12.9814
  13   2.0000      -0.457575       -12.4513
  14   2.0000      -0.431291       -11.7360
  15   2.0000      -0.404361       -11.0032
  16   2.0000      -0.398513       -10.8441
  17   2.0000      -0.356439        -9.6992
  18   2.0000      -0.343786        -9.3549
  19   2.0000      -0.304237        -8.2787
  20   2.0000      -0.284811        -7.7501
  21   2.0000      -0.261828        -7.1247
  22   2.0000      -0.227648        -6.1946
  23   2.0000      -0.207293        -5.6407
  24   2.0000      -0.205279        -5.5859
  25   0.0000       0.015408         0.4193
  26   0.0000       0.034124         0.9286
  27   0.0000       0.064311         1.7500
  28   0.0000       0.073460         1.9990
  29   0.0000       0.098168         2.6713

MULLIKEN ATOMIC CHARGES
-----------------------
   0 C :    0.025387
   1 C :    0.029824
   2 C :   -0.004851
   3 O :   -0.449941
   4 O :   -0.430353
   5 O :   -0.428067
   6 H :    0.058065
   7 H :    0.066362
   8 H :    0.080632
   9 H :    0.069647
  10 H :    0.084490
  11 H :    0.306193
  12 H :    0.295408
  13 H :    0.297203
Sum of atomic charges:   -0.0000000

LOEWDIN ATOMIC CHARGES
----------------------
   0 C :   -0.135711
   1 C :   -0.076968
   2 C :   -0.138417
   3 O :   -0.349671
   4 O :   -0.319950
   5 O :   -0.344338
   6 H :    0.093926
   7 H :    0.097500
   8 H :    0.121833
   9 H :    0.096091
  10 H :    0.101372
  11 H :    0.290055
  12 H :    0.279961
  13 H :    0.284317

  Mayer bond orders larger than 0.100000
B(  0-C ,  1-C ) :   1.0420 B(  0-C ,  5-O ) :   1.1041 B(  0-C ,  6-H ) :   0.9164
B(  0-C ,  7-H ) :   0.9045 B(  1-C ,  2-C ) :   1.0533 B(  1-C ,  4-O ) :   1.0474
B(  1-C ,  8-H ) :   0.8957 B(  2-C ,  3-O ) :   1.0565 B(  2-C ,  9-H ) :   0.9088
B(  2-C , 10-H ) :   0.9205 B(  3-O , 11-H ) :   0.8500 B(  4-O , 12-H ) :   0.8473
B(  5-O , 13-H ) :   0.8538

Dispersion correction           -0.009147451
FINAL SINGLE POINT ENERGY      -344.004476765939

DIPOLE MOMENT
-------------

Method             : SCF
Type of density    : Electron Density
Multiplicity       :   1
Irrep              :   0
Energy             :  -344.0773374800579631 Eh
Relativity type    :
Basis              : AO
                                X                 Y                 Z
Electronic contribution:     -0.645451153       1.928268793      -0.828123477
Nuclear contribution   :      1.235650509      -3.043195073       0.504044178
                        -----------------------------------------
Total Dipole Moment    :      0.590199356      -1.114926280      -0.324079299
                        -----------------------------------------
Magnitude (a.u.)       :      1.302468150
Magnitude (Debye)      :      3.310610938

Rotational constants in cm-1:             0.195610             0.076548             0.065128
Rotational constants in MHz :          5864.248914          2294.858578          1952.487829

                             ****ORCA TERMINATED NORMALLY****
TOTAL RUN TIME: 0 days 0 hours 0 minutes 6 seconds 777 msec
