                         Program Version 6.0.0  -   RELEASE  -
|  1> ! pbe def2-sv(p) def2/J RI DEFGRID1 loosescf d4 GCP(DFT/SV(P)) printgap
|  2> %output
|  3>     printlevel normal
|  4> end
|  5> * xyz 0 1
|  6> C -0.358882048 -2.6794809731 -0.1443446784
|  7> C 0.4705390555 -1.4404804542 -0.0316377581
|  8> C 1.840609581 -1.4049572147 -0.3355748184
|  9> N 2.560592776 -0.3053400386 -0.2085221312
| 10> C 1.9548959582 0.8133299352 0.2202711229
| 11> N 0.6373721675 0.8931645205 0.4916675011
| 12> C -0.0585570682 -0.2154056631 0.3543835032
| 13> O -1.4061655328 -0.0879339645 0.6766925661
| 14> C -2.2849230566 -0.1169230423 -0.3672008415
| 15> O -1.9205609796 -0.250718684 -1.5264264391
| 16> N -3.5531119754 0.012784332 0.0246709853
| 17> C -4.6177983586 -0.0084199296 -0.9560108381
| 18> C -3.9674963671 0.179922999 1.4009702484
| 19> N 2.6982824152 1.912239782 0.3809795388
| 20> C 4.1125459018 1.9227602531 0.0946378041
| 21> C 2.1330607334 3.16429932 0.8198046139
| 22> C 2.5598449395 -2.6200480364 -0.8222506729
| 23> H 0.2101701195 -3.5517992358 0.1653205881
| 24> H -1.2468626181 -2.5956885434 0.4793368769
| 25> H -0.6820524578 -2.8196455493 -1.1768006868
| 26> H -5.3028756425 -0.8273105722 -0.7360909467
| 27> H -4.1797499192 -0.1511338548 -1.9407921213
| 28> H -5.1618046813 0.9358721044 -0.9313416776
| 29> H -4.5762792108 1.0803037267 1.4842644712
| 30> H -3.0956398529 0.2723743504 2.0404499679
| 31> H -4.5599051516 -0.681651819 1.7124524053
| 32> H 4.3238394073 2.6392794444 -0.7009508998
| 33> H 4.4141168303 0.9286001922 -0.2185894477
| 34> H 4.6657172467 2.2128050192 0.989181482
| 35> H 1.0719101097 3.0273387638 1.0010046048
| 36> H 2.2781545926 3.9261537037 0.0516837769
| 37> H 2.6251246825 3.4883737961 1.7383313654
| 38> H 2.5679010662 -3.3835436934 -0.0469826024
| 39> H 2.0555432814 -3.0254675626 -1.6960586424
| 40> H 3.5810246782 -2.3550905925 -1.0750803521
| 41> *
| 42>
| 43>                          ****END OF INPUT****

CARTESIAN COORDINATES (ANGSTROEM)
---------------------------------
  C     -0.358882   -2.679481   -0.144345
  C      0.470539   -1.440480   -0.031638
  C      1.840610   -1.404957   -0.335575
  N      2.560593   -0.305340   -0.208522
  C      1.954896    0.813330    0.220271
  N      0.637372    0.893165    0.491668
  C     -0.058557   -0.215406    0.354384
  O     -1.406166   -0.087934    0.676693
  C     -2.284923   -0.116923   -0.367201
  O     -1.920561   -0.250719   -1.526426
  N     -3.553112    0.012784    0.024671
  C     -4.617798   -0.008420   -0.956011
  C     -3.967496    0.179923    1.400970
  N      2.698282    1.912240    0.380980
  C      4.112546    1.922760    0.094638
  C      2.133061    3.164299    0.819805
  C      2.559845   -2.620048   -0.822251
  H      0.210170   -3.551799    0.165321
  H     -1.246863   -2.595689    0.479337
  H     -0.682052   -2.819646   -1.176801
  H     -5.302876   -0.827311   -0.736091
  H     -4.179750   -0.151134   -1.940792
  H     -5.161805    0.935872   -0.931342
  H     -4.576279    1.080304    1.484264
  H     -3.095640    0.272374    2.040450
  H     -4.559905   -0.681652    1.712452
  H      4.323839    2.639279   -0.700951
  H      4.414117    0.928600   -0.218589
  H      4.665717    2.212805    0.989181
  H      1.071910    3.027339    1.001005
  H      2.278155    3.926154    0.051684
  H      2.625125    3.488374    1.738331
  H      2.567901   -3.383544   -0.046983
  H      2.055543   -3.025468   -1.696059
  H      3.581025   -2.355091   -1.075080

 Total Charge           Charge          ....    0
 Multiplicity           Mult            ....    1
 Number of Electrons    NEL             ....  128
 Basis Dimension        Dim             ....  274

ORBITAL ENERGIES
----------------

  NO   OCC          E(Eh)            E(eV)
   0   2.0000     -18.794635      -511.4280
   1   2.0000     -18.712335      -509.1885
   2   2.0000     -14.029458      -381.7610
   3   2.0000     -14.017997      -381.4491
   4   2.0000     -13.969791      -380.1373
   5   2.0000     -13.964855      -380.0030
   6   2.0000     -10.018638      -272.6210
   7   2.0000      -9.975348      -271.4430
   8   2.0000      -9.972664      -271.3700
   9   2.0000      -9.930400      -270.2199
  10   2.0000      -9.921127      -269.9676
  11   2.0000      -9.917785      -269.8767
  12   2.0000      -9.906891      -269.5802
  13   2.0000      -9.906133      -269.5596
  14   2.0000      -9.888994      -269.0932
  15   2.0000      -9.879310      -268.8297
  16   2.0000      -9.877368      -268.7768
  17   2.0000      -1.007805       -27.4238
  18   2.0000      -0.915704       -24.9176
  19   2.0000      -0.901221       -24.5235
  20   2.0000      -0.857896       -23.3445
  21   2.0000      -0.840078       -22.8597
  22   2.0000      -0.789909       -21.4945
  23   2.0000      -0.720879       -19.6161
  24   2.0000      -0.666914       -18.1477
  25   2.0000      -0.658452       -17.9174
  26   2.0000      -0.652423       -17.7533
  27   2.0000      -0.643269       -17.5042
  28   2.0000      -0.634704       -17.2712
  29   2.0000      -0.586203       -15.9514
  30   2.0000      -0.569585       -15.4992
  31   2.0000      -0.522308       -14.2127
  32   2.0000      -0.501662       -13.6509
  33   2.0000      -0.482995       -13.1430
  34   2.0000      -0.480935       -13.0869
  35   2.0000      -0.452790       -12.3210
  36   2.0000      -0.438276       -11.9261
  37   2.0000      -0.431373       -11.7382
  38   2.0000      -0.425943       -11.5905
  39   2.0000      -0.404185       -10.9984
  40   2.0000      -0.398644       -10.8477
  41   2.0000      -0.391068       -10.6415
  42   2.0000      -0.375086       -10.2066
  43   2.0000      -0.372346       -10.1320
  44   2.0000      -0.366296        -9.9674
  45   2.0000      -0.364506        -9.9187
  46   2.0000      -0.357817        -9.7367
  47   2.0000      -0.357589        -9.7305
  48   2.0000      -0.353126        -9.6090
  49   2.0000      -0.352725        -9.5981
  50   2.0000      -0.347327        -9.4512
  51   2.0000      -0.342094        -9.3089
  52   2.0000      -0.337765        -9.1910
  53   2.0000      -0.336638        -9.1604
  54   2.0000      -0.330239        -8.9863
  55   2.0000      -0.322134        -8.7657
  56   2.0000      -0.262814        -7.1515
  57   2.0000      -0.253674        -6.9028
  58   2.0000      -0.249767        -6.7965
  59   2.0000      -0.246265        -6.7012
  60   2.0000      -0.214785        -5.8446
  61   2.0000      -0.205983        -5.6051
  62   2.0000      -0.189641        -5.1604
  63   2.0000      -0.169939        -4.6243
  64   0.0000      -0.041493        -1.1291
  65   0.0000      -0.013610        -0.3703
  66   0.0000       0.024490         0.6664
  67   0.0000       0.032086         0.8731
  68   0.0000       0.045263         1.2317

MULLIKEN ATOMIC CHARGES
-----------------------
   0 C :   -0.186812
   1 C :   -0.111459
   2 C :   -0.124871
   3 N :   -0.103170
   4 C :    0.052354
   5 N :   -0.088407
   6 C :    0.096068
   7 O :   -0.252915
   8 C :    0.219991
   9 O :   -0.252089
  10 N :   -0.242295
  11 C :   -0.170062
  12 C :   -0.174269
  13 N :   -0.206439
  14 C :   -0.167499
  15 C :   -0.167476
  16 C :   -0.197777
  17 H :    0.098715
  18 H :    0.104175
  19 H :    0.120686
  20 H :    0.107151
  21 H :    0.145373
  22 H :    0.109742
  23 H :    0.108000
  24 H :    0.149059
  25 H :    0.107651
  26 H :    0.101890
  27 H :    0.140240
  28 H :    0.100427
  29 H :    0.142267
  30 H :    0.102756
  31 H :    0.101010
  32 H :    0.117401
  33 H :    0.115097
  34 H :    0.105485
Sum of atomic charges:    0.0000000

LOEWDIN ATOMIC CHARGES
----------------------
   0 C :   -0.325023
   1 C :   -0.123040
   2 C :    0.008697
   3 N :   -0.120487
   4 C :    0.030443
   5 N :   -0.119590
   6 C :    0.067679
   7 O :   -0.057359
   8 C :    0.042918
   9 O :   -0.216166
  10 N :   -0.058574
  11 C :   -0.246646
  12 C :   -0.251162
  13 N :   -0.038092
  14 C :   -0.254307
  15 C :   -0.253327
  16 C :   -0.331566
  17 H :    0.123576
  18 H :    0.125793
  19 H :    0.136651
  20 H :    0.115391
  21 H :    0.138773
  22 H :    0.116374
  23 H :    0.116459
  24 H :    0.135458
  25 H :    0.114700
  26 H :    0.113126
  27 H :    0.133687
  28 H :    0.112505
  29 H :    0.135067
  30 H :    0.113633
  31 H :    0.112727
  32 H :    0.135367
  33 H :    0.135280
  34 H :    0.131038

  Mayer bond orders larger than 0.100000
B(  0-C ,  1-C ) :   1.1681 B(  0-C , 17-H ) :   0.9202 B(  0-C , 18-H ) :   0.9244
B(  0-C , 19-H ) :   0.9137 B(  1-C ,  2-C ) :   1.3086 B(  1-C ,  6-C ) :   1.3639
B(  2-C ,  3-N ) :   1.6046 B(  2-C , 16-C ) :   1.1537 B(  3-N ,  4-C ) :   1.4187
B(  4-C ,  5-N ) :   1.3979 B(  4-C , 13-N ) :   1.2105 B(  5-N ,  6-C ) :   1.5880
B(  6-C ,  7-O ) :   1.0137 B(  7-O ,  8-C ) :   1.0513 B(  8-C ,  9-O ) :   1.9748
B(  8-C , 10-N ) :   1.2014 B( 10-N , 11-C ) :   1.0125 B( 10-N , 12-C ) :   1.0068
B( 11-C , 20-H ) :   0.9522 B( 11-C , 21-H ) :   0.9328 B( 11-C , 22-H ) :   0.9524
B( 12-C , 23-H ) :   0.9492 B( 12-C , 24-H ) :   0.9390 B( 12-C , 25-H ) :   0.9501
B( 13-N , 14-C ) :   1.0181 B( 13-N , 15-C ) :   1.0184 B( 14-C , 26-H ) :   0.9495
B( 14-C , 27-H ) :   0.9227 B( 14-C , 28-H ) :   0.9499 B( 15-C , 29-H ) :   0.9247
B( 15-C , 30-H ) :   0.9494 B( 15-C , 31-H ) :   0.9499 B( 16-C , 32-H ) :   0.9231
B( 16-C , 33-H ) :   0.9238 B( 16-C , 34-H ) :   0.9278

Dispersion correction           -0.039757644
FINAL SINGLE POINT ENERGY      -797.789227730936

DIPOLE MOMENT
-------------

Method             : SCF
Type of density    : Electron Density
Multiplicity       :   1
Irrep              :   0
Energy             :  -797.9088477437171605 Eh
Relativity type    :
Basis              : AO
                                X                 Y                 Z
Electronic contribution:      0.476971960       0.889285426      -0.364006522
Nuclear contribution   :     -0.985557091      -0.817039337       1.060079238
                        -----------------------------------------
Total Dipole Moment    :     -0.508585131       0.072246089       0.696072715
                        -----------------------------------------
Magnitude (a.u.)       :      0.865098583
Magnitude (Debye)      :      2.198905847

Rotational constants in cm-1:             0.025457             0.009564             0.007595
Rotational constants in MHz :           763.180411           286.732389           227.704974

                             ****ORCA TERMINATED NORMALLY****
TOTAL RUN TIME: 0 days 0 hours 0 minutes 25 seconds 823 msec
