                         Program Version 6.0.0  -   RELEASE  -
|  1> ! r2scan-3c def2/J RI DEFGRID2 scfconv6 printgap
|  2> %output
|  3>     printlevel normal
|  4> end
|  5> * xyz 0 1
|  6> C -1.3612894965 -0.3653486115 -0.4053625503
|  7> C 0.0103514656 -0.0467310377 0.2137203483
|  8> C 1.1328974708 -0.7573100806 -0.5455888091
|  9> O 2.3408032969 -0.5860963048 0.1609577907
| 10> O 0.1887327319 1.3516925862 0.273547127
| 11> O -2.4005213413 0.2512479359 0.3152222955
| 12> H -1.5559313545 -1.4382628114 -0.3785350906
| 13> H -1.3777838932 -0.0253228644 -1.4517695136
| 14> H 0.0243709931 -0.3763474411 1.2578363575
| 15> H 1.2121271118 -0.3332168893 -1.5564268279
| 16> H 0.8762340346 -1.8205007502 -0.627666739
| 17> H 3.0546157941 -1.0457449672 -0.3021549462
| 18> H 0.4247642578 1.6857083732 -0.6043955054
| 19> H -2.1080973789 1.1475346918 0.5473514517
| 20> *
| 21>
| 22>                          ****END OF INPUT****

CARTESIAN COORDINATES (ANGSTROEM)
---------------------------------
  C     -1.361289   -0.365349   -0.405363
  C      0.010351   -0.046731    0.213720
  C      1.132897   -0.757310   -0.545589
  O      2.340803   -0.586096    0.160958
  O      0.188733    1.351693    0.273547
  O     -2.400521    0.251248    0.315222
  H     -1.555931   -1.438263   -0.378535
  H     -1.377784   -0.025323   -1.451770
  H      0.024371   -0.376347    1.257836
  H      1.212127   -0.333217   -1.556427
  H      0.876234   -1.820501   -0.627667
  H      3.054616   -1.045745   -0.302155
  H      0.424764    1.685708   -0.604396
  H     -2.108097    1.147535    0.547351

 Total Charge           Charge          ....    0
 Multiplicity           Mult            ....    1
 Number of Electrons    NEL             ....   50
 Basis Dimension        Dim             ....  169

ORBITAL ENERGIES
----------------

  NO   OCC          E(Eh)            E(eV)
   0   2.0000     -18.962251      -515.9891
   1   2.0000     -18.960059      -515.9294
   2   2.0000     -18.944449      -515.5047
   3   2.0000     -10.091949      -274.6159
   4   2.0000     -10.089711      -274.5550
   5   2.0000     -10.079399      -274.2744
   6   2.0000      -1.011600       -27.5270
   7   2.0000      -0.993139       -27.0247
   8   2.0000      -0.976281       -26.5659
   9   2.0000      -0.734035       -19.9741
  10   2.0000      -0.642041       -17.4708
  11   2.0000      -0.588181       -16.0052
  12   2.0000      -0.505888       -13.7659
  13   2.0000      -0.472025       -12.8445
  14   2.0000      -0.469382       -12.7725
  15   2.0000      -0.440598       -11.9893
  16   2.0000      -0.413446       -11.2504
  17   2.0000      -0.400555       -10.8996
  18   2.0000      -0.366201        -9.9648
  19   2.0000      -0.342438        -9.3182
  20   2.0000      -0.307209        -8.3596
  21   2.0000      -0.295739        -8.0475
  22   2.0000      -0.260256        -7.0819
  23   2.0000      -0.251670        -6.8483
  24   2.0000      -0.229565        -6.2468
  25   0.0000       0.042968         1.1692
  26   0.0000       0.059713         1.6249
  27   0.0000       0.076317         2.0767
  28   0.0000       0.104107         2.8329
  29   0.0000       0.114986         3.1289

MULLIKEN ATOMIC CHARGES
-----------------------
   0 C :   -0.154321
   1 C :    0.003542
   2 C :   -0.171857
   3 O :   -0.407656
   4 O :   -0.416646
   5 O :   -0.417967
   6 H :    0.134116
   7 H :    0.121966
   8 H :    0.152748
   9 H :    0.123675
  10 H :    0.124137
  11 H :    0.296774
  12 H :    0.294830
  13 H :    0.316659
Sum of atomic charges:   -0.0000000

LOEWDIN ATOMIC CHARGES
----------------------
   0 C :    0.014748
   1 C :    0.073069
   2 C :    0.020906
   3 O :   -0.604547
   4 O :   -0.576851
   5 O :   -0.599806
   6 H :    0.178181
   7 H :    0.158013
   8 H :    0.196100
   9 H :    0.157829
  10 H :    0.165450
  11 H :    0.269191
  12 H :    0.270442
  13 H :    0.277276

  Mayer bond orders larger than 0.100000
B(  0-C ,  1-C ) :   0.9359 B(  0-C ,  5-O ) :   0.9565 B(  0-C ,  6-H ) :   0.9673
B(  0-C ,  7-H ) :   0.9605 B(  1-C ,  2-C ) :   0.9855 B(  1-C ,  4-O ) :   0.9579
B(  1-C ,  8-H ) :   0.9404 B(  2-C ,  3-O ) :   0.9336 B(  2-C ,  9-H ) :   0.9589
B(  2-C , 10-H ) :   0.9587 B(  3-O , 11-H ) :   0.8975 B(  4-O , 12-H ) :   0.8937
B(  5-O , 13-H ) :   0.8662

Dispersion correction           -0.002975119
FINAL SINGLE POINT ENERGY      -344.721416427723

DIPOLE MOMENT
-------------

Method             : SCF
Type of density    : Electron Density
Multiplicity       :   1
Irrep              :   0
Energy             :  -344.7289807791507315 Eh
Relativity type    :
Basis              : AO
                                X                 Y                 Z
Electronic contribution:      0.192344995       1.678954650       1.837361759
Nuclear contribution   :      0.518192441      -2.054652195      -2.911989392
                        -----------------------------------------
Total Dipole Moment    :      0.710537436      -0.375697545      -1.074627633
                        -----------------------------------------
Magnitude (a.u.)       :      1.341952549
Magnitude (Debye)      :      3.410972304

Rotational constants in cm-1:             0.261381             0.065233             0.056450
Rotational constants in MHz :          7835.993133          1955.632831          1692.328774

                             ****ORCA TERMINATED NORMALLY****
TOTAL RUN TIME: 0 days 0 hours 0 minutes 20 seconds 360 msec
