                         Program Version 6.0.0  -   RELEASE  -
|  1> ! r2scan-3c def2/J RI DEFGRID2 scfconv6 printgap
|  2> %output
|  3>     printlevel normal
|  4> end
|  5> %cpcm
|  6>     smd true
|  7>     smdsolvent "water"
|  8> end
|  9> * xyz 0 1
| 10> C -1.3612894965 -0.3653486115 -0.4053625503
| 11> C 0.0103514656 -0.0467310377 0.2137203483
| 12> C 1.1328974708 -0.7573100806 -0.5455888091
| 13> O 2.3408032969 -0.5860963048 0.1609577907
| 14> O 0.1887327319 1.3516925862 0.273547127
| 15> O -2.4005213413 0.2512479359 0.3152222955
| 16> H -1.5559313545 -1.4382628114 -0.3785350906
| 17> H -1.3777838932 -0.0253228644 -1.4517695136
| 18> H 0.0243709931 -0.3763474411 1.2578363575
| 19> H 1.2121271118 -0.3332168893 -1.5564268279
| 20> H 0.8762340346 -1.8205007502 -0.627666739
| 21> H 3.0546157941 -1.0457449672 -0.3021549462
| 22> H 0.4247642578 1.6857083732 -0.6043955054
| 23> H -2.1080973789 1.1475346918 0.5473514517
| 24> *
| 25>
| 26>                          ****END OF INPUT****

CARTESIAN COORDINATES (ANGSTROEM)
---------------------------------
  C     -1.361289   -0.365349   -0.405363
  C      0.010351   -0.046731    0.213720
  C      1.132897   -0.757310   -0.545589
  O      2.340803   -0.586096    0.160958
  O      0.188733    1.351693    0.273547
  O     -2.400521    0.251248    0.315222
  H     -1.555931   -1.438263   -0.378535
  H     -1.377784   -0.025323   -1.451770
  H      0.024371   -0.376347    1.257836
  H      1.212127   -0.333217   -1.556427
  H      0.876234   -1.820501   -0.627667
  H      3.054616   -1.045745   -0.302155
  H      0.424764    1.685708   -0.604396
  H     -2.108097    1.147535    0.547351

 Total Charge           Charge          ....    0
 Multiplicity           Mult            ....    1
 Number of Electrons    NEL             ....   50
 Basis Dimension        Dim             ....  169

ORBITAL ENERGIES
----------------

  NO   OCC          E(Eh)            E(eV)
   0   2.0000     -18.958284      -515.8811
   1   2.0000     -18.954343      -515.7739
   2   2.0000     -18.952501      -515.7238
   3   2.0000     -10.082088      -274.3476
   4   2.0000     -10.075055      -274.1562
   5   2.0000     -10.071357      -274.0555
   6   2.0000      -1.008133       -27.4327
   7   2.0000      -0.989601       -26.9284
   8   2.0000      -0.978151       -26.6168
   9   2.0000      -0.724042       -19.7022
  10   2.0000      -0.633449       -17.2370
  11   2.0000      -0.579921       -15.7804
  12   2.0000      -0.499400       -13.5894
  13   2.0000      -0.464030       -12.6269
  14   2.0000      -0.460043       -12.5184
  15   2.0000      -0.433770       -11.8035
  16   2.0000      -0.409834       -11.1522
  17   2.0000      -0.393189       -10.6992
  18   2.0000      -0.362974        -9.8770
  19   2.0000      -0.341803        -9.3009
  20   2.0000      -0.313605        -8.5336
  21   2.0000      -0.290408        -7.9024
  22   2.0000      -0.261754        -7.1227
  23   2.0000      -0.246722        -6.7136
  24   2.0000      -0.233007        -6.3405
  25   0.0000       0.060439         1.6446
  26   0.0000       0.082783         2.2527
  27   0.0000       0.096447         2.6245
  28   0.0000       0.118615         3.2277
  29   0.0000       0.127983         3.4826

MULLIKEN ATOMIC CHARGES
-----------------------
   0 C :   -0.171205
   1 C :    0.030810
   2 C :   -0.182982
   3 O :   -0.498242
   4 O :   -0.492286
   5 O :   -0.501593
   6 H :    0.156110
   7 H :    0.145465
   8 H :    0.155780
   9 H :    0.155497
  10 H :    0.148578
  11 H :    0.350157
  12 H :    0.352118
  13 H :    0.351794
Sum of atomic charges:   -0.0000000

LOEWDIN ATOMIC CHARGES
----------------------
   0 C :    0.018497
   1 C :    0.072917
   2 C :    0.029018
   3 O :   -0.642516
   4 O :   -0.606089
   5 O :   -0.640974
   6 H :    0.186771
   7 H :    0.170496
   8 H :    0.194966
   9 H :    0.173620
  10 H :    0.176709
  11 H :    0.288726
  12 H :    0.290043
  13 H :    0.287816

  Mayer bond orders larger than 0.100000
B(  0-C ,  1-C ) :   0.9462 B(  0-C ,  5-O ) :   0.9364 B(  0-C ,  6-H ) :   0.9592
B(  0-C ,  7-H ) :   0.9584 B(  1-C ,  2-C ) :   0.9659 B(  1-C ,  4-O ) :   0.9425
B(  1-C ,  8-H ) :   0.9381 B(  2-C ,  3-O ) :   0.9205 B(  2-C ,  9-H ) :   0.9578
B(  2-C , 10-H ) :   0.9571 B(  3-O , 11-H ) :   0.8706 B(  4-O , 12-H ) :   0.8667
B(  5-O , 13-H ) :   0.8494

Dispersion correction           -0.002975119
FINAL SINGLE POINT ENERGY      -344.745135803843

DIPOLE MOMENT
-------------

Method             : SCF
Type of density    : Electron Density
Multiplicity       :   1
Irrep              :   0
Energy             :  -344.7527001552702473 Eh
Relativity type    :
Basis              : AO
                                X                 Y                 Z
Electronic contribution:      0.356038013       1.510283578       1.304968170
Nuclear contribution   :      0.518192441      -2.054652195      -2.911989392
                        -----------------------------------------
Total Dipole Moment    :      0.874230454      -0.544368617      -1.607021222
                        -----------------------------------------
Magnitude (a.u.)       :      1.908699371
Magnitude (Debye)      :      4.851528243

Rotational constants in cm-1:             0.261381             0.065233             0.056450
Rotational constants in MHz :          7835.993133          1955.632831          1692.328774

                             ****ORCA TERMINATED NORMALLY****
TOTAL RUN TIME: 0 days 0 hours 0 minutes 23 seconds 539 msec
