                         Program Version 6.0.0  -   RELEASE  -
|  1> ! r2scan-3c def2/J RI DEFGRID2 scfconv6 printgap
|  2> %output
|  3>     printlevel normal
|  4> end
|  5> * xyz 0 1
|  6> C 1.9167147212 0.7364605799 -0.703875444
|  7> C 1.368055642 0.0200514843 0.5283755793
|  8> C 1.4072837056 -1.4953304319 0.3412441139
|  9> C -0.0501378958 0.4961522059 0.8747839395
| 10> C -1.1395763372 0.1659184647 -0.1165166467
| 11> O -0.9462745643 -0.2067415529 -1.2562932736
| 12> C -2.5293860431 0.3386182574 0.4331288615
| 13> H 1.9248001892 1.8135159734 -0.5507828648
| 14> H 2.933950591 0.4106521825 -0.9069976402
| 15> H 1.3039567252 0.5138614962 -1.5733223102
| 16> H 2.0070111748 0.2750718808 1.3826692653
| 17> H 2.4270698298 -1.8274048119 0.1636142047
| 18> H 0.799984547 -1.7856095092 -0.5128143846
| 19> H 1.0289893884 -2.0023802906 1.2262307595
| 20> H -0.0463806016 1.5857274763 0.9702514307
| 21> H -0.3470126784 0.0911302208 1.8439063646
| 22> H -2.5963011671 1.2303812739 1.0481431414
| 23> H -3.2510331214 0.3797392462 -0.3781499543
| 24> H -2.7584278115 -0.5235446455 1.056797792
| 25> *
| 26>
| 27>                          ****END OF INPUT****

CARTESIAN COORDINATES (ANGSTROEM)
---------------------------------
  C      1.916715    0.736461   -0.703875
  C      1.368056    0.020051    0.528376
  C      1.407284   -1.495330    0.341244
  C     -0.050138    0.496152    0.874784
  C     -1.139576    0.165918   -0.116517
  O     -0.946275   -0.206742   -1.256293
  C     -2.529386    0.338618    0.433129
  H      1.924800    1.813516   -0.550783
  H      2.933951    0.410652   -0.906998
  H      1.303957    0.513861   -1.573322
  H      2.007011    0.275072    1.382669
  H      2.427070   -1.827405    0.163614
  H      0.799985   -1.785610   -0.512814
  H      1.028989   -2.002380    1.226231
  H     -0.046381    1.585727    0.970251
  H     -0.347013    0.091130    1.843906
  H     -2.596301    1.230381    1.048143
  H     -3.251033    0.379739   -0.378150
  H     -2.758428   -0.523545    1.056798

 Total Charge           Charge          ....    0
 Multiplicity           Mult            ....    1
 Number of Electrons    NEL             ....   56
 Basis Dimension        Dim             ....  198

ORBITAL ENERGIES
----------------

  NO   OCC          E(Eh)            E(eV)
   0   2.0000     -18.938931      -515.3545
   1   2.0000     -10.121519      -275.4205
   2   2.0000     -10.039549      -273.1900
   3   2.0000     -10.038290      -273.1558
   4   2.0000     -10.034053      -273.0405
   5   2.0000     -10.010403      -272.3969
   6   2.0000     -10.007024      -272.3050
   7   2.0000      -1.006164       -27.3791
   8   2.0000      -0.780295       -21.2329
   9   2.0000      -0.729014       -19.8375
  10   2.0000      -0.664443       -18.0804
  11   2.0000      -0.645494       -17.5648
  12   2.0000      -0.547767       -14.9055
  13   2.0000      -0.485346       -13.2069
  14   2.0000      -0.448835       -12.2134
  15   2.0000      -0.440824       -11.9954
  16   2.0000      -0.419556       -11.4167
  17   2.0000      -0.396032       -10.7766
  18   2.0000      -0.394654       -10.7391
  19   2.0000      -0.383988       -10.4488
  20   2.0000      -0.357989        -9.7414
  21   2.0000      -0.351135        -9.5549
  22   2.0000      -0.337602        -9.1866
  23   2.0000      -0.319291        -8.6884
  24   2.0000      -0.301274        -8.1981
  25   2.0000      -0.298203        -8.1145
  26   2.0000      -0.297308        -8.0902
  27   2.0000      -0.211684        -5.7602
  28   0.0000      -0.046051        -1.2531
  29   0.0000       0.065794         1.7903
  30   0.0000       0.106929         2.9097
  31   0.0000       0.119094         3.2407
  32   0.0000       0.132623         3.6088

MULLIKEN ATOMIC CHARGES
-----------------------
   0 C :   -0.543491
   1 C :    0.068846
   2 C :   -0.541710
   3 C :   -0.360007
   4 C :    0.331534
   5 O :   -0.368006
   6 C :   -0.521297
   7 H :    0.138101
   8 H :    0.141251
   9 H :    0.195295
  10 H :    0.148600
  11 H :    0.144123
  12 H :    0.187842
  13 H :    0.141072
  14 H :    0.171586
  15 H :    0.159676
  16 H :    0.153687
  17 H :    0.178793
  18 H :    0.174106
Sum of atomic charges:    0.0000000

LOEWDIN ATOMIC CHARGES
----------------------
   0 C :   -0.412215
   1 C :   -0.232971
   2 C :   -0.411174
   3 C :   -0.283693
   4 C :    0.222360
   5 O :   -0.483362
   6 C :   -0.388208
   7 H :    0.150395
   8 H :    0.151940
   9 H :    0.175848
  10 H :    0.155327
  11 H :    0.153624
  12 H :    0.171623
  13 H :    0.150787
  14 H :    0.184923
  15 H :    0.175704
  16 H :    0.166657
  17 H :    0.174486
  18 H :    0.177951

  Mayer bond orders larger than 0.100000
B(  0-C ,  1-C ) :   0.8902 B(  0-C ,  7-H ) :   0.9732 B(  0-C ,  8-H ) :   0.9724
B(  0-C ,  9-H ) :   0.9755 B(  1-C ,  2-C ) :   0.8906 B(  1-C ,  3-C ) :   0.9175
B(  1-C , 10-H ) :   0.9725 B(  2-C , 11-H ) :   0.9702 B(  2-C , 12-H ) :   0.9760
B(  2-C , 13-H ) :   0.9749 B(  3-C ,  4-C ) :   0.8960 B(  3-C , 14-H ) :   0.9360
B(  3-C , 15-H ) :   0.9537 B(  4-C ,  5-O ) :   1.9184 B(  4-C ,  6-C ) :   0.9023
B(  6-C , 16-H ) :   0.9577 B(  6-C , 17-H ) :   0.9883 B(  6-C , 18-H ) :   0.9466

Dispersion correction           -0.005095736
FINAL SINGLE POINT ENERGY      -311.003304439741

DIPOLE MOMENT
-------------

Method             : SCF
Type of density    : Electron Density
Multiplicity       :   1
Irrep              :   0
Energy             :  -311.0072668826096560 Eh
Relativity type    :
Basis              : AO
                                X                 Y                 Z
Electronic contribution:     -3.383284313       0.178228732      -2.496005169
Nuclear contribution   :      3.200686034       0.148109527       3.517820296
                        -----------------------------------------
Total Dipole Moment    :     -0.182598279       0.326338259       1.021815126
                        -----------------------------------------
Magnitude (a.u.)       :      1.088092341
Magnitude (Debye)      :      2.765710936

Rotational constants in cm-1:             0.144538             0.055291             0.053737
Rotational constants in MHz :          4333.145552          1657.595848          1610.996956

                             ****ORCA TERMINATED NORMALLY****
TOTAL RUN TIME: 0 days 0 hours 0 minutes 29 seconds 74 msec
