                         Program Version 6.0.0  -   RELEASE  -
|  1> ! r2scan-3c def2/J RI DEFGRID2 scfconv6 printgap
|  2> %output
|  3>     printlevel normal
|  4> end
|  5> %cpcm
|  6>     smd true
|  7>     smdsolvent "water"
|  8> end
|  9> * xyz 0 1
| 10> C 1.9167147212 0.7364605799 -0.703875444
| 11> C 1.368055642 0.0200514843 0.5283755793
| 12> C 1.4072837056 -1.4953304319 0.3412441139
| 13> C -0.0501378958 0.4961522059 0.8747839395
| 14> C -1.1395763372 0.1659184647 -0.1165166467
| 15> O -0.9462745643 -0.2067415529 -1.2562932736
| 16> C -2.5293860431 0.3386182574 0.4331288615
| 17> H 1.9248001892 1.8135159734 -0.5507828648
| 18> H 2.933950591 0.4106521825 -0.9069976402
| 19> H 1.3039567252 0.5138614962 -1.5733223102
| 20> H 2.0070111748 0.2750718808 1.3826692653
| 21> H 2.4270698298 -1.8274048119 0.1636142047
| 22> H 0.799984547 -1.7856095092 -0.5128143846
| 23> H 1.0289893884 -2.0023802906 1.2262307595
| 24> H -0.0463806016 1.5857274763 0.9702514307
| 25> H -0.3470126784 0.0911302208 1.8439063646
| 26> H -2.5963011671 1.2303812739 1.0481431414
| 27> H -3.2510331214 0.3797392462 -0.3781499543
| 28> H -2.7584278115 -0.5235446455 1.056797792
| 29> *
| 30>
| 31>                          ****END OF INPUT****

CARTESIAN COORDINATES (ANGSTROEM)
---------------------------------
  C      1.916715    0.736461   -0.703875
  C      1.368056    0.020051    0.528376
  C      1.407284   -1.495330    0.341244
  C     -0.050138    0.496152    0.874784
  C     -1.139576    0.165918   -0.116517
  O     -0.946275   -0.206742   -1.256293
  C     -2.529386    0.338618    0.433129
  H      1.924800    1.813516   -0.550783
  H      2.933951    0.410652   -0.906998
  H      1.303957    0.513861   -1.573322
  H      2.007011    0.275072    1.382669
  H      2.427070   -1.827405    0.163614
  H      0.799985   -1.785610   -0.512814
  H      1.028989   -2.002380    1.226231
  H     -0.046381    1.585727    0.970251
  H     -0.347013    0.091130    1.843906
  H     -2.596301    1.230381    1.048143
  H     -3.251033    0.379739   -0.378150
  H     -2.758428   -0.523545    1.056798

 Total Charge           Charge          ....    0
 Multiplicity           Mult            ....    1
 Number of Electrons    NEL             ....   56
 Basis Dimension        Dim             ....  198

ORBITAL ENERGIES
----------------

  NO   OCC          E(Eh)            E(eV)
   0   2.0000     -18.944014      -515.4928
   1   2.0000     -10.123993      -275.4879
   2   2.0000     -10.030344      -272.9395
   3   2.0000     -10.026943      -272.8470
   4   2.0000     -10.020574      -272.6737
   5   2.0000     -10.005742      -272.2701
   6   2.0000     -10.004344      -272.2320
   7   2.0000      -1.013734       -27.5851
   8   2.0000      -0.772600       -21.0235
   9   2.0000      -0.719904       -19.5896
  10   2.0000      -0.654523       -17.8105
  11   2.0000      -0.641873       -17.4662
  12   2.0000      -0.541681       -14.7399
  13   2.0000      -0.483354       -13.1527
  14   2.0000      -0.442994       -12.0545
  15   2.0000      -0.431300       -11.7363
  16   2.0000      -0.416401       -11.3308
  17   2.0000      -0.393642       -10.7115
  18   2.0000      -0.384438       -10.4611
  19   2.0000      -0.379667       -10.3313
  20   2.0000      -0.352769        -9.5993
  21   2.0000      -0.346756        -9.4357
  22   2.0000      -0.331049        -9.0083
  23   2.0000      -0.319883        -8.7045
  24   2.0000      -0.298001        -8.1090
  25   2.0000      -0.291967        -7.9448
  26   2.0000      -0.289381        -7.8745
  27   2.0000      -0.216464        -5.8903
  28   0.0000      -0.044909        -1.2220
  29   0.0000       0.075972         2.0673
  30   0.0000       0.121074         3.2946
  31   0.0000       0.131507         3.5785
  32   0.0000       0.140417         3.8209

MULLIKEN ATOMIC CHARGES
-----------------------
   0 C :   -0.580019
   1 C :    0.071074
   2 C :   -0.572110
   3 C :   -0.355262
   4 C :    0.359607
   5 O :   -0.460298
   6 C :   -0.557482
   7 H :    0.158188
   8 H :    0.155220
   9 H :    0.175184
  10 H :    0.162589
  11 H :    0.156979
  12 H :    0.171644
  13 H :    0.160564
  14 H :    0.201700
  15 H :    0.186665
  16 H :    0.182637
  17 H :    0.179785
  18 H :    0.203335
Sum of atomic charges:   -0.0000000

LOEWDIN ATOMIC CHARGES
----------------------
   0 C :   -0.420808
   1 C :   -0.231197
   2 C :   -0.418490
   3 C :   -0.276390
   4 C :    0.239385
   5 O :   -0.552910
   6 C :   -0.386746
   7 H :    0.156492
   8 H :    0.154660
   9 H :    0.166419
  10 H :    0.161401
  11 H :    0.155848
  12 H :    0.164269
  13 H :    0.157471
  14 H :    0.198004
  15 H :    0.188522
  16 H :    0.179664
  17 H :    0.173762
  18 H :    0.190645

  Mayer bond orders larger than 0.100000
B(  0-C ,  1-C ) :   0.8844 B(  0-C ,  7-H ) :   0.9704 B(  0-C ,  8-H ) :   0.9717
B(  0-C ,  9-H ) :   0.9795 B(  1-C ,  2-C ) :   0.8902 B(  1-C ,  3-C ) :   0.9046
B(  1-C , 10-H ) :   0.9678 B(  2-C , 11-H ) :   0.9698 B(  2-C , 12-H ) :   0.9781
B(  2-C , 13-H ) :   0.9705 B(  3-C ,  4-C ) :   0.9128 B(  3-C , 14-H ) :   0.9263
B(  3-C , 15-H ) :   0.9428 B(  4-C ,  5-O ) :   1.8501 B(  4-C ,  6-C ) :   0.9172
B(  6-C , 16-H ) :   0.9462 B(  6-C , 17-H ) :   0.9862 B(  6-C , 18-H ) :   0.9323

Dispersion correction           -0.005095736
FINAL SINGLE POINT ENERGY      -311.007953102496

DIPOLE MOMENT
-------------

Method             : SCF
Type of density    : Electron Density
Multiplicity       :   1
Irrep              :   0
Energy             :  -311.0119155453643884 Eh
Relativity type    :
Basis              : AO
                                X                 Y                 Z
Electronic contribution:     -3.431774918       0.371340658      -1.897083423
Nuclear contribution   :      3.200686034       0.148109527       3.517820296
                        -----------------------------------------
Total Dipole Moment    :     -0.231088884       0.519450184       1.620736872
                        -----------------------------------------
Magnitude (a.u.)       :      1.717561811
Magnitude (Debye)      :      4.365695176

Rotational constants in cm-1:             0.144538             0.055291             0.053737
Rotational constants in MHz :          4333.145552          1657.595848          1610.996956

                             ****ORCA TERMINATED NORMALLY****
TOTAL RUN TIME: 0 days 0 hours 0 minutes 31 seconds 537 msec
