                         Program Version 6.0.0  -   RELEASE  -
|  1> ! pbe def2-sv(p) def2/J RI DEFGRID1 loosescf d4 GCP(DFT/SV(P)) printgap
|  2> %output
|  3>     printlevel normal
|  4> end
|  5> * xyz 0 1
|  6> C 1.6616521964 1.2281158677 -0.5957877684
|  7> C 1.4464989191 -0.2284683973 -0.1878696254
|  8> H 2.1579213604 -0.8563221571 -0.7389601855
|  9> C 0.0316413197 -0.7528802373 -0.4916798387
| 10> C -1.1258721439 0.0430815321 0.1384807576
| 11> C -1.758678687 1.0039685982 -0.867659037
| 12> C -2.1959911507 -0.9073685374 0.6763831121
| 13> O 1.8002813561 -0.438174561 1.1699346302
| 14> H 1.0026346603 1.8888757778 -0.0384112225
| 15> H 2.6903886331 1.5135400952 -0.3883837525
| 16> H 1.4727105028 1.3473645261 -1.6583339773
| 17> H -0.0936671521 -0.7860702707 -1.5744342865
| 18> H 0.0009641312 -1.7815389001 -0.1256123932
| 19> H -0.7466590535 0.6285687401 0.9835705649
| 20> H -2.2030812329 0.4446773322 -1.6882539484
| 21> H -1.0229410488 1.6884324621 -1.2788879525
| 22> H -2.542396153 1.5885091847 -0.390421548
| 23> H -1.7823442445 -1.5664688744 1.4361999068
| 24> H -3.0160137417 -0.3460534276 1.1188200862
| 25> H -2.5952646553 -1.5192117118 -0.1296299138
| 26> H 1.227724454 0.1060228717 1.7283653026
| 27> *
| 28>
| 29>                          ****END OF INPUT****

CARTESIAN COORDINATES (ANGSTROEM)
---------------------------------
  C      1.661652    1.228116   -0.595788
  C      1.446499   -0.228468   -0.187870
  H      2.157921   -0.856322   -0.738960
  C      0.031641   -0.752880   -0.491680
  C     -1.125872    0.043082    0.138481
  C     -1.758679    1.003969   -0.867659
  C     -2.195991   -0.907369    0.676383
  O      1.800281   -0.438175    1.169935
  H      1.002635    1.888876   -0.038411
  H      2.690389    1.513540   -0.388384
  H      1.472711    1.347365   -1.658334
  H     -0.093667   -0.786070   -1.574434
  H      0.000964   -1.781539   -0.125612
  H     -0.746659    0.628569    0.983571
  H     -2.203081    0.444677   -1.688254
  H     -1.022941    1.688432   -1.278888
  H     -2.542396    1.588509   -0.390422
  H     -1.782344   -1.566469    1.436200
  H     -3.016014   -0.346053    1.118820
  H     -2.595265   -1.519212   -0.129630
  H      1.227724    0.106023    1.728365

 Total Charge           Charge          ....    0
 Multiplicity           Mult            ....    1
 Number of Electrons    NEL             ....   58
 Basis Dimension        Dim             ....  126

ORBITAL ENERGIES
----------------

  NO   OCC          E(Eh)            E(eV)
   0   2.0000     -18.735646      -509.8228
   1   2.0000      -9.934272      -270.3253
   2   2.0000      -9.900380      -269.4030
   3   2.0000      -9.878528      -268.8084
   4   2.0000      -9.875469      -268.7252
   5   2.0000      -9.874722      -268.7049
   6   2.0000      -9.874382      -268.6956
   7   2.0000      -0.913864       -24.8675
   8   2.0000      -0.733053       -19.9474
   9   2.0000      -0.675381       -18.3781
  10   2.0000      -0.615904       -16.7596
  11   2.0000      -0.608985       -16.5713
  12   2.0000      -0.544654       -14.8208
  13   2.0000      -0.498906       -13.5759
  14   2.0000      -0.438362       -11.9284
  15   2.0000      -0.418251       -11.3812
  16   2.0000      -0.405477       -11.0336
  17   2.0000      -0.383157       -10.4262
  18   2.0000      -0.379214       -10.3189
  19   2.0000      -0.364290        -9.9128
  20   2.0000      -0.343710        -9.3528
  21   2.0000      -0.333996        -9.0885
  22   2.0000      -0.329554        -8.9676
  23   2.0000      -0.311602        -8.4791
  24   2.0000      -0.296278        -8.0621
  25   2.0000      -0.286907        -7.8071
  26   2.0000      -0.281454        -7.6588
  27   2.0000      -0.258482        -7.0336
  28   2.0000      -0.209875        -5.7110
  29   0.0000       0.020242         0.5508
  30   0.0000       0.045196         1.2298
  31   0.0000       0.057525         1.5653
  32   0.0000       0.072233         1.9656
  33   0.0000       0.085881         2.3369

MULLIKEN ATOMIC CHARGES
-----------------------
   0 C :   -0.263482
   1 C :    0.006950
   2 H :    0.069091
   3 C :   -0.086763
   4 C :   -0.208165
   5 C :   -0.255596
   6 C :   -0.248742
   7 O :   -0.432380
   8 H :    0.099498
   9 H :    0.110152
  10 H :    0.100729
  11 H :    0.074502
  12 H :    0.084133
  13 H :    0.059490
  14 H :    0.098343
  15 H :    0.103664
  16 H :    0.097262
  17 H :    0.103792
  18 H :    0.096134
  19 H :    0.098651
  20 H :    0.292735
Sum of atomic charges:   -0.0000000

LOEWDIN ATOMIC CHARGES
----------------------
   0 C :   -0.354556
   1 C :   -0.056111
   2 H :    0.112789
   3 C :   -0.230255
   4 C :   -0.159957
   5 C :   -0.330424
   6 C :   -0.328532
   7 O :   -0.331097
   8 H :    0.115350
   9 H :    0.124018
  10 H :    0.122622
  11 H :    0.118791
  12 H :    0.120078
  13 H :    0.099426
  14 H :    0.117741
  15 H :    0.116378
  16 H :    0.116987
  17 H :    0.117620
  18 H :    0.115609
  19 H :    0.117911
  20 H :    0.275614

  Mayer bond orders larger than 0.100000
B(  0-C ,  1-C ) :   1.1153 B(  0-C ,  8-H ) :   0.9331 B(  0-C ,  9-H ) :   0.9421
B(  0-C , 10-H ) :   0.9355 B(  1-C ,  2-H ) :   0.9025 B(  1-C ,  3-C ) :   1.0743
B(  1-C ,  7-O ) :   1.0422 B(  3-C ,  4-C ) :   1.0289 B(  3-C , 11-H ) :   0.9042
B(  3-C , 12-H ) :   0.9160 B(  4-C ,  5-C ) :   1.1150 B(  4-C ,  6-C ) :   1.1138
B(  4-C , 13-H ) :   0.9012 B(  5-C , 14-H ) :   0.9471 B(  5-C , 15-H ) :   0.9435
B(  5-C , 16-H ) :   0.9499 B(  6-C , 17-H ) :   0.9477 B(  6-C , 18-H ) :   0.9515
B(  6-C , 19-H ) :   0.9507 B(  7-O , 20-H ) :   0.8497

Dispersion correction           -0.016676263
FINAL SINGLE POINT ENERGY      -311.515196186414

DIPOLE MOMENT
-------------

Method             : SCF
Type of density    : Electron Density
Multiplicity       :   1
Irrep              :   0
Energy             :  -311.5947766721862990 Eh
Relativity type    :
Basis              : AO
                                X                 Y                 Z
Electronic contribution:      4.647075831      -1.836082445       2.401445030
Nuclear contribution   :     -5.086295848       2.198486998      -2.557308273
                        -----------------------------------------
Total Dipole Moment    :     -0.439220017       0.362404553      -0.155863243
                        -----------------------------------------
Magnitude (a.u.)       :      0.590376688
Magnitude (Debye)      :      1.500618285

Rotational constants in cm-1:             0.125646             0.055961             0.044881
Rotational constants in MHz :          3766.774112          1677.653603          1345.490338

                             ****ORCA TERMINATED NORMALLY****
TOTAL RUN TIME: 0 days 0 hours 0 minutes 9 seconds 397 msec
