                         Program Version 6.0.0  -   RELEASE  -
|  1> ! r2scan-3c def2/J RI DEFGRID2 scfconv6 printgap
|  2> %output
|  3>     printlevel normal
|  4> end
|  5> * xyz 0 1
|  6> C 2.5522838971 -0.2220585088 0.7267140117
|  7> C 1.1360313869 -0.6512861802 0.3542321459
|  8> C 0.2428358219 0.5346602325 -0.0306579584
|  9> H 0.3971625645 1.3433249422 0.7051098565
| 10> C -1.2630302206 0.2059104313 -0.049870973
| 11> C -1.5709137131 -1.0175713775 -0.910173845
| 12> C -1.830657035 0.0425228609 1.3570921109
| 13> O 0.5595297967 1.0303111157 -1.3237209904
| 14> H 3.1328900271 -1.0865862014 1.0383436884
| 15> H 2.5303898089 0.4911316606 1.5482427068
| 16> H 3.0637434006 0.237112118 -0.1163174414
| 17> H 1.1725098029 -1.3470008354 -0.485131683
| 18> H 0.6877926474 -1.162778308 1.2055218208
| 19> H -1.7394319248 1.0750416429 -0.5184220086
| 20> H -2.6449040683 -1.1113904863 -1.0498863803
| 21> H -1.1029217867 -0.9098681995 -1.8853103505
| 22> H -1.2055252739 -1.9259069691 -0.4384403251
| 23> H -1.6133158818 0.9172819284 1.9653646153
| 24> H -1.4125464336 -0.8330560838 1.8472657116
| 25> H -2.9090924349 -0.0815110221 1.3050376009
| 26> H 1.5016931204 1.2408144898 -1.3563266978
| 27> *
| 28>
| 29>                          ****END OF INPUT****

CARTESIAN COORDINATES (ANGSTROEM)
---------------------------------
  C      2.552284   -0.222059    0.726714
  C      1.136031   -0.651286    0.354232
  C      0.242836    0.534660   -0.030658
  H      0.397163    1.343325    0.705110
  C     -1.263030    0.205910   -0.049871
  C     -1.570914   -1.017571   -0.910174
  C     -1.830657    0.042523    1.357092
  O      0.559530    1.030311   -1.323721
  H      3.132890   -1.086586    1.038344
  H      2.530390    0.491132    1.548243
  H      3.063743    0.237112   -0.116317
  H      1.172510   -1.347001   -0.485132
  H      0.687793   -1.162778    1.205522
  H     -1.739432    1.075042   -0.518422
  H     -2.644904   -1.111390   -1.049886
  H     -1.102922   -0.909868   -1.885310
  H     -1.205525   -1.925907   -0.438440
  H     -1.613316    0.917282    1.965365
  H     -1.412546   -0.833056    1.847266
  H     -2.909092   -0.081511    1.305038
  H      1.501693    1.240814   -1.356327

 Total Charge           Charge          ....    0
 Multiplicity           Mult            ....    1
 Number of Electrons    NEL             ....   58
 Basis Dimension        Dim             ....  208

ORBITAL ENERGIES
----------------

  NO   OCC          E(Eh)            E(eV)
   0   2.0000     -18.943866      -515.4888
   1   2.0000     -10.075561      -274.1700
   2   2.0000     -10.029260      -272.9101
   3   2.0000     -10.026281      -272.8290
   4   2.0000     -10.025546      -272.8090
   5   2.0000     -10.016266      -272.5564
   6   2.0000     -10.008544      -272.3463
   7   2.0000      -0.981949       -26.7202
   8   2.0000      -0.771844       -21.0029
   9   2.0000      -0.732158       -19.9230
  10   2.0000      -0.648066       -17.6348
  11   2.0000      -0.639781       -17.4093
  12   2.0000      -0.578058       -15.7298
  13   2.0000      -0.509854       -13.8738
  14   2.0000      -0.477104       -12.9827
  15   2.0000      -0.433641       -11.8000
  16   2.0000      -0.429331       -11.6827
  17   2.0000      -0.404735       -11.0134
  18   2.0000      -0.390207       -10.6181
  19   2.0000      -0.357716        -9.7339
  20   2.0000      -0.355734        -9.6800
  21   2.0000      -0.344677        -9.3791
  22   2.0000      -0.340063        -9.2536
  23   2.0000      -0.324315        -8.8251
  24   2.0000      -0.311658        -8.4807
  25   2.0000      -0.300761        -8.1841
  26   2.0000      -0.292680        -7.9642
  27   2.0000      -0.270589        -7.3631
  28   2.0000      -0.231862        -6.3093
  29   0.0000       0.059524         1.6197
  30   0.0000       0.087866         2.3909
  31   0.0000       0.109374         2.9762
  32   0.0000       0.120083         3.2676
  33   0.0000       0.126028         3.4294

MULLIKEN ATOMIC CHARGES
-----------------------
   0 C :   -0.493756
   1 C :   -0.295851
   2 C :    0.053396
   3 H :    0.132874
   4 C :   -0.019319
   5 C :   -0.537847
   6 C :   -0.513446
   7 O :   -0.435674
   8 H :    0.153048
   9 H :    0.151827
  10 H :    0.129601
  11 H :    0.166549
  12 H :    0.146213
  13 H :    0.159080
  14 H :    0.147911
  15 H :    0.176818
  16 H :    0.150436
  17 H :    0.147515
  18 H :    0.148835
  19 H :    0.149856
  20 H :    0.281934
Sum of atomic charges:   -0.0000000

LOEWDIN ATOMIC CHARGES
----------------------
   0 C :   -0.421343
   1 C :   -0.295034
   2 C :    0.060998
   3 H :    0.164597
   4 C :   -0.212180
   5 C :   -0.410898
   6 C :   -0.413923
   7 O :   -0.621195
   8 H :    0.153965
   9 H :    0.152835
  10 H :    0.143524
  11 H :    0.166791
  12 H :    0.160355
  13 H :    0.171274
  14 H :    0.152835
  15 H :    0.166616
  16 H :    0.152537
  17 H :    0.154019
  18 H :    0.150855
  19 H :    0.155999
  20 H :    0.267374

  Mayer bond orders larger than 0.100000
B(  0-C ,  1-C ) :   0.8973 B(  0-C ,  8-H ) :   0.9727 B(  0-C ,  9-H ) :   0.9865
B(  0-C , 10-H ) :   0.9811 B(  1-C ,  2-C ) :   0.8511 B(  1-C , 11-H ) :   0.9674
B(  1-C , 12-H ) :   0.9693 B(  2-C ,  3-H ) :   0.9876 B(  2-C ,  4-C ) :   0.9175
B(  2-C ,  7-O ) :   0.8428 B(  4-C ,  5-C ) :   0.8925 B(  4-C ,  6-C ) :   0.9008
B(  4-C , 13-H ) :   0.9799 B(  5-C , 14-H ) :   0.9714 B(  5-C , 15-H ) :   0.9738
B(  5-C , 16-H ) :   0.9765 B(  6-C , 17-H ) :   0.9769 B(  6-C , 18-H ) :   0.9821
B(  6-C , 19-H ) :   0.9704 B(  7-O , 20-H ) :   0.9008

Dispersion correction           -0.005657534
FINAL SINGLE POINT ENERGY      -312.202513771782

DIPOLE MOMENT
-------------

Method             : SCF
Type of density    : Electron Density
Multiplicity       :   1
Irrep              :   0
Energy             :  -312.2080670247040075 Eh
Relativity type    :
Basis              : AO
                                X                 Y                 Z
Electronic contribution:      0.497236869       2.845547132      -3.096011143
Nuclear contribution   :     -0.124499229      -2.943106175       3.512588664
                        -----------------------------------------
Total Dipole Moment    :      0.372737640      -0.097559043       0.416577521
                        -----------------------------------------
Magnitude (a.u.)       :      0.567439817
Magnitude (Debye)      :      1.442317393

Rotational constants in cm-1:             0.116738             0.057048             0.049563
Rotational constants in MHz :          3499.715639          1710.260216          1485.851852

                             ****ORCA TERMINATED NORMALLY****
TOTAL RUN TIME: 0 days 0 hours 0 minutes 28 seconds 105 msec
