                         Program Version 6.0.0  -   RELEASE  -
|  1> ! r2scan-3c def2/J RI DEFGRID2 scfconv6 printgap
|  2> %output
|  3>     printlevel normal
|  4> end
|  5> %cpcm
|  6>     smd true
|  7>     smdsolvent "water"
|  8> end
|  9> * xyz 0 1
| 10> C 2.5522838971 -0.2220585088 0.7267140117
| 11> C 1.1360313869 -0.6512861802 0.3542321459
| 12> C 0.2428358219 0.5346602325 -0.0306579584
| 13> H 0.3971625645 1.3433249422 0.7051098565
| 14> C -1.2630302206 0.2059104313 -0.049870973
| 15> C -1.5709137131 -1.0175713775 -0.910173845
| 16> C -1.830657035 0.0425228609 1.3570921109
| 17> O 0.5595297967 1.0303111157 -1.3237209904
| 18> H 3.1328900271 -1.0865862014 1.0383436884
| 19> H 2.5303898089 0.4911316606 1.5482427068
| 20> H 3.0637434006 0.237112118 -0.1163174414
| 21> H 1.1725098029 -1.3470008354 -0.485131683
| 22> H 0.6877926474 -1.162778308 1.2055218208
| 23> H -1.7394319248 1.0750416429 -0.5184220086
| 24> H -2.6449040683 -1.1113904863 -1.0498863803
| 25> H -1.1029217867 -0.9098681995 -1.8853103505
| 26> H -1.2055252739 -1.9259069691 -0.4384403251
| 27> H -1.6133158818 0.9172819284 1.9653646153
| 28> H -1.4125464336 -0.8330560838 1.8472657116
| 29> H -2.9090924349 -0.0815110221 1.3050376009
| 30> H 1.5016931204 1.2408144898 -1.3563266978
| 31> *
| 32>
| 33>                          ****END OF INPUT****

CARTESIAN COORDINATES (ANGSTROEM)
---------------------------------
  C      2.552284   -0.222059    0.726714
  C      1.136031   -0.651286    0.354232
  C      0.242836    0.534660   -0.030658
  H      0.397163    1.343325    0.705110
  C     -1.263030    0.205910   -0.049871
  C     -1.570914   -1.017571   -0.910174
  C     -1.830657    0.042523    1.357092
  O      0.559530    1.030311   -1.323721
  H      3.132890   -1.086586    1.038344
  H      2.530390    0.491132    1.548243
  H      3.063743    0.237112   -0.116317
  H      1.172510   -1.347001   -0.485132
  H      0.687793   -1.162778    1.205522
  H     -1.739432    1.075042   -0.518422
  H     -2.644904   -1.111390   -1.049886
  H     -1.102922   -0.909868   -1.885310
  H     -1.205525   -1.925907   -0.438440
  H     -1.613316    0.917282    1.965365
  H     -1.412546   -0.833056    1.847266
  H     -2.909092   -0.081511    1.305038
  H      1.501693    1.240814   -1.356327

 Total Charge           Charge          ....    0
 Multiplicity           Mult            ....    1
 Number of Electrons    NEL             ....   58
 Basis Dimension        Dim             ....  208

ORBITAL ENERGIES
----------------

  NO   OCC          E(Eh)            E(eV)
   0   2.0000     -18.947670      -515.5923
   1   2.0000     -10.070695      -274.0375
   2   2.0000     -10.025803      -272.8160
   3   2.0000     -10.016384      -272.5597
   4   2.0000     -10.010680      -272.4044
   5   2.0000     -10.008310      -272.3400
   6   2.0000     -10.006193      -272.2824
   7   2.0000      -0.984727       -26.7958
   8   2.0000      -0.766713       -20.8633
   9   2.0000      -0.722301       -19.6548
  10   2.0000      -0.643666       -17.5150
  11   2.0000      -0.632949       -17.2234
  12   2.0000      -0.569913       -15.5081
  13   2.0000      -0.505670       -13.7600
  14   2.0000      -0.473635       -12.8883
  15   2.0000      -0.427756       -11.6398
  16   2.0000      -0.421594       -11.4722
  17   2.0000      -0.397977       -10.8295
  18   2.0000      -0.384093       -10.4517
  19   2.0000      -0.351852        -9.5744
  20   2.0000      -0.347313        -9.4509
  21   2.0000      -0.339995        -9.2517
  22   2.0000      -0.334321        -9.0973
  23   2.0000      -0.318871        -8.6769
  24   2.0000      -0.302282        -8.2255
  25   2.0000      -0.296937        -8.0801
  26   2.0000      -0.289378        -7.8744
  27   2.0000      -0.266747        -7.2586
  28   2.0000      -0.235212        -6.4004
  29   0.0000       0.075989         2.0678
  30   0.0000       0.096866         2.6359
  31   0.0000       0.118062         3.2126
  32   0.0000       0.127791         3.4774
  33   0.0000       0.135284         3.6813

MULLIKEN ATOMIC CHARGES
-----------------------
   0 C :   -0.532296
   1 C :   -0.297317
   2 C :    0.051327
   3 H :    0.146515
   4 C :   -0.010442
   5 C :   -0.564329
   6 C :   -0.556529
   7 O :   -0.523096
   8 H :    0.161317
   9 H :    0.160401
  10 H :    0.155270
  11 H :    0.164972
  12 H :    0.163371
  13 H :    0.158731
  14 H :    0.163109
  15 H :    0.165628
  16 H :    0.166855
  17 H :    0.159796
  18 H :    0.166973
  19 H :    0.161533
  20 H :    0.338213
Sum of atomic charges:   -0.0000000

LOEWDIN ATOMIC CHARGES
----------------------
   0 C :   -0.427522
   1 C :   -0.293302
   2 C :    0.060654
   3 H :    0.171948
   4 C :   -0.213506
   5 C :   -0.418849
   6 C :   -0.419644
   7 O :   -0.657802
   8 H :    0.155178
   9 H :    0.155559
  10 H :    0.152366
  11 H :    0.166154
  12 H :    0.166286
  13 H :    0.168862
  14 H :    0.156638
  15 H :    0.161017
  16 H :    0.157943
  17 H :    0.157772
  18 H :    0.156585
  19 H :    0.158508
  20 H :    0.285154

  Mayer bond orders larger than 0.100000
B(  0-C ,  1-C ) :   0.8939 B(  0-C ,  8-H ) :   0.9711 B(  0-C ,  9-H ) :   0.9831
B(  0-C , 10-H ) :   0.9762 B(  1-C ,  2-C ) :   0.8725 B(  1-C , 11-H ) :   0.9636
B(  1-C , 12-H ) :   0.9681 B(  2-C ,  3-H ) :   0.9822 B(  2-C ,  4-C ) :   0.9061
B(  2-C ,  7-O ) :   0.8320 B(  4-C ,  5-C ) :   0.8850 B(  4-C ,  6-C ) :   0.9018
B(  4-C , 13-H ) :   0.9827 B(  5-C , 14-H ) :   0.9699 B(  5-C , 15-H ) :   0.9736
B(  5-C , 16-H ) :   0.9740 B(  6-C , 17-H ) :   0.9729 B(  6-C , 18-H ) :   0.9795
B(  6-C , 19-H ) :   0.9680 B(  7-O , 20-H ) :   0.8764

Dispersion correction           -0.005657534
FINAL SINGLE POINT ENERGY      -312.207800866098

DIPOLE MOMENT
-------------

Method             : SCF
Type of density    : Electron Density
Multiplicity       :   1
Irrep              :   0
Energy             :  -312.2133541190202095 Eh
Relativity type    :
Basis              : AO
                                X                 Y                 Z
Electronic contribution:      0.657486563       2.809848713      -2.855178825
Nuclear contribution   :     -0.124499229      -2.943106175       3.512588664
                        -----------------------------------------
Total Dipole Moment    :      0.532987334      -0.133257463       0.657409839
                        -----------------------------------------
Magnitude (a.u.)       :      0.856750107
Magnitude (Debye)      :      2.177685709

Rotational constants in cm-1:             0.116738             0.057048             0.049563
Rotational constants in MHz :          3499.715639          1710.260216          1485.851852

                             ****ORCA TERMINATED NORMALLY****
TOTAL RUN TIME: 0 days 0 hours 0 minutes 33 seconds 388 msec
