                         Program Version 6.0.0  -   RELEASE  -
|  1> ! r2scan-3c def2/J RI DEFGRID2 scfconv6 printgap
|  2> %output
|  3>     printlevel normal
|  4> end
|  5> * xyz 0 1
|  6> C 1.5120767011 0.1708075769 -1.1940735802
|  7> C 1.1173387452 -0.2172947162 0.2295578158
|  8> H 0.9777034465 -1.3010114772 0.2898755254
|  9> C -0.1359035029 0.500703975 0.7552888732
| 10> C -1.5048788374 0.1148969328 0.1685607934
| 11> C -1.791681454 0.7676850698 -1.1831295202
| 12> C -1.7012795102 -1.397280023 0.0855570764
| 13> O 2.1988954034 0.0261681557 1.1229848993
| 14> H 0.8499470964 -0.2923265137 -1.917378984
| 15> H 1.4783124399 1.2503154501 -1.3228587294
| 16> H 2.5249003752 -0.1762520974 -1.3886619688
| 17> H -0.164342861 0.2963802494 1.8296957264
| 18> H 0.0037218182 1.5781650804 0.6305885575
| 19> H -2.2471039585 0.5074131794 0.8750278602
| 20> H -2.8321322834 0.604614071 -1.4557107534
| 21> H -1.1703915954 0.3482366144 -1.9677453211
| 22> H -1.6163511029 1.8397614386 -1.1374361563
| 23> H -1.0665806718 -1.8299672338 -0.6836319357
| 24> H -1.4648670837 -1.8675913317 1.0370564524
| 25> H -2.7354615435 -1.6246239938 -0.1622712081
| 26> H 2.4011068695 0.9722389994 1.11141951
| 27> *
| 28>
| 29>                          ****END OF INPUT****

CARTESIAN COORDINATES (ANGSTROEM)
---------------------------------
  C      1.512077    0.170808   -1.194074
  C      1.117339   -0.217295    0.229558
  H      0.977703   -1.301011    0.289876
  C     -0.135904    0.500704    0.755289
  C     -1.504879    0.114897    0.168561
  C     -1.791681    0.767685   -1.183130
  C     -1.701280   -1.397280    0.085557
  O      2.198895    0.026168    1.122985
  H      0.849947   -0.292327   -1.917379
  H      1.478312    1.250315   -1.322859
  H      2.524900   -0.176252   -1.388662
  H     -0.164343    0.296380    1.829696
  H      0.003722    1.578165    0.630589
  H     -2.247104    0.507413    0.875028
  H     -2.832132    0.604614   -1.455711
  H     -1.170392    0.348237   -1.967745
  H     -1.616351    1.839761   -1.137436
  H     -1.066581   -1.829967   -0.683632
  H     -1.464867   -1.867591    1.037056
  H     -2.735462   -1.624624   -0.162271
  H      2.401107    0.972239    1.111420

 Total Charge           Charge          ....    0
 Multiplicity           Mult            ....    1
 Number of Electrons    NEL             ....   58
 Basis Dimension        Dim             ....  208

ORBITAL ENERGIES
----------------

  NO   OCC          E(Eh)            E(eV)
   0   2.0000     -18.940998      -515.4107
   1   2.0000     -10.078664      -274.2544
   2   2.0000     -10.037468      -273.1334
   3   2.0000     -10.022878      -272.7364
   4   2.0000     -10.018572      -272.6192
   5   2.0000     -10.018026      -272.6043
   6   2.0000     -10.016265      -272.5564
   7   2.0000      -0.979260       -26.6470
   8   2.0000      -0.778938       -21.1960
   9   2.0000      -0.715673       -19.4745
  10   2.0000      -0.656197       -17.8560
  11   2.0000      -0.651941       -17.7402
  12   2.0000      -0.577040       -15.7021
  13   2.0000      -0.523858       -14.2549
  14   2.0000      -0.454076       -12.3560
  15   2.0000      -0.439253       -11.9527
  16   2.0000      -0.415567       -11.3082
  17   2.0000      -0.410201       -11.1621
  18   2.0000      -0.390319       -10.6211
  19   2.0000      -0.381881       -10.3915
  20   2.0000      -0.361306        -9.8316
  21   2.0000      -0.343406        -9.3446
  22   2.0000      -0.339184        -9.2297
  23   2.0000      -0.330707        -8.9990
  24   2.0000      -0.310912        -8.4604
  25   2.0000      -0.296829        -8.0771
  26   2.0000      -0.287311        -7.8181
  27   2.0000      -0.275820        -7.5054
  28   2.0000      -0.230829        -6.2812
  29   0.0000       0.067292         1.8311
  30   0.0000       0.075358         2.0506
  31   0.0000       0.105164         2.8617
  32   0.0000       0.119396         3.2489
  33   0.0000       0.122450         3.3320

MULLIKEN ATOMIC CHARGES
-----------------------
   0 C :   -0.485212
   1 C :   -0.030712
   2 H :    0.148112
   3 C :   -0.271457
   4 C :   -0.033391
   5 C :   -0.487879
   6 C :   -0.503236
   7 O :   -0.411313
   8 H :    0.143015
   9 H :    0.148560
  10 H :    0.165104
  11 H :    0.166183
  12 H :    0.132289
  13 H :    0.144296
  14 H :    0.144720
  15 H :    0.142325
  16 H :    0.146259
  17 H :    0.150650
  18 H :    0.155512
  19 H :    0.147999
  20 H :    0.288177
Sum of atomic charges:    0.0000000

LOEWDIN ATOMIC CHARGES
----------------------
   0 C :   -0.400096
   1 C :    0.046762
   2 H :    0.182257
   3 C :   -0.283479
   4 C :   -0.242774
   5 C :   -0.416800
   6 C :   -0.416883
   7 O :   -0.615383
   8 H :    0.154837
   9 H :    0.154029
  10 H :    0.164437
  11 H :    0.172408
  12 H :    0.157975
  13 H :    0.157144
  14 H :    0.153008
  15 H :    0.151087
  16 H :    0.153045
  17 H :    0.151478
  18 H :    0.156278
  19 H :    0.154166
  20 H :    0.266506

  Mayer bond orders larger than 0.100000
B(  0-C ,  1-C ) :   0.9107 B(  0-C ,  8-H ) :   0.9674 B(  0-C ,  9-H ) :   0.9750
B(  0-C , 10-H ) :   0.9700 B(  1-C ,  2-H ) :   0.9577 B(  1-C ,  3-C ) :   0.9131
B(  1-C ,  7-O ) :   0.9391 B(  3-C ,  4-C ) :   0.8930 B(  3-C , 11-H ) :   0.9641
B(  3-C , 12-H ) :   0.9775 B(  4-C ,  5-C ) :   0.9312 B(  4-C ,  6-C ) :   0.8871
B(  4-C , 13-H ) :   0.9577 B(  5-C , 14-H ) :   0.9699 B(  5-C , 15-H ) :   0.9763
B(  5-C , 16-H ) :   0.9777 B(  6-C , 17-H ) :   0.9769 B(  6-C , 18-H ) :   0.9753
B(  6-C , 19-H ) :   0.9704 B(  7-O , 20-H ) :   0.8983

Dispersion correction           -0.005775963
FINAL SINGLE POINT ENERGY      -312.198800003140

DIPOLE MOMENT
-------------

Method             : SCF
Type of density    : Electron Density
Multiplicity       :   1
Irrep              :   0
Energy             :  -312.2043250680997062 Eh
Relativity type    :
Basis              : AO
                                X                 Y                 Z
Electronic contribution:      4.332042459       0.110009662       3.671981355
Nuclear contribution   :     -4.715918123       0.286858879      -3.981816555
                        -----------------------------------------
Total Dipole Moment    :     -0.383875664       0.396868541      -0.309835200
                        -----------------------------------------
Magnitude (a.u.)       :      0.633137438
Magnitude (Debye)      :      1.609307474

Rotational constants in cm-1:             0.130069             0.052513             0.047093
Rotational constants in MHz :          3899.365130          1574.311128          1411.800522

                             ****ORCA TERMINATED NORMALLY****
TOTAL RUN TIME: 0 days 0 hours 0 minutes 29 seconds 482 msec
