                         Program Version 6.0.0  -   RELEASE  -
|  1> ! r2scan-3c def2/J RI DEFGRID2 scfconv6 printgap
|  2> %output
|  3>     printlevel normal
|  4> end
|  5> %cpcm
|  6>     smd true
|  7>     smdsolvent "water"
|  8> end
|  9> * xyz 0 1
| 10> C 1.5120767011 0.1708075769 -1.1940735802
| 11> C 1.1173387452 -0.2172947162 0.2295578158
| 12> H 0.9777034465 -1.3010114772 0.2898755254
| 13> C -0.1359035029 0.500703975 0.7552888732
| 14> C -1.5048788374 0.1148969328 0.1685607934
| 15> C -1.791681454 0.7676850698 -1.1831295202
| 16> C -1.7012795102 -1.397280023 0.0855570764
| 17> O 2.1988954034 0.0261681557 1.1229848993
| 18> H 0.8499470964 -0.2923265137 -1.917378984
| 19> H 1.4783124399 1.2503154501 -1.3228587294
| 20> H 2.5249003752 -0.1762520974 -1.3886619688
| 21> H -0.164342861 0.2963802494 1.8296957264
| 22> H 0.0037218182 1.5781650804 0.6305885575
| 23> H -2.2471039585 0.5074131794 0.8750278602
| 24> H -2.8321322834 0.604614071 -1.4557107534
| 25> H -1.1703915954 0.3482366144 -1.9677453211
| 26> H -1.6163511029 1.8397614386 -1.1374361563
| 27> H -1.0665806718 -1.8299672338 -0.6836319357
| 28> H -1.4648670837 -1.8675913317 1.0370564524
| 29> H -2.7354615435 -1.6246239938 -0.1622712081
| 30> H 2.4011068695 0.9722389994 1.11141951
| 31> *
| 32>
| 33>                          ****END OF INPUT****

CARTESIAN COORDINATES (ANGSTROEM)
---------------------------------
  C      1.512077    0.170808   -1.194074
  C      1.117339   -0.217295    0.229558
  H      0.977703   -1.301011    0.289876
  C     -0.135904    0.500704    0.755289
  C     -1.504879    0.114897    0.168561
  C     -1.791681    0.767685   -1.183130
  C     -1.701280   -1.397280    0.085557
  O      2.198895    0.026168    1.122985
  H      0.849947   -0.292327   -1.917379
  H      1.478312    1.250315   -1.322859
  H      2.524900   -0.176252   -1.388662
  H     -0.164343    0.296380    1.829696
  H      0.003722    1.578165    0.630589
  H     -2.247104    0.507413    0.875028
  H     -2.832132    0.604614   -1.455711
  H     -1.170392    0.348237   -1.967745
  H     -1.616351    1.839761   -1.137436
  H     -1.066581   -1.829967   -0.683632
  H     -1.464867   -1.867591    1.037056
  H     -2.735462   -1.624624   -0.162271
  H      2.401107    0.972239    1.111420

 Total Charge           Charge          ....    0
 Multiplicity           Mult            ....    1
 Number of Electrons    NEL             ....   58
 Basis Dimension        Dim             ....  208

ORBITAL ENERGIES
----------------

  NO   OCC          E(Eh)            E(eV)
   0   2.0000     -18.945903      -515.5442
   1   2.0000     -10.073512      -274.1142
   2   2.0000     -10.027000      -272.8485
   3   2.0000     -10.013540      -272.4823
   4   2.0000     -10.008274      -272.3390
   5   2.0000     -10.006545      -272.2919
   6   2.0000     -10.004582      -272.2385
   7   2.0000      -0.982833       -26.7442
   8   2.0000      -0.768880       -20.9223
   9   2.0000      -0.707735       -19.2585
  10   2.0000      -0.646645       -17.5961
  11   2.0000      -0.641307       -17.4509
  12   2.0000      -0.571151       -15.5418
  13   2.0000      -0.515251       -14.0207
  14   2.0000      -0.447294       -12.1715
  15   2.0000      -0.433178       -11.7874
  16   2.0000      -0.407254       -11.0819
  17   2.0000      -0.401427       -10.9234
  18   2.0000      -0.380685       -10.3590
  19   2.0000      -0.374644       -10.1946
  20   2.0000      -0.350615        -9.5407
  21   2.0000      -0.338922        -9.2225
  22   2.0000      -0.331115        -9.0101
  23   2.0000      -0.321329        -8.7438
  24   2.0000      -0.301728        -8.2104
  25   2.0000      -0.286550        -7.7974
  26   2.0000      -0.278736        -7.5848
  27   2.0000      -0.272580        -7.4173
  28   2.0000      -0.235098        -6.3973
  29   0.0000       0.081820         2.2264
  30   0.0000       0.086680         2.3587
  31   0.0000       0.117960         3.2099
  32   0.0000       0.129558         3.5255
  33   0.0000       0.131198         3.5701

MULLIKEN ATOMIC CHARGES
-----------------------
   0 C :   -0.531932
   1 C :    0.006842
   2 H :    0.156024
   3 C :   -0.294048
   4 C :   -0.013414
   5 C :   -0.537828
   6 C :   -0.544335
   7 O :   -0.507290
   8 H :    0.167098
   9 H :    0.169565
  10 H :    0.160873
  11 H :    0.158399
  12 H :    0.156319
  13 H :    0.151641
  14 H :    0.154764
  15 H :    0.157935
  16 H :    0.158502
  17 H :    0.165574
  18 H :    0.161770
  19 H :    0.158226
  20 H :    0.345313
Sum of atomic charges:    0.0000000

LOEWDIN ATOMIC CHARGES
----------------------
   0 C :   -0.403728
   1 C :    0.047557
   2 H :    0.184596
   3 C :   -0.283342
   4 C :   -0.238947
   5 C :   -0.425404
   6 C :   -0.425067
   7 O :   -0.656078
   8 H :    0.162488
   9 H :    0.160843
  10 H :    0.162569
  11 H :    0.169743
  12 H :    0.165856
  13 H :    0.159611
  14 H :    0.154837
  15 H :    0.154917
  16 H :    0.155853
  17 H :    0.155699
  18 H :    0.157275
  19 H :    0.156021
  20 H :    0.284702

  Mayer bond orders larger than 0.100000
B(  0-C ,  1-C ) :   0.8975 B(  0-C ,  8-H ) :   0.9641 B(  0-C ,  9-H ) :   0.9734
B(  0-C , 10-H ) :   0.9673 B(  1-C ,  2-H ) :   0.9600 B(  1-C ,  3-C ) :   0.9133
B(  1-C ,  7-O ) :   0.9201 B(  3-C ,  4-C ) :   0.8940 B(  3-C , 11-H ) :   0.9626
B(  3-C , 12-H ) :   0.9784 B(  4-C ,  5-C ) :   0.9216 B(  4-C ,  6-C ) :   0.8780
B(  4-C , 13-H ) :   0.9590 B(  5-C , 14-H ) :   0.9690 B(  5-C , 15-H ) :   0.9757
B(  5-C , 16-H ) :   0.9745 B(  6-C , 17-H ) :   0.9743 B(  6-C , 18-H ) :   0.9732
B(  6-C , 19-H ) :   0.9691 B(  7-O , 20-H ) :   0.8710

Dispersion correction           -0.005775963
FINAL SINGLE POINT ENERGY      -312.205037773000

DIPOLE MOMENT
-------------

Method             : SCF
Type of density    : Electron Density
Multiplicity       :   1
Irrep              :   0
Energy             :  -312.2105628379596283 Eh
Relativity type    :
Basis              : AO
                                X                 Y                 Z
Electronic contribution:      4.202844611       0.309801339       3.513237724
Nuclear contribution   :     -4.715918123       0.286858879      -3.981816555
                        -----------------------------------------
Total Dipole Moment    :     -0.513073513       0.596660218      -0.468578831
                        -----------------------------------------
Magnitude (a.u.)       :      0.915867876
Magnitude (Debye)      :      2.327951135

Rotational constants in cm-1:             0.130069             0.052513             0.047093
Rotational constants in MHz :          3899.365130          1574.311128          1411.800522

                             ****ORCA TERMINATED NORMALLY****
TOTAL RUN TIME: 0 days 0 hours 0 minutes 35 seconds 795 msec
