                         Program Version 6.0.0  -   RELEASE  -
|  1> ! r2scan-3c def2/J RI DEFGRID2 scfconv6 printgap
|  2> %output
|  3>     printlevel normal
|  4> end
|  5> * xyz 0 1
|  6> C -2.2250443037 1.2559675398 0.2808919683
|  7> C -1.8884178657 -0.1027796992 -0.31713934
|  8> C -0.457503794 -0.5336362837 -0.1189004652
|  9> O -0.0365243315 -1.6263038102 -0.4491953338
| 10> O 0.2908574834 0.3946098811 0.4557755243
| 11> C 1.6805318297 0.1118090838 0.6826916098
| 12> C 2.5189945043 0.4710613781 -0.5345482146
| 13> H -1.6126856828 2.0333894596 -0.1665589484
| 14> H -3.2710690073 1.4851069957 0.0993327329
| 15> H -2.0471070741 1.2563918888 1.3525915998
| 16> H -2.0694629358 -0.1057931621 -1.3947087182
| 17> H -2.5178903244 -0.8864440213 0.1097311064
| 18> H 1.948523014 0.7247561567 1.5438549402
| 19> H 1.7868507923 -0.9505884159 0.9227753699
| 20> H 2.3669499992 1.5137043445 -0.7999873629
| 21> H 3.567829775 0.3073634999 -0.3097441081
| 22> H 2.2371710355 -0.1550739851 -1.3782695975
| 23> *
| 24>
| 25>                          ****END OF INPUT****

CARTESIAN COORDINATES (ANGSTROEM)
---------------------------------
  C     -2.225044    1.255968    0.280892
  C     -1.888418   -0.102780   -0.317139
  C     -0.457504   -0.533636   -0.118900
  O     -0.036524   -1.626304   -0.449195
  O      0.290857    0.394610    0.455776
  C      1.680532    0.111809    0.682692
  C      2.518995    0.471061   -0.534548
  H     -1.612686    2.033389   -0.166559
  H     -3.271069    1.485107    0.099333
  H     -2.047107    1.256392    1.352592
  H     -2.069463   -0.105793   -1.394709
  H     -2.517890   -0.886444    0.109731
  H      1.948523    0.724756    1.543855
  H      1.786851   -0.950588    0.922775
  H      2.366950    1.513704   -0.799987
  H      3.567830    0.307363   -0.309744
  H      2.237171   -0.155074   -1.378270

 Total Charge           Charge          ....    0
 Multiplicity           Mult            ....    1
 Number of Electrons    NEL             ....   56
 Basis Dimension        Dim             ....  193

ORBITAL ENERGIES
----------------

  NO   OCC          E(Eh)            E(eV)
   0   2.0000     -18.998304      -516.9701
   1   2.0000     -18.924188      -514.9533
   2   2.0000     -10.151740      -276.2429
   3   2.0000     -10.092006      -274.6174
   4   2.0000     -10.044864      -273.3347
   5   2.0000     -10.029438      -272.9149
   6   2.0000     -10.024654      -272.7847
   7   2.0000      -1.072814       -29.1927
   8   2.0000      -0.972651       -26.4672
   9   2.0000      -0.766246       -20.8506
  10   2.0000      -0.728736       -19.8299
  11   2.0000      -0.639097       -17.3907
  12   2.0000      -0.605066       -16.4647
  13   2.0000      -0.524168       -14.2633
  14   2.0000      -0.473793       -12.8926
  15   2.0000      -0.453797       -12.3484
  16   2.0000      -0.434769       -11.8307
  17   2.0000      -0.413279       -11.2459
  18   2.0000      -0.407685       -11.0937
  19   2.0000      -0.377656       -10.2765
  20   2.0000      -0.360207        -9.8017
  21   2.0000      -0.353910        -9.6304
  22   2.0000      -0.345594        -9.4041
  23   2.0000      -0.333506        -9.0752
  24   2.0000      -0.317568        -8.6415
  25   2.0000      -0.307077        -8.3560
  26   2.0000      -0.269531        -7.3343
  27   2.0000      -0.232181        -6.3180
  28   0.0000      -0.012777        -0.3477
  29   0.0000       0.072000         1.9592
  30   0.0000       0.091621         2.4931
  31   0.0000       0.116642         3.1740
  32   0.0000       0.123560         3.3623

MULLIKEN ATOMIC CHARGES
-----------------------
   0 C :   -0.464448
   1 C :   -0.294913
   2 C :    0.366201
   3 O :   -0.425262
   4 O :   -0.147451
   5 C :   -0.143827
   6 C :   -0.466215
   7 H :    0.154460
   8 H :    0.146323
   9 H :    0.153517
  10 H :    0.166653
  11 H :    0.166696
  12 H :    0.147990
  13 H :    0.169289
  14 H :    0.151233
  15 H :    0.147101
  16 H :    0.172653
Sum of atomic charges:   -0.0000000

LOEWDIN ATOMIC CHARGES
----------------------
   0 C :   -0.401608
   1 C :   -0.236095
   2 C :    0.361571
   3 O :   -0.441645
   4 O :   -0.602637
   5 C :    0.030115
   6 C :   -0.389836
   7 H :    0.160200
   8 H :    0.149937
   9 H :    0.158946
  10 H :    0.181365
  11 H :    0.181227
  12 H :    0.177566
  13 H :    0.189369
  14 H :    0.156652
  15 H :    0.159444
  16 H :    0.165429

  Mayer bond orders larger than 0.100000
B(  0-C ,  1-C ) :   0.9102 B(  0-C ,  7-H ) :   0.9763 B(  0-C ,  8-H ) :   0.9673
B(  0-C ,  9-H ) :   0.9790 B(  1-C ,  2-C ) :   1.0138 B(  1-C , 10-H ) :   0.9361
B(  1-C , 11-H ) :   0.9483 B(  2-C ,  3-O ) :   1.8467 B(  2-C ,  4-O ) :   1.0932
B(  4-O ,  5-C ) :   0.8091 B(  5-C ,  6-C ) :   0.9354 B(  5-C , 12-H ) :   0.9627
B(  5-C , 13-H ) :   0.9654 B(  6-C , 14-H ) :   0.9743 B(  6-C , 15-H ) :   0.9648
B(  6-C , 16-H ) :   0.9716

Dispersion correction           -0.004032283
FINAL SINGLE POINT ENERGY      -346.935654648678

DIPOLE MOMENT
-------------

Method             : SCF
Type of density    : Electron Density
Multiplicity       :   1
Irrep              :   0
Energy             :  -346.9421025631247630 Eh
Relativity type    :
Basis              : AO
                                X                 Y                 Z
Electronic contribution:     -0.287710033      -4.092773513       0.269940995
Nuclear contribution   :      0.368820640       4.881610344      -0.019587990
                        -----------------------------------------
Total Dipole Moment    :      0.081110607       0.788836831       0.250353005
                        -----------------------------------------
Magnitude (a.u.)       :      0.831576277
Magnitude (Debye)      :      2.113698917

Rotational constants in cm-1:             0.153930             0.056542             0.046351
Rotational constants in MHz :          4614.702696          1695.073434          1389.561904

                             ****ORCA TERMINATED NORMALLY****
TOTAL RUN TIME: 0 days 0 hours 0 minutes 23 seconds 373 msec
