                         Program Version 6.0.0  -   RELEASE  -
|  1> ! r2scan-3c def2/J RI DEFGRID2 scfconv6 printgap
|  2> %output
|  3>     printlevel normal
|  4> end
|  5> %cpcm
|  6>     smd true
|  7>     smdsolvent "water"
|  8> end
|  9> * xyz 0 1
| 10> C -2.2250443037 1.2559675398 0.2808919683
| 11> C -1.8884178657 -0.1027796992 -0.31713934
| 12> C -0.457503794 -0.5336362837 -0.1189004652
| 13> O -0.0365243315 -1.6263038102 -0.4491953338
| 14> O 0.2908574834 0.3946098811 0.4557755243
| 15> C 1.6805318297 0.1118090838 0.6826916098
| 16> C 2.5189945043 0.4710613781 -0.5345482146
| 17> H -1.6126856828 2.0333894596 -0.1665589484
| 18> H -3.2710690073 1.4851069957 0.0993327329
| 19> H -2.0471070741 1.2563918888 1.3525915998
| 20> H -2.0694629358 -0.1057931621 -1.3947087182
| 21> H -2.5178903244 -0.8864440213 0.1097311064
| 22> H 1.948523014 0.7247561567 1.5438549402
| 23> H 1.7868507923 -0.9505884159 0.9227753699
| 24> H 2.3669499992 1.5137043445 -0.7999873629
| 25> H 3.567829775 0.3073634999 -0.3097441081
| 26> H 2.2371710355 -0.1550739851 -1.3782695975
| 27> *
| 28>
| 29>                          ****END OF INPUT****

CARTESIAN COORDINATES (ANGSTROEM)
---------------------------------
  C     -2.225044    1.255968    0.280892
  C     -1.888418   -0.102780   -0.317139
  C     -0.457504   -0.533636   -0.118900
  O     -0.036524   -1.626304   -0.449195
  O      0.290857    0.394610    0.455776
  C      1.680532    0.111809    0.682692
  C      2.518995    0.471061   -0.534548
  H     -1.612686    2.033389   -0.166559
  H     -3.271069    1.485107    0.099333
  H     -2.047107    1.256392    1.352592
  H     -2.069463   -0.105793   -1.394709
  H     -2.517890   -0.886444    0.109731
  H      1.948523    0.724756    1.543855
  H      1.786851   -0.950588    0.922775
  H      2.366950    1.513704   -0.799987
  H      3.567830    0.307363   -0.309744
  H      2.237171   -0.155074   -1.378270

 Total Charge           Charge          ....    0
 Multiplicity           Mult            ....    1
 Number of Electrons    NEL             ....   56
 Basis Dimension        Dim             ....  193

ORBITAL ENERGIES
----------------

  NO   OCC          E(Eh)            E(eV)
   0   2.0000     -19.003421      -517.1094
   1   2.0000     -18.940343      -515.3929
   2   2.0000     -10.162302      -276.5303
   3   2.0000     -10.083722      -274.3920
   4   2.0000     -10.038412      -273.1591
   5   2.0000     -10.018522      -272.6178
   6   2.0000     -10.015714      -272.5414
   7   2.0000      -1.079519       -29.3752
   8   2.0000      -0.986760       -26.8511
   9   2.0000      -0.761512       -20.7218
  10   2.0000      -0.720742       -19.6124
  11   2.0000      -0.634038       -17.2531
  12   2.0000      -0.599315       -16.3082
  13   2.0000      -0.521061       -14.1788
  14   2.0000      -0.471609       -12.8331
  15   2.0000      -0.454905       -12.3786
  16   2.0000      -0.447887       -12.1876
  17   2.0000      -0.408603       -11.1187
  18   2.0000      -0.401228       -10.9180
  19   2.0000      -0.371212       -10.1012
  20   2.0000      -0.356619        -9.7041
  21   2.0000      -0.350779        -9.5452
  22   2.0000      -0.340487        -9.2651
  23   2.0000      -0.328436        -8.9372
  24   2.0000      -0.311165        -8.4672
  25   2.0000      -0.304152        -8.2764
  26   2.0000      -0.277544        -7.5523
  27   2.0000      -0.248576        -6.7641
  28   0.0000      -0.020409        -0.5554
  29   0.0000       0.077173         2.1000
  30   0.0000       0.098629         2.6838
  31   0.0000       0.126860         3.4520
  32   0.0000       0.130459         3.5500

MULLIKEN ATOMIC CHARGES
-----------------------
   0 C :   -0.511568
   1 C :   -0.295540
   2 C :    0.405937
   3 O :   -0.514607
   4 O :   -0.164639
   5 C :   -0.149720
   6 C :   -0.490631
   7 H :    0.164930
   8 H :    0.163897
   9 H :    0.165563
  10 H :    0.190349
  11 H :    0.185781
  12 H :    0.174358
  13 H :    0.171567
  14 H :    0.165948
  15 H :    0.170362
  16 H :    0.168013
Sum of atomic charges:   -0.0000000

LOEWDIN ATOMIC CHARGES
----------------------
   0 C :   -0.404962
   1 C :   -0.233057
   2 C :    0.372607
   3 O :   -0.505486
   4 O :   -0.602799
   5 C :    0.034720
   6 C :   -0.392657
   7 H :    0.161901
   8 H :    0.156908
   9 H :    0.161022
  10 H :    0.191209
  11 H :    0.189205
  12 H :    0.189109
  13 H :    0.189995
  14 H :    0.161945
  15 H :    0.167960
  16 H :    0.162380

  Mayer bond orders larger than 0.100000
B(  0-C ,  1-C ) :   0.8919 B(  0-C ,  7-H ) :   0.9761 B(  0-C ,  8-H ) :   0.9618
B(  0-C ,  9-H ) :   0.9789 B(  1-C ,  2-C ) :   1.0216 B(  1-C , 10-H ) :   0.9243
B(  1-C , 11-H ) :   0.9388 B(  2-C ,  3-O ) :   1.7734 B(  2-C ,  4-O ) :   1.1209
B(  4-O ,  5-C ) :   0.7917 B(  5-C ,  6-C ) :   0.9349 B(  5-C , 12-H ) :   0.9530
B(  5-C , 13-H ) :   0.9618 B(  6-C , 14-H ) :   0.9702 B(  6-C , 15-H ) :   0.9599
B(  6-C , 16-H ) :   0.9693

Dispersion correction           -0.004032283
FINAL SINGLE POINT ENERGY      -346.941253061507

DIPOLE MOMENT
-------------

Method             : SCF
Type of density    : Electron Density
Multiplicity       :   1
Irrep              :   0
Energy             :  -346.9477009759542057 Eh
Relativity type    :
Basis              : AO
                                X                 Y                 Z
Electronic contribution:     -0.312978723      -3.772377337       0.383954744
Nuclear contribution   :      0.368820640       4.881610344      -0.019587990
                        -----------------------------------------
Total Dipole Moment    :      0.055841917       1.109233007       0.364366754
                        -----------------------------------------
Magnitude (a.u.)       :      1.168879513
Magnitude (Debye)      :      2.971055609

Rotational constants in cm-1:             0.153930             0.056542             0.046351
Rotational constants in MHz :          4614.702696          1695.073434          1389.561904

                             ****ORCA TERMINATED NORMALLY****
TOTAL RUN TIME: 0 days 0 hours 0 minutes 27 seconds 79 msec
