                         Program Version 6.0.0  -   RELEASE  -
|  1> ! pbe def2-sv(p) def2/J RI DEFGRID1 loosescf d4 GCP(DFT/SV(P)) printgap
|  2> %output
|  3>     printlevel normal
|  4> end
|  5> * xyz 0 1
|  6> C 2.5405869293 0.9068379143 -0.5846240594
|  7> C 1.4214159373 0.6412035466 0.416838102
|  8> C 0.3690065622 -0.3490011914 -0.1269700998
|  9> H 0.6879992845 -0.6583197633 -1.1289806095
| 10> C 0.3173083481 -1.6061685323 0.7406848742
| 11> C -1.0078660919 0.3265901905 -0.2973519577
| 12> C -1.9296089627 -0.4913142552 -1.2019908128
| 13> C -1.7043986997 0.6072118491 1.0331833286
| 14> H 2.138959223 1.3346116922 -1.5007499589
| 15> H 3.2657571599 1.603862571 -0.1706171626
| 16> H 3.0574259626 -0.0171667372 -0.8341382596
| 17> H 0.947009215 1.5915849405 0.6674464582
| 18> H 1.8578085294 0.2465253372 1.3360065863
| 19> H 1.2902340173 -2.0930790228 0.7373454648
| 20> H 0.0635126365 -1.3604195575 1.768472203
| 21> H -0.4138929442 -2.3145599984 0.3602449839
| 22> H -0.8262080729 1.2864662228 -0.7968099878
| 23> H -2.8552723932 0.0509843223 -1.3812424123
| 24> H -2.1812528824 -1.4439528933 -0.7427426712
| 25> H -1.455144198 -0.6852587542 -2.1614838514
| 26> H -1.0395670321 1.120788764 1.7230838543
| 27> H -2.0365348711 -0.318493223 1.4954664633
| 28> H -2.5776261285 1.2350517424 0.8697843593
| 29> *
| 30>
| 31>                          ****END OF INPUT****

CARTESIAN COORDINATES (ANGSTROEM)
---------------------------------
  C      2.540587    0.906838   -0.584624
  C      1.421416    0.641204    0.416838
  C      0.369007   -0.349001   -0.126970
  H      0.687999   -0.658320   -1.128981
  C      0.317308   -1.606169    0.740685
  C     -1.007866    0.326590   -0.297352
  C     -1.929609   -0.491314   -1.201991
  C     -1.704399    0.607212    1.033183
  H      2.138959    1.334612   -1.500750
  H      3.265757    1.603863   -0.170617
  H      3.057426   -0.017167   -0.834138
  H      0.947009    1.591585    0.667446
  H      1.857809    0.246525    1.336007
  H      1.290234   -2.093079    0.737345
  H      0.063513   -1.360420    1.768472
  H     -0.413893   -2.314560    0.360245
  H     -0.826208    1.286466   -0.796810
  H     -2.855272    0.050984   -1.381242
  H     -2.181253   -1.443953   -0.742743
  H     -1.455144   -0.685259   -2.161484
  H     -1.039567    1.120789    1.723084
  H     -2.036535   -0.318493    1.495466
  H     -2.577626    1.235052    0.869784

 Total Charge           Charge          ....    0
 Multiplicity           Mult            ....    1
 Number of Electrons    NEL             ....   58
 Basis Dimension        Dim             ....  130

ORBITAL ENERGIES
----------------

  NO   OCC          E(Eh)            E(eV)
   0   2.0000      -9.888703      -269.0853
   1   2.0000      -9.885847      -269.0076
   2   2.0000      -9.876249      -268.7464
   3   2.0000      -9.870223      -268.5824
   4   2.0000      -9.868073      -268.5239
   5   2.0000      -9.867936      -268.5202
   6   2.0000      -9.867679      -268.5132
   7   2.0000      -0.740512       -20.1504
   8   2.0000      -0.683352       -18.5950
   9   2.0000      -0.639764       -17.4089
  10   2.0000      -0.606878       -16.5140
  11   2.0000      -0.567588       -15.4449
  12   2.0000      -0.525247       -14.2927
  13   2.0000      -0.474759       -12.9188
  14   2.0000      -0.421297       -11.4641
  15   2.0000      -0.404704       -11.0125
  16   2.0000      -0.390493       -10.6259
  17   2.0000      -0.378895       -10.3102
  18   2.0000      -0.358847        -9.7647
  19   2.0000      -0.351093        -9.5537
  20   2.0000      -0.336856        -9.1663
  21   2.0000      -0.328922        -8.9504
  22   2.0000      -0.318455        -8.6656
  23   2.0000      -0.312171        -8.4946
  24   2.0000      -0.298626        -8.1260
  25   2.0000      -0.288361        -7.8467
  26   2.0000      -0.268631        -7.3098
  27   2.0000      -0.264693        -7.2027
  28   2.0000      -0.258479        -7.0336
  29   0.0000       0.032371         0.8809
  30   0.0000       0.055764         1.5174
  31   0.0000       0.065388         1.7793
  32   0.0000       0.067873         1.8469
  33   0.0000       0.092689         2.5222

MULLIKEN ATOMIC CHARGES
-----------------------
   0 C :   -0.289788
   1 C :   -0.140384
   2 C :   -0.128412
   3 H :    0.064264
   4 C :   -0.268431
   5 C :   -0.168415
   6 C :   -0.241624
   7 C :   -0.254292
   8 H :    0.101507
   9 H :    0.099191
  10 H :    0.101670
  11 H :    0.086534
  12 H :    0.078444
  13 H :    0.099634
  14 H :    0.104868
  15 H :    0.098591
  16 H :    0.067781
  17 H :    0.095626
  18 H :    0.097624
  19 H :    0.095323
  20 H :    0.102934
  21 H :    0.099822
  22 H :    0.097534
Sum of atomic charges:    0.0000000

LOEWDIN ATOMIC CHARGES
----------------------
   0 C :   -0.338398
   1 C :   -0.224862
   2 C :   -0.142775
   3 H :    0.111448
   4 C :   -0.331385
   5 C :   -0.150425
   6 C :   -0.330254
   7 C :   -0.331366
   8 H :    0.115671
   9 H :    0.116551
  10 H :    0.115783
  11 H :    0.114362
  12 H :    0.113676
  13 H :    0.118324
  14 H :    0.117233
  15 H :    0.114893
  16 H :    0.111781
  17 H :    0.117525
  18 H :    0.115061
  19 H :    0.115523
  20 H :    0.116249
  21 H :    0.116855
  22 H :    0.118532

  Mayer bond orders larger than 0.100000
B(  0-C ,  1-C ) :   1.1600 B(  0-C ,  8-H ) :   0.9532 B(  0-C ,  9-H ) :   0.9505
B(  0-C , 10-H ) :   0.9534 B(  1-C ,  2-C ) :   1.0355 B(  1-C , 11-H ) :   0.9190
B(  1-C , 12-H ) :   0.9273 B(  2-C ,  3-H ) :   0.9095 B(  2-C ,  4-C ) :   1.1157
B(  2-C ,  5-C ) :   1.0450 B(  4-C , 13-H ) :   0.9455 B(  4-C , 14-H ) :   0.9393
B(  4-C , 15-H ) :   0.9468 B(  5-C ,  6-C ) :   1.1137 B(  5-C ,  7-C ) :   1.1060
B(  5-C , 16-H ) :   0.9001 B(  6-C , 17-H ) :   0.9498 B(  6-C , 18-H ) :   0.9437
B(  6-C , 19-H ) :   0.9480 B(  7-C , 20-H ) :   0.9455 B(  7-C , 21-H ) :   0.9427
B(  7-C , 22-H ) :   0.9498

Dispersion correction           -0.018935381
FINAL SINGLE POINT ENERGY      -275.657114776540

DIPOLE MOMENT
-------------

Method             : SCF
Type of density    : Electron Density
Multiplicity       :   1
Irrep              :   0
Energy             :  -275.7344925300533873 Eh
Relativity type    :
Basis              : AO
                                X                 Y                 Z
Electronic contribution:      0.081306506       0.424510977      -0.236796703
Nuclear contribution   :     -0.072043757      -0.395317172       0.226177081
                        -----------------------------------------
Total Dipole Moment    :      0.009262749       0.029193805      -0.010619622
                        -----------------------------------------
Magnitude (a.u.)       :      0.032416866
Magnitude (Debye)      :      0.082397124

Rotational constants in cm-1:             0.116653             0.051373             0.049584
Rotational constants in MHz :          3497.168424          1540.112598          1486.498370

                             ****ORCA TERMINATED NORMALLY****
TOTAL RUN TIME: 0 days 0 hours 0 minutes 9 seconds 943 msec
