                         Program Version 6.0.0  -   RELEASE  -
|  1> ! pbe def2-sv(p) def2/J RI DEFGRID1 loosescf d4 GCP(DFT/SV(P)) printgap
|  2> %output
|  3>     printlevel normal
|  4> end
|  5> * xyz 0 1
|  6> C 0.533491208 1.6562454879 0.6137163715
|  7> C 1.8778197999 1.9326994491 0.6776246292
|  8> C 2.8389896745 0.966952802 0.3595076689
|  9> C 2.3982292997 -0.3130115345 -0.0266870373
| 10> C 1.0257184963 -0.576168927 -0.0774284182
| 11> C 0.0834908085 0.387071935 0.2327075635
| 12> C -1.3513777853 0.0681895756 0.1702844719
| 13> C -1.8355561827 -1.142761669 0.6656433707
| 14> C -3.1794833913 -1.4622184423 0.6183784905
| 15> C -4.056542768 -0.5523547684 0.0592796509
| 16> C -3.6330036228 0.658300584 -0.4535313983
| 17> C -2.2829999769 0.9429853985 -0.3842257078
| 18> F -1.8700849113 2.1241543233 -0.9125594485
| 19> F -5.3803916054 -0.8517184721 0.0063304694
| 20> C 3.2867359068 -1.4261905353 -0.3935161869
| 21> O 2.8908732769 -2.5305325437 -0.7181171165
| 22> O 4.5941711508 -1.1516364869 -0.3489335456
| 23> O 4.1199966011 1.3419657633 0.4513338307
| 24> H -0.1779134509 2.4239080523 0.8738788769
| 25> H 2.2313484411 2.9064003697 0.9759121643
| 26> H 0.724142529 -1.5636605768 -0.3930687494
| 27> H -1.1395468709 -1.8362843603 1.108456931
| 28> H -3.5490534558 -2.3962619866 1.0070902998
| 29> H -4.3241454146 1.3557942857 -0.8960053447
| 30> H 5.1366482962 -1.9236057502 -0.6016098663
| 31> H 4.7247342274 0.6152096 0.2115641621
| 32> *
| 33>
| 34>                          ****END OF INPUT****

CARTESIAN COORDINATES (ANGSTROEM)
---------------------------------
  C      0.533491    1.656245    0.613716
  C      1.877820    1.932699    0.677625
  C      2.838990    0.966953    0.359508
  C      2.398229   -0.313012   -0.026687
  C      1.025718   -0.576169   -0.077428
  C      0.083491    0.387072    0.232708
  C     -1.351378    0.068190    0.170284
  C     -1.835556   -1.142762    0.665643
  C     -3.179483   -1.462218    0.618378
  C     -4.056543   -0.552355    0.059280
  C     -3.633004    0.658301   -0.453531
  C     -2.283000    0.942985   -0.384226
  F     -1.870085    2.124154   -0.912559
  F     -5.380392   -0.851718    0.006330
  C      3.286736   -1.426191   -0.393516
  O      2.890873   -2.530533   -0.718117
  O      4.594171   -1.151636   -0.348934
  O      4.119997    1.341966    0.451334
  H     -0.177913    2.423908    0.873879
  H      2.231348    2.906400    0.975912
  H      0.724143   -1.563661   -0.393069
  H     -1.139547   -1.836284    1.108457
  H     -3.549053   -2.396262    1.007090
  H     -4.324145    1.355794   -0.896005
  H      5.136648   -1.923606   -0.601610
  H      4.724734    0.615210    0.211564

 Total Charge           Charge          ....    0
 Multiplicity           Mult            ....    1
 Number of Electrons    NEL             ....  128
 Basis Dimension        Dim             ....  268

ORBITAL ENERGIES
----------------

  NO   OCC          E(Eh)            E(eV)
   0   2.0000     -24.280347      -660.7018
   1   2.0000     -24.275148      -660.5604
   2   2.0000     -18.828424      -512.3475
   3   2.0000     -18.793048      -511.3848
   4   2.0000     -18.749509      -510.2001
   5   2.0000     -10.029651      -272.9207
   6   2.0000      -9.986624      -271.7499
   7   2.0000      -9.984889      -271.7026
   8   2.0000      -9.974013      -271.4067
   9   2.0000      -9.917222      -269.8613
  10   2.0000      -9.917082      -269.8575
  11   2.0000      -9.913305      -269.7548
  12   2.0000      -9.912203      -269.7248
  13   2.0000      -9.908359      -269.6202
  14   2.0000      -9.908180      -269.6153
  15   2.0000      -9.907269      -269.5905
  16   2.0000      -9.905570      -269.5443
  17   2.0000      -9.898977      -269.3649
  18   2.0000      -1.107236       -30.1294
  19   2.0000      -1.101938       -29.9853
  20   2.0000      -1.030548       -28.0426
  21   2.0000      -0.979037       -26.6409
  22   2.0000      -0.925480       -25.1836
  23   2.0000      -0.805265       -21.9124
  24   2.0000      -0.785451       -21.3732
  25   2.0000      -0.718250       -19.5446
  26   2.0000      -0.701782       -19.0965
  27   2.0000      -0.689501       -18.7623
  28   2.0000      -0.659777       -17.9534
  29   2.0000      -0.625862       -17.0306
  30   2.0000      -0.583159       -15.8686
  31   2.0000      -0.577049       -15.7023
  32   2.0000      -0.554231       -15.0814
  33   2.0000      -0.544566       -14.8184
  34   2.0000      -0.522502       -14.2180
  35   2.0000      -0.508119       -13.8266
  36   2.0000      -0.475962       -12.9516
  37   2.0000      -0.467018       -12.7082
  38   2.0000      -0.451571       -12.2879
  39   2.0000      -0.446765       -12.1571
  40   2.0000      -0.437193       -11.8966
  41   2.0000      -0.425383       -11.5753
  42   2.0000      -0.423505       -11.5242
  43   2.0000      -0.412977       -11.2377
  44   2.0000      -0.406303       -11.0561
  45   2.0000      -0.399469       -10.8701
  46   2.0000      -0.393512       -10.7080
  47   2.0000      -0.385667       -10.4945
  48   2.0000      -0.376629       -10.2486
  49   2.0000      -0.372572       -10.1382
  50   2.0000      -0.366527        -9.9737
  51   2.0000      -0.350881        -9.5480
  52   2.0000      -0.339533        -9.2392
  53   2.0000      -0.325687        -8.8624
  54   2.0000      -0.318430        -8.6649
  55   2.0000      -0.316087        -8.6012
  56   2.0000      -0.308981        -8.4078
  57   2.0000      -0.300520        -8.1776
  58   2.0000      -0.292657        -7.9636
  59   2.0000      -0.243911        -6.6372
  60   2.0000      -0.242723        -6.6048
  61   2.0000      -0.240886        -6.5549
  62   2.0000      -0.234266        -6.3747
  63   2.0000      -0.198974        -5.4143
  64   0.0000      -0.081949        -2.2300
  65   0.0000      -0.058987        -1.6051
  66   0.0000      -0.046965        -1.2780
  67   0.0000      -0.018356        -0.4995
  68   0.0000       0.006489         0.1766

MULLIKEN ATOMIC CHARGES
-----------------------
   0 C :   -0.080387
   1 C :   -0.125847
   2 C :    0.162808
   3 C :   -0.027522
   4 C :   -0.206350
   5 C :    0.154004
   6 C :    0.041206
   7 C :   -0.120016
   8 C :   -0.139758
   9 C :    0.355255
  10 C :   -0.260048
  11 C :    0.256997
  12 F :   -0.164274
  13 F :   -0.173615
  14 C :    0.132472
  15 O :   -0.178012
  16 O :   -0.337542
  17 O :   -0.302343
  18 H :    0.056365
  19 H :    0.050578
  20 H :    0.064125
  21 H :    0.064265
  22 H :    0.061124
  23 H :    0.063658
  24 H :    0.329999
  25 H :    0.322859
Sum of atomic charges:    0.0000000

LOEWDIN ATOMIC CHARGES
----------------------
   0 C :   -0.084834
   1 C :   -0.141265
   2 C :    0.044663
   3 C :   -0.127392
   4 C :   -0.073430
   5 C :   -0.049759
   6 C :   -0.064387
   7 C :   -0.095003
   8 C :   -0.158451
   9 C :    0.074319
  10 C :   -0.174101
  11 C :    0.082265
  12 F :   -0.045245
  13 F :   -0.053867
  14 C :    0.043104
  15 O :   -0.166405
  16 O :   -0.219883
  17 O :   -0.212160
  18 H :    0.130358
  19 H :    0.135190
  20 H :    0.138497
  21 H :    0.134628
  22 H :    0.138956
  23 H :    0.148329
  24 H :    0.307590
  25 H :    0.288282

  Mayer bond orders larger than 0.100000
B(  0-C ,  1-C ) :   1.3928 B(  0-C ,  5-C ) :   1.3029 B(  0-C , 18-H ) :   0.9632
B(  1-C ,  2-C ) :   1.3244 B(  1-C , 19-H ) :   0.9603 B(  2-C ,  3-C ) :   1.2083
B(  2-C , 17-O ) :   1.3242 B(  3-C ,  4-C ) :   1.3325 B(  3-C , 14-C ) :   0.9673
B(  4-C ,  5-C ) :   1.3508 B(  4-C , 20-H ) :   0.9525 B(  5-C ,  6-C ) :   0.9783
B(  6-C ,  7-C ) :   1.3693 B(  6-C , 11-C ) :   1.3322 B(  7-C ,  8-C ) :   1.3293
B(  7-C , 21-H ) :   0.9560 B(  8-C ,  9-C ) :   1.3424 B(  8-C , 22-H ) :   0.9688
B(  9-C , 10-C ) :   1.2885 B(  9-C , 13-F ) :   1.0866 B( 10-C , 11-C ) :   1.3019
B( 10-C , 23-H ) :   0.9753 B( 11-C , 12-F ) :   1.1055 B( 14-C , 15-O ) :   2.1040
B( 14-C , 16-O ) :   1.1905 B( 16-O , 24-H ) :   0.8091 B( 17-O , 25-H ) :   0.7889

Dispersion correction           -0.034647623
FINAL SINGLE POINT ENERGY      -923.758889857246

DIPOLE MOMENT
-------------

Method             : SCF
Type of density    : Electron Density
Multiplicity       :   1
Irrep              :   0
Energy             :  -923.8436691506551597 Eh
Relativity type    :
Basis              : AO
                                X                 Y                 Z
Electronic contribution:     -9.300382797       1.508570267      -2.744748167
Nuclear contribution   :     10.291501946      -1.606200705       2.975402928
                        -----------------------------------------
Total Dipole Moment    :      0.991119149      -0.097630438       0.230654761
                        -----------------------------------------
Magnitude (a.u.)       :      1.022277109
Magnitude (Debye)      :      2.598421911

Rotational constants in cm-1:             0.031909             0.006835             0.005873
Rotational constants in MHz :           956.601420           204.911475           176.074036

                             ****ORCA TERMINATED NORMALLY****
TOTAL RUN TIME: 0 days 0 hours 0 minutes 23 seconds 644 msec
