                         Program Version 6.0.0  -   RELEASE  -
|  1> ! r2scan-3c def2/J RI DEFGRID2 scfconv6 printgap
|  2> %output
|  3>     printlevel normal
|  4> end
|  5> * xyz 0 1
|  6> C 2.4589282045 -0.0726587474 -0.9117516096
|  7> C 1.2563934887 -0.2863405739 0.0082226206
|  8> H 1.1042757981 -1.3683568153 0.1488829456
|  9> C -0.0067169182 0.3324096526 -0.5966463747
| 10> C -1.274946074 0.0685615239 0.2237747875
| 11> C -2.3871754221 1.0171305712 -0.2201550303
| 12> C -1.744878755 -1.3780935633 0.0857542177
| 13> O 1.4622531219 0.3196515603 1.2756248788
| 14> H 2.2699218485 -0.5251523671 -1.8805397846
| 15> H 2.6352696015 0.9918846229 -1.0466469642
| 16> H 3.3525752347 -0.524636214 -0.4869064547
| 17> H 0.1569345295 1.4104475882 -0.6538263486
| 18> H -0.138929056 -0.0508183572 -1.6093719822
| 19> H -1.0400037381 0.2686361048 1.2743808178
| 20> H -2.6164462907 0.862660354 -1.2724743893
| 21> H -2.0880484446 2.0531305813 -0.0804327112
| 22> H -3.2906350545 0.8404003024 0.3584534019
| 23> H -2.6472652271 -1.5368468968 0.6713547333
| 24> H -1.9659122153 -1.604860566 -0.9553139897
| 25> H -0.9878888712 -2.0736164428 0.4379295063
| 26> H 2.283888233 -0.0156475949 1.6575658829
| 27> *
| 28>
| 29>                          ****END OF INPUT****

CARTESIAN COORDINATES (ANGSTROEM)
---------------------------------
  C      2.458928   -0.072659   -0.911752
  C      1.256393   -0.286341    0.008223
  H      1.104276   -1.368357    0.148883
  C     -0.006717    0.332410   -0.596646
  C     -1.274946    0.068562    0.223775
  C     -2.387175    1.017131   -0.220155
  C     -1.744879   -1.378094    0.085754
  O      1.462253    0.319652    1.275625
  H      2.269922   -0.525152   -1.880540
  H      2.635270    0.991885   -1.046647
  H      3.352575   -0.524636   -0.486906
  H      0.156935    1.410448   -0.653826
  H     -0.138929   -0.050818   -1.609372
  H     -1.040004    0.268636    1.274381
  H     -2.616446    0.862660   -1.272474
  H     -2.088048    2.053131   -0.080433
  H     -3.290635    0.840400    0.358453
  H     -2.647265   -1.536847    0.671355
  H     -1.965912   -1.604861   -0.955314
  H     -0.987889   -2.073616    0.437930
  H      2.283888   -0.015648    1.657566

 Total Charge           Charge          ....    0
 Multiplicity           Mult            ....    1
 Number of Electrons    NEL             ....   58
 Basis Dimension        Dim             ....  208

ORBITAL ENERGIES
----------------

  NO   OCC          E(Eh)            E(eV)
   0   2.0000     -18.945401      -515.5306
   1   2.0000     -10.079977      -274.2901
   2   2.0000     -10.025177      -272.7989
   3   2.0000     -10.020080      -272.6602
   4   2.0000     -10.019410      -272.6420
   5   2.0000     -10.010618      -272.4028
   6   2.0000     -10.009341      -272.3680
   7   2.0000      -0.983303       -26.7570
   8   2.0000      -0.773624       -21.0514
   9   2.0000      -0.721378       -19.6297
  10   2.0000      -0.648332       -17.6420
  11   2.0000      -0.644806       -17.5461
  12   2.0000      -0.561077       -15.2677
  13   2.0000      -0.521546       -14.1920
  14   2.0000      -0.480905       -13.0861
  15   2.0000      -0.426535       -11.6066
  16   2.0000      -0.415169       -11.2973
  17   2.0000      -0.406631       -11.0650
  18   2.0000      -0.380158       -10.3446
  19   2.0000      -0.369383       -10.0514
  20   2.0000      -0.349333        -9.5058
  21   2.0000      -0.345635        -9.4052
  22   2.0000      -0.343502        -9.3472
  23   2.0000      -0.327681        -8.9167
  24   2.0000      -0.307546        -8.3688
  25   2.0000      -0.288987        -7.8637
  26   2.0000      -0.287798        -7.8314
  27   2.0000      -0.271601        -7.3906
  28   2.0000      -0.233862        -6.3637
  29   0.0000       0.061456         1.6723
  30   0.0000       0.096352         2.6219
  31   0.0000       0.108335         2.9479
  32   0.0000       0.122218         3.3257
  33   0.0000       0.131300         3.5728

MULLIKEN ATOMIC CHARGES
-----------------------
   0 C :   -0.498418
   1 C :    0.049999
   2 H :    0.123295
   3 C :   -0.297415
   4 C :   -0.022798
   5 C :   -0.479532
   6 C :   -0.520238
   7 O :   -0.428105
   8 H :    0.147104
   9 H :    0.160593
  10 H :    0.137027
  11 H :    0.154088
  12 H :    0.136943
  13 H :    0.176324
  14 H :    0.141301
  15 H :    0.147954
  16 H :    0.146239
  17 H :    0.145664
  18 H :    0.149808
  19 H :    0.144801
  20 H :    0.285365
Sum of atomic charges:   -0.0000000

LOEWDIN ATOMIC CHARGES
----------------------
   0 C :   -0.400345
   1 C :    0.048237
   2 H :    0.159786
   3 C :   -0.268802
   4 C :   -0.242043
   5 C :   -0.415745
   6 C :   -0.417224
   7 O :   -0.620928
   8 H :    0.158397
   9 H :    0.161882
  10 H :    0.150107
  11 H :    0.170292
  12 H :    0.163622
  13 H :    0.170908
  14 H :    0.152148
  15 H :    0.153171
  16 H :    0.152048
  17 H :    0.153473
  18 H :    0.151753
  19 H :    0.150908
  20 H :    0.268355

  Mayer bond orders larger than 0.100000
B(  0-C ,  1-C ) :   0.9197 B(  0-C ,  8-H ) :   0.9761 B(  0-C ,  9-H ) :   0.9852
B(  0-C , 10-H ) :   0.9718 B(  1-C ,  2-H ) :   0.9536 B(  1-C ,  3-C ) :   0.9760
B(  1-C ,  7-O ) :   0.8738 B(  3-C ,  4-C ) :   0.8812 B(  3-C , 11-H ) :   0.9812
B(  3-C , 12-H ) :   0.9710 B(  4-C ,  5-C ) :   0.8941 B(  4-C ,  6-C ) :   0.8944
B(  4-C , 13-H ) :   0.9624 B(  5-C , 14-H ) :   0.9817 B(  5-C , 15-H ) :   0.9831
B(  5-C , 16-H ) :   0.9791 B(  6-C , 17-H ) :   0.9730 B(  6-C , 18-H ) :   0.9918
B(  6-C , 19-H ) :   0.9737 B(  7-O , 20-H ) :   0.9041

Dispersion correction           -0.005454274
FINAL SINGLE POINT ENERGY      -312.204100458130

DIPOLE MOMENT
-------------

Method             : SCF
Type of density    : Electron Density
Multiplicity       :   1
Irrep              :   0
Energy             :  -312.2096720346011693 Eh
Relativity type    :
Basis              : AO
                                X                 Y                 Z
Electronic contribution:      3.160832858       0.842342037       3.012211061
Nuclear contribution   :     -2.766768443      -1.189327889      -3.205485568
                        -----------------------------------------
Total Dipole Moment    :      0.394064415      -0.346985852      -0.193274507
                        -----------------------------------------
Magnitude (a.u.)       :      0.559500653
Magnitude (Debye)      :      1.422137640

Rotational constants in cm-1:             0.143958             0.045239             0.044862
Rotational constants in MHz :          4315.766950          1356.238709          1344.922400

                             ****ORCA TERMINATED NORMALLY****
TOTAL RUN TIME: 0 days 0 hours 0 minutes 30 seconds 24 msec
