                         Program Version 6.0.0  -   RELEASE  -
|  1> ! r2scan-3c def2/J RI DEFGRID2 scfconv6 printgap
|  2> %output
|  3>     printlevel normal
|  4> end
|  5> %cpcm
|  6>     smd true
|  7>     smdsolvent "water"
|  8> end
|  9> * xyz 0 1
| 10> C 2.4589282045 -0.0726587474 -0.9117516096
| 11> C 1.2563934887 -0.2863405739 0.0082226206
| 12> H 1.1042757981 -1.3683568153 0.1488829456
| 13> C -0.0067169182 0.3324096526 -0.5966463747
| 14> C -1.274946074 0.0685615239 0.2237747875
| 15> C -2.3871754221 1.0171305712 -0.2201550303
| 16> C -1.744878755 -1.3780935633 0.0857542177
| 17> O 1.4622531219 0.3196515603 1.2756248788
| 18> H 2.2699218485 -0.5251523671 -1.8805397846
| 19> H 2.6352696015 0.9918846229 -1.0466469642
| 20> H 3.3525752347 -0.524636214 -0.4869064547
| 21> H 0.1569345295 1.4104475882 -0.6538263486
| 22> H -0.138929056 -0.0508183572 -1.6093719822
| 23> H -1.0400037381 0.2686361048 1.2743808178
| 24> H -2.6164462907 0.862660354 -1.2724743893
| 25> H -2.0880484446 2.0531305813 -0.0804327112
| 26> H -3.2906350545 0.8404003024 0.3584534019
| 27> H -2.6472652271 -1.5368468968 0.6713547333
| 28> H -1.9659122153 -1.604860566 -0.9553139897
| 29> H -0.9878888712 -2.0736164428 0.4379295063
| 30> H 2.283888233 -0.0156475949 1.6575658829
| 31> *
| 32>
| 33>                          ****END OF INPUT****

CARTESIAN COORDINATES (ANGSTROEM)
---------------------------------
  C      2.458928   -0.072659   -0.911752
  C      1.256393   -0.286341    0.008223
  H      1.104276   -1.368357    0.148883
  C     -0.006717    0.332410   -0.596646
  C     -1.274946    0.068562    0.223775
  C     -2.387175    1.017131   -0.220155
  C     -1.744879   -1.378094    0.085754
  O      1.462253    0.319652    1.275625
  H      2.269922   -0.525152   -1.880540
  H      2.635270    0.991885   -1.046647
  H      3.352575   -0.524636   -0.486906
  H      0.156935    1.410448   -0.653826
  H     -0.138929   -0.050818   -1.609372
  H     -1.040004    0.268636    1.274381
  H     -2.616446    0.862660   -1.272474
  H     -2.088048    2.053131   -0.080433
  H     -3.290635    0.840400    0.358453
  H     -2.647265   -1.536847    0.671355
  H     -1.965912   -1.604861   -0.955314
  H     -0.987889   -2.073616    0.437930
  H      2.283888   -0.015648    1.657566

 Total Charge           Charge          ....    0
 Multiplicity           Mult            ....    1
 Number of Electrons    NEL             ....   58
 Basis Dimension        Dim             ....  208

ORBITAL ENERGIES
----------------

  NO   OCC          E(Eh)            E(eV)
   0   2.0000     -18.947664      -515.5921
   1   2.0000     -10.074027      -274.1282
   2   2.0000     -10.023325      -272.7485
   3   2.0000     -10.013662      -272.4856
   4   2.0000     -10.009238      -272.3652
   5   2.0000     -10.005551      -272.2649
   6   2.0000     -10.005393      -272.2606
   7   2.0000      -0.984463       -26.7886
   8   2.0000      -0.769807       -20.9475
   9   2.0000      -0.714925       -19.4541
  10   2.0000      -0.641660       -17.4605
  11   2.0000      -0.640931       -17.4406
  12   2.0000      -0.556317       -15.1381
  13   2.0000      -0.518570       -14.1110
  14   2.0000      -0.476380       -12.9630
  15   2.0000      -0.422450       -11.4954
  16   2.0000      -0.411202       -11.1894
  17   2.0000      -0.401956       -10.9378
  18   2.0000      -0.374337       -10.1862
  19   2.0000      -0.362076        -9.8526
  20   2.0000      -0.344901        -9.3852
  21   2.0000      -0.339640        -9.2421
  22   2.0000      -0.338574        -9.2131
  23   2.0000      -0.323833        -8.8119
  24   2.0000      -0.306152        -8.3308
  25   2.0000      -0.285784        -7.7766
  26   2.0000      -0.285495        -7.7687
  27   2.0000      -0.267592        -7.2816
  28   2.0000      -0.236414        -6.4332
  29   0.0000       0.077875         2.1191
  30   0.0000       0.103745         2.8230
  31   0.0000       0.116647         3.1741
  32   0.0000       0.129645         3.5278
  33   0.0000       0.136597         3.7170

MULLIKEN ATOMIC CHARGES
-----------------------
   0 C :   -0.544339
   1 C :    0.064425
   2 H :    0.140506
   3 C :   -0.321669
   4 C :   -0.005335
   5 C :   -0.521451
   6 C :   -0.559747
   7 O :   -0.514230
   8 H :    0.164128
   9 H :    0.162968
  10 H :    0.161796
  11 H :    0.162610
  12 H :    0.158193
  13 H :    0.160246
  14 H :    0.156027
  15 H :    0.157493
  16 H :    0.158354
  17 H :    0.157025
  18 H :    0.164294
  19 H :    0.158330
  20 H :    0.340374
Sum of atomic charges:   -0.0000000

LOEWDIN ATOMIC CHARGES
----------------------
   0 C :   -0.404835
   1 C :    0.050662
   2 H :    0.167712
   3 C :   -0.273665
   4 C :   -0.242452
   5 C :   -0.424100
   6 C :   -0.424705
   7 O :   -0.656523
   8 H :    0.164086
   9 H :    0.161450
  10 H :    0.158404
  11 H :    0.169985
  12 H :    0.171063
  13 H :    0.164045
  14 H :    0.156275
  15 H :    0.155003
  16 H :    0.154609
  17 H :    0.155483
  18 H :    0.156323
  19 H :    0.154667
  20 H :    0.286512

  Mayer bond orders larger than 0.100000
B(  0-C ,  1-C ) :   0.9227 B(  0-C ,  8-H ) :   0.9724 B(  0-C ,  9-H ) :   0.9814
B(  0-C , 10-H ) :   0.9680 B(  1-C ,  2-H ) :   0.9496 B(  1-C ,  3-C ) :   0.9701
B(  1-C ,  7-O ) :   0.8564 B(  3-C ,  4-C ) :   0.8734 B(  3-C , 11-H ) :   0.9829
B(  3-C , 12-H ) :   0.9642 B(  4-C ,  5-C ) :   0.8872 B(  4-C ,  6-C ) :   0.8940
B(  4-C , 13-H ) :   0.9688 B(  5-C , 14-H ) :   0.9804 B(  5-C , 15-H ) :   0.9793
B(  5-C , 16-H ) :   0.9766 B(  6-C , 17-H ) :   0.9714 B(  6-C , 18-H ) :   0.9889
B(  6-C , 19-H ) :   0.9686 B(  7-O , 20-H ) :   0.8787

Dispersion correction           -0.005454274
FINAL SINGLE POINT ENERGY      -312.209366101460

DIPOLE MOMENT
-------------

Method             : SCF
Type of density    : Electron Density
Multiplicity       :   1
Irrep              :   0
Energy             :  -312.2149376779306067 Eh
Relativity type    :
Basis              : AO
                                X                 Y                 Z
Electronic contribution:      3.306380888       0.625740788       2.852921742
Nuclear contribution   :     -2.766768443      -1.189327889      -3.205485568
                        -----------------------------------------
Total Dipole Moment    :      0.539612445      -0.563587101      -0.352563826
                        -----------------------------------------
Magnitude (a.u.)       :      0.856220335
Magnitude (Debye)      :      2.176339136

Rotational constants in cm-1:             0.143958             0.045239             0.044862
Rotational constants in MHz :          4315.766950          1356.238709          1344.922400

                             ****ORCA TERMINATED NORMALLY****
TOTAL RUN TIME: 0 days 0 hours 0 minutes 36 seconds 226 msec
