                         Program Version 6.0.0  -   RELEASE  -
|  1> ! pbe def2-sv(p) def2/J RI DEFGRID1 loosescf d4 GCP(DFT/SV(P)) printgap
|  2> %output
|  3>     printlevel normal
|  4> end
|  5> * xyz 0 1
|  6> C -2.075653584 0.4103138365 0.689412697
|  7> C -1.5260975871 0.1786588781 -0.7131251015
|  8> C -0.2528516327 -0.6677405322 -0.6989500197
|  9> C 0.9384167027 -0.0545975231 -0.006341394
| 10> C 1.164736468 1.2464170976 0.0802269849
| 11> C 1.8978155248 -1.0577452135 0.5629255034
| 12> H -2.981096431 1.0111151524 0.6504215275
| 13> H -1.3427291987 0.9271723466 1.3040302887
| 14> H -2.3132620142 -0.5387714157 1.1649403866
| 15> H -2.2780718735 -0.3414140729 -1.3110447968
| 16> H -1.3322631041 1.136927011 -1.1967096738
| 17> H -0.4762675377 -1.6243126618 -0.2197793925
| 18> H 0.0372003364 -0.8868790438 -1.7318813826
| 19> H 2.0443030623 1.6310535591 0.5693819055
| 20> H 0.4956331661 1.9850559815 -0.3244647251
| 21> H 1.4224786343 -1.6125694382 1.3711558916
| 22> H 2.1903927094 -1.7735778454 -0.2039091485
| 23> H 2.7894608749 -0.5728797335 0.9509371281
| 24> *
| 25>
| 26>                          ****END OF INPUT****

CARTESIAN COORDINATES (ANGSTROEM)
---------------------------------
  C     -2.075654    0.410314    0.689413
  C     -1.526098    0.178659   -0.713125
  C     -0.252852   -0.667741   -0.698950
  C      0.938417   -0.054598   -0.006341
  C      1.164736    1.246417    0.080227
  C      1.897816   -1.057745    0.562926
  H     -2.981096    1.011115    0.650422
  H     -1.342729    0.927172    1.304030
  H     -2.313262   -0.538771    1.164940
  H     -2.278072   -0.341414   -1.311045
  H     -1.332263    1.136927   -1.196710
  H     -0.476268   -1.624313   -0.219779
  H      0.037200   -0.886879   -1.731881
  H      2.044303    1.631054    0.569382
  H      0.495633    1.985056   -0.324465
  H      1.422479   -1.612569    1.371156
  H      2.190393   -1.773578   -0.203909
  H      2.789461   -0.572880    0.950937

 Total Charge           Charge          ....    0
 Multiplicity           Mult            ....    1
 Number of Electrons    NEL             ....   48
 Basis Dimension        Dim             ....  108

ORBITAL ENERGIES
----------------

  NO   OCC          E(Eh)            E(eV)
   0   2.0000      -9.896168      -269.2884
   1   2.0000      -9.885334      -268.9936
   2   2.0000      -9.883051      -268.9315
   3   2.0000      -9.876940      -268.7652
   4   2.0000      -9.867929      -268.5200
   5   2.0000      -9.865105      -268.4431
   6   2.0000      -0.737290       -20.0627
   7   2.0000      -0.683018       -18.5859
   8   2.0000      -0.608848       -16.5676
   9   2.0000      -0.606951       -16.5160
  10   2.0000      -0.528045       -14.3688
  11   2.0000      -0.456219       -12.4143
  12   2.0000      -0.422338       -11.4924
  13   2.0000      -0.404770       -11.0144
  14   2.0000      -0.390185       -10.6175
  15   2.0000      -0.372015       -10.1231
  16   2.0000      -0.361958        -9.8494
  17   2.0000      -0.336623        -9.1600
  18   2.0000      -0.322517        -8.7761
  19   2.0000      -0.313443        -8.5292
  20   2.0000      -0.297065        -8.0836
  21   2.0000      -0.286555        -7.7976
  22   2.0000      -0.275230        -7.4894
  23   2.0000      -0.212888        -5.7930
  24   0.0000      -0.009479        -0.2579
  25   0.0000       0.036836         1.0024
  26   0.0000       0.065678         1.7872
  27   0.0000       0.075411         2.0520
  28   0.0000       0.088418         2.4060

MULLIKEN ATOMIC CHARGES
-----------------------
   0 C :   -0.282882
   1 C :   -0.188571
   2 C :   -0.109460
   3 C :   -0.105799
   4 C :   -0.230836
   5 C :   -0.225104
   6 H :    0.101199
   7 H :    0.112867
   8 H :    0.093044
   9 H :    0.083491
  10 H :    0.094068
  11 H :    0.075993
  12 H :    0.100908
  13 H :    0.080723
  14 H :    0.086590
  15 H :    0.109419
  16 H :    0.107693
  17 H :    0.096656
Sum of atomic charges:    0.0000000

LOEWDIN ATOMIC CHARGES
----------------------
   0 C :   -0.343970
   1 C :   -0.231547
   2 C :   -0.215965
   3 C :   -0.059352
   4 C :   -0.273215
   5 C :   -0.322556
   6 H :    0.118069
   7 H :    0.120790
   8 H :    0.115251
   9 H :    0.116806
  10 H :    0.115605
  11 H :    0.117928
  12 H :    0.131822
  13 H :    0.117440
  14 H :    0.116057
  15 H :    0.128148
  16 H :    0.126575
  17 H :    0.122114

  Mayer bond orders larger than 0.100000
B(  0-C ,  1-C ) :   1.1571 B(  0-C ,  6-H ) :   0.9536 B(  0-C ,  7-H ) :   0.9493
B(  0-C ,  8-H ) :   0.9545 B(  1-C ,  2-C ) :   1.1326 B(  1-C ,  9-H ) :   0.9235
B(  1-C , 10-H ) :   0.9162 B(  2-C ,  3-C ) :   1.0517 B(  2-C , 11-H ) :   0.9138
B(  2-C , 12-H ) :   0.8932 B(  3-C ,  4-C ) :   2.0482 B(  3-C ,  5-C ) :   1.1174
B(  4-C , 13-H ) :   0.9024 B(  4-C , 14-H ) :   0.9056 B(  5-C , 15-H ) :   0.9288
B(  5-C , 16-H ) :   0.9366 B(  5-C , 17-H ) :   0.9428

Dispersion correction           -0.013761416
FINAL SINGLE POINT ENERGY      -235.243415997827

DIPOLE MOMENT
-------------

Method             : SCF
Type of density    : Electron Density
Multiplicity       :   1
Irrep              :   0
Energy             :  -235.3010280369585416 Eh
Relativity type    :
Basis              : AO
                                X                 Y                 Z
Electronic contribution:      1.601553678       0.422754521      -1.014849081
Nuclear contribution   :     -1.636364028      -0.618324647       0.959813974
                        -----------------------------------------
Total Dipole Moment    :     -0.034810350      -0.195570125      -0.055035106
                        -----------------------------------------
Magnitude (a.u.)       :      0.206126896
Magnitude (Debye)      :      0.523932932

Rotational constants in cm-1:             0.190730             0.072781             0.066079
Rotational constants in MHz :          5717.935150          2181.926426          1981.001543

                             ****ORCA TERMINATED NORMALLY****
TOTAL RUN TIME: 0 days 0 hours 0 minutes 7 seconds 824 msec
