                         Program Version 6.0.0  -   RELEASE  -
|  1> ! r2scan-3c def2/J RI DEFGRID2 scfconv6 printgap
|  2> %output
|  3>     printlevel normal
|  4> end
|  5> * xyz 0 1
|  6> C 5.4388686397 -0.0216717271 -0.864529648
|  7> C 4.5046513754 -0.5811820546 0.2091923508
|  8> C 3.2259482944 0.2304732674 0.2606801107
|  9> O 3.235176865 1.4386837219 0.4338199514
| 10> N 2.0921714516 -0.5060736897 0.096690233
| 11> C 0.7654889676 -0.0839750367 0.095386044
| 12> C 0.3857239278 1.2491642512 0.2444039769
| 13> C -0.9509421077 1.5965580857 0.2319024073
| 14> C -1.9285975842 0.6275758348 0.0714044284
| 15> C -1.5558739631 -0.7028823472 -0.0778897532
| 16> C -0.2208339621 -1.0588911958 -0.0665868353
| 17> Cl -2.7641624744 -1.9292711489 -0.2784805247
| 18> Cl -3.60513283 1.0752918594 0.0570994719
| 19> H 5.0111741327 -0.1620931363 -1.8541245957
| 20> H 6.4016684862 -0.522323474 -0.824641471
| 21> H 5.5880080489 1.0431758525 -0.7031508282
| 22> H 4.9875943018 -0.483332998 1.183436904
| 23> H 4.301513836 -1.6338654921 0.0217230871
| 24> H 2.2114107771 -1.5023427229 -0.0373767366
| 25> H 1.140033222 2.0075043139 0.3696795196
| 26> H -1.2432172511 2.6270716872 0.3462289909
| 27> H 0.0429375702 -2.0974392657 -0.1837355065
| 28> *
| 29>
| 30>                          ****END OF INPUT****

CARTESIAN COORDINATES (ANGSTROEM)
---------------------------------
  C      5.438869   -0.021672   -0.864530
  C      4.504651   -0.581182    0.209192
  C      3.225948    0.230473    0.260680
  O      3.235177    1.438684    0.433820
  N      2.092171   -0.506074    0.096690
  C      0.765489   -0.083975    0.095386
  C      0.385724    1.249164    0.244404
  C     -0.950942    1.596558    0.231902
  C     -1.928598    0.627576    0.071404
  C     -1.555874   -0.702882   -0.077890
  C     -0.220834   -1.058891   -0.066587
  Cl    -2.764162   -1.929271   -0.278481
  Cl    -3.605133    1.075292    0.057099
  H      5.011174   -0.162093   -1.854125
  H      6.401668   -0.522323   -0.824641
  H      5.588008    1.043176   -0.703151
  H      4.987594   -0.483333    1.183437
  H      4.301514   -1.633865    0.021723
  H      2.211411   -1.502343   -0.037377
  H      1.140033    2.007504    0.369680
  H     -1.243217    2.627072    0.346229
  H      0.042938   -2.097439   -0.183736

 Total Charge           Charge          ....    0
 Multiplicity           Mult            ....    1
 Number of Electrons    NEL             ....  112
 Basis Dimension        Dim             ....  318

ORBITAL ENERGIES
----------------

  NO   OCC          E(Eh)            E(eV)
   0   2.0000    -101.230522     -2754.6226
   1   2.0000    -101.225454     -2754.4846
   2   2.0000     -18.931112      -515.1418
   3   2.0000     -14.224722      -387.0744
   4   2.0000     -10.148443      -276.1532
   5   2.0000     -10.119064      -275.3537
   6   2.0000     -10.111133      -275.1379
   7   2.0000     -10.106552      -275.0133
   8   2.0000     -10.066007      -273.9100
   9   2.0000     -10.060749      -273.7669
  10   2.0000     -10.056269      -273.6450
  11   2.0000     -10.049397      -273.4580
  12   2.0000     -10.035333      -273.0753
  13   2.0000      -9.386243      -255.4126
  14   2.0000      -9.381124      -255.2734
  15   2.0000      -7.132722      -194.0912
  16   2.0000      -7.127586      -193.9515
  17   2.0000      -7.122498      -193.8130
  18   2.0000      -7.121814      -193.7944
  19   2.0000      -7.117372      -193.6735
  20   2.0000      -7.116723      -193.6559
  21   2.0000      -1.021431       -27.7945
  22   2.0000      -0.934631       -25.4326
  23   2.0000      -0.888624       -24.1807
  24   2.0000      -0.828044       -22.5322
  25   2.0000      -0.812650       -22.1133
  26   2.0000      -0.763045       -20.7635
  27   2.0000      -0.732486       -19.9319
  28   2.0000      -0.709372       -19.3030
  29   2.0000      -0.641161       -17.4469
  30   2.0000      -0.616535       -16.7768
  31   2.0000      -0.594889       -16.1877
  32   2.0000      -0.552656       -15.0385
  33   2.0000      -0.527340       -14.3497
  34   2.0000      -0.480582       -13.0773
  35   2.0000      -0.472775       -12.8649
  36   2.0000      -0.455630       -12.3983
  37   2.0000      -0.445231       -12.1154
  38   2.0000      -0.434003       -11.8098
  39   2.0000      -0.420065       -11.4306
  40   2.0000      -0.414713       -11.2849
  41   2.0000      -0.398215       -10.8360
  42   2.0000      -0.394753       -10.7418
  43   2.0000      -0.376774       -10.2525
  44   2.0000      -0.359802        -9.7907
  45   2.0000      -0.354109        -9.6358
  46   2.0000      -0.348730        -9.4894
  47   2.0000      -0.338214        -9.2033
  48   2.0000      -0.327107        -8.9010
  49   2.0000      -0.320924        -8.7328
  50   2.0000      -0.304594        -8.2884
  51   2.0000      -0.282172        -7.6783
  52   2.0000      -0.282114        -7.6767
  53   2.0000      -0.247211        -6.7269
  54   2.0000      -0.234484        -6.3806
  55   2.0000      -0.216645        -5.8952
  56   0.0000      -0.061827        -1.6824
  57   0.0000      -0.056285        -1.5316
  58   0.0000      -0.023364        -0.6358
  59   0.0000      -0.001284        -0.0349
  60   0.0000       0.040007         1.0886

MULLIKEN ATOMIC CHARGES
-----------------------
   0 C :   -0.462775
   1 C :   -0.313944
   2 C :    0.329434
   3 O :   -0.451904
   4 N :   -0.059311
   5 C :    0.224792
   6 C :   -0.173289
   7 C :   -0.227747
   8 C :    0.125817
   9 C :    0.137031
  10 C :   -0.440274
  11 Cl:   -0.114682
  12 Cl:   -0.118817
  13 H :    0.143601
  14 H :    0.151934
  15 H :    0.181066
  16 H :    0.170958
  17 H :    0.123552
  18 H :    0.250890
  19 H :    0.209816
  20 H :    0.165188
  21 H :    0.148665
Sum of atomic charges:    0.0000000

LOEWDIN ATOMIC CHARGES
----------------------
   0 C :   -0.394440
   1 C :   -0.242653
   2 C :    0.342795
   3 O :   -0.464926
   4 N :   -0.589531
   5 C :    0.159191
   6 C :   -0.114598
   7 C :   -0.149116
   8 C :   -0.191817
   9 C :   -0.172885
  10 C :   -0.143289
  11 Cl:    0.149313
  12 Cl:    0.142614
  13 H :    0.154173
  14 H :    0.152346
  15 H :    0.169469
  16 H :    0.180123
  17 H :    0.155542
  18 H :    0.282422
  19 H :    0.211068
  20 H :    0.183098
  21 H :    0.181101

  Mayer bond orders larger than 0.100000
B(  0-C ,  1-C ) :   0.9088 B(  0-C , 13-H ) :   0.9704 B(  0-C , 14-H ) :   0.9742
B(  0-C , 15-H ) :   0.9717 B(  1-C ,  2-C ) :   0.9145 B(  1-C , 16-H ) :   0.9522
B(  1-C , 17-H ) :   0.9962 B(  2-C ,  3-O ) :   1.7966 B(  2-C ,  4-N ) :   1.0628
B(  4-N ,  5-C ) :   1.0450 B(  4-N , 18-H ) :   0.9154 B(  5-C ,  6-C ) :   1.4075
B(  5-C , 10-C ) :   1.2500 B(  6-C ,  7-C ) :   1.3148 B(  6-C , 19-H ) :   0.9291
B(  7-C ,  8-C ) :   1.3097 B(  7-C , 20-H ) :   0.9553 B(  8-C ,  9-C ) :   1.2874
B(  8-C , 12-Cl) :   1.0376 B(  9-C , 10-C ) :   1.3557 B(  9-C , 11-Cl) :   1.0080
B( 10-C , 21-H ) :   0.9212

Dispersion correction           -0.008977210
FINAL SINGLE POINT ENERGY     -1398.618635106791

DIPOLE MOMENT
-------------

Method             : SCF
Type of density    : Electron Density
Multiplicity       :   1
Irrep              :   0
Energy             : -1398.6229123299126513 Eh
Relativity type    :
Basis              : AO
                                X                 Y                 Z
Electronic contribution:    -34.193273136      -1.527515959       1.128655286
Nuclear contribution   :     35.291015706       0.485822010      -1.273879885
                        -----------------------------------------
Total Dipole Moment    :      1.097742570      -1.041693949      -0.145224599
                        -----------------------------------------
Magnitude (a.u.)       :      1.520281296
Magnitude (Debye)      :      3.864247956

Rotational constants in cm-1:             0.050799             0.008650             0.007512
Rotational constants in MHz :          1522.902120           259.314622           225.205698

                             ****ORCA TERMINATED NORMALLY****
TOTAL RUN TIME: 0 days 0 hours 0 minutes 46 seconds 421 msec
