                         Program Version 6.0.0  -   RELEASE  -
|  1> ! r2scan-3c def2/J RI DEFGRID2 scfconv6 printgap
|  2> %output
|  3>     printlevel normal
|  4> end
|  5> %cpcm
|  6>     smd true
|  7>     smdsolvent "water"
|  8> end
|  9> * xyz 0 1
| 10> C 5.4388686397 -0.0216717271 -0.864529648
| 11> C 4.5046513754 -0.5811820546 0.2091923508
| 12> C 3.2259482944 0.2304732674 0.2606801107
| 13> O 3.235176865 1.4386837219 0.4338199514
| 14> N 2.0921714516 -0.5060736897 0.096690233
| 15> C 0.7654889676 -0.0839750367 0.095386044
| 16> C 0.3857239278 1.2491642512 0.2444039769
| 17> C -0.9509421077 1.5965580857 0.2319024073
| 18> C -1.9285975842 0.6275758348 0.0714044284
| 19> C -1.5558739631 -0.7028823472 -0.0778897532
| 20> C -0.2208339621 -1.0588911958 -0.0665868353
| 21> Cl -2.7641624744 -1.9292711489 -0.2784805247
| 22> Cl -3.60513283 1.0752918594 0.0570994719
| 23> H 5.0111741327 -0.1620931363 -1.8541245957
| 24> H 6.4016684862 -0.522323474 -0.824641471
| 25> H 5.5880080489 1.0431758525 -0.7031508282
| 26> H 4.9875943018 -0.483332998 1.183436904
| 27> H 4.301513836 -1.6338654921 0.0217230871
| 28> H 2.2114107771 -1.5023427229 -0.0373767366
| 29> H 1.140033222 2.0075043139 0.3696795196
| 30> H -1.2432172511 2.6270716872 0.3462289909
| 31> H 0.0429375702 -2.0974392657 -0.1837355065
| 32> *
| 33>
| 34>                          ****END OF INPUT****

CARTESIAN COORDINATES (ANGSTROEM)
---------------------------------
  C      5.438869   -0.021672   -0.864530
  C      4.504651   -0.581182    0.209192
  C      3.225948    0.230473    0.260680
  O      3.235177    1.438684    0.433820
  N      2.092171   -0.506074    0.096690
  C      0.765489   -0.083975    0.095386
  C      0.385724    1.249164    0.244404
  C     -0.950942    1.596558    0.231902
  C     -1.928598    0.627576    0.071404
  C     -1.555874   -0.702882   -0.077890
  C     -0.220834   -1.058891   -0.066587
  Cl    -2.764162   -1.929271   -0.278481
  Cl    -3.605133    1.075292    0.057099
  H      5.011174   -0.162093   -1.854125
  H      6.401668   -0.522323   -0.824641
  H      5.588008    1.043176   -0.703151
  H      4.987594   -0.483333    1.183437
  H      4.301514   -1.633865    0.021723
  H      2.211411   -1.502343   -0.037377
  H      1.140033    2.007504    0.369680
  H     -1.243217    2.627072    0.346229
  H      0.042938   -2.097439   -0.183736

 Total Charge           Charge          ....    0
 Multiplicity           Mult            ....    1
 Number of Electrons    NEL             ....  112
 Basis Dimension        Dim             ....  318

ORBITAL ENERGIES
----------------

  NO   OCC          E(Eh)            E(eV)
   0   2.0000    -101.231973     -2754.6620
   1   2.0000    -101.229312     -2754.5896
   2   2.0000     -18.934497      -515.2339
   3   2.0000     -14.210560      -386.6890
   4   2.0000     -10.145074      -276.0615
   5   2.0000     -10.115804      -275.2650
   6   2.0000     -10.109173      -275.0846
   7   2.0000     -10.099286      -274.8155
   8   2.0000     -10.055976      -273.6370
   9   2.0000     -10.055621      -273.6274
  10   2.0000     -10.045219      -273.3443
  11   2.0000     -10.035902      -273.0908
  12   2.0000     -10.018845      -272.6266
  13   2.0000      -9.387818      -255.4555
  14   2.0000      -9.385120      -255.3821
  15   2.0000      -7.134168      -194.1306
  16   2.0000      -7.131425      -194.0559
  17   2.0000      -7.124139      -193.8577
  18   2.0000      -7.123431      -193.8384
  19   2.0000      -7.121429      -193.7839
  20   2.0000      -7.120790      -193.7665
  21   2.0000      -1.022810       -27.8321
  22   2.0000      -0.924966       -25.1696
  23   2.0000      -0.887261       -24.1436
  24   2.0000      -0.829466       -22.5709
  25   2.0000      -0.808880       -22.0107
  26   2.0000      -0.748548       -20.3690
  27   2.0000      -0.725786       -19.7496
  28   2.0000      -0.704148       -19.1608
  29   2.0000      -0.630369       -17.1532
  30   2.0000      -0.608295       -16.5525
  31   2.0000      -0.583159       -15.8686
  32   2.0000      -0.543008       -14.7760
  33   2.0000      -0.516482       -14.0542
  34   2.0000      -0.473612       -12.8876
  35   2.0000      -0.467929       -12.7330
  36   2.0000      -0.448100       -12.1934
  37   2.0000      -0.432545       -11.7701
  38   2.0000      -0.428229       -11.6527
  39   2.0000      -0.413226       -11.2445
  40   2.0000      -0.405949       -11.0464
  41   2.0000      -0.400108       -10.8875
  42   2.0000      -0.389655       -10.6030
  43   2.0000      -0.373469       -10.1626
  44   2.0000      -0.349822        -9.5191
  45   2.0000      -0.346674        -9.4335
  46   2.0000      -0.334421        -9.1001
  47   2.0000      -0.329645        -8.9701
  48   2.0000      -0.326061        -8.8726
  49   2.0000      -0.311212        -8.4685
  50   2.0000      -0.306536        -8.3413
  51   2.0000      -0.285477        -7.7682
  52   2.0000      -0.281779        -7.6676
  53   2.0000      -0.244296        -6.6476
  54   2.0000      -0.237740        -6.4692
  55   2.0000      -0.213642        -5.8135
  56   0.0000      -0.057562        -1.5664
  57   0.0000      -0.052686        -1.4337
  58   0.0000      -0.022359        -0.6084
  59   0.0000       0.003829         0.1042
  60   0.0000       0.039303         1.0695

MULLIKEN ATOMIC CHARGES
-----------------------
   0 C :   -0.503513
   1 C :   -0.321130
   2 C :    0.348422
   3 O :   -0.544532
   4 N :   -0.077281
   5 C :    0.200833
   6 C :   -0.226500
   7 C :   -0.251862
   8 C :    0.119253
   9 C :    0.143375
  10 C :   -0.413685
  11 Cl:   -0.131639
  12 Cl:   -0.140683
  13 H :    0.162636
  14 H :    0.169237
  15 H :    0.168654
  16 H :    0.188366
  17 H :    0.167912
  18 H :    0.328079
  19 H :    0.217741
  20 H :    0.198631
  21 H :    0.197684
Sum of atomic charges:    0.0000000

LOEWDIN ATOMIC CHARGES
----------------------
   0 C :   -0.401167
   1 C :   -0.236838
   2 C :    0.349763
   3 O :   -0.537485
   4 N :   -0.557817
   5 C :    0.159450
   6 C :   -0.126085
   7 C :   -0.151924
   8 C :   -0.201253
   9 C :   -0.179779
  10 C :   -0.126494
  11 Cl:    0.135281
  12 Cl:    0.125010
  13 H :    0.158882
  14 H :    0.158851
  15 H :    0.161614
  16 H :    0.185493
  17 H :    0.174164
  18 H :    0.304473
  19 H :    0.210264
  20 H :    0.194346
  21 H :    0.201253

  Mayer bond orders larger than 0.100000
B(  0-C ,  1-C ) :   0.8827 B(  0-C , 13-H ) :   0.9707 B(  0-C , 14-H ) :   0.9685
B(  0-C , 15-H ) :   0.9754 B(  1-C ,  2-C ) :   0.9146 B(  1-C , 16-H ) :   0.9507
B(  1-C , 17-H ) :   0.9816 B(  2-C ,  3-O ) :   1.7204 B(  2-C ,  4-N ) :   1.0975
B(  4-N ,  5-C ) :   1.0268 B(  4-N , 18-H ) :   0.8887 B(  5-C ,  6-C ) :   1.3366
B(  5-C , 10-C ) :   1.3239 B(  6-C ,  7-C ) :   1.3486 B(  6-C , 19-H ) :   0.9391
B(  7-C ,  8-C ) :   1.2964 B(  7-C , 20-H ) :   0.9473 B(  8-C ,  9-C ) :   1.2518
B(  8-C , 12-Cl) :   1.0245 B(  9-C , 10-C ) :   1.3080 B(  9-C , 11-Cl) :   1.0138
B( 10-C , 21-H ) :   0.9281

Dispersion correction           -0.008977210
FINAL SINGLE POINT ENERGY     -1398.631216394809

DIPOLE MOMENT
-------------

Method             : SCF
Type of density    : Electron Density
Multiplicity       :   1
Irrep              :   0
Energy             : -1398.6354936179309334 Eh
Relativity type    :
Basis              : AO
                                X                 Y                 Z
Electronic contribution:    -33.879285944      -2.252723838       1.052060967
Nuclear contribution   :     35.291015706       0.485822010      -1.273879885
                        -----------------------------------------
Total Dipole Moment    :      1.411729762      -1.766901828      -0.221818918
                        -----------------------------------------
Magnitude (a.u.)       :      2.272471479
Magnitude (Debye)      :      5.776163460

Rotational constants in cm-1:             0.050799             0.008650             0.007512
Rotational constants in MHz :          1522.902120           259.314622           225.205698

                             ****ORCA TERMINATED NORMALLY****
TOTAL RUN TIME: 0 days 0 hours 0 minutes 56 seconds 466 msec
