                         Program Version 6.0.0  -   RELEASE  -
|  1> ! pbe def2-sv(p) def2/J RI DEFGRID1 loosescf d4 GCP(DFT/SV(P)) printgap
|  2> %output
|  3>     printlevel normal
|  4> end
|  5> * xyz 0 1
|  6> C -1.0858497228 -0.1505368268 0.7209414989
|  7> C 0.2336847068 0.5467188707 0.3510619775
|  8> C 1.1084616227 -0.3747020257 -0.5030886448
|  9> O 1.6665300613 -1.3524506276 0.3450205118
| 10> O -0.0214725732 1.7182839394 -0.397270648
| 11> O -1.8745271824 -0.4044154174 -0.4172512991
| 12> H -1.6450316039 0.469844894 1.4359539739
| 13> H -0.8672182055 -1.1147507079 1.1819477878
| 14> H 0.7883853066 0.7721864614 1.2709579736
| 15> H 1.8895427151 0.2339118881 -0.9763771535
| 16> H 0.4884283722 -0.8311106059 -1.2837464812
| 17> H 2.1707417461 -1.9827640149 -0.1874176279
| 18> H -0.3590660708 2.4079558678 0.1911546514
| 19> H -1.8773868597 0.4011954877 -0.9591619377
| 20> *
| 21>
| 22>                          ****END OF INPUT****

CARTESIAN COORDINATES (ANGSTROEM)
---------------------------------
  C     -1.085850   -0.150537    0.720941
  C      0.233685    0.546719    0.351062
  C      1.108462   -0.374702   -0.503089
  O      1.666530   -1.352451    0.345021
  O     -0.021473    1.718284   -0.397271
  O     -1.874527   -0.404415   -0.417251
  H     -1.645032    0.469845    1.435954
  H     -0.867218   -1.114751    1.181948
  H      0.788385    0.772186    1.270958
  H      1.889543    0.233912   -0.976377
  H      0.488428   -0.831111   -1.283746
  H      2.170742   -1.982764   -0.187418
  H     -0.359066    2.407956    0.191155
  H     -1.877387    0.401195   -0.959162

 Total Charge           Charge          ....    0
 Multiplicity           Mult            ....    1
 Number of Electrons    NEL             ....   50
 Basis Dimension        Dim             ....  100

ORBITAL ENERGIES
----------------

  NO   OCC          E(Eh)            E(eV)
   0   2.0000     -18.762914      -510.5648
   1   2.0000     -18.748336      -510.1681
   2   2.0000     -18.737575      -509.8753
   3   2.0000      -9.939469      -270.4667
   4   2.0000      -9.926412      -270.1114
   5   2.0000      -9.923094      -270.0211
   6   2.0000      -0.943954       -25.6863
   7   2.0000      -0.921010       -25.0620
   8   2.0000      -0.908397       -24.7187
   9   2.0000      -0.680017       -18.5042
  10   2.0000      -0.602395       -16.3920
  11   2.0000      -0.532664       -14.4945
  12   2.0000      -0.491100       -13.3635
  13   2.0000      -0.449494       -12.2314
  14   2.0000      -0.433597       -11.7988
  15   2.0000      -0.423236       -11.5168
  16   2.0000      -0.386375       -10.5138
  17   2.0000      -0.365023        -9.9328
  18   2.0000      -0.344826        -9.3832
  19   2.0000      -0.304760        -8.2929
  20   2.0000      -0.279564        -7.6073
  21   2.0000      -0.274631        -7.4731
  22   2.0000      -0.238702        -6.4954
  23   2.0000      -0.217030        -5.9057
  24   2.0000      -0.205679        -5.5968
  25   0.0000       0.011130         0.3029
  26   0.0000       0.029450         0.8014
  27   0.0000       0.065141         1.7726
  28   0.0000       0.088000         2.3946
  29   0.0000       0.100712         2.7405

MULLIKEN ATOMIC CHARGES
-----------------------
   0 C :    0.044659
   1 C :   -0.052852
   2 C :    0.036723
   3 O :   -0.440262
   4 O :   -0.426635
   5 O :   -0.439357
   6 H :    0.060799
   7 H :    0.095130
   8 H :    0.072346
   9 H :    0.078436
  10 H :    0.070938
  11 H :    0.304329
  12 H :    0.304424
  13 H :    0.291321
Sum of atomic charges:   -0.0000000

LOEWDIN ATOMIC CHARGES
----------------------
   0 C :   -0.136036
   1 C :   -0.092425
   2 C :   -0.127552
   3 O :   -0.343945
   4 O :   -0.324134
   5 O :   -0.339456
   6 H :    0.088491
   7 H :    0.119778
   8 H :    0.105720
   9 H :    0.098169
  10 H :    0.099250
  11 H :    0.289279
  12 H :    0.289799
  13 H :    0.273063

  Mayer bond orders larger than 0.100000
B(  0-C ,  1-C ) :   1.0486 B(  0-C ,  5-O ) :   1.0579 B(  0-C ,  6-H ) :   0.9128
B(  0-C ,  7-H ) :   0.9148 B(  1-C ,  2-C ) :   1.0550 B(  1-C ,  4-O ) :   1.0447
B(  1-C ,  8-H ) :   0.8992 B(  2-C ,  3-O ) :   1.0803 B(  2-C ,  9-H ) :   0.9196
B(  2-C , 10-H ) :   0.9037 B(  3-O , 11-H ) :   0.8505 B(  4-O , 12-H ) :   0.8497
B(  5-O , 13-H ) :   0.8327

Dispersion correction           -0.009256154
FINAL SINGLE POINT ENERGY      -344.008640342861

DIPOLE MOMENT
-------------

Method             : SCF
Type of density    : Electron Density
Multiplicity       :   1
Irrep              :   0
Energy             :  -344.0823582967259426 Eh
Relativity type    :
Basis              : AO
                                X                 Y                 Z
Electronic contribution:     -0.204217413       0.183158545      -0.578746184
Nuclear contribution   :      0.548608968       0.333856983       0.624709906
                        -----------------------------------------
Total Dipole Moment    :      0.344391555       0.517015528       0.045963722
                        -----------------------------------------
Magnitude (a.u.)       :      0.622915133
Magnitude (Debye)      :      1.583324440

Rotational constants in cm-1:             0.155136             0.090041             0.068608
Rotational constants in MHz :          4650.865861          2699.352694          2056.811560

                             ****ORCA TERMINATED NORMALLY****
TOTAL RUN TIME: 0 days 0 hours 0 minutes 6 seconds 558 msec
