                         Program Version 6.0.0  -   RELEASE  -
|  1> ! r2scan-3c def2/J RI DEFGRID2 scfconv6 printgap
|  2> %output
|  3>     printlevel normal
|  4> end
|  5> * xyz 0 1
|  6> C -2.5367566302 0.1021263062 0.2831886019
|  7> C -1.2636219712 0.6985959977 -0.3058220646
|  8> C 5.52871e-05 -0.002261908 0.2129380417
|  9> C 1.2636150163 0.6983452284 -0.3064005171
| 10> C 2.5367976659 0.1029476551 0.2835832632
| 11> O -3.28976e-05 -1.3603937943 -0.2208442063
| 12> H -3.4101917783 0.6161435652 -0.1091473877
| 13> H -2.6104847364 -0.9506236664 0.0222359927
| 14> H -2.5376962286 0.1963475546 1.3670796926
| 15> H -1.2836279517 0.5997560461 -1.3924049915
| 16> H -1.2012318897 1.7586380317 -0.0568947021
| 17> H 0.0002861705 0.0400080935 1.3094876893
| 18> H 1.2838149359 0.5981181909 -1.3928507454
| 19> H 1.2009030886 1.7586836199 -0.0588420213
| 20> H 2.6106896847 -0.9501945706 0.0242398435
| 21> H 3.4101898787 0.6164865846 -0.109484645
| 22> H 2.5376519909 0.1988158829 1.3673321163
| 23> H -0.0008459338 -1.9513252457 0.5390066089
| 24> *
| 25>
| 26>                          ****END OF INPUT****

CARTESIAN COORDINATES (ANGSTROEM)
---------------------------------
  C     -2.536757    0.102126    0.283189
  C     -1.263622    0.698596   -0.305822
  C      0.000055   -0.002262    0.212938
  C      1.263615    0.698345   -0.306401
  C      2.536798    0.102948    0.283583
  O     -0.000033   -1.360394   -0.220844
  H     -3.410192    0.616144   -0.109147
  H     -2.610485   -0.950624    0.022236
  H     -2.537696    0.196348    1.367080
  H     -1.283628    0.599756   -1.392405
  H     -1.201232    1.758638   -0.056895
  H      0.000286    0.040008    1.309488
  H      1.283815    0.598118   -1.392851
  H      1.200903    1.758684   -0.058842
  H      2.610690   -0.950195    0.024240
  H      3.410190    0.616487   -0.109485
  H      2.537652    0.198816    1.367332
  H     -0.000846   -1.951325    0.539007

 Total Charge           Charge          ....    0
 Multiplicity           Mult            ....    1
 Number of Electrons    NEL             ....   50
 Basis Dimension        Dim             ....  179

ORBITAL ENERGIES
----------------

  NO   OCC          E(Eh)            E(eV)
   0   2.0000     -18.945230      -515.5259
   1   2.0000     -10.077702      -274.2282
   2   2.0000     -10.020577      -272.6738
   3   2.0000     -10.020574      -272.6737
   4   2.0000     -10.012670      -272.4586
   5   2.0000     -10.012665      -272.4585
   6   2.0000      -0.981651       -26.7121
   7   2.0000      -0.756571       -20.5874
   8   2.0000      -0.718087       -19.5401
   9   2.0000      -0.639911       -17.4129
  10   2.0000      -0.564276       -15.3547
  11   2.0000      -0.539473       -14.6798
  12   2.0000      -0.495183       -13.4746
  13   2.0000      -0.420907       -11.4535
  14   2.0000      -0.401964       -10.9380
  15   2.0000      -0.395910       -10.7733
  16   2.0000      -0.384462       -10.4618
  17   2.0000      -0.362524        -9.8648
  18   2.0000      -0.326513        -8.8849
  19   2.0000      -0.322732        -8.7820
  20   2.0000      -0.313425        -8.5287
  21   2.0000      -0.306576        -8.3424
  22   2.0000      -0.301239        -8.1971
  23   2.0000      -0.282000        -7.6736
  24   2.0000      -0.232036        -6.3140
  25   0.0000       0.057124         1.5544
  26   0.0000       0.111244         3.0271
  27   0.0000       0.112819         3.0700
  28   0.0000       0.123299         3.3551
  29   0.0000       0.130994         3.5645

MULLIKEN ATOMIC CHARGES
-----------------------
   0 C :   -0.507995
   1 C :   -0.219372
   2 C :   -0.008941
   3 C :   -0.219386
   4 C :   -0.507990
   5 O :   -0.430783
   6 H :    0.146520
   7 H :    0.166595
   8 H :    0.138006
   9 H :    0.147674
  10 H :    0.130904
  11 H :    0.132483
  12 H :    0.147705
  13 H :    0.130881
  14 H :    0.166570
  15 H :    0.146517
  16 H :    0.138011
  17 H :    0.302602
Sum of atomic charges:   -0.0000000

LOEWDIN ATOMIC CHARGES
----------------------
   0 C :   -0.423516
   1 C :   -0.290135
   2 C :    0.054089
   3 C :   -0.290102
   4 C :   -0.423510
   5 O :   -0.611996
   6 H :    0.150631
   7 H :    0.158464
   8 H :    0.148126
   9 H :    0.163824
  10 H :    0.156390
  11 H :    0.163637
  12 H :    0.163845
  13 H :    0.156394
  14 H :    0.158461
  15 H :    0.150628
  16 H :    0.148124
  17 H :    0.266647

  Mayer bond orders larger than 0.100000
B(  0-C ,  1-C ) :   0.8806 B(  0-C ,  6-H ) :   0.9730 B(  0-C ,  7-H ) :   0.9846
B(  0-C ,  8-H ) :   0.9842 B(  1-C ,  2-C ) :   0.9548 B(  1-C ,  9-H ) :   0.9756
B(  1-C , 10-H ) :   0.9688 B(  2-C ,  3-C ) :   0.9548 B(  2-C ,  5-O ) :   0.8157
B(  2-C , 11-H ) :   0.9688 B(  3-C ,  4-C ) :   0.8807 B(  3-C , 12-H ) :   0.9756
B(  3-C , 13-H ) :   0.9689 B(  4-C , 14-H ) :   0.9846 B(  4-C , 15-H ) :   0.9730
B(  4-C , 16-H ) :   0.9842 B(  5-O , 17-H ) :   0.9016

Dispersion correction           -0.004180563
FINAL SINGLE POINT ENERGY      -272.902515166436

DIPOLE MOMENT
-------------

Method             : SCF
Type of density    : Electron Density
Multiplicity       :   1
Irrep              :   0
Energy             :  -272.9077548946527827 Eh
Relativity type    :
Basis              : AO
                                X                 Y                 Z
Electronic contribution:      0.000131939      -2.213082090      -0.890599219
Nuclear contribution   :     -0.000509694       2.354166394       1.413122099
                        -----------------------------------------
Total Dipole Moment    :     -0.000377755       0.141084305       0.522522880
                        -----------------------------------------
Magnitude (a.u.)       :      0.541234777
Magnitude (Debye)      :      1.375709474

Rotational constants in cm-1:             0.239860             0.063744             0.055361
Rotational constants in MHz :          7190.825141          1910.984714          1659.683500

                             ****ORCA TERMINATED NORMALLY****
TOTAL RUN TIME: 0 days 0 hours 0 minutes 22 seconds 969 msec
