                         Program Version 6.0.0  -   RELEASE  -
|  1> ! r2scan-3c def2/J RI DEFGRID2 scfconv6 printgap
|  2> %output
|  3>     printlevel normal
|  4> end
|  5> %cpcm
|  6>     smd true
|  7>     smdsolvent "water"
|  8> end
|  9> * xyz 0 1
| 10> C -2.5367566302 0.1021263062 0.2831886019
| 11> C -1.2636219712 0.6985959977 -0.3058220646
| 12> C 5.52871e-05 -0.002261908 0.2129380417
| 13> C 1.2636150163 0.6983452284 -0.3064005171
| 14> C 2.5367976659 0.1029476551 0.2835832632
| 15> O -3.28976e-05 -1.3603937943 -0.2208442063
| 16> H -3.4101917783 0.6161435652 -0.1091473877
| 17> H -2.6104847364 -0.9506236664 0.0222359927
| 18> H -2.5376962286 0.1963475546 1.3670796926
| 19> H -1.2836279517 0.5997560461 -1.3924049915
| 20> H -1.2012318897 1.7586380317 -0.0568947021
| 21> H 0.0002861705 0.0400080935 1.3094876893
| 22> H 1.2838149359 0.5981181909 -1.3928507454
| 23> H 1.2009030886 1.7586836199 -0.0588420213
| 24> H 2.6106896847 -0.9501945706 0.0242398435
| 25> H 3.4101898787 0.6164865846 -0.109484645
| 26> H 2.5376519909 0.1988158829 1.3673321163
| 27> H -0.0008459338 -1.9513252457 0.5390066089
| 28> *
| 29>
| 30>                          ****END OF INPUT****

CARTESIAN COORDINATES (ANGSTROEM)
---------------------------------
  C     -2.536757    0.102126    0.283189
  C     -1.263622    0.698596   -0.305822
  C      0.000055   -0.002262    0.212938
  C      1.263615    0.698345   -0.306401
  C      2.536798    0.102948    0.283583
  O     -0.000033   -1.360394   -0.220844
  H     -3.410192    0.616144   -0.109147
  H     -2.610485   -0.950624    0.022236
  H     -2.537696    0.196348    1.367080
  H     -1.283628    0.599756   -1.392405
  H     -1.201232    1.758638   -0.056895
  H      0.000286    0.040008    1.309488
  H      1.283815    0.598118   -1.392851
  H      1.200903    1.758684   -0.058842
  H      2.610690   -0.950195    0.024240
  H      3.410190    0.616487   -0.109485
  H      2.537652    0.198816    1.367332
  H     -0.000846   -1.951325    0.539007

 Total Charge           Charge          ....    0
 Multiplicity           Mult            ....    1
 Number of Electrons    NEL             ....   50
 Basis Dimension        Dim             ....  179

ORBITAL ENERGIES
----------------

  NO   OCC          E(Eh)            E(eV)
   0   2.0000     -18.946605      -515.5633
   1   2.0000     -10.071118      -274.0490
   2   2.0000     -10.014920      -272.5198
   3   2.0000     -10.014915      -272.5197
   4   2.0000     -10.007530      -272.3187
   5   2.0000     -10.007526      -272.3186
   6   2.0000      -0.981879       -26.7183
   7   2.0000      -0.751417       -20.4471
   8   2.0000      -0.713298       -19.4098
   9   2.0000      -0.635188       -17.2844
  10   2.0000      -0.559385       -15.2216
  11   2.0000      -0.534347       -14.5403
  12   2.0000      -0.490264       -13.3408
  13   2.0000      -0.417067       -11.3490
  14   2.0000      -0.396833       -10.7984
  15   2.0000      -0.391683       -10.6582
  16   2.0000      -0.381347       -10.3770
  17   2.0000      -0.357554        -9.7295
  18   2.0000      -0.325940        -8.8693
  19   2.0000      -0.318063        -8.6549
  20   2.0000      -0.308924        -8.4063
  21   2.0000      -0.303086        -8.2474
  22   2.0000      -0.296540        -8.0693
  23   2.0000      -0.277922        -7.5626
  24   2.0000      -0.233767        -6.3611
  25   0.0000       0.075619         2.0577
  26   0.0000       0.118117         3.2141
  27   0.0000       0.120502         3.2790
  28   0.0000       0.128263         3.4902
  29   0.0000       0.140220         3.8156

MULLIKEN ATOMIC CHARGES
-----------------------
   0 C :   -0.530491
   1 C :   -0.261428
   2 C :    0.023682
   3 C :   -0.261376
   4 C :   -0.530527
   5 O :   -0.508663
   6 H :    0.158388
   7 H :    0.160079
   8 H :    0.155528
   9 H :    0.155098
  10 H :    0.149218
  11 H :    0.157487
  12 H :    0.155114
  13 H :    0.149194
  14 H :    0.160064
  15 H :    0.158389
  16 H :    0.155537
  17 H :    0.354708
Sum of atomic charges:   -0.0000000

LOEWDIN ATOMIC CHARGES
----------------------
   0 C :   -0.430115
   1 C :   -0.293872
   2 C :    0.057011
   3 C :   -0.293843
   4 C :   -0.430116
   5 O :   -0.645368
   6 H :    0.153214
   7 H :    0.155272
   8 H :    0.154038
   9 H :    0.162633
  10 H :    0.162968
  11 H :    0.175604
  12 H :    0.162649
  13 H :    0.162970
  14 H :    0.155268
  15 H :    0.153214
  16 H :    0.154036
  17 H :    0.284437

  Mayer bond orders larger than 0.100000
B(  0-C ,  1-C ) :   0.8836 B(  0-C ,  6-H ) :   0.9719 B(  0-C ,  7-H ) :   0.9819
B(  0-C ,  8-H ) :   0.9797 B(  1-C ,  2-C ) :   0.9471 B(  1-C ,  9-H ) :   0.9805
B(  1-C , 10-H ) :   0.9649 B(  2-C ,  3-C ) :   0.9471 B(  2-C ,  5-O ) :   0.8087
B(  2-C , 11-H ) :   0.9603 B(  3-C ,  4-C ) :   0.8837 B(  3-C , 12-H ) :   0.9805
B(  3-C , 13-H ) :   0.9649 B(  4-C , 14-H ) :   0.9819 B(  4-C , 15-H ) :   0.9719
B(  4-C , 16-H ) :   0.9798 B(  5-O , 17-H ) :   0.8730

Dispersion correction           -0.004180563
FINAL SINGLE POINT ENERGY      -272.907833083527

DIPOLE MOMENT
-------------

Method             : SCF
Type of density    : Electron Density
Multiplicity       :   1
Irrep              :   0
Energy             :  -272.9130728117435751 Eh
Relativity type    :
Basis              : AO
                                X                 Y                 Z
Electronic contribution:     -0.000055637      -2.078212327      -0.590272717
Nuclear contribution   :     -0.000509694       2.354166394       1.413122099
                        -----------------------------------------
Total Dipole Moment    :     -0.000565331       0.275954067       0.822849383
                        -----------------------------------------
Magnitude (a.u.)       :      0.867889436
Magnitude (Debye)      :      2.205999633

Rotational constants in cm-1:             0.239860             0.063744             0.055361
Rotational constants in MHz :          7190.825141          1910.984714          1659.683500

                             ****ORCA TERMINATED NORMALLY****
TOTAL RUN TIME: 0 days 0 hours 0 minutes 27 seconds 359 msec
