                         Program Version 6.0.0  -   RELEASE  -
|  1> ! pbe def2-sv(p) def2/J RI DEFGRID1 loosescf d4 GCP(DFT/SV(P)) printgap
|  2> %output
|  3>     printlevel normal
|  4> end
|  5> * xyz 0 1
|  6> C 1.781938945 0.5402725858 -1.1173487693
|  7> C 1.0710884277 -0.1721557297 0.0325376823
|  8> H 0.701665168 -1.142082845 -0.3135371933
|  9> C -0.0908880845 0.6622437204 0.6071138569
| 10> C -1.5002538747 0.2795713663 0.1292507072
| 11> C -1.6504458608 0.365874789 -1.3877612237
| 12> C -1.9150960056 -1.1025076777 0.6313148588
| 13> O 2.0003844856 -0.5173427973 1.0514933152
| 14> H 2.6108547252 -0.0687086976 -1.4713033448
| 15> H 1.0965562156 0.7128149181 -1.9400003204
| 16> H 2.1726754541 1.4991732397 -0.7813843194
| 17> H -0.0695166059 0.5468702317 1.6938672447
| 18> H 0.0816544661 1.7169291276 0.3804672355
| 19> H -2.1840735121 1.012168023 0.5752798883
| 20> H -1.0426490491 -0.3887836846 -1.8801375583
| 21> H -1.3527100528 1.3478078668 -1.7474917202
| 22> H -2.6880267351 0.2000425369 -1.6685421058
| 23> H -2.9464817436 -1.307884928 0.35458772
| 24> H -1.2883538786 -1.8803579024 0.2025572467
| 25> H -1.8314649092 -1.1571441046 1.7141333454
| 26> H 2.4381204005 0.289530672 1.3569541505
| 27> *
| 28>
| 29>                          ****END OF INPUT****

CARTESIAN COORDINATES (ANGSTROEM)
---------------------------------
  C      1.781939    0.540273   -1.117349
  C      1.071088   -0.172156    0.032538
  H      0.701665   -1.142083   -0.313537
  C     -0.090888    0.662244    0.607114
  C     -1.500254    0.279571    0.129251
  C     -1.650446    0.365875   -1.387761
  C     -1.915096   -1.102508    0.631315
  O      2.000384   -0.517343    1.051493
  H      2.610855   -0.068709   -1.471303
  H      1.096556    0.712815   -1.940000
  H      2.172675    1.499173   -0.781384
  H     -0.069517    0.546870    1.693867
  H      0.081654    1.716929    0.380467
  H     -2.184074    1.012168    0.575280
  H     -1.042649   -0.388784   -1.880138
  H     -1.352710    1.347808   -1.747492
  H     -2.688027    0.200043   -1.668542
  H     -2.946482   -1.307885    0.354588
  H     -1.288354   -1.880358    0.202557
  H     -1.831465   -1.157144    1.714133
  H      2.438120    0.289531    1.356954

 Total Charge           Charge          ....    0
 Multiplicity           Mult            ....    1
 Number of Electrons    NEL             ....   58
 Basis Dimension        Dim             ....  126

ORBITAL ENERGIES
----------------

  NO   OCC          E(Eh)            E(eV)
   0   2.0000     -18.733291      -509.7588
   1   2.0000      -9.933410      -270.3018
   2   2.0000      -9.895842      -269.2796
   3   2.0000      -9.877659      -268.7848
   4   2.0000      -9.874297      -268.6933
   5   2.0000      -9.874190      -268.6904
   6   2.0000      -9.870665      -268.5944
   7   2.0000      -0.911700       -24.8086
   8   2.0000      -0.731716       -19.9110
   9   2.0000      -0.671510       -18.2727
  10   2.0000      -0.614323       -16.7166
  11   2.0000      -0.607398       -16.5281
  12   2.0000      -0.546624       -14.8744
  13   2.0000      -0.494283       -13.4501
  14   2.0000      -0.435975       -11.8635
  15   2.0000      -0.419050       -11.4029
  16   2.0000      -0.396804       -10.7976
  17   2.0000      -0.384497       -10.4627
  18   2.0000      -0.372248       -10.1294
  19   2.0000      -0.368696       -10.0327
  20   2.0000      -0.347518        -9.4564
  21   2.0000      -0.332990        -9.0611
  22   2.0000      -0.323378        -8.7996
  23   2.0000      -0.310556        -8.4507
  24   2.0000      -0.294316        -8.0088
  25   2.0000      -0.282368        -7.6836
  26   2.0000      -0.279233        -7.5983
  27   2.0000      -0.258699        -7.0396
  28   2.0000      -0.206315        -5.6141
  29   0.0000       0.030027         0.8171
  30   0.0000       0.041862         1.1391
  31   0.0000       0.056141         1.5277
  32   0.0000       0.074095         2.0162
  33   0.0000       0.087158         2.3717

MULLIKEN ATOMIC CHARGES
-----------------------
   0 C :   -0.267041
   1 C :    0.007479
   2 H :    0.081297
   3 C :   -0.108665
   4 C :   -0.188028
   5 C :   -0.256547
   6 C :   -0.245877
   7 O :   -0.433493
   8 H :    0.108591
   9 H :    0.102017
  10 H :    0.085766
  11 H :    0.077790
  12 H :    0.069276
  13 H :    0.070228
  14 H :    0.107160
  15 H :    0.101685
  16 H :    0.099469
  17 H :    0.097109
  18 H :    0.102689
  19 H :    0.101445
  20 H :    0.287649
Sum of atomic charges:    0.0000000

LOEWDIN ATOMIC CHARGES
----------------------
   0 C :   -0.352690
   1 C :   -0.057342
   2 H :    0.110004
   3 C :   -0.234515
   4 C :   -0.155187
   5 C :   -0.332953
   6 C :   -0.330297
   7 O :   -0.331790
   8 H :    0.122108
   9 H :    0.122657
  10 H :    0.112744
  11 H :    0.117928
  12 H :    0.110768
  13 H :    0.115756
  14 H :    0.116375
  15 H :    0.116575
  16 H :    0.119182
  17 H :    0.117705
  18 H :    0.116921
  19 H :    0.119172
  20 H :    0.276878

  Mayer bond orders larger than 0.100000
B(  0-C ,  1-C ) :   1.1202 B(  0-C ,  8-H ) :   0.9449 B(  0-C ,  9-H ) :   0.9301
B(  0-C , 10-H ) :   0.9389 B(  1-C ,  2-H ) :   0.9077 B(  1-C ,  3-C ) :   1.0259
B(  1-C ,  7-O ) :   1.0339 B(  3-C ,  4-C ) :   1.0872 B(  3-C , 11-H ) :   0.9115
B(  3-C , 12-H ) :   0.9110 B(  4-C ,  5-C ) :   1.1130 B(  4-C ,  6-C ) :   1.1154
B(  4-C , 13-H ) :   0.8973 B(  5-C , 14-H ) :   0.9398 B(  5-C , 15-H ) :   0.9464
B(  5-C , 16-H ) :   0.9474 B(  6-C , 17-H ) :   0.9502 B(  6-C , 18-H ) :   0.9424
B(  6-C , 19-H ) :   0.9503 B(  7-O , 20-H ) :   0.8571

Dispersion correction           -0.016721426
FINAL SINGLE POINT ENERGY      -311.514054688101

DIPOLE MOMENT
-------------

Method             : SCF
Type of density    : Electron Density
Multiplicity       :   1
Irrep              :   0
Energy             :  -311.5934515809219647 Eh
Relativity type    :
Basis              : AO
                                X                 Y                 Z
Electronic contribution:      3.862649840      -0.728253579       3.132692148
Nuclear contribution   :     -4.006057838       1.287339226      -3.290999103
                        -----------------------------------------
Total Dipole Moment    :     -0.143407999       0.559085647      -0.158306955
                        -----------------------------------------
Magnitude (a.u.)       :      0.598501217
Magnitude (Debye)      :      1.521269197

Rotational constants in cm-1:             0.124823             0.055987             0.044980
Rotational constants in MHz :          3742.111884          1678.451295          1348.467365

                             ****ORCA TERMINATED NORMALLY****
TOTAL RUN TIME: 0 days 0 hours 0 minutes 9 seconds 404 msec
