                         Program Version 6.0.0  -   RELEASE  -
|  1> ! pbe def2-sv(p) def2/J RI DEFGRID1 loosescf d4 GCP(DFT/SV(P)) printgap
|  2> %output
|  3>     printlevel normal
|  4> end
|  5> * xyz 0 1
|  6> C 1.3448396671 -1.3921012373 0.1384483304
|  7> C 0.8407507059 0.0443308989 0.2581867474
|  8> C 2.012127189 1.0179609691 0.1407303013
|  9> C -0.2162786109 0.3565180694 -0.8089383615
| 10> C -1.5784629893 -0.2705047381 -0.5064629369
| 11> O -2.1488646694 0.192481677 0.7001075273
| 12> H 0.5315020721 -2.1029223794 0.2574983979
| 13> H 2.0863663108 -1.5960126797 0.9071847594
| 14> H 1.8051030882 -1.5517346445 -0.83456038
| 15> H 0.3745031837 0.1687392937 1.2420177013
| 16> H 2.7632957992 0.8003075166 0.8960085884
| 17> H 1.6795084707 2.0445334926 0.2758038096
| 18> H 2.4759238064 0.9318020859 -0.8396773126
| 19> H 0.1223857909 -0.0045312436 -1.7811692666
| 20> H -0.3427406414 1.4398191201 -0.8794556129
| 21> H -2.2645123544 -0.0793196988 -1.3435333275
| 22> H -1.4879121627 -1.3514778337 -0.3833241603
| 23> H -2.2682759129 1.1506261899 0.6414457695
| 24> *
| 25>
| 26>                          ****END OF INPUT****

CARTESIAN COORDINATES (ANGSTROEM)
---------------------------------
  C      1.344840   -1.392101    0.138448
  C      0.840751    0.044331    0.258187
  C      2.012127    1.017961    0.140730
  C     -0.216279    0.356518   -0.808938
  C     -1.578463   -0.270505   -0.506463
  O     -2.148865    0.192482    0.700108
  H      0.531502   -2.102922    0.257498
  H      2.086366   -1.596013    0.907185
  H      1.805103   -1.551735   -0.834560
  H      0.374503    0.168739    1.242018
  H      2.763296    0.800308    0.896009
  H      1.679508    2.044533    0.275804
  H      2.475924    0.931802   -0.839677
  H      0.122386   -0.004531   -1.781169
  H     -0.342741    1.439819   -0.879456
  H     -2.264512   -0.079320   -1.343533
  H     -1.487912   -1.351478   -0.383324
  H     -2.268276    1.150626    0.641446

 Total Charge           Charge          ....    0
 Multiplicity           Mult            ....    1
 Number of Electrons    NEL             ....   50
 Basis Dimension        Dim             ....  108

ORBITAL ENERGIES
----------------

  NO   OCC          E(Eh)            E(eV)
   0   2.0000     -18.739767      -509.9350
   1   2.0000      -9.926321      -270.1089
   2   2.0000      -9.890133      -269.1242
   3   2.0000      -9.882790      -268.9244
   4   2.0000      -9.870517      -268.5904
   5   2.0000      -9.870388      -268.5869
   6   2.0000      -0.916393       -24.9363
   7   2.0000      -0.728336       -19.8190
   8   2.0000      -0.648565       -17.6484
   9   2.0000      -0.608578       -16.5603
  10   2.0000      -0.560883       -15.2624
  11   2.0000      -0.500919       -13.6307
  12   2.0000      -0.439734       -11.9658
  13   2.0000      -0.420572       -11.4443
  14   2.0000      -0.405841       -11.0435
  15   2.0000      -0.379035       -10.3141
  16   2.0000      -0.368326       -10.0227
  17   2.0000      -0.346939        -9.4407
  18   2.0000      -0.338531        -9.2119
  19   2.0000      -0.317411        -8.6372
  20   2.0000      -0.291573        -7.9341
  21   2.0000      -0.285276        -7.7628
  22   2.0000      -0.282681        -7.6921
  23   2.0000      -0.263114        -7.1597
  24   2.0000      -0.211814        -5.7637
  25   0.0000       0.024653         0.6708
  26   0.0000       0.049179         1.3382
  27   0.0000       0.066089         1.7984
  28   0.0000       0.074297         2.0217
  29   0.0000       0.089093         2.4244

MULLIKEN ATOMIC CHARGES
-----------------------
   0 C :   -0.255712
   1 C :   -0.177192
   2 C :   -0.232010
   3 C :   -0.178622
   4 C :    0.030873
   5 O :   -0.437320
   6 H :    0.105186
   7 H :    0.099491
   8 H :    0.089764
   9 H :    0.077656
  10 H :    0.097537
  11 H :    0.094311
  12 H :    0.089449
  13 H :    0.075714
  14 H :    0.068241
  15 H :    0.074116
  16 H :    0.086442
  17 H :    0.292075
Sum of atomic charges:   -0.0000000

LOEWDIN ATOMIC CHARGES
----------------------
   0 C :   -0.329756
   1 C :   -0.161831
   2 C :   -0.328835
   3 C :   -0.242621
   4 C :   -0.122324
   5 O :   -0.339653
   6 H :    0.116764
   7 H :    0.118734
   8 H :    0.114434
   9 H :    0.115305
  10 H :    0.116764
  11 H :    0.114170
  12 H :    0.114773
  13 H :    0.118751
  14 H :    0.108785
  15 H :    0.094825
  16 H :    0.111559
  17 H :    0.280156

  Mayer bond orders larger than 0.100000
B(  0-C ,  1-C ) :   1.1114 B(  0-C ,  6-H ) :   0.9468 B(  0-C ,  7-H ) :   0.9502
B(  0-C ,  8-H ) :   0.9487 B(  1-C ,  2-C ) :   1.1107 B(  1-C ,  3-C ) :   1.0691
B(  1-C ,  9-H ) :   0.8978 B(  2-C , 10-H ) :   0.9525 B(  2-C , 11-H ) :   0.9496
B(  2-C , 12-H ) :   0.9496 B(  3-C ,  4-C ) :   1.1067 B(  3-C , 13-H ) :   0.9036
B(  3-C , 14-H ) :   0.9190 B(  4-C ,  5-O ) :   1.0549 B(  4-C , 15-H ) :   0.9255
B(  4-C , 16-H ) :   0.9209 B(  5-O , 17-H ) :   0.8539

Dispersion correction           -0.012859589
FINAL SINGLE POINT ENERGY      -272.301207341803

DIPOLE MOMENT
-------------

Method             : SCF
Type of density    : Electron Density
Multiplicity       :   1
Irrep              :   0
Energy             :  -272.3710304353591027 Eh
Relativity type    :
Basis              : AO
                                X                 Y                 Z
Electronic contribution:     -5.001491751       0.539278045       1.338785145
Nuclear contribution   :      5.104694075      -0.138028250      -1.717483302
                        -----------------------------------------
Total Dipole Moment    :      0.103202324       0.401249796      -0.378698156
                        -----------------------------------------
Magnitude (a.u.)       :      0.561305988
Magnitude (Debye)      :      1.426726437

Rotational constants in cm-1:             0.186492             0.066920             0.060211
Rotational constants in MHz :          5590.889030          2006.221579          1805.075931

                             ****ORCA TERMINATED NORMALLY****
TOTAL RUN TIME: 0 days 0 hours 0 minutes 8 seconds 10 msec
