                         Program Version 6.0.0  -   RELEASE  -
|  1> ! r2scan-3c def2/J RI DEFGRID2 scfconv6 printgap
|  2> %output
|  3>     printlevel normal
|  4> end
|  5> * xyz 0 1
|  6> C 1.6910722703 -0.0861283535 1.3376811121
|  7> C 1.1837162836 0.483948777 0.0148770643
|  8> H 0.861814157 1.5259389397 0.1678432325
|  9> C 0.0253482695 -0.3285997196 -0.5731144937
| 10> C -1.2618677449 -0.3652780448 0.2553703152
| 11> C -1.8719555236 1.024001264 0.429298566
| 12> C -2.268520508 -1.2923402759 -0.425862956
| 13> O 2.2054118616 0.4689444097 -0.9751947223
| 14> H 1.9907051031 -1.1227452626 1.2033866548
| 15> H 2.5481036316 0.4829632897 1.691752699
| 16> H 0.9128765674 -0.0353910284 2.0923822293
| 17> H -0.1921603257 0.0874601123 -1.5598010537
| 18> H 0.3878399552 -1.3478347243 -0.7251317508
| 19> H -1.0374406662 -0.776832472 1.2443946709
| 20> H -2.8278021072 0.9511150801 0.9428293858
| 21> H -2.0375843188 1.4873072135 -0.5407761204
| 22> H -1.222611451 1.6694074522 1.0145173254
| 23> H -3.1815402036 -1.3597818972 0.1606897142
| 24> H -2.5213618869 -0.9144884243 -1.4139704371
| 25> H -1.8563689289 -2.292353099 -0.536446199
| 26> H 2.985274668 0.9270439322 -0.6341057123
| 27> *
| 28>
| 29>                          ****END OF INPUT****

CARTESIAN COORDINATES (ANGSTROEM)
---------------------------------
  C      1.691072   -0.086128    1.337681
  C      1.183716    0.483949    0.014877
  H      0.861814    1.525939    0.167843
  C      0.025348   -0.328600   -0.573114
  C     -1.261868   -0.365278    0.255370
  C     -1.871956    1.024001    0.429299
  C     -2.268521   -1.292340   -0.425863
  O      2.205412    0.468944   -0.975195
  H      1.990705   -1.122745    1.203387
  H      2.548104    0.482963    1.691753
  H      0.912877   -0.035391    2.092382
  H     -0.192160    0.087460   -1.559801
  H      0.387840   -1.347835   -0.725132
  H     -1.037441   -0.776832    1.244395
  H     -2.827802    0.951115    0.942829
  H     -2.037584    1.487307   -0.540776
  H     -1.222611    1.669407    1.014517
  H     -3.181540   -1.359782    0.160690
  H     -2.521362   -0.914488   -1.413970
  H     -1.856369   -2.292353   -0.536446
  H      2.985275    0.927044   -0.634106

 Total Charge           Charge          ....    0
 Multiplicity           Mult            ....    1
 Number of Electrons    NEL             ....   58
 Basis Dimension        Dim             ....  208

ORBITAL ENERGIES
----------------

  NO   OCC          E(Eh)            E(eV)
   0   2.0000     -18.942645      -515.4556
   1   2.0000     -10.079224      -274.2696
   2   2.0000     -10.034883      -273.0630
   3   2.0000     -10.020380      -272.6684
   4   2.0000     -10.019022      -272.6315
   5   2.0000     -10.015832      -272.5446
   6   2.0000     -10.014552      -272.5098
   7   2.0000      -0.980031       -26.6680
   8   2.0000      -0.779461       -21.2102
   9   2.0000      -0.718754       -19.5583
  10   2.0000      -0.652739       -17.7619
  11   2.0000      -0.649161       -17.6646
  12   2.0000      -0.568575       -15.4717
  13   2.0000      -0.517422       -14.0798
  14   2.0000      -0.474308       -12.9066
  15   2.0000      -0.440314       -11.9816
  16   2.0000      -0.413603       -11.2547
  17   2.0000      -0.402961       -10.9651
  18   2.0000      -0.395176       -10.7533
  19   2.0000      -0.373400       -10.1607
  20   2.0000      -0.356157        -9.6915
  21   2.0000      -0.348389        -9.4801
  22   2.0000      -0.329563        -8.9679
  23   2.0000      -0.325041        -8.8448
  24   2.0000      -0.311096        -8.4654
  25   2.0000      -0.295281        -8.0350
  26   2.0000      -0.291357        -7.9282
  27   2.0000      -0.276026        -7.5110
  28   2.0000      -0.232773        -6.3341
  29   0.0000       0.064981         1.7682
  30   0.0000       0.083506         2.2723
  31   0.0000       0.116353         3.1661
  32   0.0000       0.120859         3.2887
  33   0.0000       0.124486         3.3874

MULLIKEN ATOMIC CHARGES
-----------------------
   0 C :   -0.505220
   1 C :    0.041459
   2 H :    0.131091
   3 C :   -0.291302
   4 C :   -0.049474
   5 C :   -0.497923
   6 C :   -0.482620
   7 O :   -0.422336
   8 H :    0.163546
   9 H :    0.136074
  10 H :    0.152975
  11 H :    0.159012
  12 H :    0.147957
  13 H :    0.146580
  14 H :    0.144331
  15 H :    0.155824
  16 H :    0.146909
  17 H :    0.146240
  18 H :    0.149039
  19 H :    0.146027
  20 H :    0.281809
Sum of atomic charges:    0.0000000

LOEWDIN ATOMIC CHARGES
----------------------
   0 C :   -0.401116
   1 C :    0.049424
   2 H :    0.160453
   3 C :   -0.265994
   4 C :   -0.245257
   5 C :   -0.417678
   6 C :   -0.414414
   7 O :   -0.618365
   8 H :    0.162086
   9 H :    0.151657
  10 H :    0.157575
  11 H :    0.171789
  12 H :    0.167756
  13 H :    0.154573
  14 H :    0.153288
  15 H :    0.155913
  16 H :    0.150937
  17 H :    0.151804
  18 H :    0.154861
  19 H :    0.153583
  20 H :    0.267125

  Mayer bond orders larger than 0.100000
B(  0-C ,  1-C ) :   0.8969 B(  0-C ,  8-H ) :   0.9814 B(  0-C ,  9-H ) :   0.9677
B(  0-C , 10-H ) :   0.9705 B(  1-C ,  2-H ) :   0.9705 B(  1-C ,  3-C ) :   0.9343
B(  1-C ,  7-O ) :   0.8980 B(  3-C ,  4-C ) :   0.8904 B(  3-C , 11-H ) :   0.9758
B(  3-C , 12-H ) :   0.9779 B(  4-C ,  5-C ) :   0.8899 B(  4-C ,  6-C ) :   0.9063
B(  4-C , 13-H ) :   0.9562 B(  5-C , 14-H ) :   0.9721 B(  5-C , 15-H ) :   0.9856
B(  5-C , 16-H ) :   0.9715 B(  6-C , 17-H ) :   0.9757 B(  6-C , 18-H ) :   0.9875
B(  6-C , 19-H ) :   0.9773 B(  7-O , 20-H ) :   0.9032

Dispersion correction           -0.005562305
FINAL SINGLE POINT ENERGY      -312.203344281805

DIPOLE MOMENT
-------------

Method             : SCF
Type of density    : Electron Density
Multiplicity       :   1
Irrep              :   0
Energy             :  -312.2088885044196900 Eh
Relativity type    :
Basis              : AO
                                X                 Y                 Z
Electronic contribution:      4.851284022       0.866003824      -2.339749176
Nuclear contribution   :     -4.836578778      -0.666821013       2.900931220
                        -----------------------------------------
Total Dipole Moment    :      0.014705244       0.199182811       0.561182044
                        -----------------------------------------
Magnitude (a.u.)       :      0.595663767
Magnitude (Debye)      :      1.514056971

Rotational constants in cm-1:             0.141727             0.045938             0.043782
Rotational constants in MHz :          4248.874903          1377.182088          1312.566139

                             ****ORCA TERMINATED NORMALLY****
TOTAL RUN TIME: 0 days 0 hours 0 minutes 30 seconds 301 msec
