                         Program Version 6.0.0  -   RELEASE  -
|  1> ! r2scan-3c def2/J RI DEFGRID2 scfconv6 printgap
|  2> %output
|  3>     printlevel normal
|  4> end
|  5> %cpcm
|  6>     smd true
|  7>     smdsolvent "water"
|  8> end
|  9> * xyz 0 1
| 10> C 1.6910722703 -0.0861283535 1.3376811121
| 11> C 1.1837162836 0.483948777 0.0148770643
| 12> H 0.861814157 1.5259389397 0.1678432325
| 13> C 0.0253482695 -0.3285997196 -0.5731144937
| 14> C -1.2618677449 -0.3652780448 0.2553703152
| 15> C -1.8719555236 1.024001264 0.429298566
| 16> C -2.268520508 -1.2923402759 -0.425862956
| 17> O 2.2054118616 0.4689444097 -0.9751947223
| 18> H 1.9907051031 -1.1227452626 1.2033866548
| 19> H 2.5481036316 0.4829632897 1.691752699
| 20> H 0.9128765674 -0.0353910284 2.0923822293
| 21> H -0.1921603257 0.0874601123 -1.5598010537
| 22> H 0.3878399552 -1.3478347243 -0.7251317508
| 23> H -1.0374406662 -0.776832472 1.2443946709
| 24> H -2.8278021072 0.9511150801 0.9428293858
| 25> H -2.0375843188 1.4873072135 -0.5407761204
| 26> H -1.222611451 1.6694074522 1.0145173254
| 27> H -3.1815402036 -1.3597818972 0.1606897142
| 28> H -2.5213618869 -0.9144884243 -1.4139704371
| 29> H -1.8563689289 -2.292353099 -0.536446199
| 30> H 2.985274668 0.9270439322 -0.6341057123
| 31> *
| 32>
| 33>                          ****END OF INPUT****

CARTESIAN COORDINATES (ANGSTROEM)
---------------------------------
  C      1.691072   -0.086128    1.337681
  C      1.183716    0.483949    0.014877
  H      0.861814    1.525939    0.167843
  C      0.025348   -0.328600   -0.573114
  C     -1.261868   -0.365278    0.255370
  C     -1.871956    1.024001    0.429299
  C     -2.268521   -1.292340   -0.425863
  O      2.205412    0.468944   -0.975195
  H      1.990705   -1.122745    1.203387
  H      2.548104    0.482963    1.691753
  H      0.912877   -0.035391    2.092382
  H     -0.192160    0.087460   -1.559801
  H      0.387840   -1.347835   -0.725132
  H     -1.037441   -0.776832    1.244395
  H     -2.827802    0.951115    0.942829
  H     -2.037584    1.487307   -0.540776
  H     -1.222611    1.669407    1.014517
  H     -3.181540   -1.359782    0.160690
  H     -2.521362   -0.914488   -1.413970
  H     -1.856369   -2.292353   -0.536446
  H      2.985275    0.927044   -0.634106

 Total Charge           Charge          ....    0
 Multiplicity           Mult            ....    1
 Number of Electrons    NEL             ....   58
 Basis Dimension        Dim             ....  208

ORBITAL ENERGIES
----------------

  NO   OCC          E(Eh)            E(eV)
   0   2.0000     -18.947313      -515.5826
   1   2.0000     -10.074263      -274.1346
   2   2.0000     -10.026800      -272.8431
   3   2.0000     -10.014382      -272.5052
   4   2.0000     -10.009385      -272.3692
   5   2.0000     -10.006380      -272.2874
   6   2.0000     -10.006287      -272.2849
   7   2.0000      -0.983441       -26.7608
   8   2.0000      -0.772316       -21.0158
   9   2.0000      -0.711619       -19.3641
  10   2.0000      -0.645308       -17.5597
  11   2.0000      -0.641258       -17.4495
  12   2.0000      -0.563271       -15.3274
  13   2.0000      -0.510914       -13.9027
  14   2.0000      -0.470740       -12.8095
  15   2.0000      -0.433511       -11.7964
  16   2.0000      -0.409686       -11.1481
  17   2.0000      -0.395394       -10.7592
  18   2.0000      -0.387794       -10.5524
  19   2.0000      -0.364764        -9.9257
  20   2.0000      -0.347980        -9.4690
  21   2.0000      -0.340812        -9.2740
  22   2.0000      -0.326120        -8.8742
  23   2.0000      -0.318995        -8.6803
  24   2.0000      -0.307231        -8.3602
  25   2.0000      -0.288620        -7.8537
  26   2.0000      -0.283779        -7.7220
  27   2.0000      -0.272266        -7.4087
  28   2.0000      -0.237666        -6.4672
  29   0.0000       0.081008         2.2043
  30   0.0000       0.092962         2.5296
  31   0.0000       0.125907         3.4261
  32   0.0000       0.129829         3.5328
  33   0.0000       0.131844         3.5877

MULLIKEN ATOMIC CHARGES
-----------------------
   0 C :   -0.548214
   1 C :    0.060782
   2 H :    0.144485
   3 C :   -0.311567
   4 C :   -0.027253
   5 C :   -0.544136
   6 C :   -0.530374
   7 O :   -0.513581
   8 H :    0.166572
   9 H :    0.161827
  10 H :    0.169974
  11 H :    0.160057
  12 H :    0.154958
  13 H :    0.159855
  14 H :    0.156210
  15 H :    0.165023
  16 H :    0.161472
  17 H :    0.158955
  18 H :    0.159631
  19 H :    0.156923
  20 H :    0.338402
Sum of atomic charges:    0.0000000

LOEWDIN ATOMIC CHARGES
----------------------
   0 C :   -0.405009
   1 C :    0.050942
   2 H :    0.167847
   3 C :   -0.273327
   4 C :   -0.240674
   5 C :   -0.425201
   6 C :   -0.423384
   7 O :   -0.657015
   8 H :    0.162023
   9 H :    0.160134
  10 H :    0.164204
  11 H :    0.170044
  12 H :    0.168107
  13 H :    0.159535
  14 H :    0.156034
  15 H :    0.157512
  16 H :    0.155289
  17 H :    0.155033
  18 H :    0.156562
  19 H :    0.155556
  20 H :    0.285787

  Mayer bond orders larger than 0.100000
B(  0-C ,  1-C ) :   0.9052 B(  0-C ,  8-H ) :   0.9770 B(  0-C ,  9-H ) :   0.9638
B(  0-C , 10-H ) :   0.9652 B(  1-C ,  2-H ) :   0.9664 B(  1-C ,  3-C ) :   0.9274
B(  1-C ,  7-O ) :   0.8785 B(  3-C ,  4-C ) :   0.9014 B(  3-C , 11-H ) :   0.9730
B(  3-C , 12-H ) :   0.9713 B(  4-C ,  5-C ) :   0.8838 B(  4-C ,  6-C ) :   0.8890
B(  4-C , 13-H ) :   0.9579 B(  5-C , 14-H ) :   0.9707 B(  5-C , 15-H ) :   0.9842
B(  5-C , 16-H ) :   0.9682 B(  6-C , 17-H ) :   0.9729 B(  6-C , 18-H ) :   0.9865
B(  6-C , 19-H ) :   0.9758 B(  7-O , 20-H ) :   0.8777

Dispersion correction           -0.005562305
FINAL SINGLE POINT ENERGY      -312.209495622010

DIPOLE MOMENT
-------------

Method             : SCF
Type of density    : Electron Density
Multiplicity       :   1
Irrep              :   0
Energy             :  -312.2150398446253803 Eh
Relativity type    :
Basis              : AO
                                X                 Y                 Z
Electronic contribution:      4.861450732       0.992140402      -2.044717845
Nuclear contribution   :     -4.836578778      -0.666821013       2.900931220
                        -----------------------------------------
Total Dipole Moment    :      0.024871954       0.325319389       0.856213375
                        -----------------------------------------
Magnitude (a.u.)       :      0.916271064
Magnitude (Debye)      :      2.328975957

Rotational constants in cm-1:             0.141727             0.045938             0.043782
Rotational constants in MHz :          4248.874903          1377.182088          1312.566139

                             ****ORCA TERMINATED NORMALLY****
TOTAL RUN TIME: 0 days 0 hours 0 minutes 35 seconds 815 msec
