                         Program Version 6.0.0  -   RELEASE  -
|  1> ! r2scan-3c def2/J RI DEFGRID2 scfconv6 printgap
|  2> %output
|  3>     printlevel normal
|  4> end
|  5> * xyz 0 1
|  6> C -3.4477408076 -0.5977539064 -0.1515902503
|  7> C -2.0686679958 -0.2841895091 0.4149396744
|  8> C -1.4033463329 0.867687731 -0.3351088619
|  9> C -0.0447973943 1.2328199998 0.2276730413
| 10> Br 1.2740649051 -0.2164592327 -0.0273495692
| 11> H -4.0997308639 0.2689659062 -0.0717508305
| 12> H -3.3744950172 -0.8779901857 -1.1997672828
| 13> H -3.9015716597 -1.4214866838 0.3926825376
| 14> H -1.4383559554 -1.1737903432 0.3442281995
| 15> H -2.159457105 -0.0231573644 1.4720378529
| 16> H -1.3072675976 0.6090543321 -1.3919711467
| 17> H -2.0323642048 1.7587314768 -0.2636975494
| 18> H -0.081587943 1.4011333543 1.3025397743
| 19> H 0.3849627708 2.0975856463 -0.27407504
| 20> *
| 21>
| 22>                          ****END OF INPUT****

CARTESIAN COORDINATES (ANGSTROEM)
---------------------------------
  C     -3.447741   -0.597754   -0.151590
  C     -2.068668   -0.284190    0.414940
  C     -1.403346    0.867688   -0.335109
  C     -0.044797    1.232820    0.227673
  Br     1.274065   -0.216459   -0.027350
  H     -4.099731    0.268966   -0.071751
  H     -3.374495   -0.877990   -1.199767
  H     -3.901572   -1.421487    0.392683
  H     -1.438356   -1.173790    0.344228
  H     -2.159457   -0.023157    1.472038
  H     -1.307268    0.609054   -1.391971
  H     -2.032364    1.758731   -0.263698
  H     -0.081588    1.401133    1.302540
  H      0.384963    2.097586   -0.274075

 Total Charge           Charge          ....    0
 Multiplicity           Mult            ....    1
 Number of Electrons    NEL             ....   68
 Basis Dimension        Dim             ....  157

ORBITAL ENERGIES
----------------

  NO   OCC          E(Eh)            E(eV)
   0   2.0000    -482.210228    -13121.6074
   1   2.0000     -62.282192     -1694.7846
   2   2.0000     -56.062638     -1525.5419
   3   2.0000     -56.059943     -1525.4686
   4   2.0000     -56.059901     -1525.4675
   5   2.0000     -10.092691      -274.6361
   6   2.0000     -10.044935      -273.3366
   7   2.0000     -10.031777      -272.9785
   8   2.0000     -10.021460      -272.6978
   9   2.0000      -8.614368      -234.4089
  10   2.0000      -6.421705      -174.7435
  11   2.0000      -6.408300      -174.3787
  12   2.0000      -6.408120      -174.3738
  13   2.0000      -2.519294       -68.5535
  14   2.0000      -2.515987       -68.4635
  15   2.0000      -2.515848       -68.4597
  16   2.0000      -2.505898       -68.1890
  17   2.0000      -2.505885       -68.1886
  18   2.0000      -0.795798       -21.6548
  19   2.0000      -0.740975       -20.1629
  20   2.0000      -0.680225       -18.5099
  21   2.0000      -0.600452       -16.3391
  22   2.0000      -0.552808       -15.0427
  23   2.0000      -0.452085       -12.3018
  24   2.0000      -0.428432       -11.6582
  25   2.0000      -0.411491       -11.1972
  26   2.0000      -0.389821       -10.6076
  27   2.0000      -0.360131        -9.7997
  28   2.0000      -0.333791        -9.0829
  29   2.0000      -0.322079        -8.7642
  30   2.0000      -0.310381        -8.4459
  31   2.0000      -0.305631        -8.3166
  32   2.0000      -0.250246        -6.8096
  33   2.0000      -0.247289        -6.7291
  34   0.0000      -0.025870        -0.7040
  35   0.0000       0.092680         2.5219
  36   0.0000       0.099678         2.7124
  37   0.0000       0.124393         3.3849
  38   0.0000       0.132784         3.6132

MULLIKEN ATOMIC CHARGES
-----------------------
   0 C :   -0.459210
   1 C :   -0.234594
   2 C :   -0.282638
   3 C :   -0.182113
   4 Br:   -0.189748
   5 H :    0.138371
   6 H :    0.142978
   7 H :    0.149549
   8 H :    0.156449
   9 H :    0.133218
  10 H :    0.156830
  11 H :    0.142346
  12 H :    0.157455
  13 H :    0.171107
Sum of atomic charges:   -0.0000000

LOEWDIN ATOMIC CHARGES
----------------------
   0 C :   -0.422426
   1 C :   -0.323773
   2 C :   -0.333881
   3 C :   -0.382067
   4 Br:    0.054584
   5 H :    0.148641
   6 H :    0.151032
   7 H :    0.152422
   8 H :    0.160449
   9 H :    0.151279
  10 H :    0.163122
  11 H :    0.163244
  12 H :    0.158974
  13 H :    0.158401

  Mayer bond orders larger than 0.100000
B(  0-C ,  1-C ) :   0.9108 B(  0-C ,  5-H ) :   0.9833 B(  0-C ,  6-H ) :   0.9807
B(  0-C ,  7-H ) :   0.9745 B(  1-C ,  2-C ) :   0.9363 B(  1-C ,  8-H ) :   0.9582
B(  1-C ,  9-H ) :   0.9687 B(  2-C ,  3-C ) :   0.9329 B(  2-C , 10-H ) :   0.9654
B(  2-C , 11-H ) :   0.9505 B(  3-C ,  4-Br) :   0.9552 B(  3-C , 12-H ) :   0.9649
B(  3-C , 13-H ) :   0.9575

Dispersion correction           -0.003351803
FINAL SINGLE POINT ENERGY     -2731.931990949794

DIPOLE MOMENT
-------------

Method             : SCF
Type of density    : Electron Density
Multiplicity       :   1
Irrep              :   0
Energy             : -2731.9354227920634912 Eh
Relativity type    :
Basis              : AO
                                X                 Y                 Z
Electronic contribution:     28.013976807      -3.939218597      -0.462671127
Nuclear contribution   :    -28.726176715       4.485723402       0.544989028
                        -----------------------------------------
Total Dipole Moment    :     -0.712199907       0.546504804       0.082317902
                        -----------------------------------------
Magnitude (a.u.)       :      0.901483470
Magnitude (Debye)      :      2.291388881

Rotational constants in cm-1:             0.269358             0.040500             0.037080
Rotational constants in MHz :          8075.162298          1214.150700          1111.636430

                             ****ORCA TERMINATED NORMALLY****
TOTAL RUN TIME: 0 days 0 hours 0 minutes 14 seconds 826 msec
