                         Program Version 6.0.0  -   RELEASE  -
|  1> ! r2scan-3c def2/J RI DEFGRID2 scfconv6 printgap
|  2> %output
|  3>     printlevel normal
|  4> end
|  5> %cpcm
|  6>     smd true
|  7>     smdsolvent "water"
|  8> end
|  9> * xyz 0 1
| 10> C -3.4477408076 -0.5977539064 -0.1515902503
| 11> C -2.0686679958 -0.2841895091 0.4149396744
| 12> C -1.4033463329 0.867687731 -0.3351088619
| 13> C -0.0447973943 1.2328199998 0.2276730413
| 14> Br 1.2740649051 -0.2164592327 -0.0273495692
| 15> H -4.0997308639 0.2689659062 -0.0717508305
| 16> H -3.3744950172 -0.8779901857 -1.1997672828
| 17> H -3.9015716597 -1.4214866838 0.3926825376
| 18> H -1.4383559554 -1.1737903432 0.3442281995
| 19> H -2.159457105 -0.0231573644 1.4720378529
| 20> H -1.3072675976 0.6090543321 -1.3919711467
| 21> H -2.0323642048 1.7587314768 -0.2636975494
| 22> H -0.081587943 1.4011333543 1.3025397743
| 23> H 0.3849627708 2.0975856463 -0.27407504
| 24> *
| 25>
| 26>                          ****END OF INPUT****

CARTESIAN COORDINATES (ANGSTROEM)
---------------------------------
  C     -3.447741   -0.597754   -0.151590
  C     -2.068668   -0.284190    0.414940
  C     -1.403346    0.867688   -0.335109
  C     -0.044797    1.232820    0.227673
  Br     1.274065   -0.216459   -0.027350
  H     -4.099731    0.268966   -0.071751
  H     -3.374495   -0.877990   -1.199767
  H     -3.901572   -1.421487    0.392683
  H     -1.438356   -1.173790    0.344228
  H     -2.159457   -0.023157    1.472038
  H     -1.307268    0.609054   -1.391971
  H     -2.032364    1.758731   -0.263698
  H     -0.081588    1.401133    1.302540
  H      0.384963    2.097586   -0.274075

 Total Charge           Charge          ....    0
 Multiplicity           Mult            ....    1
 Number of Electrons    NEL             ....   68
 Basis Dimension        Dim             ....  157

ORBITAL ENERGIES
----------------

  NO   OCC          E(Eh)            E(eV)
   0   2.0000    -482.208143    -13121.5506
   1   2.0000     -62.280088     -1694.7273
   2   2.0000     -56.060458     -1525.4826
   3   2.0000     -56.057903     -1525.4131
   4   2.0000     -56.057859     -1525.4119
   5   2.0000     -10.078274      -274.2438
   6   2.0000     -10.028705      -272.8950
   7   2.0000     -10.018773      -272.6247
   8   2.0000     -10.008698      -272.3505
   9   2.0000      -8.612024      -234.3451
  10   2.0000      -6.418876      -174.6665
  11   2.0000      -6.406202      -174.3216
  12   2.0000      -6.406032      -174.3170
  13   2.0000      -2.516612       -68.4805
  14   2.0000      -2.513471       -68.3950
  15   2.0000      -2.513343       -68.3915
  16   2.0000      -2.503921       -68.1352
  17   2.0000      -2.503909       -68.1348
  18   2.0000      -0.783973       -21.3330
  19   2.0000      -0.731470       -19.9043
  20   2.0000      -0.669537       -18.2190
  21   2.0000      -0.587739       -15.9932
  22   2.0000      -0.538886       -14.6638
  23   2.0000      -0.437772       -11.9124
  24   2.0000      -0.413993       -11.2653
  25   2.0000      -0.398104       -10.8330
  26   2.0000      -0.377700       -10.2777
  27   2.0000      -0.347104        -9.4452
  28   2.0000      -0.322644        -8.7796
  29   2.0000      -0.309425        -8.4199
  30   2.0000      -0.297335        -8.0909
  31   2.0000      -0.291928        -7.9438
  32   2.0000      -0.247878        -6.7451
  33   2.0000      -0.244450        -6.6518
  34   0.0000      -0.018344        -0.4992
  35   0.0000       0.108205         2.9444
  36   0.0000       0.112621         3.0646
  37   0.0000       0.136418         3.7121
  38   0.0000       0.145568         3.9611

MULLIKEN ATOMIC CHARGES
-----------------------
   0 C :   -0.501734
   1 C :   -0.246360
   2 C :   -0.283864
   3 C :   -0.195759
   4 Br:   -0.237276
   5 H :    0.152987
   6 H :    0.153227
   7 H :    0.157348
   8 H :    0.148801
   9 H :    0.149443
  10 H :    0.163186
  11 H :    0.165995
  12 H :    0.181245
  13 H :    0.192761
Sum of atomic charges:   -0.0000000

LOEWDIN ATOMIC CHARGES
----------------------
   0 C :   -0.431132
   1 C :   -0.325798
   2 C :   -0.331802
   3 C :   -0.374187
   4 Br:    0.022713
   5 H :    0.152649
   6 H :    0.152916
   7 H :    0.153399
   8 H :    0.155617
   9 H :    0.155640
  10 H :    0.164017
  11 H :    0.173152
  12 H :    0.166783
  13 H :    0.166034

  Mayer bond orders larger than 0.100000
B(  0-C ,  1-C ) :   0.9020 B(  0-C ,  5-H ) :   0.9809 B(  0-C ,  6-H ) :   0.9788
B(  0-C ,  7-H ) :   0.9726 B(  1-C ,  2-C ) :   0.9243 B(  1-C ,  8-H ) :   0.9630
B(  1-C ,  9-H ) :   0.9693 B(  2-C ,  3-C ) :   0.9270 B(  2-C , 10-H ) :   0.9677
B(  2-C , 11-H ) :   0.9446 B(  3-C ,  4-Br) :   0.9180 B(  3-C , 12-H ) :   0.9611
B(  3-C , 13-H ) :   0.9513

Dispersion correction           -0.003351803
FINAL SINGLE POINT ENERGY     -2731.933815400409

DIPOLE MOMENT
-------------

Method             : SCF
Type of density    : Electron Density
Multiplicity       :   1
Irrep              :   0
Energy             : -2731.9372472426784952 Eh
Relativity type    :
Basis              : AO
                                X                 Y                 Z
Electronic contribution:     27.834814431      -3.694858259      -0.426119266
Nuclear contribution   :    -28.726176715       4.485723402       0.544989028
                        -----------------------------------------
Total Dipole Moment    :     -0.891362284       0.790865143       0.118869763
                        -----------------------------------------
Magnitude (a.u.)       :      1.197549338
Magnitude (Debye)      :      3.043928511

Rotational constants in cm-1:             0.269358             0.040500             0.037080
Rotational constants in MHz :          8075.162298          1214.150700          1111.636430

                             ****ORCA TERMINATED NORMALLY****
TOTAL RUN TIME: 0 days 0 hours 0 minutes 19 seconds 233 msec
