                         Program Version 6.0.0  -   RELEASE  -
|  1> ! pbe def2-sv(p) def2/J RI DEFGRID1 loosescf d4 GCP(DFT/SV(P)) printgap
|  2> %output
|  3>     printlevel normal
|  4> end
|  5> * xyz 0 1
|  6> C -2.7878366118 -0.2749650635 0.0110198735
|  7> C -1.4314369102 0.4113183948 -0.0862836167
|  8> C -0.2843202465 -0.5829838401 0.0748417274
|  9> C 1.0747693083 0.067041869 0.0230987447
| 10> O 1.2291211347 1.2728438286 0.0293586051
| 11> C 2.2304328619 -0.8907743843 -0.0473865955
| 12> H -3.5880946215 0.4502181783 -0.1099953662
| 13> H -2.9040448474 -0.7557704099 0.9794633806
| 14> H -2.8894251455 -1.030928025 -0.7640902219
| 15> H -1.3448328363 1.1802855929 0.6841779475
| 16> H -1.3360738512 0.912364478 -1.0520490865
| 17> H -0.3665058312 -1.0869116855 1.0414317213
| 18> H -0.3330589718 -1.3539739632 -0.6960996495
| 19> H 3.156250541 -0.3830286879 0.2084555837
| 20> H 2.3073182561 -1.2571250789 -1.0694507775
| 21> H 2.0683565714 -1.7416474868 0.6065823672
| 22> *
| 23>
| 24>                          ****END OF INPUT****

CARTESIAN COORDINATES (ANGSTROEM)
---------------------------------
  C     -2.787837   -0.274965    0.011020
  C     -1.431437    0.411318   -0.086284
  C     -0.284320   -0.582984    0.074842
  C      1.074769    0.067042    0.023099
  O      1.229121    1.272844    0.029359
  C      2.230433   -0.890774   -0.047387
  H     -3.588095    0.450218   -0.109995
  H     -2.904045   -0.755770    0.979463
  H     -2.889425   -1.030928   -0.764090
  H     -1.344833    1.180286    0.684178
  H     -1.336074    0.912364   -1.052049
  H     -0.366506   -1.086912    1.041432
  H     -0.333059   -1.353974   -0.696100
  H      3.156251   -0.383029    0.208456
  H      2.307318   -1.257125   -1.069451
  H      2.068357   -1.741647    0.606582

 Total Charge           Charge          ....    0
 Multiplicity           Mult            ....    1
 Number of Electrons    NEL             ....   48
 Basis Dimension        Dim             ....  104

ORBITAL ENERGIES
----------------

  NO   OCC          E(Eh)            E(eV)
   0   2.0000     -18.737944      -509.8854
   1   2.0000      -9.971847      -271.3477
   2   2.0000      -9.893382      -269.2126
   3   2.0000      -9.886017      -269.0122
   4   2.0000      -9.885207      -268.9902
   5   2.0000      -9.875847      -268.7355
   6   2.0000      -0.934317       -25.4241
   7   2.0000      -0.720928       -19.6174
   8   2.0000      -0.676895       -18.4192
   9   2.0000      -0.622073       -16.9275
  10   2.0000      -0.532587       -14.4924
  11   2.0000      -0.465465       -12.6659
  12   2.0000      -0.434466       -11.8224
  13   2.0000      -0.413785       -11.2597
  14   2.0000      -0.394503       -10.7350
  15   2.0000      -0.388462       -10.5706
  16   2.0000      -0.362173        -9.8552
  17   2.0000      -0.350172        -9.5287
  18   2.0000      -0.345534        -9.4024
  19   2.0000      -0.309290        -8.4162
  20   2.0000      -0.306433        -8.3385
  21   2.0000      -0.296052        -8.0560
  22   2.0000      -0.292150        -7.9498
  23   2.0000      -0.195908        -5.3309
  24   0.0000      -0.047497        -1.2925
  25   0.0000       0.029072         0.7911
  26   0.0000       0.054024         1.4701
  27   0.0000       0.077458         2.1077
  28   0.0000       0.088657         2.4125

MULLIKEN ATOMIC CHARGES
-----------------------
   0 C :   -0.256676
   1 C :   -0.184260
   2 C :   -0.197882
   3 C :   -0.004768
   4 O :   -0.172813
   5 C :   -0.241016
   6 H :    0.105534
   7 H :    0.095166
   8 H :    0.094829
   9 H :    0.099443
  10 H :    0.094370
  11 H :    0.107459
  12 H :    0.099556
  13 H :    0.118692
  14 H :    0.128503
  15 H :    0.113862
Sum of atomic charges:   -0.0000000

LOEWDIN ATOMIC CHARGES
----------------------
   0 C :   -0.340125
   1 C :   -0.231509
   2 C :   -0.257298
   3 C :    0.041699
   4 O :   -0.130675
   5 C :   -0.362254
   6 H :    0.120815
   7 H :    0.115823
   8 H :    0.115378
   9 H :    0.122729
  10 H :    0.120444
  11 H :    0.138720
  12 H :    0.131304
  13 H :    0.135162
  14 H :    0.146401
  15 H :    0.133387

  Mayer bond orders larger than 0.100000
B(  0-C ,  1-C ) :   1.1507 B(  0-C ,  6-H ) :   0.9536 B(  0-C ,  7-H ) :   0.9540
B(  0-C ,  8-H ) :   0.9535 B(  1-C ,  2-C ) :   1.1347 B(  1-C ,  9-H ) :   0.9234
B(  1-C , 10-H ) :   0.9315 B(  2-C ,  3-C ) :   0.9789 B(  2-C , 11-H ) :   0.8875
B(  2-C , 12-H ) :   0.9087 B(  3-C ,  4-O ) :   2.1832 B(  3-C ,  5-C ) :   1.0739
B(  5-C , 13-H ) :   0.9340 B(  5-C , 14-H ) :   0.9228 B(  5-C , 15-H ) :   0.9360

Dispersion correction           -0.010790225
FINAL SINGLE POINT ENERGY      -271.143688228136

DIPOLE MOMENT
-------------

Method             : SCF
Type of density    : Electron Density
Multiplicity       :   1
Irrep              :   0
Energy             :  -271.1985651510750586 Eh
Relativity type    :
Basis              : AO
                                X                 Y                 Z
Electronic contribution:      4.747287118       3.767443345       0.133029918
Nuclear contribution   :     -4.888466081      -4.734336803      -0.160529465
                        -----------------------------------------
Total Dipole Moment    :     -0.141178963      -0.966893458      -0.027499547
                        -----------------------------------------
Magnitude (a.u.)       :      0.977532958
Magnitude (Debye)      :      2.484691316

Rotational constants in cm-1:             0.276495             0.060919             0.051922
Rotational constants in MHz :          8289.122591          1826.305034          1556.585842

                             ****ORCA TERMINATED NORMALLY****
TOTAL RUN TIME: 0 days 0 hours 0 minutes 7 seconds 605 msec
