                         Program Version 6.0.0  -   RELEASE  -
|  1> ! r2scan-3c def2/J RI DEFGRID2 scfconv6 printgap
|  2> %output
|  3>     printlevel normal
|  4> end
|  5> * xyz 0 1
|  6> C 1.7806539261 -0.6168451322 1.0888569001
|  7> C 1.1773754227 0.4617772623 0.191706433
|  8> H 0.838578971 1.3046159148 0.8141775331
|  9> C 0.0059439289 -0.0580853713 -0.6480695393
| 10> C -1.2474273704 -0.4705645802 0.1290005883
| 11> C -1.8938484092 0.7146542356 0.8432288492
| 12> C -2.2500336202 -1.1033725306 -0.8359642916
| 13> O 2.1362003944 0.9471541806 -0.7408009424
| 14> H 2.1157462189 -1.4558760738 0.4836051201
| 15> H 2.6308812153 -0.2206759073 1.6400563712
| 16> H 1.043547611 -0.9668388541 1.8044144697
| 17> H -0.2541196251 0.7287240002 -1.3602509039
| 18> H 0.3717491145 -0.9094938521 -1.2263575167
| 19> H -0.9734722848 -1.222972007 0.8751988845
| 20> H -2.822960105 0.4053814173 1.316223896
| 21> H -2.1173165192 1.5069062601 0.1321604368
| 22> H -1.240334886 1.1156517074 1.6131420998
| 23> H -2.5462960043 -0.3850916016 -1.5972557603
| 24> H -1.8139880304 -1.9675511841 -1.3312306279
| 25> H -3.1405237637 -1.4262032571 -0.3021090859
| 26> H 2.9246898235 1.2383699556 -0.2634943604
| 27> *
| 28>
| 29>                          ****END OF INPUT****

CARTESIAN COORDINATES (ANGSTROEM)
---------------------------------
  C      1.780654   -0.616845    1.088857
  C      1.177375    0.461777    0.191706
  H      0.838579    1.304616    0.814178
  C      0.005944   -0.058085   -0.648070
  C     -1.247427   -0.470565    0.129001
  C     -1.893848    0.714654    0.843229
  C     -2.250034   -1.103373   -0.835964
  O      2.136200    0.947154   -0.740801
  H      2.115746   -1.455876    0.483605
  H      2.630881   -0.220676    1.640056
  H      1.043548   -0.966839    1.804414
  H     -0.254120    0.728724   -1.360251
  H      0.371749   -0.909494   -1.226358
  H     -0.973472   -1.222972    0.875199
  H     -2.822960    0.405381    1.316224
  H     -2.117317    1.506906    0.132160
  H     -1.240335    1.115652    1.613142
  H     -2.546296   -0.385092   -1.597256
  H     -1.813988   -1.967551   -1.331231
  H     -3.140524   -1.426203   -0.302109
  H      2.924690    1.238370   -0.263494

 Total Charge           Charge          ....    0
 Multiplicity           Mult            ....    1
 Number of Electrons    NEL             ....   58
 Basis Dimension        Dim             ....  208

ORBITAL ENERGIES
----------------

  NO   OCC          E(Eh)            E(eV)
   0   2.0000     -18.942681      -515.4565
   1   2.0000     -10.079262      -274.2707
   2   2.0000     -10.034925      -273.0642
   3   2.0000     -10.020356      -272.6678
   4   2.0000     -10.019026      -272.6315
   5   2.0000     -10.015626      -272.5390
   6   2.0000     -10.014607      -272.5113
   7   2.0000      -0.980041       -26.6683
   8   2.0000      -0.779407       -21.2087
   9   2.0000      -0.718950       -19.5636
  10   2.0000      -0.652333       -17.7509
  11   2.0000      -0.649301       -17.6684
  12   2.0000      -0.568274       -15.4635
  13   2.0000      -0.518291       -14.1034
  14   2.0000      -0.473588       -12.8870
  15   2.0000      -0.440745       -11.9933
  16   2.0000      -0.413955       -11.2643
  17   2.0000      -0.402535       -10.9535
  18   2.0000      -0.394509       -10.7351
  19   2.0000      -0.374594       -10.1932
  20   2.0000      -0.355666        -9.6782
  21   2.0000      -0.347972        -9.4688
  22   2.0000      -0.329522        -8.9668
  23   2.0000      -0.324969        -8.8429
  24   2.0000      -0.311240        -8.4693
  25   2.0000      -0.295206        -8.0330
  26   2.0000      -0.291509        -7.9324
  27   2.0000      -0.276080        -7.5125
  28   2.0000      -0.232794        -6.3347
  29   0.0000       0.064920         1.7666
  30   0.0000       0.083646         2.2761
  31   0.0000       0.116031         3.1574
  32   0.0000       0.120146         3.2694
  33   0.0000       0.124489         3.3875

MULLIKEN ATOMIC CHARGES
-----------------------
   0 C :   -0.507319
   1 C :    0.046331
   2 H :    0.127495
   3 C :   -0.284757
   4 C :   -0.052481
   5 C :   -0.496120
   6 C :   -0.480587
   7 O :   -0.422930
   8 H :    0.163068
   9 H :    0.136741
  10 H :    0.151844
  11 H :    0.160144
  12 H :    0.145907
  13 H :    0.143983
  14 H :    0.144579
  15 H :    0.155059
  16 H :    0.145829
  17 H :    0.148682
  18 H :    0.146446
  19 H :    0.146083
  20 H :    0.282003
Sum of atomic charges:    0.0000000

LOEWDIN ATOMIC CHARGES
----------------------
   0 C :   -0.401183
   1 C :    0.049845
   2 H :    0.160285
   3 C :   -0.265871
   4 C :   -0.245059
   5 C :   -0.417405
   6 C :   -0.414391
   7 O :   -0.618367
   8 H :    0.162151
   9 H :    0.151537
  10 H :    0.157386
  11 H :    0.172626
  12 H :    0.166957
  13 H :    0.154290
  14 H :    0.153229
  15 H :    0.155863
  16 H :    0.150747
  17 H :    0.154983
  18 H :    0.153394
  19 H :    0.151813
  20 H :    0.267171

  Mayer bond orders larger than 0.100000
B(  0-C ,  1-C ) :   0.8996 B(  0-C ,  8-H ) :   0.9810 B(  0-C ,  9-H ) :   0.9680
B(  0-C , 10-H ) :   0.9714 B(  1-C ,  2-H ) :   0.9695 B(  1-C ,  3-C ) :   0.9374
B(  1-C ,  7-O ) :   0.8959 B(  3-C ,  4-C ) :   0.8894 B(  3-C , 11-H ) :   0.9726
B(  3-C , 12-H ) :   0.9768 B(  4-C ,  5-C ) :   0.8930 B(  4-C ,  6-C ) :   0.9046
B(  4-C , 13-H ) :   0.9596 B(  5-C , 14-H ) :   0.9726 B(  5-C , 15-H ) :   0.9854
B(  5-C , 16-H ) :   0.9720 B(  6-C , 17-H ) :   0.9866 B(  6-C , 18-H ) :   0.9782
B(  6-C , 19-H ) :   0.9758 B(  7-O , 20-H ) :   0.9031

Dispersion correction           -0.005549115
FINAL SINGLE POINT ENERGY      -312.203179373893

DIPOLE MOMENT
-------------

Method             : SCF
Type of density    : Electron Density
Multiplicity       :   1
Irrep              :   0
Energy             :  -312.2087443359816348 Eh
Relativity type    :
Basis              : AO
                                X                 Y                 Z
Electronic contribution:      4.687729982       2.028133530      -1.836390459
Nuclear contribution   :     -4.643933754      -2.101552472       2.426618044
                        -----------------------------------------
Total Dipole Moment    :      0.043796228      -0.073418942       0.590227584
                        -----------------------------------------
Magnitude (a.u.)       :      0.596386663
Magnitude (Debye)      :      1.515894428

Rotational constants in cm-1:             0.141438             0.045362             0.044014
Rotational constants in MHz :          4240.209859          1359.912867          1319.507423

                             ****ORCA TERMINATED NORMALLY****
TOTAL RUN TIME: 0 days 0 hours 0 minutes 30 seconds 771 msec
