                         Program Version 6.0.0  -   RELEASE  -
|  1> ! r2scan-3c def2/J RI DEFGRID2 scfconv6 printgap
|  2> %output
|  3>     printlevel normal
|  4> end
|  5> %cpcm
|  6>     smd true
|  7>     smdsolvent "water"
|  8> end
|  9> * xyz 0 1
| 10> C 1.7806539261 -0.6168451322 1.0888569001
| 11> C 1.1773754227 0.4617772623 0.191706433
| 12> H 0.838578971 1.3046159148 0.8141775331
| 13> C 0.0059439289 -0.0580853713 -0.6480695393
| 14> C -1.2474273704 -0.4705645802 0.1290005883
| 15> C -1.8938484092 0.7146542356 0.8432288492
| 16> C -2.2500336202 -1.1033725306 -0.8359642916
| 17> O 2.1362003944 0.9471541806 -0.7408009424
| 18> H 2.1157462189 -1.4558760738 0.4836051201
| 19> H 2.6308812153 -0.2206759073 1.6400563712
| 20> H 1.043547611 -0.9668388541 1.8044144697
| 21> H -0.2541196251 0.7287240002 -1.3602509039
| 22> H 0.3717491145 -0.9094938521 -1.2263575167
| 23> H -0.9734722848 -1.222972007 0.8751988845
| 24> H -2.822960105 0.4053814173 1.316223896
| 25> H -2.1173165192 1.5069062601 0.1321604368
| 26> H -1.240334886 1.1156517074 1.6131420998
| 27> H -2.5462960043 -0.3850916016 -1.5972557603
| 28> H -1.8139880304 -1.9675511841 -1.3312306279
| 29> H -3.1405237637 -1.4262032571 -0.3021090859
| 30> H 2.9246898235 1.2383699556 -0.2634943604
| 31> *
| 32>
| 33>                          ****END OF INPUT****

CARTESIAN COORDINATES (ANGSTROEM)
---------------------------------
  C      1.780654   -0.616845    1.088857
  C      1.177375    0.461777    0.191706
  H      0.838579    1.304616    0.814178
  C      0.005944   -0.058085   -0.648070
  C     -1.247427   -0.470565    0.129001
  C     -1.893848    0.714654    0.843229
  C     -2.250034   -1.103373   -0.835964
  O      2.136200    0.947154   -0.740801
  H      2.115746   -1.455876    0.483605
  H      2.630881   -0.220676    1.640056
  H      1.043548   -0.966839    1.804414
  H     -0.254120    0.728724   -1.360251
  H      0.371749   -0.909494   -1.226358
  H     -0.973472   -1.222972    0.875199
  H     -2.822960    0.405381    1.316224
  H     -2.117317    1.506906    0.132160
  H     -1.240335    1.115652    1.613142
  H     -2.546296   -0.385092   -1.597256
  H     -1.813988   -1.967551   -1.331231
  H     -3.140524   -1.426203   -0.302109
  H      2.924690    1.238370   -0.263494

 Total Charge           Charge          ....    0
 Multiplicity           Mult            ....    1
 Number of Electrons    NEL             ....   58
 Basis Dimension        Dim             ....  208

ORBITAL ENERGIES
----------------

  NO   OCC          E(Eh)            E(eV)
   0   2.0000     -18.947466      -515.5868
   1   2.0000     -10.074307      -274.1358
   2   2.0000     -10.026852      -272.8445
   3   2.0000     -10.014392      -272.5055
   4   2.0000     -10.009436      -272.3706
   5   2.0000     -10.006441      -272.2891
   6   2.0000     -10.006221      -272.2831
   7   2.0000      -0.983575       -26.7644
   8   2.0000      -0.772307       -21.0155
   9   2.0000      -0.711870       -19.3710
  10   2.0000      -0.644998       -17.5513
  11   2.0000      -0.641431       -17.4542
  12   2.0000      -0.563050       -15.3214
  13   2.0000      -0.511802       -13.9268
  14   2.0000      -0.470082       -12.7916
  15   2.0000      -0.434000       -11.8097
  16   2.0000      -0.410125       -11.1601
  17   2.0000      -0.394956       -10.7473
  18   2.0000      -0.387184       -10.5358
  19   2.0000      -0.366119        -9.9626
  20   2.0000      -0.347560        -9.4576
  21   2.0000      -0.340579        -9.2676
  22   2.0000      -0.326020        -8.8715
  23   2.0000      -0.318938        -8.6787
  24   2.0000      -0.307516        -8.3679
  25   2.0000      -0.288573        -7.8525
  26   2.0000      -0.283953        -7.7268
  27   2.0000      -0.272346        -7.4109
  28   2.0000      -0.237758        -6.4697
  29   0.0000       0.080777         2.1981
  30   0.0000       0.093032         2.5315
  31   0.0000       0.125434         3.4132
  32   0.0000       0.129090         3.5127
  33   0.0000       0.131709         3.5840

MULLIKEN ATOMIC CHARGES
-----------------------
   0 C :   -0.549722
   1 C :    0.064598
   2 H :    0.141951
   3 C :   -0.304742
   4 C :   -0.031214
   5 C :   -0.542851
   6 C :   -0.528380
   7 O :   -0.514663
   8 H :    0.166040
   9 H :    0.161964
  10 H :    0.169005
  11 H :    0.160288
  12 H :    0.154155
  13 H :    0.158220
  14 H :    0.156522
  15 H :    0.164354
  16 H :    0.160511
  17 H :    0.159115
  18 H :    0.157532
  19 H :    0.158839
  20 H :    0.338479
Sum of atomic charges:    0.0000000

LOEWDIN ATOMIC CHARGES
----------------------
   0 C :   -0.404989
   1 C :    0.051248
   2 H :    0.167913
   3 C :   -0.273202
   4 C :   -0.240611
   5 C :   -0.425116
   6 C :   -0.423358
   7 O :   -0.657156
   8 H :    0.162123
   9 H :    0.159925
  10 H :    0.164000
  11 H :    0.170611
  12 H :    0.167690
  13 H :    0.159511
  14 H :    0.156002
  15 H :    0.157445
  16 H :    0.155048
  17 H :    0.156616
  18 H :    0.155480
  19 H :    0.155044
  20 H :    0.285775

  Mayer bond orders larger than 0.100000
B(  0-C ,  1-C ) :   0.9079 B(  0-C ,  8-H ) :   0.9767 B(  0-C ,  9-H ) :   0.9640
B(  0-C , 10-H ) :   0.9662 B(  1-C ,  2-H ) :   0.9653 B(  1-C ,  3-C ) :   0.9294
B(  1-C ,  7-O ) :   0.8762 B(  3-C ,  4-C ) :   0.8997 B(  3-C , 11-H ) :   0.9705
B(  3-C , 12-H ) :   0.9703 B(  4-C ,  5-C ) :   0.8864 B(  4-C ,  6-C ) :   0.8876
B(  4-C , 13-H ) :   0.9610 B(  5-C , 14-H ) :   0.9711 B(  5-C , 15-H ) :   0.9841
B(  5-C , 16-H ) :   0.9687 B(  6-C , 17-H ) :   0.9856 B(  6-C , 18-H ) :   0.9765
B(  6-C , 19-H ) :   0.9731 B(  7-O , 20-H ) :   0.8777

Dispersion correction           -0.005549115
FINAL SINGLE POINT ENERGY      -312.209305895278

DIPOLE MOMENT
-------------

Method             : SCF
Type of density    : Electron Density
Multiplicity       :   1
Irrep              :   0
Energy             :  -312.2148708573661224 Eh
Relativity type    :
Basis              : AO
                                X                 Y                 Z
Electronic contribution:      4.711717372       2.007646703      -1.516163193
Nuclear contribution   :     -4.643933754      -2.101552472       2.426618044
                        -----------------------------------------
Total Dipole Moment    :      0.067783619      -0.093905769       0.910454851
                        -----------------------------------------
Magnitude (a.u.)       :      0.917791342
Magnitude (Debye)      :      2.332840199

Rotational constants in cm-1:             0.141438             0.045362             0.044014
Rotational constants in MHz :          4240.209859          1359.912867          1319.507423

                             ****ORCA TERMINATED NORMALLY****
TOTAL RUN TIME: 0 days 0 hours 0 minutes 35 seconds 446 msec
