                         Program Version 6.0.0  -   RELEASE  -
|  1> ! r2scan-3c def2/J RI DEFGRID2 scfconv6 printgap
|  2> %output
|  3>     printlevel normal
|  4> end
|  5> * xyz 0 1
|  6> C 1.5134726492 0.1674352125 -1.2008944865
|  7> C 1.1220062642 -0.2347619066 0.2183190727
|  8> H 0.9634781445 -1.3233458424 0.2566750106
|  9> C -0.1229591937 0.4814019141 0.7575266427
| 10> C -1.4997619388 0.1133450536 0.1806301616
| 11> C -1.8101755073 0.811225083 -1.1432423058
| 12> C -1.7013456362 -1.3951321276 0.0511849244
| 13> O 2.1586605906 0.0967744076 1.1391664077
| 14> H 2.4863744312 -0.251076743 -1.4530433934
| 15> H 0.7903765186 -0.2092841545 -1.9157882674
| 16> H 1.5683165362 1.2499828088 -1.2832775109
| 17> H -0.133569057 0.2693278631 1.8300971736
| 18> H 0.0375468437 1.5561354046 0.6488912091
| 19> H -2.2289497005 0.4832724533 0.9119072108
| 20> H -1.6252467904 1.8796554461 -1.0654363842
| 21> H -2.8572434529 0.6637189583 -1.3990987801
| 22> H -1.2086939831 0.4149710136 -1.9550880487
| 23> H -1.0791405626 -1.8042807942 -0.7407888468
| 24> H -1.4543745279 -1.8963066323 0.9839886112
| 25> H -2.7396060025 -1.6111014319 -0.1897367896
| 26> H 2.9915684864 -0.2847200919 0.8307981238
| 27> *
| 28>
| 29>                          ****END OF INPUT****

CARTESIAN COORDINATES (ANGSTROEM)
---------------------------------
  C      1.513473    0.167435   -1.200894
  C      1.122006   -0.234762    0.218319
  H      0.963478   -1.323346    0.256675
  C     -0.122959    0.481402    0.757527
  C     -1.499762    0.113345    0.180630
  C     -1.810176    0.811225   -1.143242
  C     -1.701346   -1.395132    0.051185
  O      2.158661    0.096774    1.139166
  H      2.486374   -0.251077   -1.453043
  H      0.790377   -0.209284   -1.915788
  H      1.568317    1.249983   -1.283278
  H     -0.133569    0.269328    1.830097
  H      0.037547    1.556135    0.648891
  H     -2.228950    0.483272    0.911907
  H     -1.625247    1.879655   -1.065436
  H     -2.857243    0.663719   -1.399099
  H     -1.208694    0.414971   -1.955088
  H     -1.079141   -1.804281   -0.740789
  H     -1.454375   -1.896307    0.983989
  H     -2.739606   -1.611101   -0.189737
  H      2.991568   -0.284720    0.830798

 Total Charge           Charge          ....    0
 Multiplicity           Mult            ....    1
 Number of Electrons    NEL             ....   58
 Basis Dimension        Dim             ....  208

ORBITAL ENERGIES
----------------

  NO   OCC          E(Eh)            E(eV)
   0   2.0000     -18.941680      -515.4293
   1   2.0000     -10.079244      -274.2702
   2   2.0000     -10.035534      -273.0808
   3   2.0000     -10.020234      -272.6644
   4   2.0000     -10.018902      -272.6282
   5   2.0000     -10.016515      -272.5632
   6   2.0000     -10.014424      -272.5063
   7   2.0000      -0.978954       -26.6387
   8   2.0000      -0.777289       -21.1511
   9   2.0000      -0.716574       -19.4990
  10   2.0000      -0.656423       -17.8622
  11   2.0000      -0.650513       -17.7014
  12   2.0000      -0.571697       -15.5567
  13   2.0000      -0.509917       -13.8755
  14   2.0000      -0.475323       -12.9342
  15   2.0000      -0.432675       -11.7737
  16   2.0000      -0.422206       -11.4888
  17   2.0000      -0.398389       -10.8407
  18   2.0000      -0.389831       -10.6078
  19   2.0000      -0.383128       -10.4254
  20   2.0000      -0.359023        -9.7695
  21   2.0000      -0.346979        -9.4418
  22   2.0000      -0.337092        -9.1727
  23   2.0000      -0.324087        -8.8189
  24   2.0000      -0.302759        -8.2385
  25   2.0000      -0.294377        -8.0104
  26   2.0000      -0.290875        -7.9151
  27   2.0000      -0.273513        -7.4427
  28   2.0000      -0.232056        -6.3146
  29   0.0000       0.065381         1.7791
  30   0.0000       0.077568         2.1107
  31   0.0000       0.115969         3.1557
  32   0.0000       0.119179         3.2430
  33   0.0000       0.123055         3.3485

MULLIKEN ATOMIC CHARGES
-----------------------
   0 C :   -0.483073
   1 C :    0.024408
   2 H :    0.135448
   3 C :   -0.284904
   4 C :   -0.030840
   5 C :   -0.488062
   6 C :   -0.505221
   7 O :   -0.425816
   8 H :    0.130621
   9 H :    0.143609
  10 H :    0.165410
  11 H :    0.161325
  12 H :    0.148419
  13 H :    0.144678
  14 H :    0.148766
  15 H :    0.144246
  16 H :    0.138933
  17 H :    0.149972
  18 H :    0.154740
  19 H :    0.146415
  20 H :    0.280925
Sum of atomic charges:    0.0000000

LOEWDIN ATOMIC CHARGES
----------------------
   0 C :   -0.397669
   1 C :    0.052127
   2 H :    0.162167
   3 C :   -0.265118
   4 C :   -0.242129
   5 C :   -0.416496
   6 C :   -0.418909
   7 O :   -0.623198
   8 H :    0.151423
   9 H :    0.154707
  10 H :    0.161482
  11 H :    0.175554
  12 H :    0.165779
  13 H :    0.157664
  14 H :    0.154145
  15 H :    0.152694
  16 H :    0.149591
  17 H :    0.150690
  18 H :    0.155803
  19 H :    0.153356
  20 H :    0.266337

  Mayer bond orders larger than 0.100000
B(  0-C ,  1-C ) :   0.8985 B(  0-C ,  8-H ) :   0.9666 B(  0-C ,  9-H ) :   0.9678
B(  0-C , 10-H ) :   0.9822 B(  1-C ,  2-H ) :   0.9561 B(  1-C ,  3-C ) :   0.9267
B(  1-C ,  7-O ) :   0.8737 B(  3-C ,  4-C ) :   0.8854 B(  3-C , 11-H ) :   0.9603
B(  3-C , 12-H ) :   0.9914 B(  4-C ,  5-C ) :   0.9325 B(  4-C ,  6-C ) :   0.8826
B(  4-C , 13-H ) :   0.9622 B(  5-C , 14-H ) :   0.9767 B(  5-C , 15-H ) :   0.9706
B(  5-C , 16-H ) :   0.9776 B(  6-C , 17-H ) :   0.9770 B(  6-C , 18-H ) :   0.9756
B(  6-C , 19-H ) :   0.9694 B(  7-O , 20-H ) :   0.9030

Dispersion correction           -0.005751584
FINAL SINGLE POINT ENERGY      -312.198678271084

DIPOLE MOMENT
-------------

Method             : SCF
Type of density    : Electron Density
Multiplicity       :   1
Irrep              :   0
Energy             :  -312.2042465336596706 Eh
Relativity type    :
Basis              : AO
                                X                 Y                 Z
Electronic contribution:      4.169459129       0.521778489       3.784697648
Nuclear contribution   :     -4.179532999      -0.808247477      -4.242263216
                        -----------------------------------------
Total Dipole Moment    :     -0.010073870      -0.286468988      -0.457565568
                        -----------------------------------------
Magnitude (a.u.)       :      0.539937230
Magnitude (Debye)      :      1.372411372

Rotational constants in cm-1:             0.130566             0.052275             0.047164
Rotational constants in MHz :          3914.259486          1567.162574          1413.926273

                             ****ORCA TERMINATED NORMALLY****
TOTAL RUN TIME: 0 days 0 hours 0 minutes 30 seconds 174 msec
