                         Program Version 6.0.0  -   RELEASE  -
|  1> ! r2scan-3c def2/J RI DEFGRID2 scfconv6 printgap
|  2> %output
|  3>     printlevel normal
|  4> end
|  5> %cpcm
|  6>     smd true
|  7>     smdsolvent "water"
|  8> end
|  9> * xyz 0 1
| 10> C 1.5134726492 0.1674352125 -1.2008944865
| 11> C 1.1220062642 -0.2347619066 0.2183190727
| 12> H 0.9634781445 -1.3233458424 0.2566750106
| 13> C -0.1229591937 0.4814019141 0.7575266427
| 14> C -1.4997619388 0.1133450536 0.1806301616
| 15> C -1.8101755073 0.811225083 -1.1432423058
| 16> C -1.7013456362 -1.3951321276 0.0511849244
| 17> O 2.1586605906 0.0967744076 1.1391664077
| 18> H 2.4863744312 -0.251076743 -1.4530433934
| 19> H 0.7903765186 -0.2092841545 -1.9157882674
| 20> H 1.5683165362 1.2499828088 -1.2832775109
| 21> H -0.133569057 0.2693278631 1.8300971736
| 22> H 0.0375468437 1.5561354046 0.6488912091
| 23> H -2.2289497005 0.4832724533 0.9119072108
| 24> H -1.6252467904 1.8796554461 -1.0654363842
| 25> H -2.8572434529 0.6637189583 -1.3990987801
| 26> H -1.2086939831 0.4149710136 -1.9550880487
| 27> H -1.0791405626 -1.8042807942 -0.7407888468
| 28> H -1.4543745279 -1.8963066323 0.9839886112
| 29> H -2.7396060025 -1.6111014319 -0.1897367896
| 30> H 2.9915684864 -0.2847200919 0.8307981238
| 31> *
| 32>
| 33>                          ****END OF INPUT****

CARTESIAN COORDINATES (ANGSTROEM)
---------------------------------
  C      1.513473    0.167435   -1.200894
  C      1.122006   -0.234762    0.218319
  H      0.963478   -1.323346    0.256675
  C     -0.122959    0.481402    0.757527
  C     -1.499762    0.113345    0.180630
  C     -1.810176    0.811225   -1.143242
  C     -1.701346   -1.395132    0.051185
  O      2.158661    0.096774    1.139166
  H      2.486374   -0.251077   -1.453043
  H      0.790377   -0.209284   -1.915788
  H      1.568317    1.249983   -1.283278
  H     -0.133569    0.269328    1.830097
  H      0.037547    1.556135    0.648891
  H     -2.228950    0.483272    0.911907
  H     -1.625247    1.879655   -1.065436
  H     -2.857243    0.663719   -1.399099
  H     -1.208694    0.414971   -1.955088
  H     -1.079141   -1.804281   -0.740789
  H     -1.454375   -1.896307    0.983989
  H     -2.739606   -1.611101   -0.189737
  H      2.991568   -0.284720    0.830798

 Total Charge           Charge          ....    0
 Multiplicity           Mult            ....    1
 Number of Electrons    NEL             ....   58
 Basis Dimension        Dim             ....  208

ORBITAL ENERGIES
----------------

  NO   OCC          E(Eh)            E(eV)
   0   2.0000     -18.946517      -515.5609
   1   2.0000     -10.074451      -274.1397
   2   2.0000     -10.027681      -272.8671
   3   2.0000     -10.014561      -272.5101
   4   2.0000     -10.009054      -272.3602
   5   2.0000     -10.006650      -272.2948
   6   2.0000     -10.004841      -272.2456
   7   2.0000      -0.982537       -26.7362
   8   2.0000      -0.769967       -20.9519
   9   2.0000      -0.709331       -19.3019
  10   2.0000      -0.649193       -17.6654
  11   2.0000      -0.641671       -17.4608
  12   2.0000      -0.565940       -15.4000
  13   2.0000      -0.503812       -13.7094
  14   2.0000      -0.471742       -12.8368
  15   2.0000      -0.425935       -11.5903
  16   2.0000      -0.416806       -11.3419
  17   2.0000      -0.391058       -10.6412
  18   2.0000      -0.381404       -10.3785
  19   2.0000      -0.375794       -10.2259
  20   2.0000      -0.349897        -9.5212
  21   2.0000      -0.340877        -9.2757
  22   2.0000      -0.329334        -8.9616
  23   2.0000      -0.317768        -8.6469
  24   2.0000      -0.300611        -8.1800
  25   2.0000      -0.287906        -7.8343
  26   2.0000      -0.285131        -7.7588
  27   2.0000      -0.267539        -7.2801
  28   2.0000      -0.237171        -6.4537
  29   0.0000       0.081102         2.2069
  30   0.0000       0.087029         2.3682
  31   0.0000       0.126235         3.4350
  32   0.0000       0.129223         3.5163
  33   0.0000       0.131687         3.5834

MULLIKEN ATOMIC CHARGES
-----------------------
   0 C :   -0.536227
   1 C :    0.050343
   2 H :    0.146339
   3 C :   -0.302076
   4 C :   -0.010874
   5 C :   -0.538543
   6 C :   -0.546387
   7 O :   -0.517561
   8 H :    0.157847
   9 H :    0.166442
  10 H :    0.168901
  11 H :    0.157728
  12 H :    0.157333
  13 H :    0.152040
  14 H :    0.158726
  15 H :    0.155296
  16 H :    0.157336
  17 H :    0.166134
  18 H :    0.161878
  19 H :    0.157485
  20 H :    0.337841
Sum of atomic charges:    0.0000000

LOEWDIN ATOMIC CHARGES
----------------------
   0 C :   -0.402778
   1 C :    0.054014
   2 H :    0.168896
   3 C :   -0.272247
   4 C :   -0.237814
   5 C :   -0.424922
   6 C :   -0.425928
   7 O :   -0.662046
   8 H :    0.160252
   9 H :    0.162781
  10 H :    0.161238
  11 H :    0.172494
  12 H :    0.166950
  13 H :    0.160085
  14 H :    0.155999
  15 H :    0.155089
  16 H :    0.154434
  17 H :    0.155543
  18 H :    0.157246
  19 H :    0.155748
  20 H :    0.284965

  Mayer bond orders larger than 0.100000
B(  0-C ,  1-C ) :   0.9003 B(  0-C ,  8-H ) :   0.9628 B(  0-C ,  9-H ) :   0.9638
B(  0-C , 10-H ) :   0.9781 B(  1-C ,  2-H ) :   0.9524 B(  1-C ,  3-C ) :   0.9192
B(  1-C ,  7-O ) :   0.8550 B(  3-C ,  4-C ) :   0.8956 B(  3-C , 11-H ) :   0.9591
B(  3-C , 12-H ) :   0.9843 B(  4-C ,  5-C ) :   0.9219 B(  4-C ,  6-C ) :   0.8777
B(  4-C , 13-H ) :   0.9623 B(  5-C , 14-H ) :   0.9743 B(  5-C , 15-H ) :   0.9691
B(  5-C , 16-H ) :   0.9764 B(  6-C , 17-H ) :   0.9742 B(  6-C , 18-H ) :   0.9730
B(  6-C , 19-H ) :   0.9684 B(  7-O , 20-H ) :   0.8776

Dispersion correction           -0.005751584
FINAL SINGLE POINT ENERGY      -312.205068682626

DIPOLE MOMENT
-------------

Method             : SCF
Type of density    : Electron Density
Multiplicity       :   1
Irrep              :   0
Energy             :  -312.2106369452008039 Eh
Relativity type    :
Basis              : AO
                                X                 Y                 Z
Electronic contribution:      4.183125889       0.348720273       3.531607037
Nuclear contribution   :     -4.179532999      -0.808247477      -4.242263216
                        -----------------------------------------
Total Dipole Moment    :      0.003592890      -0.459527204      -0.710656179
                        -----------------------------------------
Magnitude (a.u.)       :      0.846292127
Magnitude (Debye)      :      2.151103637

Rotational constants in cm-1:             0.130566             0.052275             0.047164
Rotational constants in MHz :          3914.259486          1567.162574          1413.926273

                             ****ORCA TERMINATED NORMALLY****
TOTAL RUN TIME: 0 days 0 hours 0 minutes 35 seconds 973 msec
