                         Program Version 6.0.0  -   RELEASE  -
|  1> ! r2scan-3c def2/J RI DEFGRID2 scfconv6 printgap
|  2> %output
|  3>     printlevel normal
|  4> end
|  5> * xyz 0 1
|  6> C -1.6660392233 0.8120385907 -0.3640680468
|  7> C -1.299878469 -0.5623441754 0.1862897793
|  8> N 0.0478320719 -0.5909872624 0.7303223509
|  9> C 1.1215493308 -0.5260693278 -0.2576515401
| 10> C 1.7927772756 0.8468874855 -0.2605183089
| 11> H -2.7194755769 0.8308640724 -0.6308659046
| 12> H -1.4770313121 1.5710698454 0.3892846986
| 13> H -1.0826329081 1.042445129 -1.2512041825
| 14> H -1.4404677041 -1.3167772823 -0.6110057256
| 15> H -1.9810923493 -0.808880512 1.0045489901
| 16> H 0.1520735141 -1.4202725011 1.300689904
| 17> H 1.8799212022 -1.277913294 -0.0200313208
| 18> H 0.7392153525 -0.7514610006 -1.264062714
| 19> H 1.0808298328 1.6251650184 -0.5151934033
| 20> H 2.1944272329 1.0599147815 0.7257122381
| 21> H 2.6043064391 0.8601226661 -0.9836953458
| 22> *
| 23>
| 24>                          ****END OF INPUT****

CARTESIAN COORDINATES (ANGSTROEM)
---------------------------------
  C     -1.666039    0.812039   -0.364068
  C     -1.299878   -0.562344    0.186290
  N      0.047832   -0.590987    0.730322
  C      1.121549   -0.526069   -0.257652
  C      1.792777    0.846887   -0.260518
  H     -2.719476    0.830864   -0.630866
  H     -1.477031    1.571070    0.389285
  H     -1.082633    1.042445   -1.251204
  H     -1.440468   -1.316777   -0.611006
  H     -1.981092   -0.808881    1.004549
  H      0.152074   -1.420273    1.300690
  H      1.879921   -1.277913   -0.020031
  H      0.739215   -0.751461   -1.264063
  H      1.080830    1.625165   -0.515193
  H      2.194427    1.059915    0.725712
  H      2.604306    0.860123   -0.983695

 Total Charge           Charge          ....    0
 Multiplicity           Mult            ....    1
 Number of Electrons    NEL             ....   42
 Basis Dimension        Dim             ....  155

ORBITAL ENERGIES
----------------

  NO   OCC          E(Eh)            E(eV)
   0   2.0000     -14.136129      -384.6636
   1   2.0000     -10.049103      -273.4500
   2   2.0000     -10.048582      -273.4358
   3   2.0000     -10.012381      -272.4507
   4   2.0000     -10.007464      -272.3169
   5   2.0000      -0.864849       -23.5338
   6   2.0000      -0.719814       -19.5871
   7   2.0000      -0.682034       -18.5591
   8   2.0000      -0.584068       -15.8933
   9   2.0000      -0.541892       -14.7456
  10   2.0000      -0.468854       -12.7582
  11   2.0000      -0.421565       -11.4714
  12   2.0000      -0.417204       -11.3527
  13   2.0000      -0.380833       -10.3630
  14   2.0000      -0.352244        -9.5850
  15   2.0000      -0.345029        -9.3887
  16   2.0000      -0.338094        -9.2000
  17   2.0000      -0.319525        -8.6947
  18   2.0000      -0.301732        -8.2106
  19   2.0000      -0.294282        -8.0078
  20   2.0000      -0.187021        -5.0891
  21   0.0000       0.073576         2.0021
  22   0.0000       0.105204         2.8627
  23   0.0000       0.122273         3.3272
  24   0.0000       0.125568         3.4169
  25   0.0000       0.133516         3.6331

MULLIKEN ATOMIC CHARGES
-----------------------
   0 C :   -0.466465
   1 C :   -0.206465
   2 N :   -0.327172
   3 C :   -0.192328
   4 C :   -0.444836
   5 H :    0.141246
   6 H :    0.161273
   7 H :    0.146076
   8 H :    0.128841
   9 H :    0.135560
  10 H :    0.229914
  11 H :    0.132718
  12 H :    0.130429
  13 H :    0.144652
  14 H :    0.149748
  15 H :    0.136810
Sum of atomic charges:   -0.0000000

LOEWDIN ATOMIC CHARGES
----------------------
   0 C :   -0.403767
   1 C :   -0.073667
   2 N :   -0.850251
   3 C :   -0.074916
   4 C :   -0.404545
   5 H :    0.151164
   6 H :    0.157848
   7 H :    0.150005
   8 H :    0.149015
   9 H :    0.171978
  10 H :    0.244397
  11 H :    0.168125
  12 H :    0.161458
  13 H :    0.151985
  14 H :    0.154507
  15 H :    0.146664

  Mayer bond orders larger than 0.100000
B(  0-C ,  1-C ) :   0.9012 B(  0-C ,  5-H ) :   0.9693 B(  0-C ,  6-H ) :   0.9751
B(  0-C ,  7-H ) :   0.9727 B(  1-C ,  2-N ) :   0.9509 B(  1-C ,  8-H ) :   0.9771
B(  1-C ,  9-H ) :   0.9716 B(  2-N ,  3-C ) :   0.8173 B(  2-N , 10-H ) :   0.9124
B(  3-C ,  4-C ) :   0.9572 B(  3-C , 11-H ) :   0.9661 B(  3-C , 12-H ) :   0.9585
B(  4-C , 13-H ) :   0.9681 B(  4-C , 14-H ) :   0.9737 B(  4-C , 15-H ) :   0.9807

Dispersion correction           -0.003561857
FINAL SINGLE POINT ENERGY      -213.710658570936

DIPOLE MOMENT
-------------

Method             : SCF
Type of density    : Electron Density
Multiplicity       :   1
Irrep              :   0
Energy             :  -213.7192454919421607 Eh
Relativity type    :
Basis              : AO
                                X                 Y                 Z
Electronic contribution:      0.004118762      -1.697098065       1.615776367
Nuclear contribution   :     -0.046575924       1.323578554      -1.737056648
                        -----------------------------------------
Total Dipole Moment    :     -0.042457161      -0.373519511      -0.121280281
                        -----------------------------------------
Magnitude (a.u.)       :      0.395004231
Magnitude (Debye)      :      1.004020964

Rotational constants in cm-1:             0.266439             0.109258             0.087602
Rotational constants in MHz :          7987.634451          3275.482274          2626.240522

                             ****ORCA TERMINATED NORMALLY****
TOTAL RUN TIME: 0 days 0 hours 0 minutes 14 seconds 801 msec
