                         Program Version 6.0.0  -   RELEASE  -
|  1> ! r2scan-3c def2/J RI DEFGRID2 scfconv6 printgap
|  2> %output
|  3>     printlevel normal
|  4> end
|  5> %cpcm
|  6>     smd true
|  7>     smdsolvent "water"
|  8> end
|  9> * xyz 0 1
| 10> C -1.6660392233 0.8120385907 -0.3640680468
| 11> C -1.299878469 -0.5623441754 0.1862897793
| 12> N 0.0478320719 -0.5909872624 0.7303223509
| 13> C 1.1215493308 -0.5260693278 -0.2576515401
| 14> C 1.7927772756 0.8468874855 -0.2605183089
| 15> H -2.7194755769 0.8308640724 -0.6308659046
| 16> H -1.4770313121 1.5710698454 0.3892846986
| 17> H -1.0826329081 1.042445129 -1.2512041825
| 18> H -1.4404677041 -1.3167772823 -0.6110057256
| 19> H -1.9810923493 -0.808880512 1.0045489901
| 20> H 0.1520735141 -1.4202725011 1.300689904
| 21> H 1.8799212022 -1.277913294 -0.0200313208
| 22> H 0.7392153525 -0.7514610006 -1.264062714
| 23> H 1.0808298328 1.6251650184 -0.5151934033
| 24> H 2.1944272329 1.0599147815 0.7257122381
| 25> H 2.6043064391 0.8601226661 -0.9836953458
| 26> *
| 27>
| 28>                          ****END OF INPUT****

CARTESIAN COORDINATES (ANGSTROEM)
---------------------------------
  C     -1.666039    0.812039   -0.364068
  C     -1.299878   -0.562344    0.186290
  N      0.047832   -0.590987    0.730322
  C      1.121549   -0.526069   -0.257652
  C      1.792777    0.846887   -0.260518
  H     -2.719476    0.830864   -0.630866
  H     -1.477031    1.571070    0.389285
  H     -1.082633    1.042445   -1.251204
  H     -1.440468   -1.316777   -0.611006
  H     -1.981092   -0.808881    1.004549
  H      0.152074   -1.420273    1.300690
  H      1.879921   -1.277913   -0.020031
  H      0.739215   -0.751461   -1.264063
  H      1.080830    1.625165   -0.515193
  H      2.194427    1.059915    0.725712
  H      2.604306    0.860123   -0.983695

 Total Charge           Charge          ....    0
 Multiplicity           Mult            ....    1
 Number of Electrons    NEL             ....   42
 Basis Dimension        Dim             ....  155

ORBITAL ENERGIES
----------------

  NO   OCC          E(Eh)            E(eV)
   0   2.0000     -14.130865      -384.5204
   1   2.0000     -10.042365      -273.2666
   2   2.0000     -10.041485      -273.2427
   3   2.0000     -10.006184      -272.2821
   4   2.0000     -10.003886      -272.2196
   5   2.0000      -0.859530       -23.3890
   6   2.0000      -0.714593       -19.4451
   7   2.0000      -0.677146       -18.4261
   8   2.0000      -0.578965       -15.7544
   9   2.0000      -0.536027       -14.5860
  10   2.0000      -0.461938       -12.5700
  11   2.0000      -0.416555       -11.3350
  12   2.0000      -0.411956       -11.2099
  13   2.0000      -0.375344       -10.2136
  14   2.0000      -0.346696        -9.4341
  15   2.0000      -0.341051        -9.2805
  16   2.0000      -0.333223        -9.0675
  17   2.0000      -0.314724        -8.5641
  18   2.0000      -0.295125        -8.0308
  19   2.0000      -0.287761        -7.8304
  20   2.0000      -0.186446        -5.0734
  21   0.0000       0.085776         2.3341
  22   0.0000       0.111253         3.0274
  23   0.0000       0.129806         3.5322
  24   0.0000       0.131672         3.5830
  25   0.0000       0.139504         3.7961

MULLIKEN ATOMIC CHARGES
-----------------------
   0 C :   -0.496145
   1 C :   -0.223339
   2 N :   -0.388745
   3 C :   -0.183498
   4 C :   -0.509648
   5 H :    0.155769
   6 H :    0.157652
   7 H :    0.161717
   8 H :    0.136850
   9 H :    0.153369
  10 H :    0.276325
  11 H :    0.153089
  12 H :    0.142133
  13 H :    0.158006
  14 H :    0.154946
  15 H :    0.151518
Sum of atomic charges:   -0.0000000

LOEWDIN ATOMIC CHARGES
----------------------
   0 C :   -0.411670
   1 C :   -0.075365
   2 N :   -0.867893
   3 C :   -0.075685
   4 C :   -0.416235
   5 H :    0.155242
   6 H :    0.154918
   7 H :    0.154355
   8 H :    0.153161
   9 H :    0.176301
  10 H :    0.254294
  11 H :    0.174542
  12 H :    0.166304
  13 H :    0.153198
  14 H :    0.152698
  15 H :    0.151835

  Mayer bond orders larger than 0.100000
B(  0-C ,  1-C ) :   0.8886 B(  0-C ,  5-H ) :   0.9666 B(  0-C ,  6-H ) :   0.9732
B(  0-C ,  7-H ) :   0.9699 B(  1-C ,  2-N ) :   0.9589 B(  1-C ,  8-H ) :   0.9789
B(  1-C ,  9-H ) :   0.9727 B(  2-N ,  3-C ) :   0.8144 B(  2-N , 10-H ) :   0.8952
B(  3-C ,  4-C ) :   0.9301 B(  3-C , 11-H ) :   0.9653 B(  3-C , 12-H ) :   0.9574
B(  4-C , 13-H ) :   0.9703 B(  4-C , 14-H ) :   0.9748 B(  4-C , 15-H ) :   0.9756

Dispersion correction           -0.003561857
FINAL SINGLE POINT ENERGY      -213.714752909773

DIPOLE MOMENT
-------------

Method             : SCF
Type of density    : Electron Density
Multiplicity       :   1
Irrep              :   0
Energy             :  -213.7233398307793948 Eh
Relativity type    :
Basis              : AO
                                X                 Y                 Z
Electronic contribution:     -0.007417666      -1.878836545       1.497728298
Nuclear contribution   :     -0.046575924       1.323578554      -1.737056648
                        -----------------------------------------
Total Dipole Moment    :     -0.053993590      -0.555257990      -0.239328350
                        -----------------------------------------
Magnitude (a.u.)       :      0.607045964
Magnitude (Debye)      :      1.542988218

Rotational constants in cm-1:             0.266439             0.109258             0.087602
Rotational constants in MHz :          7987.634451          3275.482274          2626.240522

                             ****ORCA TERMINATED NORMALLY****
TOTAL RUN TIME: 0 days 0 hours 0 minutes 19 seconds 891 msec
