                         Program Version 6.0.0  -   RELEASE  -
|  1> ! pbe def2-sv(p) def2/J RI DEFGRID1 loosescf d4 GCP(DFT/SV(P)) printgap
|  2> %output
|  3>     printlevel normal
|  4> end
|  5> * xyz 0 1
|  6> C -2.3221972422 0.9080629713 0.7516625004
|  7> C -1.7310773767 -0.4201327945 0.2859914974
|  8> C -2.7545717192 -1.2279324976 -0.5072701805
|  9> C -0.4904399435 -0.1769894662 -0.5730144645
| 10> O 0.5355614096 0.4112065709 0.2374718434
| 11> C 1.8039244944 0.1588704751 -0.0578723667
| 12> O 2.1489893567 -0.5453253045 -0.9856381383
| 13> C 2.7390499882 0.8571022648 0.8831873568
| 14> H -2.6769863128 1.4816119806 -0.1014018069
| 15> H -1.5686952526 1.4913393487 1.2737019842
| 16> H -3.157777189 0.7338362879 1.4238241733
| 17> H -1.4192886332 -0.9959026863 1.1634353375
| 18> H -2.3408441804 -2.1871160839 -0.807916021
| 19> H -3.0529430008 -0.6855862801 -1.4010641145
| 20> H -3.6376293407 -1.4067852757 0.099313162
| 21> H -0.1057418869 -1.1100955892 -0.9980382855
| 22> H -0.7138681596 0.5138261783 -1.3924101654
| 23> H 2.9540538072 1.8451565544 0.4816432935
| 24> H 3.6681971693 0.3006866032 0.9525098405
| 25> H 2.2716325991 0.9684872807 1.8556536948
| 26> *
| 27>
| 28>                          ****END OF INPUT****

CARTESIAN COORDINATES (ANGSTROEM)
---------------------------------
  C     -2.322197    0.908063    0.751663
  C     -1.731077   -0.420133    0.285991
  C     -2.754572   -1.227932   -0.507270
  C     -0.490440   -0.176989   -0.573014
  O      0.535561    0.411207    0.237472
  C      1.803924    0.158870   -0.057872
  O      2.148989   -0.545325   -0.985638
  C      2.739050    0.857102    0.883187
  H     -2.676986    1.481612   -0.101402
  H     -1.568695    1.491339    1.273702
  H     -3.157777    0.733836    1.423824
  H     -1.419289   -0.995903    1.163435
  H     -2.340844   -2.187116   -0.807916
  H     -3.052943   -0.685586   -1.401064
  H     -3.637629   -1.406785    0.099313
  H     -0.105742   -1.110096   -0.998038
  H     -0.713868    0.513826   -1.392410
  H      2.954054    1.845157    0.481643
  H      3.668197    0.300687    0.952510
  H      2.271633    0.968487    1.855654

 Total Charge           Charge          ....    0
 Multiplicity           Mult            ....    1
 Number of Electrons    NEL             ....   64
 Basis Dimension        Dim             ....  136

ORBITAL ENERGIES
----------------

  NO   OCC          E(Eh)            E(eV)
   0   2.0000     -18.797882      -511.5164
   1   2.0000     -18.729175      -509.6468
   2   2.0000     -10.007627      -272.3214
   3   2.0000      -9.941026      -270.5091
   4   2.0000      -9.904005      -269.5017
   5   2.0000      -9.893552      -269.2172
   6   2.0000      -9.883675      -268.9485
   7   2.0000      -9.878059      -268.7957
   8   2.0000      -1.004535       -27.3348
   9   2.0000      -0.907105       -24.6836
  10   2.0000      -0.740315       -20.1450
  11   2.0000      -0.684905       -18.6372
  12   2.0000      -0.623849       -16.9758
  13   2.0000      -0.618537       -16.8312
  14   2.0000      -0.524196       -14.2641
  15   2.0000      -0.503518       -13.7014
  16   2.0000      -0.449158       -12.2222
  17   2.0000      -0.430501       -11.7145
  18   2.0000      -0.420289       -11.4366
  19   2.0000      -0.404891       -11.0177
  20   2.0000      -0.388273       -10.5655
  21   2.0000      -0.375399       -10.2151
  22   2.0000      -0.364447        -9.9171
  23   2.0000      -0.355098        -9.6627
  24   2.0000      -0.345911        -9.4127
  25   2.0000      -0.326481        -8.8840
  26   2.0000      -0.315470        -8.5844
  27   2.0000      -0.304773        -8.2933
  28   2.0000      -0.296090        -8.0570
  29   2.0000      -0.284609        -7.7446
  30   2.0000      -0.253786        -6.9059
  31   2.0000      -0.216096        -5.8803
  32   0.0000      -0.017960        -0.4887
  33   0.0000       0.033030         0.8988
  34   0.0000       0.051377         1.3980
  35   0.0000       0.064593         1.7577
  36   0.0000       0.082208         2.2370

MULLIKEN ATOMIC CHARGES
-----------------------
   0 C :   -0.249135
   1 C :   -0.190953
   2 C :   -0.252215
   3 C :    0.032636
   4 O :   -0.239623
   5 C :    0.081264
   6 O :   -0.212116
   7 C :   -0.247947
   8 H :    0.091493
   9 H :    0.111179
  10 H :    0.101805
  11 H :    0.082038
  12 H :    0.106168
  13 H :    0.098988
  14 H :    0.106723
  15 H :    0.108721
  16 H :    0.089262
  17 H :    0.135471
  18 H :    0.126696
  19 H :    0.119544
Sum of atomic charges:    0.0000000

LOEWDIN ATOMIC CHARGES
----------------------
   0 C :   -0.332187
   1 C :   -0.169587
   2 C :   -0.327682
   3 C :   -0.097611
   4 O :   -0.068228
   5 C :    0.028747
   6 O :   -0.172625
   7 C :   -0.359081
   8 H :    0.116433
   9 H :    0.120903
  10 H :    0.118966
  11 H :    0.120444
  12 H :    0.120563
  13 H :    0.118948
  14 H :    0.122665
  15 H :    0.118028
  16 H :    0.113518
  17 H :    0.149571
  18 H :    0.141777
  19 H :    0.136438

  Mayer bond orders larger than 0.100000
B(  0-C ,  1-C ) :   1.1018 B(  0-C ,  8-H ) :   0.9496 B(  0-C ,  9-H ) :   0.9476
B(  0-C , 10-H ) :   0.9520 B(  1-C ,  2-C ) :   1.1044 B(  1-C ,  3-C ) :   1.0690
B(  1-C , 11-H ) :   0.9013 B(  2-C , 12-H ) :   0.9494 B(  2-C , 13-H ) :   0.9490
B(  2-C , 14-H ) :   0.9511 B(  3-C ,  4-O ) :   0.9202 B(  3-C , 15-H ) :   0.9124
B(  3-C , 16-H ) :   0.9232 B(  4-O ,  5-C ) :   1.1920 B(  5-C ,  6-O ) :   2.0599
B(  5-C ,  7-C ) :   1.0828 B(  7-C , 17-H ) :   0.9259 B(  7-C , 18-H ) :   0.9391
B(  7-C , 19-H ) :   0.9353

Dispersion correction           -0.014975357
FINAL SINGLE POINT ENERGY      -385.457942098086

DIPOLE MOMENT
-------------

Method             : SCF
Type of density    : Electron Density
Multiplicity       :   1
Irrep              :   0
Energy             :  -385.5329037092544127 Eh
Relativity type    :
Basis              : AO
                                X                 Y                 Z
Electronic contribution:      8.610615646      -0.549327570      -1.893046262
Nuclear contribution   :     -9.135360506       0.888761442       2.380528547
                        -----------------------------------------
Total Dipole Moment    :     -0.524744860       0.339433872       0.487482286
                        -----------------------------------------
Magnitude (a.u.)       :      0.792597944
Magnitude (Debye)      :      2.014623868

Rotational constants in cm-1:             0.146533             0.033507             0.028688
Rotational constants in MHz :          4392.943440          1004.504818           860.046848

                             ****ORCA TERMINATED NORMALLY****
TOTAL RUN TIME: 0 days 0 hours 0 minutes 11 seconds 616 msec
