                         Program Version 6.0.0  -   RELEASE  -
|  1> ! r2scan-3c def2/J RI DEFGRID2 scfconv6 printgap
|  2> %output
|  3>     printlevel normal
|  4> end
|  5> * xyz 0 1
|  6> C 3.5699482542 0.3078438427 -0.7748413408
|  7> C 2.5756694183 -0.1553280485 0.2461811361
|  8> C 2.9479701673 -0.6095705729 1.4323475098
|  9> C 1.127771054 -0.0321563494 -0.1726151991
| 10> H 1.0905095099 0.0173649285 -1.2656709053
| 11> C 0.2516031993 -1.2069760202 0.2698260683
| 12> C -1.1244008205 -1.08610024 -0.3766275598
| 13> C -1.7045043095 0.281993239 -0.1554623924
| 14> C -0.9456349335 1.3328076875 0.1944410951
| 15> C 0.5251331488 1.2666371141 0.3822510188
| 16> C -3.1361239783 0.4452723499 -0.3183163455
| 17> O -3.9227410373 -0.4387548705 -0.6080664805
| 18> H 4.5820254706 0.2708212095 -0.3819159749
| 19> H 3.5162350249 -0.323246051 -1.661119918
| 20> H 3.3483124707 1.3289719422 -1.0812842792
| 21> H 2.2433030843 -0.9430201445 2.1736721114
| 22> H 3.9863787145 -0.6726265438 1.7103047245
| 23> H 0.7174003665 -2.1507253461 -0.0151688075
| 24> H 0.1378299769 -1.1971026891 1.3540285056
| 25> H -1.0579700854 -1.2707390876 -1.4528448268
| 26> H -1.8161190037 -1.8284091669 0.0279481029
| 27> H -1.4118024122 2.2937557735 0.3677628759
| 28> H 0.9900952569 2.1364566521 -0.0870931884
| 29> H 0.739154707 1.3395454381 1.4538425157
| 30> H -3.5051121786 1.4759349246 -0.155763905
| 31> *
| 32>
| 33>                          ****END OF INPUT****

CARTESIAN COORDINATES (ANGSTROEM)
---------------------------------
  C      3.569948    0.307844   -0.774841
  C      2.575669   -0.155328    0.246181
  C      2.947970   -0.609571    1.432348
  C      1.127771   -0.032156   -0.172615
  H      1.090510    0.017365   -1.265671
  C      0.251603   -1.206976    0.269826
  C     -1.124401   -1.086100   -0.376628
  C     -1.704504    0.281993   -0.155462
  C     -0.945635    1.332808    0.194441
  C      0.525133    1.266637    0.382251
  C     -3.136124    0.445272   -0.318316
  O     -3.922741   -0.438755   -0.608066
  H      4.582025    0.270821   -0.381916
  H      3.516235   -0.323246   -1.661120
  H      3.348312    1.328972   -1.081284
  H      2.243303   -0.943020    2.173672
  H      3.986379   -0.672627    1.710305
  H      0.717400   -2.150725   -0.015169
  H      0.137830   -1.197103    1.354029
  H     -1.057970   -1.270739   -1.452845
  H     -1.816119   -1.828409    0.027948
  H     -1.411802    2.293756    0.367763
  H      0.990095    2.136457   -0.087093
  H      0.739155    1.339545    1.453843
  H     -3.505112    1.475935   -0.155764

 Total Charge           Charge          ....    0
 Multiplicity           Mult            ....    1
 Number of Electrons    NEL             ....   82
 Basis Dimension        Dim             ....  284

ORBITAL ENERGIES
----------------

  NO   OCC          E(Eh)            E(eV)
   0   2.0000     -18.939143      -515.3603
   1   2.0000     -10.109048      -275.0812
   2   2.0000     -10.062775      -273.8220
   3   2.0000     -10.052406      -273.5399
   4   2.0000     -10.050436      -273.4863
   5   2.0000     -10.049517      -273.4613
   6   2.0000     -10.047306      -273.4011
   7   2.0000     -10.037203      -273.1262
   8   2.0000     -10.035926      -273.0914
   9   2.0000     -10.032508      -272.9984
  10   2.0000     -10.018595      -272.6198
  11   2.0000      -0.999509       -27.1980
  12   2.0000      -0.834162       -22.6987
  13   2.0000      -0.784318       -21.3424
  14   2.0000      -0.729991       -19.8641
  15   2.0000      -0.724788       -19.7225
  16   2.0000      -0.661763       -18.0075
  17   2.0000      -0.627214       -17.0674
  18   2.0000      -0.597953       -16.2711
  19   2.0000      -0.559402       -15.2221
  20   2.0000      -0.511973       -13.9315
  21   2.0000      -0.495559       -13.4849
  22   2.0000      -0.465276       -12.6608
  23   2.0000      -0.443314       -12.0632
  24   2.0000      -0.428956       -11.6725
  25   2.0000      -0.418188       -11.3795
  26   2.0000      -0.410311       -11.1651
  27   2.0000      -0.400257       -10.8916
  28   2.0000      -0.391852       -10.6628
  29   2.0000      -0.376076       -10.2335
  30   2.0000      -0.372211       -10.1284
  31   2.0000      -0.369208       -10.0467
  32   2.0000      -0.355433        -9.6718
  33   2.0000      -0.343928        -9.3588
  34   2.0000      -0.338517        -9.2115
  35   2.0000      -0.312246        -8.4966
  36   2.0000      -0.302263        -8.2250
  37   2.0000      -0.288962        -7.8631
  38   2.0000      -0.247359        -6.7310
  39   2.0000      -0.232090        -6.3155
  40   2.0000      -0.217890        -5.9291
  41   0.0000      -0.087144        -2.3713
  42   0.0000      -0.017930        -0.4879
  43   0.0000       0.025357         0.6900
  44   0.0000       0.063492         1.7277
  45   0.0000       0.086272         2.3476

MULLIKEN ATOMIC CHARGES
-----------------------
   0 C :   -0.526359
   1 C :    0.089408
   2 C :   -0.376861
   3 C :   -0.044790
   4 H :    0.176436
   5 C :   -0.337496
   6 C :   -0.326342
   7 C :    0.138097
   8 C :   -0.149876
   9 C :   -0.377066
  10 C :    0.015862
  11 O :   -0.350391
  12 H :    0.150967
  13 H :    0.165201
  14 H :    0.150372
  15 H :    0.141270
  16 H :    0.145003
  17 H :    0.174871
  18 H :    0.161127
  19 H :    0.182296
  20 H :    0.184216
  21 H :    0.160089
  22 H :    0.158284
  23 H :    0.195817
  24 H :    0.099866
Sum of atomic charges:    0.0000000

LOEWDIN ATOMIC CHARGES
----------------------
   0 C :   -0.390650
   1 C :   -0.121995
   2 C :   -0.321382
   3 C :   -0.200487
   4 H :    0.171231
   5 C :   -0.271966
   6 C :   -0.264372
   7 C :   -0.114768
   8 C :   -0.121842
   9 C :   -0.263675
  10 C :    0.201101
  11 O :   -0.468543
  12 H :    0.159259
  13 H :    0.162710
  14 H :    0.160231
  15 H :    0.159245
  16 H :    0.158772
  17 H :    0.166613
  18 H :    0.163635
  19 H :    0.174430
  20 H :    0.181388
  21 H :    0.170760
  22 H :    0.171503
  23 H :    0.183411
  24 H :    0.155392

  Mayer bond orders larger than 0.100000
B(  0-C ,  1-C ) :   0.8953 B(  0-C , 12-H ) :   0.9868 B(  0-C , 13-H ) :   0.9788
B(  0-C , 14-H ) :   0.9658 B(  1-C ,  2-C ) :   1.8619 B(  1-C ,  3-C ) :   0.8332
B(  2-C , 15-H ) :   0.9871 B(  2-C , 16-H ) :   0.9673 B(  3-C ,  4-H ) :   1.0056
B(  3-C ,  5-C ) :   0.8545 B(  3-C ,  9-C ) :   0.9294 B(  5-C ,  6-C ) :   0.8865
B(  5-C , 17-H ) :   0.9781 B(  5-C , 18-H ) :   0.9824 B(  6-C ,  7-C ) :   0.8562
B(  6-C , 19-H ) :   0.9999 B(  6-C , 20-H ) :   0.9847 B(  7-C ,  8-C ) :   1.7478
B(  7-C , 10-C ) :   0.9107 B(  7-C , 24-H ) :  -0.1304 B(  8-C ,  9-C ) :   0.9176
B(  8-C , 11-O ) :   0.1060 B(  8-C , 21-H ) :   0.9215 B(  9-C , 22-H ) :   0.9644
B(  9-C , 23-H ) :   0.9697 B( 10-C , 11-O ) :   1.9063 B( 10-C , 24-H ) :   1.0407

Dispersion correction           -0.008859284
FINAL SINGLE POINT ENERGY      -464.555972574623

DIPOLE MOMENT
-------------

Method             : SCF
Type of density    : Electron Density
Multiplicity       :   1
Irrep              :   0
Energy             :  -464.5565686177825455 Eh
Relativity type    :
Basis              : AO
                                X                 Y                 Z
Electronic contribution:    -11.327421035       0.264081240      -0.764861907
Nuclear contribution   :     12.663627585       0.440984699       0.916673081
                        -----------------------------------------
Total Dipole Moment    :      1.336206550       0.705065939       0.151811174
                        -----------------------------------------
Magnitude (a.u.)       :      1.518424366
Magnitude (Debye)      :      3.859528018

Rotational constants in cm-1:             0.099735             0.018038             0.017002
Rotational constants in MHz :          2989.966526           540.755215           509.718937

                             ****ORCA TERMINATED NORMALLY****
TOTAL RUN TIME: 0 days 0 hours 0 minutes 53 seconds 275 msec
