                         Program Version 6.0.0  -   RELEASE  -
|  1> ! r2scan-3c def2/J RI DEFGRID2 scfconv6 printgap
|  2> %output
|  3>     printlevel normal
|  4> end
|  5> %cpcm
|  6>     smd true
|  7>     smdsolvent "water"
|  8> end
|  9> * xyz 0 1
| 10> C 3.5699482542 0.3078438427 -0.7748413408
| 11> C 2.5756694183 -0.1553280485 0.2461811361
| 12> C 2.9479701673 -0.6095705729 1.4323475098
| 13> C 1.127771054 -0.0321563494 -0.1726151991
| 14> H 1.0905095099 0.0173649285 -1.2656709053
| 15> C 0.2516031993 -1.2069760202 0.2698260683
| 16> C -1.1244008205 -1.08610024 -0.3766275598
| 17> C -1.7045043095 0.281993239 -0.1554623924
| 18> C -0.9456349335 1.3328076875 0.1944410951
| 19> C 0.5251331488 1.2666371141 0.3822510188
| 20> C -3.1361239783 0.4452723499 -0.3183163455
| 21> O -3.9227410373 -0.4387548705 -0.6080664805
| 22> H 4.5820254706 0.2708212095 -0.3819159749
| 23> H 3.5162350249 -0.323246051 -1.661119918
| 24> H 3.3483124707 1.3289719422 -1.0812842792
| 25> H 2.2433030843 -0.9430201445 2.1736721114
| 26> H 3.9863787145 -0.6726265438 1.7103047245
| 27> H 0.7174003665 -2.1507253461 -0.0151688075
| 28> H 0.1378299769 -1.1971026891 1.3540285056
| 29> H -1.0579700854 -1.2707390876 -1.4528448268
| 30> H -1.8161190037 -1.8284091669 0.0279481029
| 31> H -1.4118024122 2.2937557735 0.3677628759
| 32> H 0.9900952569 2.1364566521 -0.0870931884
| 33> H 0.739154707 1.3395454381 1.4538425157
| 34> H -3.5051121786 1.4759349246 -0.155763905
| 35> *
| 36>
| 37>                          ****END OF INPUT****

CARTESIAN COORDINATES (ANGSTROEM)
---------------------------------
  C      3.569948    0.307844   -0.774841
  C      2.575669   -0.155328    0.246181
  C      2.947970   -0.609571    1.432348
  C      1.127771   -0.032156   -0.172615
  H      1.090510    0.017365   -1.265671
  C      0.251603   -1.206976    0.269826
  C     -1.124401   -1.086100   -0.376628
  C     -1.704504    0.281993   -0.155462
  C     -0.945635    1.332808    0.194441
  C      0.525133    1.266637    0.382251
  C     -3.136124    0.445272   -0.318316
  O     -3.922741   -0.438755   -0.608066
  H      4.582025    0.270821   -0.381916
  H      3.516235   -0.323246   -1.661120
  H      3.348312    1.328972   -1.081284
  H      2.243303   -0.943020    2.173672
  H      3.986379   -0.672627    1.710305
  H      0.717400   -2.150725   -0.015169
  H      0.137830   -1.197103    1.354029
  H     -1.057970   -1.270739   -1.452845
  H     -1.816119   -1.828409    0.027948
  H     -1.411802    2.293756    0.367763
  H      0.990095    2.136457   -0.087093
  H      0.739155    1.339545    1.453843
  H     -3.505112    1.475935   -0.155764

 Total Charge           Charge          ....    0
 Multiplicity           Mult            ....    1
 Number of Electrons    NEL             ....   82
 Basis Dimension        Dim             ....  284

ORBITAL ENERGIES
----------------

  NO   OCC          E(Eh)            E(eV)
   0   2.0000     -18.950017      -515.6562
   1   2.0000     -10.114339      -275.2252
   2   2.0000     -10.054944      -273.6089
   3   2.0000     -10.041711      -273.2489
   4   2.0000     -10.037345      -273.1300
   5   2.0000     -10.035277      -273.0738
   6   2.0000     -10.034300      -273.0472
   7   2.0000     -10.027505      -272.8623
   8   2.0000     -10.021987      -272.7121
   9   2.0000     -10.015576      -272.5377
  10   2.0000     -10.006387      -272.2876
  11   2.0000      -1.012847       -27.5610
  12   2.0000      -0.822187       -22.3729
  13   2.0000      -0.773851       -21.0576
  14   2.0000      -0.717517       -19.5246
  15   2.0000      -0.713454       -19.4141
  16   2.0000      -0.648252       -17.6398
  17   2.0000      -0.618020       -16.8172
  18   2.0000      -0.586699       -15.9649
  19   2.0000      -0.551748       -15.0138
  20   2.0000      -0.499117       -13.5817
  21   2.0000      -0.484430       -13.1820
  22   2.0000      -0.459653       -12.5078
  23   2.0000      -0.434037       -11.8108
  24   2.0000      -0.424022       -11.5382
  25   2.0000      -0.410947       -11.1824
  26   2.0000      -0.400907       -10.9092
  27   2.0000      -0.388213       -10.5638
  28   2.0000      -0.380984       -10.3671
  29   2.0000      -0.374471       -10.1899
  30   2.0000      -0.365372        -9.9423
  31   2.0000      -0.357775        -9.7356
  32   2.0000      -0.343853        -9.3567
  33   2.0000      -0.339072        -9.2266
  34   2.0000      -0.325239        -8.8502
  35   2.0000      -0.296754        -8.0751
  36   2.0000      -0.289111        -7.8671
  37   2.0000      -0.276432        -7.5221
  38   2.0000      -0.241463        -6.5706
  39   2.0000      -0.229777        -6.2525
  40   2.0000      -0.223477        -6.0811
  41   0.0000      -0.086768        -2.3611
  42   0.0000      -0.008852        -0.2409
  43   0.0000       0.030748         0.8367
  44   0.0000       0.079832         2.1723
  45   0.0000       0.101397         2.7592

MULLIKEN ATOMIC CHARGES
-----------------------
   0 C :   -0.563221
   1 C :    0.053751
   2 C :   -0.455478
   3 C :    0.013680
   4 H :    0.193140
   5 C :   -0.368938
   6 C :   -0.339071
   7 C :    0.080122
   8 C :   -0.125232
   9 C :   -0.402502
  10 C :    0.056275
  11 O :   -0.457862
  12 H :    0.164444
  13 H :    0.180812
  14 H :    0.171955
  15 H :    0.165722
  16 H :    0.167567
  17 H :    0.178551
  18 H :    0.180131
  19 H :    0.198560
  20 H :    0.179628
  21 H :    0.193628
  22 H :    0.187729
  23 H :    0.212743
  24 H :    0.133867
Sum of atomic charges:    0.0000000

LOEWDIN ATOMIC CHARGES
----------------------
   0 C :   -0.398104
   1 C :   -0.119399
   2 C :   -0.351541
   3 C :   -0.198132
   4 H :    0.177706
   5 C :   -0.273418
   6 C :   -0.269849
   7 C :   -0.127909
   8 C :   -0.088287
   9 C :   -0.260833
  10 C :    0.212694
  11 O :   -0.554110
  12 H :    0.161790
  13 H :    0.168591
  14 H :    0.168298
  15 H :    0.165220
  16 H :    0.163389
  17 H :    0.167446
  18 H :    0.168785
  19 H :    0.178278
  20 H :    0.177532
  21 H :    0.184635
  22 H :    0.183270
  23 H :    0.191389
  24 H :    0.172558

  Mayer bond orders larger than 0.100000
B(  0-C ,  1-C ) :   0.9015 B(  0-C , 12-H ) :   0.9844 B(  0-C , 13-H ) :   0.9711
B(  0-C , 14-H ) :   0.9591 B(  1-C ,  2-C ) :   1.8432 B(  1-C ,  3-C ) :   0.8156
B(  2-C , 15-H ) :   0.9843 B(  2-C , 16-H ) :   0.9683 B(  3-C ,  4-H ) :   0.9994
B(  3-C ,  5-C ) :   0.8372 B(  3-C ,  9-C ) :   0.9073 B(  5-C ,  6-C ) :   0.9008
B(  5-C , 17-H ) :   0.9744 B(  5-C , 18-H ) :   0.9819 B(  6-C ,  7-C ) :   0.8239
B(  6-C , 19-H ) :   0.9895 B(  6-C , 20-H ) :   0.9864 B(  7-C ,  8-C ) :   1.7456
B(  7-C , 10-C ) :   0.9783 B(  8-C ,  9-C ) :   0.9192 B(  8-C , 21-H ) :   0.9138
B(  9-C , 22-H ) :   0.9548 B(  9-C , 23-H ) :   0.9638 B( 10-C , 11-O ) :   1.8250
B( 10-C , 24-H ) :   1.0109

Dispersion correction           -0.008859284
FINAL SINGLE POINT ENERGY      -464.562949942012

DIPOLE MOMENT
-------------

Method             : SCF
Type of density    : Electron Density
Multiplicity       :   1
Irrep              :   0
Energy             :  -464.5635459851717997 Eh
Relativity type    :
Basis              : AO
                                X                 Y                 Z
Electronic contribution:    -10.817497999       0.816708853      -0.703549860
Nuclear contribution   :     12.663627585       0.440984699       0.916673081
                        -----------------------------------------
Total Dipole Moment    :      1.846129587       1.257693552       0.213123221
                        -----------------------------------------
Magnitude (a.u.)       :      2.243971709
Magnitude (Debye)      :      5.703722801

Rotational constants in cm-1:             0.099735             0.018038             0.017002
Rotational constants in MHz :          2989.966526           540.755215           509.718937

                             ****ORCA TERMINATED NORMALLY****
TOTAL RUN TIME: 0 days 0 hours 1 minutes 7 seconds 963 msec
