                         Program Version 6.0.0  -   RELEASE  -
|  1> ! pbe def2-sv(p) def2/J RI DEFGRID1 loosescf d4 GCP(DFT/SV(P)) printgap
|  2> %output
|  3>     printlevel normal
|  4> end
|  5> * xyz 0 1
|  6> C 2.0323217527 -0.1655996371 1.1983378522
|  7> C 1.4603473105 0.7636251208 0.1328695065
|  8> C 0.2628558443 0.1954527174 -0.6476410299
|  9> H -0.0602773134 0.9834709794 -1.3398949885
| 10> C 0.7040490825 -1.0097130398 -1.482681246
| 11> C -0.9419014261 -0.1532882982 0.2480672224
| 12> C -1.3771025564 1.0373080644 1.1038202389
| 13> C -2.1334342158 -0.6180518318 -0.5917380703
| 14> H 2.8959542149 0.3007874738 1.6675859538
| 15> H 1.299230679 -0.3739135597 1.9730293299
| 16> H 2.3522713335 -1.10748705 0.7615578364
| 17> H 2.2488533829 0.9930157521 -0.5887694879
| 18> H 1.1735655264 1.7075075213 0.5987242096
| 19> H 1.655330467 -0.8014749041 -1.9674250156
| 20> H 0.8217581165 -1.8914910111 -0.857577829
| 21> H -0.0221296907 -1.2346244834 -2.2584010191
| 22> H -0.6564576447 -0.9751606085 0.9129170472
| 23> H -0.6187070517 1.3051537958 1.8335142458
| 24> H -2.2887927457 0.7931317826 1.6448791924
| 25> H -1.5756104819 1.9025941728 0.4745673172
| 26> H -2.9975101409 -0.7852179157 0.0476753989
| 27> H -1.9167665273 -1.5475194358 -1.1094772975
| 28> H -2.3957483305 0.1385653079 -1.3285582974
| 29> *
| 30>
| 31>                          ****END OF INPUT****

CARTESIAN COORDINATES (ANGSTROEM)
---------------------------------
  C      2.032322   -0.165600    1.198338
  C      1.460347    0.763625    0.132870
  C      0.262856    0.195453   -0.647641
  H     -0.060277    0.983471   -1.339895
  C      0.704049   -1.009713   -1.482681
  C     -0.941901   -0.153288    0.248067
  C     -1.377103    1.037308    1.103820
  C     -2.133434   -0.618052   -0.591738
  H      2.895954    0.300787    1.667586
  H      1.299231   -0.373914    1.973029
  H      2.352271   -1.107487    0.761558
  H      2.248853    0.993016   -0.588769
  H      1.173566    1.707508    0.598724
  H      1.655330   -0.801475   -1.967425
  H      0.821758   -1.891491   -0.857578
  H     -0.022130   -1.234624   -2.258401
  H     -0.656458   -0.975161    0.912917
  H     -0.618707    1.305154    1.833514
  H     -2.288793    0.793132    1.644879
  H     -1.575610    1.902594    0.474567
  H     -2.997510   -0.785218    0.047675
  H     -1.916767   -1.547519   -1.109477
  H     -2.395748    0.138565   -1.328558

 Total Charge           Charge          ....    0
 Multiplicity           Mult            ....    1
 Number of Electrons    NEL             ....   58
 Basis Dimension        Dim             ....  130

ORBITAL ENERGIES
----------------

  NO   OCC          E(Eh)            E(eV)
   0   2.0000      -9.888604      -269.0826
   1   2.0000      -9.887188      -269.0441
   2   2.0000      -9.876920      -268.7646
   3   2.0000      -9.869145      -268.5531
   4   2.0000      -9.867953      -268.5207
   5   2.0000      -9.867663      -268.5128
   6   2.0000      -9.867422      -268.5062
   7   2.0000      -0.741486       -20.1769
   8   2.0000      -0.682214       -18.5640
   9   2.0000      -0.641250       -17.4493
  10   2.0000      -0.604533       -16.4502
  11   2.0000      -0.567142       -15.4327
  12   2.0000      -0.528449       -14.3798
  13   2.0000      -0.474174       -12.9029
  14   2.0000      -0.416412       -11.3311
  15   2.0000      -0.411597       -11.2001
  16   2.0000      -0.385635       -10.4937
  17   2.0000      -0.384205       -10.4547
  18   2.0000      -0.356468        -9.7000
  19   2.0000      -0.340602        -9.2682
  20   2.0000      -0.338672        -9.2157
  21   2.0000      -0.333528        -9.0758
  22   2.0000      -0.325759        -8.8644
  23   2.0000      -0.307098        -8.3566
  24   2.0000      -0.299098        -8.1389
  25   2.0000      -0.288529        -7.8513
  26   2.0000      -0.270842        -7.3700
  27   2.0000      -0.263174        -7.1613
  28   2.0000      -0.259721        -7.0674
  29   0.0000       0.032046         0.8720
  30   0.0000       0.056322         1.5326
  31   0.0000       0.062077         1.6892
  32   0.0000       0.069862         1.9010
  33   0.0000       0.089205         2.4274

MULLIKEN ATOMIC CHARGES
-----------------------
   0 C :   -0.295641
   1 C :   -0.154444
   2 C :   -0.127639
   3 H :    0.058793
   4 C :   -0.251500
   5 C :   -0.172460
   6 C :   -0.243839
   7 C :   -0.242300
   8 H :    0.101295
   9 H :    0.108862
  10 H :    0.101858
  11 H :    0.078585
  12 H :    0.084715
  13 H :    0.094488
  14 H :    0.100316
  15 H :    0.104649
  16 H :    0.072569
  17 H :    0.106932
  18 H :    0.094898
  19 H :    0.091681
  20 H :    0.095033
  21 H :    0.102946
  22 H :    0.090201
Sum of atomic charges:   -0.0000000

LOEWDIN ATOMIC CHARGES
----------------------
   0 C :   -0.343481
   1 C :   -0.227367
   2 C :   -0.143231
   3 H :    0.111762
   4 C :   -0.331975
   5 C :   -0.151571
   6 C :   -0.329892
   7 C :   -0.328578
   8 H :    0.120153
   9 H :    0.116551
  10 H :    0.117383
  11 H :    0.113572
  12 H :    0.112999
  13 H :    0.117015
  14 H :    0.116988
  15 H :    0.118487
  16 H :    0.112528
  17 H :    0.116244
  18 H :    0.116712
  19 H :    0.117006
  20 H :    0.116109
  21 H :    0.116618
  22 H :    0.115969

  Mayer bond orders larger than 0.100000
B(  0-C ,  1-C ) :   1.1520 B(  0-C ,  8-H ) :   0.9503 B(  0-C ,  9-H ) :   0.9452
B(  0-C , 10-H ) :   0.9509 B(  1-C ,  2-C ) :   1.0945 B(  1-C , 11-H ) :   0.9202
B(  1-C , 12-H ) :   0.9158 B(  2-C ,  3-H ) :   0.8892 B(  2-C ,  4-C ) :   1.1100
B(  2-C ,  5-C ) :   1.0449 B(  4-C , 13-H ) :   0.9475 B(  4-C , 14-H ) :   0.9429
B(  4-C , 15-H ) :   0.9423 B(  5-C ,  6-C ) :   1.1180 B(  5-C ,  7-C ) :   1.1147
B(  5-C , 16-H ) :   0.8892 B(  6-C , 17-H ) :   0.9394 B(  6-C , 18-H ) :   0.9484
B(  6-C , 19-H ) :   0.9481 B(  7-C , 20-H ) :   0.9491 B(  7-C , 21-H ) :   0.9441
B(  7-C , 22-H ) :   0.9489

Dispersion correction           -0.019504835
FINAL SINGLE POINT ENERGY      -275.659623632760

DIPOLE MOMENT
-------------

Method             : SCF
Type of density    : Electron Density
Multiplicity       :   1
Irrep              :   0
Energy             :  -275.7369992660990761 Eh
Relativity type    :
Basis              : AO
                                X                 Y                 Z
Electronic contribution:      0.089625730       0.555727455      -0.427415180
Nuclear contribution   :     -0.079777690      -0.556012804       0.435632070
                        -----------------------------------------
Total Dipole Moment    :      0.009848040      -0.000285350       0.008216890
                        -----------------------------------------
Magnitude (a.u.)       :      0.012828975
Magnitude (Debye)      :      0.032608663

Rotational constants in cm-1:             0.107814             0.065508             0.048333
Rotational constants in MHz :          3232.171450          1963.872353          1448.985349

                             ****ORCA TERMINATED NORMALLY****
TOTAL RUN TIME: 0 days 0 hours 0 minutes 10 seconds 197 msec
