                         Program Version 6.0.0  -   RELEASE  -
|  1> ! pbe def2-sv(p) def2/J RI DEFGRID1 loosescf d4 GCP(DFT/SV(P)) printgap
|  2> %output
|  3>     printlevel normal
|  4> end
|  5> * xyz 0 1
|  6> C -1.3909036865 0.0090235426 0.6621345519
|  7> C 0.1006683468 0.3277516349 0.4613435052
|  8> C 0.8311895594 -0.8258121128 -0.2336430408
|  9> O 2.1874020333 -0.7912668955 0.1538220686
| 10> O 0.2426532879 1.4807076538 -0.3479504007
| 11> O -2.038099187 -0.2748803213 -0.5553084156
| 12> H -1.8781702 0.8600154007 1.1585998767
| 13> H -1.5065906923 -0.8756980276 1.2895743409
| 14> H 0.5741582701 0.4759176809 1.4396313286
| 15> H 0.7289184174 -0.6958704584 -1.3164444558
| 16> H 0.3697430465 -1.776259719 0.060579293
| 17> H 2.6793666474 -1.4559104792 -0.3471044893
| 18> H 0.10842069 2.2757537167 0.1846102257
| 19> H -1.8274650301 0.4390048238 -1.176742544
| 20> *
| 21>
| 22>                          ****END OF INPUT****

CARTESIAN COORDINATES (ANGSTROEM)
---------------------------------
  C     -1.390904    0.009024    0.662135
  C      0.100668    0.327752    0.461344
  C      0.831190   -0.825812   -0.233643
  O      2.187402   -0.791267    0.153822
  O      0.242653    1.480708   -0.347950
  O     -2.038099   -0.274880   -0.555308
  H     -1.878170    0.860015    1.158600
  H     -1.506591   -0.875698    1.289574
  H      0.574158    0.475918    1.439631
  H      0.728918   -0.695870   -1.316444
  H      0.369743   -1.776260    0.060579
  H      2.679367   -1.455910   -0.347104
  H      0.108421    2.275754    0.184610
  H     -1.827465    0.439005   -1.176743

 Total Charge           Charge          ....    0
 Multiplicity           Mult            ....    1
 Number of Electrons    NEL             ....   50
 Basis Dimension        Dim             ....  100

ORBITAL ENERGIES
----------------

  NO   OCC          E(Eh)            E(eV)
   0   2.0000     -18.754917      -510.3472
   1   2.0000     -18.741053      -509.9700
   2   2.0000     -18.740697      -509.9603
   3   2.0000      -9.938511      -270.4406
   4   2.0000      -9.928037      -270.1556
   5   2.0000      -9.927291      -270.1353
   6   2.0000      -0.938887       -25.5484
   7   2.0000      -0.915485       -24.9116
   8   2.0000      -0.909071       -24.7371
   9   2.0000      -0.680735       -18.5237
  10   2.0000      -0.602956       -16.4073
  11   2.0000      -0.533089       -14.5061
  12   2.0000      -0.484116       -13.1735
  13   2.0000      -0.465316       -12.6619
  14   2.0000      -0.439079       -11.9479
  15   2.0000      -0.393523       -10.7083
  16   2.0000      -0.384998       -10.4763
  17   2.0000      -0.373598       -10.1661
  18   2.0000      -0.351277        -9.5587
  19   2.0000      -0.299868        -8.1598
  20   2.0000      -0.281949        -7.6722
  21   2.0000      -0.270978        -7.3737
  22   2.0000      -0.236952        -6.4478
  23   2.0000      -0.213610        -5.8126
  24   2.0000      -0.203655        -5.5417
  25   0.0000       0.016577         0.4511
  26   0.0000       0.032616         0.8875
  27   0.0000       0.059657         1.6234
  28   0.0000       0.075780         2.0621
  29   0.0000       0.091189         2.4814

MULLIKEN ATOMIC CHARGES
-----------------------
   0 C :    0.037567
   1 C :   -0.047485
   2 C :    0.050278
   3 O :   -0.437844
   4 O :   -0.425256
   5 O :   -0.442825
   6 H :    0.061102
   7 H :    0.086941
   8 H :    0.074848
   9 H :    0.073226
  10 H :    0.075407
  11 H :    0.298139
  12 H :    0.300900
  13 H :    0.295004
Sum of atomic charges:   -0.0000000

LOEWDIN ATOMIC CHARGES
----------------------
   0 C :   -0.134887
   1 C :   -0.090512
   2 C :   -0.123990
   3 O :   -0.346442
   4 O :   -0.327501
   5 O :   -0.341889
   6 H :    0.089020
   7 H :    0.113455
   8 H :    0.109124
   9 H :    0.103668
  10 H :    0.099300
  11 H :    0.284888
  12 H :    0.287663
  13 H :    0.278103

  Mayer bond orders larger than 0.100000
B(  0-C ,  1-C ) :   1.0377 B(  0-C ,  5-O ) :   1.0634 B(  0-C ,  6-H ) :   0.9193
B(  0-C ,  7-H ) :   0.9154 B(  1-C ,  2-C ) :   1.0437 B(  1-C ,  4-O ) :   1.0506
B(  1-C ,  8-H ) :   0.8978 B(  2-C ,  3-O ) :   1.0913 B(  2-C ,  9-H ) :   0.9045
B(  2-C , 10-H ) :   0.9279 B(  3-O , 11-H ) :   0.8528 B(  4-O , 12-H ) :   0.8513
B(  5-O , 13-H ) :   0.8384

Dispersion correction           -0.009134189
FINAL SINGLE POINT ENERGY      -344.005450667358

DIPOLE MOMENT
-------------

Method             : SCF
Type of density    : Electron Density
Multiplicity       :   1
Irrep              :   0
Energy             :  -344.0784373457324818 Eh
Relativity type    :
Basis              : AO
                                X                 Y                 Z
Electronic contribution:      0.860659745       0.925024357      -1.041728494
Nuclear contribution   :     -0.699327724      -0.700331929       1.201649943
                        -----------------------------------------
Total Dipole Moment    :      0.161332021       0.224692428       0.159921448
                        -----------------------------------------
Magnitude (a.u.)       :      0.319514597
Magnitude (Debye)      :      0.812141564

Rotational constants in cm-1:             0.193369             0.075699             0.064325
Rotational constants in MHz :          5797.062039          2269.409804          1928.401048

                             ****ORCA TERMINATED NORMALLY****
TOTAL RUN TIME: 0 days 0 hours 0 minutes 6 seconds 849 msec
