                         Program Version 6.0.0  -   RELEASE  -
|  1> ! pbe def2-sv(p) def2/J RI DEFGRID1 loosescf d4 GCP(DFT/SV(P)) printgap
|  2> %output
|  3>     printlevel normal
|  4> end
|  5> * xyz 0 1
|  6> C 1.4543754789 -1.3958738098 -0.103171322
|  7> C 1.0838041674 0.0169925546 0.3438273089
|  8> C 2.1831697606 0.9973064171 -0.0643608711
|  9> C -0.2554322331 0.4674564425 -0.2490981005
| 10> C -1.4523962319 -0.3297547936 0.2714370545
| 11> O -2.6898023925 0.2468338065 -0.0975962914
| 12> H 0.7311215968 -2.1228176233 0.2556627018
| 13> H 2.4310260623 -1.6681666506 0.2896089525
| 14> H 1.4949366647 -1.4509050612 -1.188778574
| 15> H 0.9974545116 0.0264108856 1.4361636363
| 16> H 2.2919977512 1.0136836525 -1.1464922308
| 17> H 3.134832591 0.7041380533 0.3717419637
| 18> H 1.9468153272 2.0034460887 0.2731155731
| 19> H -0.2110698763 0.3880826533 -1.3381773907
| 20> H -0.4223853225 1.5170224184 0.0050269279
| 21> H -1.4101603645 -1.3691429463 -0.0776001205
| 22> H -1.453425954 -0.3331212786 1.3645875078
| 23> H -2.7449297088 0.2793329706 -1.0627096345
| 24> *
| 25>
| 26>                          ****END OF INPUT****

CARTESIAN COORDINATES (ANGSTROEM)
---------------------------------
  C      1.454375   -1.395874   -0.103171
  C      1.083804    0.016993    0.343827
  C      2.183170    0.997306   -0.064361
  C     -0.255432    0.467456   -0.249098
  C     -1.452396   -0.329755    0.271437
  O     -2.689802    0.246834   -0.097596
  H      0.731122   -2.122818    0.255663
  H      2.431026   -1.668167    0.289609
  H      1.494937   -1.450905   -1.188779
  H      0.997455    0.026411    1.436164
  H      2.291998    1.013684   -1.146492
  H      3.134833    0.704138    0.371742
  H      1.946815    2.003446    0.273116
  H     -0.211070    0.388083   -1.338177
  H     -0.422385    1.517022    0.005027
  H     -1.410160   -1.369143   -0.077600
  H     -1.453426   -0.333121    1.364588
  H     -2.744930    0.279333   -1.062710

 Total Charge           Charge          ....    0
 Multiplicity           Mult            ....    1
 Number of Electrons    NEL             ....   50
 Basis Dimension        Dim             ....  108

ORBITAL ENERGIES
----------------

  NO   OCC          E(Eh)            E(eV)
   0   2.0000     -18.735454      -509.8176
   1   2.0000      -9.924711      -270.0651
   2   2.0000      -9.897819      -269.3333
   3   2.0000      -9.881569      -268.8912
   4   2.0000      -9.875056      -268.7139
   5   2.0000      -9.873369      -268.6680
   6   2.0000      -0.912128       -24.8203
   7   2.0000      -0.733243       -19.9526
   8   2.0000      -0.647152       -17.6099
   9   2.0000      -0.612684       -16.6720
  10   2.0000      -0.559695       -15.2301
  11   2.0000      -0.502287       -13.6679
  12   2.0000      -0.449123       -12.2213
  13   2.0000      -0.423926       -11.5356
  14   2.0000      -0.399966       -10.8836
  15   2.0000      -0.381509       -10.3814
  16   2.0000      -0.368366       -10.0237
  17   2.0000      -0.344191        -9.3659
  18   2.0000      -0.338097        -9.2001
  19   2.0000      -0.318430        -8.6649
  20   2.0000      -0.300877        -8.1873
  21   2.0000      -0.286570        -7.7980
  22   2.0000      -0.286093        -7.7850
  23   2.0000      -0.265105        -7.2139
  24   2.0000      -0.206744        -5.6258
  25   0.0000       0.031256         0.8505
  26   0.0000       0.036308         0.9880
  27   0.0000       0.061081         1.6621
  28   0.0000       0.071881         1.9560
  29   0.0000       0.086533         2.3547

MULLIKEN ATOMIC CHARGES
-----------------------
   0 C :   -0.254669
   1 C :   -0.194955
   2 C :   -0.230243
   3 C :   -0.176669
   4 C :    0.027176
   5 O :   -0.436379
   6 H :    0.107807
   7 H :    0.099348
   8 H :    0.091782
   9 H :    0.074925
  10 H :    0.091056
  11 H :    0.097831
  12 H :    0.098852
  13 H :    0.065993
  14 H :    0.086702
  15 H :    0.076907
  16 H :    0.082857
  17 H :    0.291678
Sum of atomic charges:    0.0000000

LOEWDIN ATOMIC CHARGES
----------------------
   0 C :   -0.332194
   1 C :   -0.157198
   2 C :   -0.328047
   3 C :   -0.243876
   4 C :   -0.123491
   5 O :   -0.343587
   6 H :    0.116302
   7 H :    0.118606
   8 H :    0.116421
   9 H :    0.114828
  10 H :    0.116109
  11 H :    0.116658
  12 H :    0.117244
  13 H :    0.108039
  14 H :    0.118084
  15 H :    0.094261
  16 H :    0.111784
  17 H :    0.280060

  Mayer bond orders larger than 0.100000
B(  0-C ,  1-C ) :   1.1014 B(  0-C ,  6-H ) :   0.9472 B(  0-C ,  7-H ) :   0.9495
B(  0-C ,  8-H ) :   0.9503 B(  1-C ,  2-C ) :   1.1116 B(  1-C ,  3-C ) :   1.0661
B(  1-C ,  9-H ) :   0.9039 B(  2-C , 10-H ) :   0.9502 B(  2-C , 11-H ) :   0.9506
B(  2-C , 12-H ) :   0.9501 B(  3-C ,  4-C ) :   1.1121 B(  3-C , 13-H ) :   0.9119
B(  3-C , 14-H ) :   0.9146 B(  4-C ,  5-O ) :   1.0621 B(  4-C , 15-H ) :   0.9221
B(  4-C , 16-H ) :   0.9251 B(  5-O , 17-H ) :   0.8567

Dispersion correction           -0.012593722
FINAL SINGLE POINT ENERGY      -272.300160673379

DIPOLE MOMENT
-------------

Method             : SCF
Type of density    : Electron Density
Multiplicity       :   1
Irrep              :   0
Energy             :  -272.3698125028541881 Eh
Relativity type    :
Basis              : AO
                                X                 Y                 Z
Electronic contribution:     -5.901550197       0.790088722       0.363222882
Nuclear contribution   :      6.326660589      -0.945793026      -0.768726141
                        -----------------------------------------
Total Dipole Moment    :      0.425110392      -0.155704304      -0.405503259
                        -----------------------------------------
Magnitude (a.u.)       :      0.607779211
Magnitude (Debye)      :      1.544851982

Rotational constants in cm-1:             0.230263             0.057603             0.049671
Rotational constants in MHz :          6903.112598          1726.897550          1489.106426

                             ****ORCA TERMINATED NORMALLY****
TOTAL RUN TIME: 0 days 0 hours 0 minutes 7 seconds 999 msec
