                         Program Version 6.0.0  -   RELEASE  -
|  1> ! r2scan-3c def2/J RI DEFGRID2 scfconv6 printgap
|  2> %output
|  3>     printlevel normal
|  4> end
|  5> * xyz 0 1
|  6> C 0.2195431366 -0.0635448979 -0.5495403603
|  7> H 0.1486231366 0.213472227 -1.6097844357
|  8> C 1.5577232563 0.4260456215 0.0228847192
|  9> F 2.5906848376 -0.056293883 -0.6699458584
| 10> F 1.7305141984 0.0758019351 1.2939822176
| 11> F 1.6395955852 1.7586111903 -0.0370697673
| 12> O -0.77124872 0.50982982 0.2326185845
| 13> C -2.0666046368 0.3658100184 -0.1815524633
| 14> F -2.7424966782 1.4568993943 0.2055670591
| 15> F -2.6555102309 -0.6774400984 0.4471787433
| 16> Cl 0.202596863 -1.8598217294 -0.4475858211
| 17> H -2.1924297654 0.224761658 -1.2673510632
| 18> *
| 19>
| 20>                          ****END OF INPUT****

CARTESIAN COORDINATES (ANGSTROEM)
---------------------------------
  C      0.219543   -0.063545   -0.549540
  H      0.148623    0.213472   -1.609784
  C      1.557723    0.426046    0.022885
  F      2.590685   -0.056294   -0.669946
  F      1.730514    0.075802    1.293982
  F      1.639596    1.758611   -0.037070
  O     -0.771249    0.509830    0.232619
  C     -2.066605    0.365810   -0.181552
  F     -2.742497    1.456899    0.205567
  F     -2.655510   -0.677440    0.447179
  Cl     0.202597   -1.859822   -0.447586
  H     -2.192430    0.224762   -1.267351

 Total Charge           Charge          ....    0
 Multiplicity           Mult            ....    1
 Number of Electrons    NEL             ....   90
 Basis Dimension        Dim             ....  238

ORBITAL ENERGIES
----------------

  NO   OCC          E(Eh)            E(eV)
   0   2.0000    -101.242525     -2754.9492
   1   2.0000     -24.542548      -667.8367
   2   2.0000     -24.541754      -667.8151
   3   2.0000     -24.539724      -667.7598
   4   2.0000     -24.527052      -667.4150
   5   2.0000     -24.519184      -667.2009
   6   2.0000     -19.047212      -518.3010
   7   2.0000     -10.312470      -280.6166
   8   2.0000     -10.276587      -279.6401
   9   2.0000     -10.211748      -277.8758
  10   2.0000      -9.398341      -255.7419
  11   2.0000      -7.145012      -194.4257
  12   2.0000      -7.134303      -194.1343
  13   2.0000      -7.134051      -194.1274
  14   2.0000      -1.304763       -35.5044
  15   2.0000      -1.260263       -34.2935
  16   2.0000      -1.212777       -33.0013
  17   2.0000      -1.211658       -32.9709
  18   2.0000      -1.188378       -32.3374
  19   2.0000      -1.102029       -29.9877
  20   2.0000      -0.860522       -23.4160
  21   2.0000      -0.761202       -20.7134
  22   2.0000      -0.691789       -18.8245
  23   2.0000      -0.649545       -17.6750
  24   2.0000      -0.597179       -16.2501
  25   2.0000      -0.588883       -16.0243
  26   2.0000      -0.580839       -15.8054
  27   2.0000      -0.559060       -15.2128
  28   2.0000      -0.552289       -15.0285
  29   2.0000      -0.535777       -14.5792
  30   2.0000      -0.479133       -13.0379
  31   2.0000      -0.451454       -12.2847
  32   2.0000      -0.448493       -12.2041
  33   2.0000      -0.427660       -11.6372
  34   2.0000      -0.426995       -11.6191
  35   2.0000      -0.410703       -11.1758
  36   2.0000      -0.409247       -11.1362
  37   2.0000      -0.405517       -11.0347
  38   2.0000      -0.388963       -10.5842
  39   2.0000      -0.387486       -10.5440
  40   2.0000      -0.385299       -10.4845
  41   2.0000      -0.356612        -9.7039
  42   2.0000      -0.335021        -9.1164
  43   2.0000      -0.311876        -8.4866
  44   2.0000      -0.308005        -8.3812
  45   0.0000      -0.042383        -1.1533
  46   0.0000       0.021332         0.5805
  47   0.0000       0.056599         1.5401
  48   0.0000       0.064716         1.7610
  49   0.0000       0.081232         2.2104

MULLIKEN ATOMIC CHARGES
-----------------------
   0 C :   -0.014322
   1 H :    0.177910
   2 C :    0.549310
   3 F :   -0.192161
   4 F :   -0.186403
   5 F :   -0.190156
   6 O :   -0.107017
   7 C :    0.397961
   8 F :   -0.214939
   9 F :   -0.218922
  10 Cl:   -0.112585
  11 H :    0.111324
Sum of atomic charges:    0.0000000

LOEWDIN ATOMIC CHARGES
----------------------
   0 C :    0.045467
   1 H :    0.198613
   2 C :    0.499418
   3 F :   -0.195019
   4 F :   -0.175838
   5 F :   -0.183209
   6 O :   -0.592775
   7 C :    0.494625
   8 F :   -0.202027
   9 F :   -0.222418
  10 Cl:    0.155280
  11 H :    0.177884

  Mayer bond orders larger than 0.100000
B(  0-C ,  1-H ) :   0.9067 B(  0-C ,  2-C ) :   1.0035 B(  0-C ,  6-O ) :   0.9487
B(  0-C , 10-Cl) :   1.0132 B(  2-C ,  3-F ) :   1.0276 B(  2-C ,  4-F ) :   1.0608
B(  2-C ,  5-F ) :   1.0325 B(  6-O ,  7-C ) :   1.0327 B(  7-C ,  8-F ) :   1.0536
B(  7-C ,  9-F ) :   0.9987 B(  7-C , 11-H ) :   0.9485

Dispersion correction           -0.003393577
FINAL SINGLE POINT ENERGY     -1150.112500051712

DIPOLE MOMENT
-------------

Method             : SCF
Type of density    : Electron Density
Multiplicity       :   1
Irrep              :   0
Energy             : -1150.1290401665974059 Eh
Relativity type    :
Basis              : AO
                                X                 Y                 Z
Electronic contribution:      2.584863374      -0.465333891       2.219114235
Nuclear contribution   :     -2.722228451       0.545239261      -3.243724472
                        -----------------------------------------
Total Dipole Moment    :     -0.137365076       0.079905370      -1.024610237
                        -----------------------------------------
Magnitude (a.u.)       :      1.036860728
Magnitude (Debye)      :      2.635490526

Rotational constants in cm-1:             0.056478             0.025338             0.019731
Rotational constants in MHz :          1693.174086           759.621681           591.528490

                             ****ORCA TERMINATED NORMALLY****
TOTAL RUN TIME: 0 days 0 hours 0 minutes 25 seconds 333 msec
