                         Program Version 6.0.0  -   RELEASE  -
|  1> ! r2scan-3c def2/J RI DEFGRID2 scfconv6 printgap
|  2> %output
|  3>     printlevel normal
|  4> end
|  5> %cpcm
|  6>     smd true
|  7>     smdsolvent "water"
|  8> end
|  9> * xyz 0 1
| 10> C 0.2195431366 -0.0635448979 -0.5495403603
| 11> H 0.1486231366 0.213472227 -1.6097844357
| 12> C 1.5577232563 0.4260456215 0.0228847192
| 13> F 2.5906848376 -0.056293883 -0.6699458584
| 14> F 1.7305141984 0.0758019351 1.2939822176
| 15> F 1.6395955852 1.7586111903 -0.0370697673
| 16> O -0.77124872 0.50982982 0.2326185845
| 17> C -2.0666046368 0.3658100184 -0.1815524633
| 18> F -2.7424966782 1.4568993943 0.2055670591
| 19> F -2.6555102309 -0.6774400984 0.4471787433
| 20> Cl 0.202596863 -1.8598217294 -0.4475858211
| 21> H -2.1924297654 0.224761658 -1.2673510632
| 22> *
| 23>
| 24>                          ****END OF INPUT****

CARTESIAN COORDINATES (ANGSTROEM)
---------------------------------
  C      0.219543   -0.063545   -0.549540
  H      0.148623    0.213472   -1.609784
  C      1.557723    0.426046    0.022885
  F      2.590685   -0.056294   -0.669946
  F      1.730514    0.075802    1.293982
  F      1.639596    1.758611   -0.037070
  O     -0.771249    0.509830    0.232619
  C     -2.066605    0.365810   -0.181552
  F     -2.742497    1.456899    0.205567
  F     -2.655510   -0.677440    0.447179
  Cl     0.202597   -1.859822   -0.447586
  H     -2.192430    0.224762   -1.267351

 Total Charge           Charge          ....    0
 Multiplicity           Mult            ....    1
 Number of Electrons    NEL             ....   90
 Basis Dimension        Dim             ....  238

ORBITAL ENERGIES
----------------

  NO   OCC          E(Eh)            E(eV)
   0   2.0000    -101.233435     -2754.7018
   1   2.0000     -24.537881      -667.7097
   2   2.0000     -24.537269      -667.6930
   3   2.0000     -24.536296      -667.6666
   4   2.0000     -24.518872      -667.1924
   5   2.0000     -24.512597      -667.0217
   6   2.0000     -19.034250      -517.9483
   7   2.0000     -10.305873      -280.4371
   8   2.0000     -10.258860      -279.1578
   9   2.0000     -10.193431      -277.3774
  10   2.0000      -9.389436      -255.4996
  11   2.0000      -7.135883      -194.1773
  12   2.0000      -7.125525      -193.8954
  13   2.0000      -7.125214      -193.8869
  14   2.0000      -1.300554       -35.3899
  15   2.0000      -1.252243       -34.0753
  16   2.0000      -1.209519       -32.9127
  17   2.0000      -1.207154       -32.8483
  18   2.0000      -1.181657       -32.1545
  19   2.0000      -1.088714       -29.6254
  20   2.0000      -0.849402       -23.1134
  21   2.0000      -0.750591       -20.4246
  22   2.0000      -0.682985       -18.5850
  23   2.0000      -0.636860       -17.3298
  24   2.0000      -0.587552       -15.9881
  25   2.0000      -0.580859       -15.8060
  26   2.0000      -0.574414       -15.6306
  27   2.0000      -0.549171       -14.9437
  28   2.0000      -0.543648       -14.7934
  29   2.0000      -0.521404       -14.1881
  30   2.0000      -0.467796       -12.7294
  31   2.0000      -0.447972       -12.1899
  32   2.0000      -0.444052       -12.0833
  33   2.0000      -0.421758       -11.4766
  34   2.0000      -0.419304       -11.4098
  35   2.0000      -0.406630       -11.0650
  36   2.0000      -0.403821       -10.9885
  37   2.0000      -0.399333       -10.8664
  38   2.0000      -0.385562       -10.4917
  39   2.0000      -0.380209       -10.3460
  40   2.0000      -0.377644       -10.2762
  41   2.0000      -0.342844        -9.3292
  42   2.0000      -0.323568        -8.8047
  43   2.0000      -0.304294        -8.2803
  44   2.0000      -0.297871        -8.1055
  45   0.0000      -0.030473        -0.8292
  46   0.0000       0.038945         1.0597
  47   0.0000       0.082437         2.2432
  48   0.0000       0.084651         2.3035
  49   0.0000       0.106853         2.9076

MULLIKEN ATOMIC CHARGES
-----------------------
   0 C :   -0.004246
   1 H :    0.248756
   2 C :    0.537688
   3 F :   -0.196290
   4 F :   -0.194776
   5 F :   -0.194115
   6 O :   -0.118476
   7 C :    0.368207
   8 F :   -0.233052
   9 F :   -0.238369
  10 Cl:   -0.150053
  11 H :    0.174726
Sum of atomic charges:    0.0000000

LOEWDIN ATOMIC CHARGES
----------------------
   0 C :    0.058152
   1 H :    0.226889
   2 C :    0.498309
   3 F :   -0.197512
   4 F :   -0.186213
   5 F :   -0.185225
   6 O :   -0.600856
   7 C :    0.497747
   8 F :   -0.213643
   9 F :   -0.237489
  10 Cl:    0.135418
  11 H :    0.204422

  Mayer bond orders larger than 0.100000
B(  0-C ,  1-H ) :   0.8886 B(  0-C ,  2-C ) :   1.0033 B(  0-C ,  6-O ) :   0.9581
B(  0-C , 10-Cl) :   0.9622 B(  2-C ,  3-F ) :   1.0292 B(  2-C ,  4-F ) :   1.0491
B(  2-C ,  5-F ) :   1.0369 B(  6-O ,  7-C ) :   1.0317 B(  7-C ,  8-F ) :   1.0436
B(  7-C ,  9-F ) :   0.9815 B(  7-C , 11-H ) :   0.9432

Dispersion correction           -0.003393577
FINAL SINGLE POINT ENERGY     -1150.116834463754

DIPOLE MOMENT
-------------

Method             : SCF
Type of density    : Electron Density
Multiplicity       :   1
Irrep              :   0
Energy             : -1150.1333745786391773 Eh
Relativity type    :
Basis              : AO
                                X                 Y                 Z
Electronic contribution:      2.529946273      -0.345513065       1.748321420
Nuclear contribution   :     -2.722228451       0.545239261      -3.243724472
                        -----------------------------------------
Total Dipole Moment    :     -0.192282178       0.199726196      -1.495403052
                        -----------------------------------------
Magnitude (a.u.)       :      1.520885688
Magnitude (Debye)      :      3.865784200

Rotational constants in cm-1:             0.056478             0.025338             0.019731
Rotational constants in MHz :          1693.174086           759.621681           591.528490

                             ****ORCA TERMINATED NORMALLY****
TOTAL RUN TIME: 0 days 0 hours 0 minutes 34 seconds 418 msec
