                         Program Version 6.0.0  -   RELEASE  -
|  1> ! pbe def2-sv(p) def2/J RI DEFGRID1 loosescf d4 GCP(DFT/SV(P)) printgap
|  2> %output
|  3>     printlevel normal
|  4> end
|  5> * xyz 0 1
|  6> C -1.2601578926 0.2461342516 -0.2119836279
|  7> C 0.1368203679 0.6663965457 0.2866851092
|  8> C 1.2305621372 -0.2120403285 -0.3417009701
|  9> O 1.1868081558 -1.5432047196 0.1031997912
| 10> O 0.4227790748 1.9984857726 -0.074615653
| 11> O -1.6005411568 -1.0694038282 0.1636986771
| 12> H -1.2676324467 0.2638784296 -1.3050938293
| 13> H -2.0103021236 0.9610064077 0.148320676
| 14> H 0.1883340549 0.5420136877 1.3803451147
| 15> H 2.2077084923 0.183136688 -0.0542080844
| 16> H 1.1435048776 -0.1551984999 -1.4351265204
| 17> H 0.2961984496 -1.8913080873 -0.0770482814
| 18> H -0.2027230062 2.5975802379 0.3574756718
| 19> H -1.7763804718 -1.10004146 1.1147572691
| 20> *
| 21>
| 22>                          ****END OF INPUT****

CARTESIAN COORDINATES (ANGSTROEM)
---------------------------------
  C     -1.260158    0.246134   -0.211984
  C      0.136820    0.666397    0.286685
  C      1.230562   -0.212040   -0.341701
  O      1.186808   -1.543205    0.103200
  O      0.422779    1.998486   -0.074616
  O     -1.600541   -1.069404    0.163699
  H     -1.267632    0.263878   -1.305094
  H     -2.010302    0.961006    0.148321
  H      0.188334    0.542014    1.380345
  H      2.207708    0.183137   -0.054208
  H      1.143505   -0.155198   -1.435127
  H      0.296198   -1.891308   -0.077048
  H     -0.202723    2.597580    0.357476
  H     -1.776380   -1.100041    1.114757

 Total Charge           Charge          ....    0
 Multiplicity           Mult            ....    1
 Number of Electrons    NEL             ....   50
 Basis Dimension        Dim             ....  100

ORBITAL ENERGIES
----------------

  NO   OCC          E(Eh)            E(eV)
   0   2.0000     -18.773674      -510.8576
   1   2.0000     -18.757113      -510.4070
   2   2.0000     -18.729544      -509.6568
   3   2.0000      -9.943403      -270.5738
   4   2.0000      -9.940642      -270.4986
   5   2.0000      -9.921844      -269.9871
   6   2.0000      -0.950205       -25.8564
   7   2.0000      -0.931461       -25.3463
   8   2.0000      -0.905528       -24.6407
   9   2.0000      -0.679454       -18.4889
  10   2.0000      -0.611376       -16.6364
  11   2.0000      -0.543193       -14.7810
  12   2.0000      -0.490415       -13.3449
  13   2.0000      -0.470822       -12.8117
  14   2.0000      -0.450225       -12.2513
  15   2.0000      -0.403655       -10.9840
  16   2.0000      -0.385893       -10.5007
  17   2.0000      -0.368255       -10.0207
  18   2.0000      -0.350261        -9.5311
  19   2.0000      -0.310345        -8.4449
  20   2.0000      -0.295441        -8.0393
  21   2.0000      -0.281889        -7.6706
  22   2.0000      -0.243542        -6.6271
  23   2.0000      -0.220291        -5.9944
  24   2.0000      -0.201773        -5.4905
  25   0.0000       0.008675         0.2361
  26   0.0000       0.014107         0.3839
  27   0.0000       0.060734         1.6527
  28   0.0000       0.085026         2.3137
  29   0.0000       0.092686         2.5221

MULLIKEN ATOMIC CHARGES
-----------------------
   0 C :    0.005094
   1 C :   -0.042212
   2 C :    0.054358
   3 O :   -0.450940
   4 O :   -0.417775
   5 O :   -0.432492
   6 H :    0.095581
   7 H :    0.071890
   8 H :    0.055219
   9 H :    0.093642
  10 H :    0.068540
  11 H :    0.292650
  12 H :    0.299433
  13 H :    0.307012
Sum of atomic charges:    0.0000000

LOEWDIN ATOMIC CHARGES
----------------------
   0 C :   -0.143568
   1 C :   -0.102806
   2 C :   -0.121599
   3 O :   -0.346533
   4 O :   -0.320402
   5 O :   -0.322357
   6 H :    0.118216
   7 H :    0.093780
   8 H :    0.091950
   9 H :    0.115329
  10 H :    0.096007
  11 H :    0.267472
  12 H :    0.285083
  13 H :    0.289425

  Mayer bond orders larger than 0.100000
B(  0-C ,  1-C ) :   1.0141 B(  0-C ,  5-O ) :   1.0335 B(  0-C ,  6-H ) :   0.9181
B(  0-C ,  7-H ) :   0.9268 B(  1-C ,  2-C ) :   1.0307 B(  1-C ,  4-O ) :   1.0494
B(  1-C ,  8-H ) :   0.9018 B(  2-C ,  3-O ) :   1.0907 B(  2-C ,  9-H ) :   0.9256
B(  2-C , 10-H ) :   0.9148 B(  3-O , 11-H ) :   0.8167 B(  4-O , 12-H ) :   0.8479
B(  5-O , 13-H ) :   0.8434

Dispersion correction           -0.009319202
FINAL SINGLE POINT ENERGY      -344.008947936371

DIPOLE MOMENT
-------------

Method             : SCF
Type of density    : Electron Density
Multiplicity       :   1
Irrep              :   0
Energy             :  -344.0833866485036197 Eh
Relativity type    :
Basis              : AO
                                X                 Y                 Z
Electronic contribution:      0.253484992      -0.687134685       0.466163349
Nuclear contribution   :     -1.333284131       1.305323594       0.124275946
                        -----------------------------------------
Total Dipole Moment    :     -1.079799139       0.618188909       0.590439295
                        -----------------------------------------
Magnitude (a.u.)       :      1.377222665
Magnitude (Debye)      :      3.500621815

Rotational constants in cm-1:             0.131108             0.111335             0.064954
Rotational constants in MHz :          3930.517366          3337.740676          1947.280577

                             ****ORCA TERMINATED NORMALLY****
TOTAL RUN TIME: 0 days 0 hours 0 minutes 6 seconds 640 msec
