                         Program Version 6.0.0  -   RELEASE  -
|  1> ! pbe def2-sv(p) def2/J RI DEFGRID1 loosescf d4 GCP(DFT/SV(P)) printgap
|  2> %output
|  3>     printlevel normal
|  4> end
|  5> * xyz 0 1
|  6> C -2.0442973848 1.1928677127 0.7474547581
|  7> C -1.9466755888 -0.0200847289 -0.1670583752
|  8> C -0.5443726712 -0.5309834238 -0.3805363953
|  9> O -0.2722696647 -1.4256716283 -1.1603066251
| 10> O 0.3531925379 0.085054388 0.368202294
| 11> C 1.7350598739 -0.2957759884 0.2638499
| 12> C 2.5958190297 0.9544649991 0.3063540461
| 13> H -3.0836709119 1.4927868629 0.8446174569
| 14> H -1.6520982745 0.9610629181 1.733407636
| 15> H -1.47662504 2.024978451 0.34091395
| 16> H -2.3588264332 0.1976049023 -1.1545673639
| 17> H -2.5236380687 -0.8552334362 0.2375771928
| 18> H 1.9541014734 -0.9528484209 1.1105875747
| 19> H 1.8729565634 -0.8550667497 -0.6670039851
| 20> H 3.6420058794 0.6694658327 0.2678196066
| 21> H 2.3710119027 1.5971741548 -0.5402427872
| 22> H 2.406814472 1.5032913308 1.2240096087
| 23> *
| 24>
| 25>                          ****END OF INPUT****

CARTESIAN COORDINATES (ANGSTROEM)
---------------------------------
  C     -2.044297    1.192868    0.747455
  C     -1.946676   -0.020085   -0.167058
  C     -0.544373   -0.530983   -0.380536
  O     -0.272270   -1.425672   -1.160307
  O      0.353193    0.085054    0.368202
  C      1.735060   -0.295776    0.263850
  C      2.595819    0.954465    0.306354
  H     -3.083671    1.492787    0.844617
  H     -1.652098    0.961063    1.733408
  H     -1.476625    2.024978    0.340914
  H     -2.358826    0.197605   -1.154567
  H     -2.523638   -0.855233    0.237577
  H      1.954101   -0.952848    1.110588
  H      1.872957   -0.855067   -0.667004
  H      3.642006    0.669466    0.267820
  H      2.371012    1.597174   -0.540243
  H      2.406814    1.503291    1.224010

 Total Charge           Charge          ....    0
 Multiplicity           Mult            ....    1
 Number of Electrons    NEL             ....   56
 Basis Dimension        Dim             ....  118

ORBITAL ENERGIES
----------------

  NO   OCC          E(Eh)            E(eV)
   0   2.0000     -18.798923      -511.5447
   1   2.0000     -18.727508      -509.6014
   2   2.0000     -10.001587      -272.1570
   3   2.0000      -9.944980      -270.6167
   4   2.0000      -9.898071      -269.3402
   5   2.0000      -9.889204      -269.0989
   6   2.0000      -9.879938      -268.8468
   7   2.0000      -1.004432       -27.3320
   8   2.0000      -0.904035       -24.6001
   9   2.0000      -0.722015       -19.6470
  10   2.0000      -0.686732       -18.6869
  11   2.0000      -0.599035       -16.3006
  12   2.0000      -0.566296       -15.4097
  13   2.0000      -0.505273       -13.7492
  14   2.0000      -0.450635       -12.2624
  15   2.0000      -0.436110       -11.8672
  16   2.0000      -0.410792       -11.1782
  17   2.0000      -0.399027       -10.8581
  18   2.0000      -0.372980       -10.1493
  19   2.0000      -0.362510        -9.8644
  20   2.0000      -0.352169        -9.5830
  21   2.0000      -0.339285        -9.2324
  22   2.0000      -0.330531        -8.9942
  23   2.0000      -0.319178        -8.6853
  24   2.0000      -0.303212        -8.2508
  25   2.0000      -0.291486        -7.9317
  26   2.0000      -0.252325        -6.8661
  27   2.0000      -0.212826        -5.7913
  28   0.0000      -0.016079        -0.4375
  29   0.0000       0.036049         0.9809
  30   0.0000       0.052397         1.4258
  31   0.0000       0.078997         2.1496
  32   0.0000       0.088685         2.4132

MULLIKEN ATOMIC CHARGES
-----------------------
   0 C :   -0.254687
   1 C :   -0.210899
   2 C :    0.116322
   3 O :   -0.216426
   4 O :   -0.236755
   5 C :   -0.029383
   6 C :   -0.284856
   7 H :    0.100925
   8 H :    0.107194
   9 H :    0.105299
  10 H :    0.118877
  11 H :    0.121765
  12 H :    0.104130
  13 H :    0.117830
  14 H :    0.112234
  15 H :    0.113860
  16 H :    0.114570
Sum of atomic charges:   -0.0000000

LOEWDIN ATOMIC CHARGES
----------------------
   0 C :   -0.343045
   1 C :   -0.256169
   2 C :    0.033155
   3 O :   -0.179401
   4 O :   -0.060795
   5 C :   -0.112442
   6 C :   -0.351226
   7 H :    0.120757
   8 H :    0.121863
   9 H :    0.121177
  10 H :    0.142386
  11 H :    0.144288
  12 H :    0.116638
  13 H :    0.121060
  14 H :    0.130263
  15 H :    0.126051
  16 H :    0.125441

  Mayer bond orders larger than 0.100000
B(  0-C ,  1-C ) :   1.1513 B(  0-C ,  7-H ) :   0.9445 B(  0-C ,  8-H ) :   0.9525
B(  0-C ,  9-H ) :   0.9573 B(  1-C ,  2-C ) :   1.0294 B(  1-C , 10-H ) :   0.9076
B(  1-C , 11-H ) :   0.9033 B(  2-C ,  3-O ) :   2.0520 B(  2-C ,  4-O ) :   1.2274
B(  4-O ,  5-C ) :   0.9092 B(  5-C ,  6-C ) :   1.1621 B(  5-C , 12-H ) :   0.9358
B(  5-C , 13-H ) :   0.9103 B(  6-C , 14-H ) :   0.9448 B(  6-C , 15-H ) :   0.9521
B(  6-C , 16-H ) :   0.9494

Dispersion correction           -0.011782788
FINAL SINGLE POINT ENERGY      -346.242886002084

DIPOLE MOMENT
-------------

Method             : SCF
Type of density    : Electron Density
Multiplicity       :   1
Irrep              :   0
Energy             :  -346.3078286355054729 Eh
Relativity type    :
Basis              : AO
                                X                 Y                 Z
Electronic contribution:     -0.863668258      -4.835085155      -2.646751700
Nuclear contribution   :      1.081998002       5.405747224       3.175321659
                        -----------------------------------------
Total Dipole Moment    :      0.218329744       0.570662069       0.528569959
                        -----------------------------------------
Magnitude (a.u.)       :      0.807904249
Magnitude (Debye)      :      2.053529405

Rotational constants in cm-1:             0.137227             0.058044             0.043187
Rotational constants in MHz :          4113.951007          1740.100448          1294.708311

                             ****ORCA TERMINATED NORMALLY****
TOTAL RUN TIME: 0 days 0 hours 0 minutes 8 seconds 405 msec
