                         Program Version 6.0.0  -   RELEASE  -
|  1> ! pbe def2-sv(p) def2/J RI DEFGRID1 loosescf d4 GCP(DFT/SV(P)) printgap
|  2> %output
|  3>     printlevel normal
|  4> end
|  5> * xyz 0 1
|  6> C -1.442141998 0.3742490479 -0.2525172003
|  7> C -0.0058126296 0.3137940873 0.2891032857
|  8> C 0.8379127956 -0.7625929326 -0.4042070267
|  9> O 2.1332707266 -0.7104231068 0.1585120143
| 10> O 0.5615077345 1.5894086638 0.0872057676
| 11> O -2.2433443561 -0.7090203229 0.1464990388
| 12> H -1.4131774638 0.4740561656 -1.3435918415
| 13> H -1.9099648956 1.2704665802 0.1610868154
| 14> H -0.0429909025 0.08567928 1.366170132
| 15> H 0.8759656692 -0.5485734296 -1.4802653943
| 16> H 0.3855846706 -1.7467360567 -0.2377891293
| 17> H 2.698846805 -1.3684169415 -0.266709895
| 18> H 1.5050155823 1.5267332784 0.3022510102
| 19> H -1.9957274563 -1.5027841661 -0.3463372345
| 20> *
| 21>
| 22>                          ****END OF INPUT****

CARTESIAN COORDINATES (ANGSTROEM)
---------------------------------
  C     -1.442142    0.374249   -0.252517
  C     -0.005813    0.313794    0.289103
  C      0.837913   -0.762593   -0.404207
  O      2.133271   -0.710423    0.158512
  O      0.561508    1.589409    0.087206
  O     -2.243344   -0.709020    0.146499
  H     -1.413177    0.474056   -1.343592
  H     -1.909965    1.270467    0.161087
  H     -0.042991    0.085679    1.366170
  H      0.875966   -0.548573   -1.480265
  H      0.385585   -1.746736   -0.237789
  H      2.698847   -1.368417   -0.266710
  H      1.505016    1.526733    0.302251
  H     -1.995727   -1.502784   -0.346337

 Total Charge           Charge          ....    0
 Multiplicity           Mult            ....    1
 Number of Electrons    NEL             ....   50
 Basis Dimension        Dim             ....  100

ORBITAL ENERGIES
----------------

  NO   OCC          E(Eh)            E(eV)
   0   2.0000     -18.761729      -510.5326
   1   2.0000     -18.748629      -510.1761
   2   2.0000     -18.740715      -509.9608
   3   2.0000      -9.939078      -270.4561
   4   2.0000      -9.933139      -270.2944
   5   2.0000      -9.927777      -270.1486
   6   2.0000      -0.941647       -25.6235
   7   2.0000      -0.924889       -25.1675
   8   2.0000      -0.910541       -24.7771
   9   2.0000      -0.679295       -18.4845
  10   2.0000      -0.612680       -16.6719
  11   2.0000      -0.529920       -14.4199
  12   2.0000      -0.490418       -13.3450
  13   2.0000      -0.463931       -12.6242
  14   2.0000      -0.440955       -11.9990
  15   2.0000      -0.420131       -11.4323
  16   2.0000      -0.380587       -10.3563
  17   2.0000      -0.367989       -10.0135
  18   2.0000      -0.351513        -9.5651
  19   2.0000      -0.306976        -8.3532
  20   2.0000      -0.288478        -7.8499
  21   2.0000      -0.270539        -7.3617
  22   2.0000      -0.232339        -6.3223
  23   2.0000      -0.218929        -5.9573
  24   2.0000      -0.213164        -5.8005
  25   0.0000       0.011549         0.3143
  26   0.0000       0.017766         0.4834
  27   0.0000       0.065244         1.7754
  28   0.0000       0.074238         2.0201
  29   0.0000       0.093280         2.5383

MULLIKEN ATOMIC CHARGES
-----------------------
   0 C :    0.026368
   1 C :    0.011903
   2 C :   -0.007754
   3 O :   -0.440374
   4 O :   -0.434798
   5 O :   -0.431039
   6 H :    0.071218
   7 H :    0.101493
   8 H :    0.070728
   9 H :    0.069743
  10 H :    0.054660
  11 H :    0.306594
  12 H :    0.303924
  13 H :    0.297333
Sum of atomic charges:    0.0000000

LOEWDIN ATOMIC CHARGES
----------------------
   0 C :   -0.124834
   1 C :   -0.086765
   2 C :   -0.145055
   3 O :   -0.346760
   4 O :   -0.329713
   5 O :   -0.332615
   6 H :    0.097577
   7 H :    0.121539
   8 H :    0.103743
   9 H :    0.097473
  10 H :    0.091141
  11 H :    0.290550
  12 H :    0.283357
  13 H :    0.280364

  Mayer bond orders larger than 0.100000
B(  0-C ,  1-C ) :   1.0228 B(  0-C ,  5-O ) :   1.0769 B(  0-C ,  6-H ) :   0.9184
B(  0-C ,  7-H ) :   0.9225 B(  1-C ,  2-C ) :   1.0592 B(  1-C ,  4-O ) :   1.0591
B(  1-C ,  8-H ) :   0.8937 B(  2-C ,  3-O ) :   1.0795 B(  2-C ,  9-H ) :   0.9068
B(  2-C , 10-H ) :   0.9058 B(  3-O , 11-H ) :   0.8485 B(  4-O , 12-H ) :   0.8356
B(  5-O , 13-H ) :   0.8508

Dispersion correction           -0.008995625
FINAL SINGLE POINT ENERGY      -344.007716935236

DIPOLE MOMENT
-------------

Method             : SCF
Type of density    : Electron Density
Multiplicity       :   1
Irrep              :   0
Energy             :  -344.0809991519266759 Eh
Relativity type    :
Basis              : AO
                                X                 Y                 Z
Electronic contribution:      0.651595928       0.721435092       1.065850464
Nuclear contribution   :      0.103854136      -1.695171148      -1.725279002
                        -----------------------------------------
Total Dipole Moment    :      0.755450065      -0.973736057      -0.659428538
                        -----------------------------------------
Magnitude (a.u.)       :      1.397752734
Magnitude (Debye)      :      3.552805103

Rotational constants in cm-1:             0.189443             0.075730             0.058026
Rotational constants in MHz :          5679.356203          2270.329418          1739.572936

                             ****ORCA TERMINATED NORMALLY****
TOTAL RUN TIME: 0 days 0 hours 0 minutes 6 seconds 697 msec
