                         Program Version 6.0.0  -   RELEASE  -
|  1> ! r2scan-3c def2/J RI DEFGRID2 scfconv6 printgap
|  2> %output
|  3>     printlevel normal
|  4> end
|  5> * xyz 0 1
|  6> C -2.2549864125 -0.7928595185 0.2199842265
|  7> C -1.4461761906 0.4640993317 0.4760380984
|  8> S 0.0338525642 0.5799424301 -0.5923801774
|  9> C 1.1154731532 -0.7107362514 0.1460299418
| 10> C 2.5088346337 -0.1657865016 0.3947756846
| 11> H -2.559038455 -0.8366604005 -0.823023593
| 12> H -1.6724593393 -1.6829718727 0.4472204103
| 13> H -3.1441375888 -0.7903514062 0.846190251
| 14> H -1.1069570319 0.5290846009 1.5097263539
| 15> H -2.0215079084 1.3561607497 0.2320085782
| 16> H 0.6435038693 -1.0195132549 1.0764029007
| 17> H 1.1396279031 -1.5497858744 -0.5488808633
| 18> H 2.9573841791 0.16409261 -0.5390254736
| 19> H 2.4672627685 0.6827082885 1.0735659007
| 20> H 3.1352085889 -0.9397057103 0.8325356748
| 21> *
| 22>
| 23>                          ****END OF INPUT****

CARTESIAN COORDINATES (ANGSTROEM)
---------------------------------
  C     -2.254986   -0.792860    0.219984
  C     -1.446176    0.464099    0.476038
  S      0.033853    0.579942   -0.592380
  C      1.115473   -0.710736    0.146030
  C      2.508835   -0.165787    0.394776
  H     -2.559038   -0.836660   -0.823024
  H     -1.672459   -1.682972    0.447220
  H     -3.144138   -0.790351    0.846190
  H     -1.106957    0.529085    1.509726
  H     -2.021508    1.356161    0.232009
  H      0.643504   -1.019513    1.076403
  H      1.139628   -1.549786   -0.548881
  H      2.957384    0.164093   -0.539025
  H      2.467263    0.682708    1.073566
  H      3.135209   -0.939706    0.832536

 Total Charge           Charge          ....    0
 Multiplicity           Mult            ....    1
 Number of Electrons    NEL             ....   50
 Basis Dimension        Dim             ....  153

ORBITAL ENERGIES
----------------

  NO   OCC          E(Eh)            E(eV)
   0   2.0000     -88.539151     -2409.2728
   1   2.0000     -10.060630      -273.7637
   2   2.0000     -10.059172      -273.7240
   3   2.0000     -10.025013      -272.7945
   4   2.0000     -10.024817      -272.7891
   5   2.0000      -7.833216      -213.1526
   6   2.0000      -5.780759      -157.3024
   7   2.0000      -5.776953      -157.1989
   8   2.0000      -5.769789      -157.0039
   9   2.0000      -0.777560       -21.1585
  10   2.0000      -0.733341       -19.9552
  11   2.0000      -0.652699       -17.7609
  12   2.0000      -0.591330       -16.0909
  13   2.0000      -0.535997       -14.5852
  14   2.0000      -0.440355       -11.9827
  15   2.0000      -0.424576       -11.5533
  16   2.0000      -0.412276       -11.2186
  17   2.0000      -0.381874       -10.3913
  18   2.0000      -0.359363        -9.7788
  19   2.0000      -0.350029        -9.5248
  20   2.0000      -0.335802        -9.1376
  21   2.0000      -0.328237        -8.9318
  22   2.0000      -0.303343        -8.2544
  23   2.0000      -0.270372        -7.3572
  24   2.0000      -0.187843        -5.1115
  25   0.0000       0.021065         0.5732
  26   0.0000       0.050211         1.3663
  27   0.0000       0.087017         2.3679
  28   0.0000       0.113047         3.0762
  29   0.0000       0.126567         3.4441

MULLIKEN ATOMIC CHARGES
-----------------------
   0 C :   -0.416494
   1 C :   -0.257106
   2 S :   -0.143532
   3 C :   -0.228050
   4 C :   -0.446320
   5 H :    0.157694
   6 H :    0.140297
   7 H :    0.140001
   8 H :    0.152128
   9 H :    0.153243
  10 H :    0.142129
  11 H :    0.161662
  12 H :    0.148889
  13 H :    0.153712
  14 H :    0.141747
Sum of atomic charges:    0.0000000

LOEWDIN ATOMIC CHARGES
----------------------
   0 C :   -0.430371
   1 C :   -0.366973
   2 S :    0.020093
   3 C :   -0.356612
   4 C :   -0.429222
   5 H :    0.157572
   6 H :    0.150441
   7 H :    0.150035
   8 H :    0.157112
   9 H :    0.167538
  10 H :    0.161055
  11 H :    0.158225
  12 H :    0.154662
  13 H :    0.156113
  14 H :    0.150332

  Mayer bond orders larger than 0.100000
B(  0-C ,  1-C ) :   0.8959 B(  0-C ,  5-H ) :   0.9759 B(  0-C ,  6-H ) :   0.9735
B(  0-C ,  7-H ) :   0.9619 B(  1-C ,  2-S ) :   0.9554 B(  1-C ,  8-H ) :   0.9580
B(  1-C ,  9-H ) :   0.9484 B(  2-S ,  3-C ) :   0.9270 B(  3-C ,  4-C ) :   0.9231
B(  3-C , 10-H ) :   0.9507 B(  3-C , 11-H ) :   0.9495 B(  4-C , 12-H ) :   0.9754
B(  4-C , 13-H ) :   0.9730 B(  4-C , 14-H ) :   0.9656

Dispersion correction           -0.003566137
FINAL SINGLE POINT ENERGY      -556.552927192691

DIPOLE MOMENT
-------------

Method             : SCF
Type of density    : Electron Density
Multiplicity       :   1
Irrep              :   0
Energy             :  -556.5600167278035997 Eh
Relativity type    :
Basis              : AO
                                X                 Y                 Z
Electronic contribution:      0.033416034       3.425741357      -3.322860082
Nuclear contribution   :     -0.152112535      -3.850715696       3.869623730
                        -----------------------------------------
Total Dipole Moment    :     -0.118696501      -0.424974339       0.546763649
                        -----------------------------------------
Magnitude (a.u.)       :      0.702596994
Magnitude (Debye)      :      1.785859633

Rotational constants in cm-1:             0.268604             0.068775             0.061555
Rotational constants in MHz :          8052.532099          2061.834462          1845.361513

                             ****ORCA TERMINATED NORMALLY****
TOTAL RUN TIME: 0 days 0 hours 0 minutes 14 seconds 6 msec
