                         Program Version 6.0.0  -   RELEASE  -
|  1> ! r2scan-3c def2/J RI DEFGRID2 scfconv6 printgap
|  2> %output
|  3>     printlevel normal
|  4> end
|  5> %cpcm
|  6>     smd true
|  7>     smdsolvent "water"
|  8> end
|  9> * xyz 0 1
| 10> C -2.2549864125 -0.7928595185 0.2199842265
| 11> C -1.4461761906 0.4640993317 0.4760380984
| 12> S 0.0338525642 0.5799424301 -0.5923801774
| 13> C 1.1154731532 -0.7107362514 0.1460299418
| 14> C 2.5088346337 -0.1657865016 0.3947756846
| 15> H -2.559038455 -0.8366604005 -0.823023593
| 16> H -1.6724593393 -1.6829718727 0.4472204103
| 17> H -3.1441375888 -0.7903514062 0.846190251
| 18> H -1.1069570319 0.5290846009 1.5097263539
| 19> H -2.0215079084 1.3561607497 0.2320085782
| 20> H 0.6435038693 -1.0195132549 1.0764029007
| 21> H 1.1396279031 -1.5497858744 -0.5488808633
| 22> H 2.9573841791 0.16409261 -0.5390254736
| 23> H 2.4672627685 0.6827082885 1.0735659007
| 24> H 3.1352085889 -0.9397057103 0.8325356748
| 25> *
| 26>
| 27>                          ****END OF INPUT****

CARTESIAN COORDINATES (ANGSTROEM)
---------------------------------
  C     -2.254986   -0.792860    0.219984
  C     -1.446176    0.464099    0.476038
  S      0.033853    0.579942   -0.592380
  C      1.115473   -0.710736    0.146030
  C      2.508835   -0.165787    0.394776
  H     -2.559038   -0.836660   -0.823024
  H     -1.672459   -1.682972    0.447220
  H     -3.144138   -0.790351    0.846190
  H     -1.106957    0.529085    1.509726
  H     -2.021508    1.356161    0.232009
  H      0.643504   -1.019513    1.076403
  H      1.139628   -1.549786   -0.548881
  H      2.957384    0.164093   -0.539025
  H      2.467263    0.682708    1.073566
  H      3.135209   -0.939706    0.832536

 Total Charge           Charge          ....    0
 Multiplicity           Mult            ....    1
 Number of Electrons    NEL             ....   50
 Basis Dimension        Dim             ....  153

ORBITAL ENERGIES
----------------

  NO   OCC          E(Eh)            E(eV)
   0   2.0000     -88.538264     -2409.2486
   1   2.0000     -10.050951      -273.5003
   2   2.0000     -10.049414      -273.4584
   3   2.0000     -10.015493      -272.5354
   4   2.0000     -10.014179      -272.4997
   5   2.0000      -7.832396      -213.1303
   6   2.0000      -5.779690      -157.2734
   7   2.0000      -5.776034      -157.1739
   8   2.0000      -5.769383      -156.9929
   9   2.0000      -0.770403       -20.9637
  10   2.0000      -0.723754       -19.6943
  11   2.0000      -0.645651       -17.5691
  12   2.0000      -0.581891       -15.8341
  13   2.0000      -0.527987       -14.3673
  14   2.0000      -0.429780       -11.6949
  15   2.0000      -0.415089       -11.2951
  16   2.0000      -0.402512       -10.9529
  17   2.0000      -0.372832       -10.1453
  18   2.0000      -0.350233        -9.5303
  19   2.0000      -0.340784        -9.2732
  20   2.0000      -0.325682        -8.8622
  21   2.0000      -0.318303        -8.6615
  22   2.0000      -0.294411        -8.0113
  23   2.0000      -0.267450        -7.2777
  24   2.0000      -0.188555        -5.1308
  25   0.0000       0.023606         0.6423
  26   0.0000       0.054892         1.4937
  27   0.0000       0.098265         2.6739
  28   0.0000       0.122130         3.3233
  29   0.0000       0.133305         3.6274

MULLIKEN ATOMIC CHARGES
-----------------------
   0 C :   -0.463808
   1 C :   -0.244697
   2 S :   -0.218173
   3 C :   -0.221641
   4 C :   -0.489864
   5 H :    0.160858
   6 H :    0.158656
   7 H :    0.156407
   8 H :    0.171895
   9 H :    0.168356
  10 H :    0.171409
  11 H :    0.172878
  12 H :    0.158493
  13 H :    0.159671
  14 H :    0.159559
Sum of atomic charges:    0.0000000

LOEWDIN ATOMIC CHARGES
----------------------
   0 C :   -0.435719
   1 C :   -0.362610
   2 S :   -0.021666
   3 C :   -0.351657
   4 C :   -0.436423
   5 H :    0.156197
   6 H :    0.155210
   7 H :    0.156321
   8 H :    0.165297
   9 H :    0.172246
  10 H :    0.171781
  11 H :    0.162572
  12 H :    0.155511
  13 H :    0.155841
  14 H :    0.157099

  Mayer bond orders larger than 0.100000
B(  0-C ,  1-C ) :   0.8906 B(  0-C ,  5-H ) :   0.9768 B(  0-C ,  6-H ) :   0.9714
B(  0-C ,  7-H ) :   0.9583 B(  1-C ,  2-S ) :   0.9449 B(  1-C ,  8-H ) :   0.9520
B(  1-C ,  9-H ) :   0.9435 B(  2-S ,  3-C ) :   0.9152 B(  3-C ,  4-C ) :   0.9101
B(  3-C , 10-H ) :   0.9449 B(  3-C , 11-H ) :   0.9468 B(  4-C , 12-H ) :   0.9745
B(  4-C , 13-H ) :   0.9732 B(  4-C , 14-H ) :   0.9610

Dispersion correction           -0.003566137
FINAL SINGLE POINT ENERGY      -556.554663421363

DIPOLE MOMENT
-------------

Method             : SCF
Type of density    : Electron Density
Multiplicity       :   1
Irrep              :   0
Energy             :  -556.5617529564757433 Eh
Relativity type    :
Basis              : AO
                                X                 Y                 Z
Electronic contribution:     -0.022494397       3.241301869      -3.078606074
Nuclear contribution   :     -0.152112535      -3.850715696       3.869623730
                        -----------------------------------------
Total Dipole Moment    :     -0.174606932      -0.609413827       0.791017656
                        -----------------------------------------
Magnitude (a.u.)       :      1.013697058
Magnitude (Debye)      :      2.576613155

Rotational constants in cm-1:             0.268604             0.068775             0.061555
Rotational constants in MHz :          8052.532099          2061.834462          1845.361513

                             ****ORCA TERMINATED NORMALLY****
TOTAL RUN TIME: 0 days 0 hours 0 minutes 17 seconds 108 msec
