                         Program Version 6.0.0  -   RELEASE  -
|  1> ! r2scan-3c def2/J RI DEFGRID2 scfconv6 printgap
|  2> %output
|  3>     printlevel normal
|  4> end
|  5> * xyz 0 1
|  6> C -2.8139459122 0.8941273784 0.4902456101
|  7> C -2.2392557568 -0.066122974 -0.5494071671
|  8> C -2.5220147958 -1.514051397 -0.151822058
|  9> C -0.7442808774 0.1829659621 -0.8065658307
| 10> C 0.1361758326 0.097339058 0.4399845815
| 11> C 1.6543218291 0.1075398565 0.1763052233
| 12> C 2.0947460271 -1.1763268543 -0.5318215988
| 13> C 2.0617190347 1.3208307008 -0.6629274925
| 14> C 2.3650930506 0.1846935465 1.5330380243
| 15> H -3.8960404718 0.7931117606 0.5364778746
| 16> H -2.5765923588 1.923902419 0.2331674873
| 17> H -2.4122068448 0.6800859956 1.477191221
| 18> H -2.7536440526 0.1217973141 -1.5004360424
| 19> H -2.0974153636 -2.2011516163 -0.8801532176
| 20> H -2.1006311323 -1.7407571275 0.8241607588
| 21> H -3.594864624 -1.6861543284 -0.102474407
| 22> H -0.4078559125 -0.547388481 -1.5444229157
| 23> H -0.6387694265 1.1750569111 -1.2499172975
| 24> H -0.0993688428 -0.8183480898 0.9848898634
| 25> H -0.0984205922 0.9408108979 1.0922575364
| 26> H 3.1765671596 -1.1897880143 -0.6446913206
| 27> H 1.7995936043 -2.0506375743 0.044064967
| 28> H 1.6537365035 -1.2514199572 -1.5222134875
| 29> H 1.6666115245 1.2474044067 -1.6724668251
| 30> H 1.6931109437 2.2390966384 -0.2111582293
| 31> H 3.145874481 1.3831822059 -0.7282919621
| 32> H 2.0791996121 -0.654348497 2.1635991756
| 33> H 2.105362635 1.105833419 2.050076716
| 34> H 3.4444332589 0.160345439 1.4007530154
| 35> *
| 36>
| 37>                          ****END OF INPUT****

CARTESIAN COORDINATES (ANGSTROEM)
---------------------------------
  C     -2.813946    0.894127    0.490246
  C     -2.239256   -0.066123   -0.549407
  C     -2.522015   -1.514051   -0.151822
  C     -0.744281    0.182966   -0.806566
  C      0.136176    0.097339    0.439985
  C      1.654322    0.107540    0.176305
  C      2.094746   -1.176327   -0.531822
  C      2.061719    1.320831   -0.662927
  C      2.365093    0.184694    1.533038
  H     -3.896040    0.793112    0.536478
  H     -2.576592    1.923902    0.233167
  H     -2.412207    0.680086    1.477191
  H     -2.753644    0.121797   -1.500436
  H     -2.097415   -2.201152   -0.880153
  H     -2.100631   -1.740757    0.824161
  H     -3.594865   -1.686154   -0.102474
  H     -0.407856   -0.547388   -1.544423
  H     -0.638769    1.175057   -1.249917
  H     -0.099369   -0.818348    0.984890
  H     -0.098421    0.940811    1.092258
  H      3.176567   -1.189788   -0.644691
  H      1.799594   -2.050638    0.044065
  H      1.653737   -1.251420   -1.522213
  H      1.666612    1.247404   -1.672467
  H      1.693111    2.239097   -0.211158
  H      3.145874    1.383182   -0.728292
  H      2.079200   -0.654348    2.163599
  H      2.105363    1.105833    2.050077
  H      3.444433    0.160345    1.400753

 Total Charge           Charge          ....    0
 Multiplicity           Mult            ....    1
 Number of Electrons    NEL             ....   74
 Basis Dimension        Dim             ....  271

ORBITAL ENERGIES
----------------

  NO   OCC          E(Eh)            E(eV)
   0   2.0000     -10.038551      -273.1628
   1   2.0000     -10.030443      -272.9422
   2   2.0000     -10.017783      -272.5977
   3   2.0000     -10.017183      -272.5814
   4   2.0000     -10.012055      -272.4419
   5   2.0000     -10.012011      -272.4407
   6   2.0000     -10.011232      -272.4195
   7   2.0000     -10.011230      -272.4194
   8   2.0000     -10.010899      -272.4104
   9   2.0000      -0.795049       -21.6344
  10   2.0000      -0.765314       -20.8253
  11   2.0000      -0.683443       -18.5974
  12   2.0000      -0.649423       -17.6717
  13   2.0000      -0.648758       -17.6536
  14   2.0000      -0.646884       -17.6026
  15   2.0000      -0.600478       -16.3398
  16   2.0000      -0.516267       -14.0483
  17   2.0000      -0.490850       -13.3567
  18   2.0000      -0.438188       -11.9237
  19   2.0000      -0.431235       -11.7345
  20   2.0000      -0.410752       -11.1771
  21   2.0000      -0.402319       -10.9477
  22   2.0000      -0.399417       -10.8687
  23   2.0000      -0.390176       -10.6172
  24   2.0000      -0.367611       -10.0032
  25   2.0000      -0.360003        -9.7962
  26   2.0000      -0.350138        -9.5277
  27   2.0000      -0.335337        -9.1250
  28   2.0000      -0.332231        -9.0405
  29   2.0000      -0.329218        -8.9585
  30   2.0000      -0.313979        -8.5438
  31   2.0000      -0.303269        -8.2524
  32   2.0000      -0.298324        -8.1178
  33   2.0000      -0.292900        -7.9702
  34   2.0000      -0.279415        -7.6033
  35   2.0000      -0.272379        -7.4118
  36   2.0000      -0.266356        -7.2479
  37   0.0000       0.071931         1.9574
  38   0.0000       0.087843         2.3903
  39   0.0000       0.107727         2.9314
  40   0.0000       0.115819         3.1516
  41   0.0000       0.119745         3.2584

MULLIKEN ATOMIC CHARGES
-----------------------
   0 C :   -0.507154
   1 C :   -0.001339
   2 C :   -0.519137
   3 C :   -0.298887
   4 C :   -0.346344
   5 C :    0.158017
   6 C :   -0.523615
   7 C :   -0.514346
   8 C :   -0.491113
   9 H :    0.146110
  10 H :    0.148703
  11 H :    0.156061
  12 H :    0.148620
  13 H :    0.146860
  14 H :    0.150872
  15 H :    0.147083
  16 H :    0.146543
  17 H :    0.155344
  18 H :    0.153190
  19 H :    0.157495
  20 H :    0.153862
  21 H :    0.153327
  22 H :    0.153482
  23 H :    0.159643
  24 H :    0.156047
  25 H :    0.152141
  26 H :    0.151479
  27 H :    0.152408
  28 H :    0.154647
Sum of atomic charges:   -0.0000000

LOEWDIN ATOMIC CHARGES
----------------------
   0 C :   -0.418520
   1 C :   -0.246242
   2 C :   -0.419484
   3 C :   -0.300314
   4 C :   -0.294012
   5 C :   -0.213073
   6 C :   -0.408423
   7 C :   -0.407786
   8 C :   -0.409438
   9 H :    0.152705
  10 H :    0.153881
  11 H :    0.153501
  12 H :    0.154560
  13 H :    0.153497
  14 H :    0.150795
  15 H :    0.153281
  16 H :    0.158037
  17 H :    0.158886
  18 H :    0.161405
  19 H :    0.162202
  20 H :    0.156593
  21 H :    0.156883
  22 H :    0.153946
  23 H :    0.156955
  24 H :    0.157298
  25 H :    0.156320
  26 H :    0.156346
  27 H :    0.155686
  28 H :    0.154515

  Mayer bond orders larger than 0.100000
B(  0-C ,  1-C ) :   0.8989 B(  0-C ,  9-H ) :   0.9710 B(  0-C , 10-H ) :   0.9760
B(  0-C , 11-H ) :   0.9799 B(  1-C ,  2-C ) :   0.9160 B(  1-C ,  3-C ) :   0.9043
B(  1-C , 12-H ) :   0.9695 B(  2-C , 13-H ) :   0.9739 B(  2-C , 14-H ) :   0.9842
B(  2-C , 15-H ) :   0.9723 B(  3-C ,  4-C ) :   0.8594 B(  3-C , 16-H ) :   0.9882
B(  3-C , 17-H ) :   0.9716 B(  4-C ,  5-C ) :   0.8849 B(  4-C , 18-H ) :   0.9928
B(  4-C , 19-H ) :   0.9744 B(  5-C ,  6-C ) :   0.9320 B(  5-C ,  7-C ) :   0.9083
B(  5-C ,  8-C ) :   0.9300 B(  6-C , 20-H ) :   0.9754 B(  6-C , 21-H ) :   0.9747
B(  6-C , 22-H ) :   0.9757 B(  7-C , 23-H ) :   0.9731 B(  7-C , 24-H ) :   0.9771
B(  7-C , 25-H ) :   0.9732 B(  8-C , 26-H ) :   0.9780 B(  8-C , 27-H ) :   0.9794
B(  8-C , 28-H ) :   0.9797

Dispersion correction           -0.009093615
FINAL SINGLE POINT ENERGY      -354.888769739815

DIPOLE MOMENT
-------------

Method             : SCF
Type of density    : Electron Density
Multiplicity       :   1
Irrep              :   0
Energy             :  -354.8938266560120383 Eh
Relativity type    :
Basis              : AO
                                X                 Y                 Z
Electronic contribution:     -0.117963060       0.363055549      -0.746945052
Nuclear contribution   :      0.083196282      -0.346525328       0.704008717
                        -----------------------------------------
Total Dipole Moment    :     -0.034766778       0.016530221      -0.042936335
                        -----------------------------------------
Magnitude (a.u.)       :      0.057667200
Magnitude (Debye)      :      0.146578372

Rotational constants in cm-1:             0.088060             0.026452             0.025185
Rotational constants in MHz :          2639.978189           793.011901           755.025276

                             ****ORCA TERMINATED NORMALLY****
TOTAL RUN TIME: 0 days 0 hours 0 minutes 33 seconds 968 msec
