                         Program Version 6.0.0  -   RELEASE  -
|  1> ! r2scan-3c def2/J RI DEFGRID2 scfconv6 printgap
|  2> %output
|  3>     printlevel normal
|  4> end
|  5> %cpcm
|  6>     smd true
|  7>     smdsolvent "water"
|  8> end
|  9> * xyz 0 1
| 10> C -2.8139459122 0.8941273784 0.4902456101
| 11> C -2.2392557568 -0.066122974 -0.5494071671
| 12> C -2.5220147958 -1.514051397 -0.151822058
| 13> C -0.7442808774 0.1829659621 -0.8065658307
| 14> C 0.1361758326 0.097339058 0.4399845815
| 15> C 1.6543218291 0.1075398565 0.1763052233
| 16> C 2.0947460271 -1.1763268543 -0.5318215988
| 17> C 2.0617190347 1.3208307008 -0.6629274925
| 18> C 2.3650930506 0.1846935465 1.5330380243
| 19> H -3.8960404718 0.7931117606 0.5364778746
| 20> H -2.5765923588 1.923902419 0.2331674873
| 21> H -2.4122068448 0.6800859956 1.477191221
| 22> H -2.7536440526 0.1217973141 -1.5004360424
| 23> H -2.0974153636 -2.2011516163 -0.8801532176
| 24> H -2.1006311323 -1.7407571275 0.8241607588
| 25> H -3.594864624 -1.6861543284 -0.102474407
| 26> H -0.4078559125 -0.547388481 -1.5444229157
| 27> H -0.6387694265 1.1750569111 -1.2499172975
| 28> H -0.0993688428 -0.8183480898 0.9848898634
| 29> H -0.0984205922 0.9408108979 1.0922575364
| 30> H 3.1765671596 -1.1897880143 -0.6446913206
| 31> H 1.7995936043 -2.0506375743 0.044064967
| 32> H 1.6537365035 -1.2514199572 -1.5222134875
| 33> H 1.6666115245 1.2474044067 -1.6724668251
| 34> H 1.6931109437 2.2390966384 -0.2111582293
| 35> H 3.145874481 1.3831822059 -0.7282919621
| 36> H 2.0791996121 -0.654348497 2.1635991756
| 37> H 2.105362635 1.105833419 2.050076716
| 38> H 3.4444332589 0.160345439 1.4007530154
| 39> *
| 40>
| 41>                          ****END OF INPUT****

CARTESIAN COORDINATES (ANGSTROEM)
---------------------------------
  C     -2.813946    0.894127    0.490246
  C     -2.239256   -0.066123   -0.549407
  C     -2.522015   -1.514051   -0.151822
  C     -0.744281    0.182966   -0.806566
  C      0.136176    0.097339    0.439985
  C      1.654322    0.107540    0.176305
  C      2.094746   -1.176327   -0.531822
  C      2.061719    1.320831   -0.662927
  C      2.365093    0.184694    1.533038
  H     -3.896040    0.793112    0.536478
  H     -2.576592    1.923902    0.233167
  H     -2.412207    0.680086    1.477191
  H     -2.753644    0.121797   -1.500436
  H     -2.097415   -2.201152   -0.880153
  H     -2.100631   -1.740757    0.824161
  H     -3.594865   -1.686154   -0.102474
  H     -0.407856   -0.547388   -1.544423
  H     -0.638769    1.175057   -1.249917
  H     -0.099369   -0.818348    0.984890
  H     -0.098421    0.940811    1.092258
  H      3.176567   -1.189788   -0.644691
  H      1.799594   -2.050638    0.044065
  H      1.653737   -1.251420   -1.522213
  H      1.666612    1.247404   -1.672467
  H      1.693111    2.239097   -0.211158
  H      3.145874    1.383182   -0.728292
  H      2.079200   -0.654348    2.163599
  H      2.105363    1.105833    2.050077
  H      3.444433    0.160345    1.400753

 Total Charge           Charge          ....    0
 Multiplicity           Mult            ....    1
 Number of Electrons    NEL             ....   74
 Basis Dimension        Dim             ....  271

ORBITAL ENERGIES
----------------

  NO   OCC          E(Eh)            E(eV)
   0   2.0000     -10.031170      -272.9620
   1   2.0000     -10.022792      -272.7340
   2   2.0000     -10.008982      -272.3583
   3   2.0000     -10.008266      -272.3388
   4   2.0000     -10.004420      -272.2341
   5   2.0000     -10.004197      -272.2280
   6   2.0000     -10.003399      -272.2063
   7   2.0000     -10.003301      -272.2037
   8   2.0000     -10.003210      -272.2012
   9   2.0000      -0.787077       -21.4175
  10   2.0000      -0.757641       -20.6165
  11   2.0000      -0.675482       -18.3808
  12   2.0000      -0.642173       -17.4744
  13   2.0000      -0.641662       -17.4605
  14   2.0000      -0.639814       -17.4102
  15   2.0000      -0.592576       -16.1248
  16   2.0000      -0.508829       -13.8459
  17   2.0000      -0.483254       -13.1500
  18   2.0000      -0.430328       -11.7098
  19   2.0000      -0.422998       -11.5104
  20   2.0000      -0.403237       -10.9726
  21   2.0000      -0.394603       -10.7377
  22   2.0000      -0.391668       -10.6578
  23   2.0000      -0.382658       -10.4127
  24   2.0000      -0.360033        -9.7970
  25   2.0000      -0.352364        -9.5883
  26   2.0000      -0.342582        -9.3221
  27   2.0000      -0.327602        -8.9145
  28   2.0000      -0.324324        -8.8253
  29   2.0000      -0.321608        -8.7514
  30   2.0000      -0.306023        -8.3273
  31   2.0000      -0.295408        -8.0384
  32   2.0000      -0.290792        -7.9128
  33   2.0000      -0.285434        -7.7670
  34   2.0000      -0.271180        -7.3792
  35   2.0000      -0.264446        -7.1959
  36   2.0000      -0.258357        -7.0303
  37   0.0000       0.080683         2.1955
  38   0.0000       0.096073         2.6143
  39   0.0000       0.115846         3.1523
  40   0.0000       0.123455         3.3594
  41   0.0000       0.127481         3.4689

MULLIKEN ATOMIC CHARGES
-----------------------
   0 C :   -0.546373
   1 C :    0.013437
   2 C :   -0.563512
   3 C :   -0.315134
   4 C :   -0.368526
   5 C :    0.213456
   6 C :   -0.574678
   7 C :   -0.560307
   8 C :   -0.543544
   9 H :    0.156723
  10 H :    0.158492
  11 H :    0.164728
  12 H :    0.154070
  13 H :    0.156850
  14 H :    0.163724
  15 H :    0.157549
  16 H :    0.157385
  17 H :    0.160719
  18 H :    0.164845
  19 H :    0.163911
  20 H :    0.164976
  21 H :    0.164030
  22 H :    0.166591
  23 H :    0.168192
  24 H :    0.166717
  25 H :    0.163247
  26 H :    0.162671
  27 H :    0.163586
  28 H :    0.166174
Sum of atomic charges:   -0.0000000

LOEWDIN ATOMIC CHARGES
----------------------
   0 C :   -0.426848
   1 C :   -0.245064
   2 C :   -0.428575
   3 C :   -0.302684
   4 C :   -0.296131
   5 C :   -0.208518
   6 C :   -0.417492
   7 C :   -0.416042
   8 C :   -0.418686
   9 H :    0.154600
  10 H :    0.156132
  11 H :    0.155403
  12 H :    0.155975
  13 H :    0.155567
  14 H :    0.153924
  15 H :    0.155174
  16 H :    0.160683
  17 H :    0.160129
  18 H :    0.164077
  19 H :    0.163682
  20 H :    0.158637
  21 H :    0.159032
  22 H :    0.157035
  23 H :    0.158753
  24 H :    0.159671
  25 H :    0.158310
  26 H :    0.158430
  27 H :    0.157898
  28 H :    0.156929

  Mayer bond orders larger than 0.100000
B(  0-C ,  1-C ) :   0.8926 B(  0-C ,  9-H ) :   0.9699 B(  0-C , 10-H ) :   0.9733
B(  0-C , 11-H ) :   0.9778 B(  1-C ,  2-C ) :   0.9069 B(  1-C ,  3-C ) :   0.9014
B(  1-C , 12-H ) :   0.9708 B(  2-C , 13-H ) :   0.9719 B(  2-C , 14-H ) :   0.9813
B(  2-C , 15-H ) :   0.9708 B(  3-C ,  4-C ) :   0.8640 B(  3-C , 16-H ) :   0.9868
B(  3-C , 17-H ) :   0.9694 B(  4-C ,  5-C ) :   0.8817 B(  4-C , 18-H ) :   0.9911
B(  4-C , 19-H ) :   0.9725 B(  5-C ,  6-C ) :   0.9187 B(  5-C ,  7-C ) :   0.8984
B(  5-C ,  8-C ) :   0.9115 B(  6-C , 20-H ) :   0.9746 B(  6-C , 21-H ) :   0.9737
B(  6-C , 22-H ) :   0.9729 B(  7-C , 23-H ) :   0.9713 B(  7-C , 24-H ) :   0.9750
B(  7-C , 25-H ) :   0.9728 B(  8-C , 26-H ) :   0.9773 B(  8-C , 27-H ) :   0.9782
B(  8-C , 28-H ) :   0.9782

Dispersion correction           -0.009093615
FINAL SINGLE POINT ENERGY      -354.884442407930

DIPOLE MOMENT
-------------

Method             : SCF
Type of density    : Electron Density
Multiplicity       :   1
Irrep              :   0
Energy             :  -354.8894993241270868 Eh
Relativity type    :
Basis              : AO
                                X                 Y                 Z
Electronic contribution:     -0.122397206       0.363980612      -0.758276627
Nuclear contribution   :      0.083196282      -0.346525328       0.704008717
                        -----------------------------------------
Total Dipole Moment    :     -0.039200924       0.017455284      -0.054267910
                        -----------------------------------------
Magnitude (a.u.)       :      0.069183852
Magnitude (Debye)      :      0.175851378

Rotational constants in cm-1:             0.088060             0.026452             0.025185
Rotational constants in MHz :          2639.978189           793.011901           755.025276

                             ****ORCA TERMINATED NORMALLY****
TOTAL RUN TIME: 0 days 0 hours 0 minutes 43 seconds 295 msec
