                         Program Version 6.0.0  -   RELEASE  -
|  1> ! pbe def2-sv(p) def2/J RI DEFGRID1 loosescf d4 GCP(DFT/SV(P)) printgap
|  2> %output
|  3>     printlevel normal
|  4> end
|  5> * xyz 0 1
|  6> C -1.1414054552 0.2073924882 -0.4260130944
|  7> C 0.015071052 0.677525396 0.4689009954
|  8> C 1.1655267371 -0.358250187 0.5188365388
|  9> O 1.1597343443 -1.3006610859 -0.5213091376
| 10> O 0.553511562 1.8921172739 -0.0071546806
| 11> O -1.6172187145 -1.0293444953 0.0619325106
| 12> H -0.7671602164 0.1108534409 -1.4534719687
| 13> H -1.9341335082 0.9654652737 -0.4047705835
| 14> H -0.3662557947 0.8116415753 1.4917332314
| 15> H 1.146525046 -0.8681956832 1.4888067486
| 16> H 2.1039690046 0.1925933225 0.4247996193
| 17> H 0.3620109914 -1.8446144658 -0.4243738158
| 18> H -0.1214292062 2.5853651611 0.0139605653
| 19> H -2.4148206412 -1.2781823252 -0.4248369925
| 20> *
| 21>
| 22>                          ****END OF INPUT****

CARTESIAN COORDINATES (ANGSTROEM)
---------------------------------
  C     -1.141405    0.207392   -0.426013
  C      0.015071    0.677525    0.468901
  C      1.165527   -0.358250    0.518837
  O      1.159734   -1.300661   -0.521309
  O      0.553512    1.892117   -0.007155
  O     -1.617219   -1.029344    0.061933
  H     -0.767160    0.110853   -1.453472
  H     -1.934134    0.965465   -0.404771
  H     -0.366256    0.811642    1.491733
  H      1.146525   -0.868196    1.488807
  H      2.103969    0.192593    0.424800
  H      0.362011   -1.844614   -0.424374
  H     -0.121429    2.585365    0.013961
  H     -2.414821   -1.278182   -0.424837

 Total Charge           Charge          ....    0
 Multiplicity           Mult            ....    1
 Number of Electrons    NEL             ....   50
 Basis Dimension        Dim             ....  100

ORBITAL ENERGIES
----------------

  NO   OCC          E(Eh)            E(eV)
   0   2.0000     -18.768171      -510.7079
   1   2.0000     -18.748324      -510.1678
   2   2.0000     -18.729367      -509.6520
   3   2.0000      -9.936746      -270.3926
   4   2.0000      -9.936304      -270.3806
   5   2.0000      -9.918505      -269.8962
   6   2.0000      -0.943531       -25.6748
   7   2.0000      -0.924023       -25.1439
   8   2.0000      -0.904648       -24.6167
   9   2.0000      -0.674871       -18.3642
  10   2.0000      -0.608938       -16.5701
  11   2.0000      -0.527141       -14.3442
  12   2.0000      -0.490445       -13.3457
  13   2.0000      -0.463500       -12.6125
  14   2.0000      -0.435361       -11.8468
  15   2.0000      -0.422633       -11.5004
  16   2.0000      -0.371073       -10.0974
  17   2.0000      -0.358770        -9.7626
  18   2.0000      -0.351446        -9.5633
  19   2.0000      -0.306082        -8.3289
  20   2.0000      -0.293624        -7.9899
  21   2.0000      -0.262761        -7.1501
  22   2.0000      -0.233750        -6.3607
  23   2.0000      -0.217731        -5.9248
  24   2.0000      -0.204416        -5.5624
  25   0.0000       0.008047         0.2190
  26   0.0000       0.021214         0.5773
  27   0.0000       0.067168         1.8277
  28   0.0000       0.084285         2.2935
  29   0.0000       0.095802         2.6069

MULLIKEN ATOMIC CHARGES
-----------------------
   0 C :   -0.032181
   1 C :    0.016328
   2 C :    0.036334
   3 O :   -0.440843
   4 O :   -0.422703
   5 O :   -0.443527
   6 H :    0.090396
   7 H :    0.066009
   8 H :    0.057869
   9 H :    0.072860
  10 H :    0.096200
  11 H :    0.298662
  12 H :    0.294623
  13 H :    0.309970
Sum of atomic charges:   -0.0000000

LOEWDIN ATOMIC CHARGES
----------------------
   0 C :   -0.149508
   1 C :   -0.085428
   2 C :   -0.125056
   3 O :   -0.338261
   4 O :   -0.321898
   5 O :   -0.341172
   6 H :    0.103556
   7 H :    0.093437
   8 H :    0.097331
   9 H :    0.098596
  10 H :    0.122312
  11 H :    0.272194
  12 H :    0.281785
  13 H :    0.292110

  Mayer bond orders larger than 0.100000
B(  0-C ,  1-C ) :   1.0823 B(  0-C ,  5-O ) :   1.0484 B(  0-C ,  6-H ) :   0.9036
B(  0-C ,  7-H ) :   0.9184 B(  1-C ,  2-C ) :   1.0043 B(  1-C ,  4-O ) :   1.0587
B(  1-C ,  8-H ) :   0.8991 B(  2-C ,  3-O ) :   1.1177 B(  2-C ,  9-H ) :   0.9272
B(  2-C , 10-H ) :   0.9238 B(  3-O , 11-H ) :   0.8243 B(  4-O , 12-H ) :   0.8501
B(  5-O , 13-H ) :   0.8469

Dispersion correction           -0.009378371
FINAL SINGLE POINT ENERGY      -344.003789707603

DIPOLE MOMENT
-------------

Method             : SCF
Type of density    : Electron Density
Multiplicity       :   1
Irrep              :   0
Energy             :  -344.0779504319035595 Eh
Relativity type    :
Basis              : AO
                                X                 Y                 Z
Electronic contribution:      0.430266294      -0.374341158      -0.581083905
Nuclear contribution   :     -1.866753187       0.626694659       0.660907107
                        -----------------------------------------
Total Dipole Moment    :     -1.436486894       0.252353501       0.079823202
                        -----------------------------------------
Magnitude (a.u.)       :      1.460667186
Magnitude (Debye)      :      3.712720932

Rotational constants in cm-1:             0.132861             0.111749             0.069919
Rotational constants in MHz :          3983.073072          3350.146692          2096.117636

                             ****ORCA TERMINATED NORMALLY****
TOTAL RUN TIME: 0 days 0 hours 0 minutes 6 seconds 863 msec
