                         Program Version 6.0.0  -   RELEASE  -
|  1> ! r2scan-3c def2/J RI DEFGRID2 scfconv6 printgap
|  2> %output
|  3>     printlevel normal
|  4> end
|  5> * xyz 0 1
|  6> C -3.2704815612 1.1216248441 -0.758051142
|  7> C -2.563229646 0.0543449425 0.0315064101
|  8> O -3.2085290783 -0.7900984545 0.6428889692
|  9> C -1.0895665177 0.0086516596 0.0210388411
| 10> C -0.2744213229 1.1035785866 -0.2608957998
| 11> C 1.1021199225 0.9922265747 -0.2412727322
| 12> C 1.7035786993 -0.2305763438 0.0526713705
| 13> C 0.8934351954 -1.3335321568 0.3480335585
| 14> C -0.4732223205 -1.2083937702 0.3415503913
| 15> O 3.0370887391 -0.4514364306 0.0856383551
| 16> C 3.9207744366 0.6169156985 -0.2120472103
| 17> H -4.0456775018 1.5680392053 -0.1393860978
| 18> H -3.7688224882 0.6314104143 -1.5932764888
| 19> H -2.6056360153 1.8832623218 -1.142573294
| 20> H -0.7031699534 2.0707826734 -0.4676541081
| 21> H 1.6996351824 1.863691458 -0.4529535688
| 22> H 1.3703372986 -2.2718655375 0.5812411615
| 23> H -1.1040347136 -2.0534945754 0.5739149154
| 24> H 3.7599404427 0.9881493718 -1.226693448
| 25> H 4.9183958004 0.1918629639 -0.1307702855
| 26> H 3.8083910912 1.4317231491 0.5067808513
| 27> *
| 28>
| 29>                          ****END OF INPUT****

CARTESIAN COORDINATES (ANGSTROEM)
---------------------------------
  C     -3.270482    1.121625   -0.758051
  C     -2.563230    0.054345    0.031506
  O     -3.208529   -0.790098    0.642889
  C     -1.089567    0.008652    0.021039
  C     -0.274421    1.103579   -0.260896
  C      1.102120    0.992227   -0.241273
  C      1.703579   -0.230576    0.052671
  C      0.893435   -1.333532    0.348034
  C     -0.473222   -1.208394    0.341550
  O      3.037089   -0.451436    0.085638
  C      3.920774    0.616916   -0.212047
  H     -4.045678    1.568039   -0.139386
  H     -3.768822    0.631410   -1.593276
  H     -2.605636    1.883262   -1.142573
  H     -0.703170    2.070783   -0.467654
  H      1.699635    1.863691   -0.452954
  H      1.370337   -2.271866    0.581241
  H     -1.104035   -2.053495    0.573915
  H      3.759940    0.988149   -1.226693
  H      4.918396    0.191863   -0.130770
  H      3.808391    1.431723    0.506781

 Total Charge           Charge          ....    0
 Multiplicity           Mult            ....    1
 Number of Electrons    NEL             ....   80
 Basis Dimension        Dim             ....  269

ORBITAL ENERGIES
----------------

  NO   OCC          E(Eh)            E(eV)
   0   2.0000     -19.003065      -517.0997
   1   2.0000     -18.924105      -514.9511
   2   2.0000     -10.113303      -275.1970
   3   2.0000     -10.112344      -275.1709
   4   2.0000     -10.099412      -274.8190
   5   2.0000     -10.054259      -273.5903
   6   2.0000     -10.046881      -273.3895
   7   2.0000     -10.044449      -273.3233
   8   2.0000     -10.042985      -273.2835
   9   2.0000     -10.040898      -273.2267
  10   2.0000     -10.029457      -272.9154
  11   2.0000      -1.051884       -28.6232
  12   2.0000      -0.990350       -26.9488
  13   2.0000      -0.837071       -22.7778
  14   2.0000      -0.751262       -20.4429
  15   2.0000      -0.731109       -19.8945
  16   2.0000      -0.710928       -19.3453
  17   2.0000      -0.676611       -18.4115
  18   2.0000      -0.598883       -16.2964
  19   2.0000      -0.584278       -15.8990
  20   2.0000      -0.529285       -14.4026
  21   2.0000      -0.512149       -13.9363
  22   2.0000      -0.468244       -12.7416
  23   2.0000      -0.452846       -12.3226
  24   2.0000      -0.446452       -12.1486
  25   2.0000      -0.428084       -11.6488
  26   2.0000      -0.411460       -11.1964
  27   2.0000      -0.409382       -11.1398
  28   2.0000      -0.401657       -10.9296
  29   2.0000      -0.383433       -10.4337
  30   2.0000      -0.374938       -10.2026
  31   2.0000      -0.367524       -10.0008
  32   2.0000      -0.347811        -9.4644
  33   2.0000      -0.337181        -9.1752
  34   2.0000      -0.327278        -8.9057
  35   2.0000      -0.306363        -8.3366
  36   2.0000      -0.299400        -8.1471
  37   2.0000      -0.250489        -6.8162
  38   2.0000      -0.218295        -5.9401
  39   2.0000      -0.209311        -5.6956
  40   0.0000      -0.075696        -2.0598
  41   0.0000      -0.042860        -1.1663
  42   0.0000       0.014675         0.3993
  43   0.0000       0.053609         1.4588
  44   0.0000       0.072146         1.9632

MULLIKEN ATOMIC CHARGES
-----------------------
   0 C :   -0.522399
   1 C :    0.258808
   2 O :   -0.356063
   3 C :    0.124395
   4 C :   -0.201735
   5 C :   -0.297423
   6 C :    0.373535
   7 C :   -0.311304
   8 C :   -0.154548
   9 O :   -0.178683
  10 C :   -0.330497
  11 H :    0.178574
  12 H :    0.178323
  13 H :    0.141192
  14 H :    0.137716
  15 H :    0.147539
  16 H :    0.158131
  17 H :    0.183379
  18 H :    0.156402
  19 H :    0.158593
  20 H :    0.156064
Sum of atomic charges:    0.0000000

LOEWDIN ATOMIC CHARGES
----------------------
   0 C :   -0.381004
   1 C :    0.236531
   2 O :   -0.488578
   3 C :   -0.094931
   4 C :   -0.124857
   5 C :   -0.172348
   6 C :    0.204689
   7 C :   -0.124800
   8 C :   -0.090851
   9 O :   -0.669206
  10 C :   -0.051188
  11 H :    0.179291
  12 H :    0.183634
  13 H :    0.155188
  14 H :    0.170528
  15 H :    0.175856
  16 H :    0.183099
  17 H :    0.192142
  18 H :    0.167294
  19 H :    0.182484
  20 H :    0.167028

  Mayer bond orders larger than 0.100000
B(  0-C ,  1-C ) :   0.9141 B(  0-C , 11-H ) :   0.9679 B(  0-C , 12-H ) :   0.9480
B(  0-C , 13-H ) :   0.9727 B(  1-C ,  2-O ) :   1.9049 B(  1-C ,  3-C ) :   0.9373
B(  2-O ,  3-C ) :  -0.1390 B(  3-C ,  4-C ) :   1.3876 B(  3-C ,  8-C ) :   1.3637
B(  4-C ,  5-C ) :   1.4315 B(  4-C , 14-H ) :   0.9236 B(  5-C ,  6-C ) :   1.3546
B(  5-C , 15-H ) :   0.9231 B(  6-C ,  7-C ) :   1.3500 B(  6-C ,  9-O ) :   1.0687
B(  7-C ,  8-C ) :   1.3627 B(  7-C , 16-H ) :   0.9602 B(  8-C , 17-H ) :   0.9535
B(  9-O , 10-C ) :   0.8511 B( 10-C , 18-H ) :   0.9626 B( 10-C , 19-H ) :   0.9670
B( 10-C , 20-H ) :   0.9619

Dispersion correction           -0.007163213
FINAL SINGLE POINT ENERGY      -499.301226775249

DIPOLE MOMENT
-------------

Method             : SCF
Type of density    : Electron Density
Multiplicity       :   1
Irrep              :   0
Energy             :  -499.3036901378079619 Eh
Relativity type    :
Basis              : AO
                                X                 Y                 Z
Electronic contribution:     -1.702137175      -4.783915052       2.591156606
Nuclear contribution   :      3.120965585       5.895420632      -3.264706785
                        -----------------------------------------
Total Dipole Moment    :      1.418828410       1.111505580      -0.673550180
                        -----------------------------------------
Magnitude (a.u.)       :      1.924107210
Magnitude (Debye)      :      4.890691859

Rotational constants in cm-1:             0.111547             0.019021             0.016492
Rotational constants in MHz :          3344.087817           570.226033           494.414133

                             ****ORCA TERMINATED NORMALLY****
TOTAL RUN TIME: 0 days 0 hours 0 minutes 38 seconds 143 msec
