                         Program Version 6.0.0  -   RELEASE  -
|  1> ! r2scan-3c def2/J RI DEFGRID2 scfconv6 printgap
|  2> %output
|  3>     printlevel normal
|  4> end
|  5> %cpcm
|  6>     smd true
|  7>     smdsolvent "water"
|  8> end
|  9> * xyz 0 1
| 10> C -3.2704815612 1.1216248441 -0.758051142
| 11> C -2.563229646 0.0543449425 0.0315064101
| 12> O -3.2085290783 -0.7900984545 0.6428889692
| 13> C -1.0895665177 0.0086516596 0.0210388411
| 14> C -0.2744213229 1.1035785866 -0.2608957998
| 15> C 1.1021199225 0.9922265747 -0.2412727322
| 16> C 1.7035786993 -0.2305763438 0.0526713705
| 17> C 0.8934351954 -1.3335321568 0.3480335585
| 18> C -0.4732223205 -1.2083937702 0.3415503913
| 19> O 3.0370887391 -0.4514364306 0.0856383551
| 20> C 3.9207744366 0.6169156985 -0.2120472103
| 21> H -4.0456775018 1.5680392053 -0.1393860978
| 22> H -3.7688224882 0.6314104143 -1.5932764888
| 23> H -2.6056360153 1.8832623218 -1.142573294
| 24> H -0.7031699534 2.0707826734 -0.4676541081
| 25> H 1.6996351824 1.863691458 -0.4529535688
| 26> H 1.3703372986 -2.2718655375 0.5812411615
| 27> H -1.1040347136 -2.0534945754 0.5739149154
| 28> H 3.7599404427 0.9881493718 -1.226693448
| 29> H 4.9183958004 0.1918629639 -0.1307702855
| 30> H 3.8083910912 1.4317231491 0.5067808513
| 31> *
| 32>
| 33>                          ****END OF INPUT****

CARTESIAN COORDINATES (ANGSTROEM)
---------------------------------
  C     -3.270482    1.121625   -0.758051
  C     -2.563230    0.054345    0.031506
  O     -3.208529   -0.790098    0.642889
  C     -1.089567    0.008652    0.021039
  C     -0.274421    1.103579   -0.260896
  C      1.102120    0.992227   -0.241273
  C      1.703579   -0.230576    0.052671
  C      0.893435   -1.333532    0.348034
  C     -0.473222   -1.208394    0.341550
  O      3.037089   -0.451436    0.085638
  C      3.920774    0.616916   -0.212047
  H     -4.045678    1.568039   -0.139386
  H     -3.768822    0.631410   -1.593276
  H     -2.605636    1.883262   -1.142573
  H     -0.703170    2.070783   -0.467654
  H      1.699635    1.863691   -0.452954
  H      1.370337   -2.271866    0.581241
  H     -1.104035   -2.053495    0.573915
  H      3.759940    0.988149   -1.226693
  H      4.918396    0.191863   -0.130770
  H      3.808391    1.431723    0.506781

 Total Charge           Charge          ....    0
 Multiplicity           Mult            ....    1
 Number of Electrons    NEL             ....   80
 Basis Dimension        Dim             ....  269

ORBITAL ENERGIES
----------------

  NO   OCC          E(Eh)            E(eV)
   0   2.0000     -18.998597      -516.9781
   1   2.0000     -18.940006      -515.3838
   2   2.0000     -10.124858      -275.5114
   3   2.0000     -10.110333      -275.1161
   4   2.0000     -10.076130      -274.1854
   5   2.0000     -10.049958      -273.4733
   6   2.0000     -10.044676      -273.3295
   7   2.0000     -10.042977      -273.2833
   8   2.0000     -10.040588      -273.2183
   9   2.0000     -10.038710      -273.1672
  10   2.0000     -10.022832      -272.7351
  11   2.0000      -1.046188       -28.4682
  12   2.0000      -1.008305       -27.4374
  13   2.0000      -0.835901       -22.7460
  14   2.0000      -0.748246       -20.3608
  15   2.0000      -0.728358       -19.8196
  16   2.0000      -0.705215       -19.1899
  17   2.0000      -0.666590       -18.1388
  18   2.0000      -0.595739       -16.2109
  19   2.0000      -0.578687       -15.7469
  20   2.0000      -0.526349       -14.3227
  21   2.0000      -0.504266       -13.7218
  22   2.0000      -0.463703       -12.6180
  23   2.0000      -0.450821       -12.2675
  24   2.0000      -0.439042       -11.9469
  25   2.0000      -0.420287       -11.4366
  26   2.0000      -0.413363       -11.2482
  27   2.0000      -0.404739       -11.0135
  28   2.0000      -0.398811       -10.8522
  29   2.0000      -0.379538       -10.3277
  30   2.0000      -0.374746       -10.1973
  31   2.0000      -0.362312        -9.8590
  32   2.0000      -0.346399        -9.4260
  33   2.0000      -0.331898        -9.0314
  34   2.0000      -0.329293        -8.9605
  35   2.0000      -0.300162        -8.1678
  36   2.0000      -0.299881        -8.1602
  37   2.0000      -0.250053        -6.8043
  38   2.0000      -0.228568        -6.2196
  39   2.0000      -0.216785        -5.8990
  40   0.0000      -0.081477        -2.2171
  41   0.0000      -0.041370        -1.1257
  42   0.0000       0.012226         0.3327
  43   0.0000       0.067823         1.8456
  44   0.0000       0.083797         2.2802

MULLIKEN ATOMIC CHARGES
-----------------------
   0 C :   -0.558358
   1 C :    0.310353
   2 O :   -0.461107
   3 C :    0.091308
   4 C :   -0.202909
   5 C :   -0.303231
   6 C :    0.371377
   7 C :   -0.357317
   8 C :   -0.188798
   9 O :   -0.210226
  10 C :   -0.340809
  11 H :    0.192772
  12 H :    0.201233
  13 H :    0.174324
  14 H :    0.179140
  15 H :    0.188810
  16 H :    0.187242
  17 H :    0.195684
  18 H :    0.177104
  19 H :    0.176572
  20 H :    0.176834
Sum of atomic charges:    0.0000000

LOEWDIN ATOMIC CHARGES
----------------------
   0 C :   -0.378635
   1 C :    0.247899
   2 O :   -0.569378
   3 C :   -0.109482
   4 C :   -0.116156
   5 C :   -0.163284
   6 C :    0.202148
   7 C :   -0.133207
   8 C :   -0.106544
   9 O :   -0.685460
  10 C :   -0.045976
  11 H :    0.185069
  12 H :    0.192554
  13 H :    0.169845
  14 H :    0.187023
  15 H :    0.192743
  16 H :    0.192394
  17 H :    0.193568
  18 H :    0.177940
  19 H :    0.189272
  20 H :    0.177666

  Mayer bond orders larger than 0.100000
B(  0-C ,  1-C ) :   0.9218 B(  0-C , 11-H ) :   0.9562 B(  0-C , 12-H ) :   0.9395
B(  0-C , 13-H ) :   0.9621 B(  1-C ,  2-O ) :   1.8214 B(  1-C ,  3-C ) :   0.9631
B(  2-O ,  3-C ) :  -0.1261 B(  3-C ,  4-C ) :   1.3658 B(  3-C ,  8-C ) :   1.2870
B(  4-C ,  5-C ) :   1.4260 B(  4-C , 14-H ) :   0.9317 B(  5-C ,  6-C ) :   1.3315
B(  5-C , 15-H ) :   0.9316 B(  6-C ,  7-C ) :   1.3044 B(  6-C ,  9-O ) :   1.0606
B(  7-C ,  8-C ) :   1.3914 B(  7-C , 16-H ) :   0.9617 B(  8-C , 17-H ) :   0.9572
B(  9-O , 10-C ) :   0.8424 B( 10-C , 18-H ) :   0.9542 B( 10-C , 19-H ) :   0.9592
B( 10-C , 20-H ) :   0.9536

Dispersion correction           -0.007163213
FINAL SINGLE POINT ENERGY      -499.311886409897

DIPOLE MOMENT
-------------

Method             : SCF
Type of density    : Electron Density
Multiplicity       :   1
Irrep              :   0
Energy             :  -499.3143497724562394 Eh
Relativity type    :
Basis              : AO
                                X                 Y                 Z
Electronic contribution:     -1.122829279      -4.126497156       2.229870140
Nuclear contribution   :      3.120965585       5.895420632      -3.264706785
                        -----------------------------------------
Total Dipole Moment    :      1.998136306       1.768923476      -1.034836645
                        -----------------------------------------
Magnitude (a.u.)       :      2.862258871
Magnitude (Debye)      :      7.275283873

Rotational constants in cm-1:             0.111547             0.019021             0.016492
Rotational constants in MHz :          3344.087817           570.226033           494.414133

                             ****ORCA TERMINATED NORMALLY****
TOTAL RUN TIME: 0 days 0 hours 0 minutes 45 seconds 546 msec
