                         Program Version 6.0.0  -   RELEASE  -
|  1> ! pbe def2-sv(p) def2/J RI DEFGRID1 loosescf d4 GCP(DFT/SV(P)) printgap
|  2> %output
|  3>     printlevel normal
|  4> end
|  5> * xyz 0 1
|  6> C 2.8156519183 -0.4359499893 -0.0903422329
|  7> C 1.3885168338 -0.3235038717 0.4298370025
|  8> C 0.6420003376 0.8408621603 -0.2175638558
|  9> C -0.7800455587 0.9808354149 0.2988140235
| 10> S -1.7923407048 -0.4770993187 -0.1987909676
| 11> H 3.327252963 -1.2709214637 0.3812687468
| 12> H 3.371312976 0.474501103 0.1228680414
| 13> H 2.8172290604 -0.5952586781 -1.1663168079
| 14> H 1.4041669226 -0.183306527 1.5133103157
| 15> H 0.8509544151 -1.2524703528 0.2231486236
| 16> H 0.6184229865 0.6995003126 -1.3010225134
| 17> H 1.1729663671 1.7733742178 -0.0110145366
| 18> H -0.7979454002 1.0313969238 1.3870449147
| 19> H -1.2611238784 1.8601201663 -0.126545744
| 20> H -2.9373680321 -0.0171848972 0.2875877579
| 21> *
| 22>
| 23>                          ****END OF INPUT****

CARTESIAN COORDINATES (ANGSTROEM)
---------------------------------
  C      2.815652   -0.435950   -0.090342
  C      1.388517   -0.323504    0.429837
  C      0.642000    0.840862   -0.217564
  C     -0.780046    0.980835    0.298814
  S     -1.792341   -0.477099   -0.198791
  H      3.327253   -1.270921    0.381269
  H      3.371313    0.474501    0.122868
  H      2.817229   -0.595259   -1.166317
  H      1.404167   -0.183307    1.513310
  H      0.850954   -1.252470    0.223149
  H      0.618423    0.699500   -1.301023
  H      1.172966    1.773374   -0.011015
  H     -0.797945    1.031397    1.387045
  H     -1.261124    1.860120   -0.126546
  H     -2.937368   -0.017185    0.287588

 Total Charge           Charge          ....    0
 Multiplicity           Mult            ....    1
 Number of Electrons    NEL             ....   50
 Basis Dimension        Dim             ....   94

ORBITAL ENERGIES
----------------

  NO   OCC          E(Eh)            E(eV)
   0   2.0000     -88.010578     -2394.8896
   1   2.0000      -9.915466      -269.8136
   2   2.0000      -9.891882      -269.1718
   3   2.0000      -9.883333      -268.9392
   4   2.0000      -9.872993      -268.6578
   5   2.0000      -7.656983      -208.3571
   6   2.0000      -5.685393      -154.7074
   7   2.0000      -5.681628      -154.6050
   8   2.0000      -5.673023      -154.3708
   9   2.0000      -0.737463       -20.0674
  10   2.0000      -0.684619       -18.6294
  11   2.0000      -0.622827       -16.9480
  12   2.0000      -0.550658       -14.9842
  13   2.0000      -0.511096       -13.9076
  14   2.0000      -0.432923       -11.7804
  15   2.0000      -0.403316       -10.9748
  16   2.0000      -0.388807       -10.5800
  17   2.0000      -0.373920       -10.1749
  18   2.0000      -0.335683        -9.1344
  19   2.0000      -0.329326        -8.9614
  20   2.0000      -0.301839        -8.2135
  21   2.0000      -0.299238        -8.1427
  22   2.0000      -0.289199        -7.8695
  23   2.0000      -0.273511        -7.4426
  24   2.0000      -0.189933        -5.1684
  25   0.0000       0.002011         0.0547
  26   0.0000       0.041589         1.1317
  27   0.0000       0.049746         1.3537
  28   0.0000       0.063847         1.7374
  29   0.0000       0.073709         2.0057

MULLIKEN ATOMIC CHARGES
-----------------------
   0 C :   -0.257743
   1 C :   -0.208961
   2 C :   -0.178535
   3 C :   -0.238604
   4 S :   -0.197436
   5 H :    0.104750
   6 H :    0.095308
   7 H :    0.099399
   8 H :    0.085527
   9 H :    0.107890
  10 H :    0.097483
  11 H :    0.095071
  12 H :    0.123781
  13 H :    0.126584
  14 H :    0.145486
Sum of atomic charges:    0.0000000

LOEWDIN ATOMIC CHARGES
----------------------
   0 C :   -0.339437
   1 C :   -0.239253
   2 C :   -0.243732
   3 C :   -0.323726
   4 S :    0.002675
   5 H :    0.120140
   6 H :    0.115524
   7 H :    0.118038
   8 H :    0.115076
   9 H :    0.116639
  10 H :    0.118991
  11 H :    0.121748
  12 H :    0.118696
  13 H :    0.120556
  14 H :    0.078066

  Mayer bond orders larger than 0.100000
B(  0-C ,  1-C ) :   1.1578 B(  0-C ,  5-H ) :   0.9536 B(  0-C ,  6-H ) :   0.9547
B(  0-C ,  7-H ) :   0.9544 B(  1-C ,  2-C ) :   1.1273 B(  1-C ,  8-H ) :   0.9273
B(  1-C ,  9-H ) :   0.9221 B(  2-C ,  3-C ) :   1.1206 B(  2-C , 10-H ) :   0.9202
B(  2-C , 11-H ) :   0.9200 B(  3-C ,  4-S ) :   1.0466 B(  3-C , 12-H ) :   0.9217
B(  3-C , 13-H ) :   0.9285 B(  4-S , 14-H ) :   0.9087

Dispersion correction           -0.010984376
FINAL SINGLE POINT ENERGY      -555.911721405068

DIPOLE MOMENT
-------------

Method             : SCF
Type of density    : Electron Density
Multiplicity       :   1
Irrep              :   0
Energy             :  -555.9635558351603777 Eh
Relativity type    :
Basis              : AO
                                X                 Y                 Z
Electronic contribution:     -8.011685442      -1.855264196      -0.965427603
Nuclear contribution   :      8.087128755       2.377501000       1.234956154
                        -----------------------------------------
Total Dipole Moment    :      0.075443313       0.522236804       0.269528551
                        -----------------------------------------
Magnitude (a.u.)       :      0.592510432
Magnitude (Debye)      :      1.506041832

Rotational constants in cm-1:             0.303887             0.057689             0.052149
Rotational constants in MHz :          9110.298519          1729.458675          1563.387553

                             ****ORCA TERMINATED NORMALLY****
TOTAL RUN TIME: 0 days 0 hours 0 minutes 5 seconds 476 msec
