                         Program Version 6.0.0  -   RELEASE  -
|  1> ! r2scan-3c def2/J RI DEFGRID2 scfconv6 printgap
|  2> %output
|  3>     printlevel normal
|  4> end
|  5> * xyz 0 1
|  6> C -1.6008494103 -0.1665885079 1.5072863661
|  7> C -1.2985051114 -0.4716571238 0.0411730685
|  8> C -2.5134817517 -0.1284947285 -0.8210960803
|  9> C -0.0147151536 0.2231413318 -0.4661003141
| 10> C -0.0448356101 1.7341530906 -0.2384006213
| 11> C 1.2468828689 -0.4875482049 0.1041726452
| 12> C 1.9987233332 -1.1977512707 -1.0233835938
| 13> C 2.2196093 0.4142938818 0.8633777846
| 14> H -0.7269065362 -0.3377212053 2.1306736612
| 15> H -1.917554225 0.8659446593 1.6281636101
| 16> H -2.4037978745 -0.8089690581 1.8625780582
| 17> H -1.1296690042 -1.5516944023 -0.0542938049
| 18> H -2.3148546025 -0.3427742536 -1.8689188648
| 19> H -2.7781788415 0.9215297888 -0.7269877082
| 20> H -3.3709487213 -0.7199123816 -0.5077018503
| 21> H 0.0007143118 0.0772773912 -1.5526506268
| 22> H -0.9389697351 2.1568053223 -0.6893544638
| 23> H 0.8143685651 2.2039631357 -0.7092662423
| 24> H -0.0406163404 1.9868213721 0.8168394005
| 25> H 0.9128758958 -1.2573090827 0.8086423221
| 26> H 2.8470302575 -1.7525964395 -0.628137317
| 27> H 1.344956897 -1.8970337249 -1.5400827846
| 28> H 2.3706079013 -0.4735160968 -1.7454088778
| 29> H 3.03701488 -0.1892604706 1.2533629805
| 30> H 1.7350440698 0.9036962604 1.7031322276
| 31> H 2.6443452587 1.1734785703 0.212317929
| 32> *
| 33>
| 34>                          ****END OF INPUT****

CARTESIAN COORDINATES (ANGSTROEM)
---------------------------------
  C     -1.600849   -0.166589    1.507286
  C     -1.298505   -0.471657    0.041173
  C     -2.513482   -0.128495   -0.821096
  C     -0.014715    0.223141   -0.466100
  C     -0.044836    1.734153   -0.238401
  C      1.246883   -0.487548    0.104173
  C      1.998723   -1.197751   -1.023384
  C      2.219609    0.414294    0.863378
  H     -0.726907   -0.337721    2.130674
  H     -1.917554    0.865945    1.628164
  H     -2.403798   -0.808969    1.862578
  H     -1.129669   -1.551694   -0.054294
  H     -2.314855   -0.342774   -1.868919
  H     -2.778179    0.921530   -0.726988
  H     -3.370949   -0.719912   -0.507702
  H      0.000714    0.077277   -1.552651
  H     -0.938970    2.156805   -0.689354
  H      0.814369    2.203963   -0.709266
  H     -0.040616    1.986821    0.816839
  H      0.912876   -1.257309    0.808642
  H      2.847030   -1.752596   -0.628137
  H      1.344957   -1.897034   -1.540083
  H      2.370608   -0.473516   -1.745409
  H      3.037015   -0.189260    1.253363
  H      1.735044    0.903696    1.703132
  H      2.644345    1.173479    0.212318

 Total Charge           Charge          ....    0
 Multiplicity           Mult            ....    1
 Number of Electrons    NEL             ....   66
 Basis Dimension        Dim             ....  242

ORBITAL ENERGIES
----------------

  NO   OCC          E(Eh)            E(eV)
   0   2.0000     -10.029124      -272.9063
   1   2.0000     -10.028497      -272.8893
   2   2.0000     -10.025869      -272.8178
   3   2.0000     -10.012724      -272.4601
   4   2.0000     -10.012561      -272.4556
   5   2.0000     -10.011887      -272.4373
   6   2.0000     -10.011513      -272.4271
   7   2.0000     -10.011216      -272.4190
   8   2.0000      -0.792820       -21.5737
   9   2.0000      -0.742820       -20.2132
  10   2.0000      -0.686300       -18.6752
  11   2.0000      -0.649782       -17.6815
  12   2.0000      -0.645350       -17.5609
  13   2.0000      -0.604289       -16.4435
  14   2.0000      -0.532839       -14.4993
  15   2.0000      -0.499646       -13.5961
  16   2.0000      -0.443244       -12.0613
  17   2.0000      -0.421394       -11.4667
  18   2.0000      -0.420169       -11.4334
  19   2.0000      -0.391673       -10.6580
  20   2.0000      -0.381259       -10.3746
  21   2.0000      -0.368501       -10.0274
  22   2.0000      -0.358989        -9.7686
  23   2.0000      -0.356186        -9.6923
  24   2.0000      -0.344572        -9.3763
  25   2.0000      -0.334031        -9.0894
  26   2.0000      -0.328866        -8.9489
  27   2.0000      -0.317660        -8.6440
  28   2.0000      -0.301945        -8.2163
  29   2.0000      -0.295496        -8.0408
  30   2.0000      -0.275563        -7.4984
  31   2.0000      -0.271682        -7.3928
  32   2.0000      -0.263217        -7.1625
  33   0.0000       0.073750         2.0068
  34   0.0000       0.101324         2.7572
  35   0.0000       0.106148         2.8884
  36   0.0000       0.111051         3.0219
  37   0.0000       0.125794         3.4230

MULLIKEN ATOMIC CHARGES
-----------------------
   0 C :   -0.508209
   1 C :   -0.074045
   2 C :   -0.513457
   3 C :   -0.014852
   4 C :   -0.558702
   5 C :   -0.066403
   6 C :   -0.508606
   7 C :   -0.502358
   8 H :    0.152979
   9 H :    0.158272
  10 H :    0.148604
  11 H :    0.156054
  12 H :    0.146340
  13 H :    0.152355
  14 H :    0.148186
  15 H :    0.162536
  16 H :    0.154113
  17 H :    0.147549
  18 H :    0.167771
  19 H :    0.159727
  20 H :    0.142877
  21 H :    0.147985
  22 H :    0.153706
  23 H :    0.147876
  24 H :    0.145700
  25 H :    0.154001
Sum of atomic charges:    0.0000000

LOEWDIN ATOMIC CHARGES
----------------------
   0 C :   -0.415723
   1 C :   -0.240137
   2 C :   -0.417115
   3 C :   -0.224649
   4 C :   -0.409406
   5 C :   -0.240589
   6 C :   -0.415144
   7 C :   -0.414496
   8 H :    0.154873
   9 H :    0.154250
  10 H :    0.153980
  11 H :    0.157008
  12 H :    0.153143
  13 H :    0.151490
  14 H :    0.153387
  15 H :    0.162513
  16 H :    0.155257
  17 H :    0.154499
  18 H :    0.154742
  19 H :    0.158160
  20 H :    0.150475
  21 H :    0.152217
  22 H :    0.152637
  23 H :    0.153379
  24 H :    0.152205
  25 H :    0.153044

  Mayer bond orders larger than 0.100000
B(  0-C ,  1-C ) :   0.8847 B(  0-C ,  8-H ) :   0.9733 B(  0-C ,  9-H ) :   0.9838
B(  0-C , 10-H ) :   0.9713 B(  1-C ,  2-C ) :   0.9140 B(  1-C ,  3-C ) :   0.8334
B(  1-C , 11-H ) :   0.9770 B(  2-C , 12-H ) :   0.9794 B(  2-C , 13-H ) :   0.9859
B(  2-C , 14-H ) :   0.9758 B(  3-C ,  4-C ) :   0.8553 B(  3-C ,  5-C ) :   0.8482
B(  3-C , 15-H ) :   1.0035 B(  4-C , 16-H ) :   0.9783 B(  4-C , 17-H ) :   0.9697
B(  4-C , 18-H ) :   0.9866 B(  5-C ,  6-C ) :   0.8968 B(  5-C ,  7-C ) :   0.8960
B(  5-C , 19-H ) :   0.9783 B(  6-C , 20-H ) :   0.9755 B(  6-C , 21-H ) :   0.9757
B(  6-C , 22-H ) :   0.9880 B(  7-C , 23-H ) :   0.9703 B(  7-C , 24-H ) :   0.9768
B(  7-C , 25-H ) :   0.9912

Dispersion correction           -0.008047714
FINAL SINGLE POINT ENERGY      -315.580653982668

DIPOLE MOMENT
-------------

Method             : SCF
Type of density    : Electron Density
Multiplicity       :   1
Irrep              :   0
Energy             :  -315.5854824276988779 Eh
Relativity type    :
Basis              : AO
                                X                 Y                 Z
Electronic contribution:     -0.090099293      -0.948072797      -0.369006491
Nuclear contribution   :      0.080177316       0.899443125       0.368610881
                        -----------------------------------------
Total Dipole Moment    :     -0.009921977      -0.048629672      -0.000395610
                        -----------------------------------------
Magnitude (a.u.)       :      0.049633125
Magnitude (Debye)      :      0.126157378

Rotational constants in cm-1:             0.092940             0.041658             0.039088
Rotational constants in MHz :          2786.278129          1248.884811          1171.821591

                             ****ORCA TERMINATED NORMALLY****
TOTAL RUN TIME: 0 days 0 hours 0 minutes 27 seconds 764 msec
