                         Program Version 6.0.0  -   RELEASE  -
|  1> ! r2scan-3c def2/J RI DEFGRID2 scfconv6 printgap
|  2> %output
|  3>     printlevel normal
|  4> end
|  5> %cpcm
|  6>     smd true
|  7>     smdsolvent "water"
|  8> end
|  9> * xyz 0 1
| 10> C -1.6008494103 -0.1665885079 1.5072863661
| 11> C -1.2985051114 -0.4716571238 0.0411730685
| 12> C -2.5134817517 -0.1284947285 -0.8210960803
| 13> C -0.0147151536 0.2231413318 -0.4661003141
| 14> C -0.0448356101 1.7341530906 -0.2384006213
| 15> C 1.2468828689 -0.4875482049 0.1041726452
| 16> C 1.9987233332 -1.1977512707 -1.0233835938
| 17> C 2.2196093 0.4142938818 0.8633777846
| 18> H -0.7269065362 -0.3377212053 2.1306736612
| 19> H -1.917554225 0.8659446593 1.6281636101
| 20> H -2.4037978745 -0.8089690581 1.8625780582
| 21> H -1.1296690042 -1.5516944023 -0.0542938049
| 22> H -2.3148546025 -0.3427742536 -1.8689188648
| 23> H -2.7781788415 0.9215297888 -0.7269877082
| 24> H -3.3709487213 -0.7199123816 -0.5077018503
| 25> H 0.0007143118 0.0772773912 -1.5526506268
| 26> H -0.9389697351 2.1568053223 -0.6893544638
| 27> H 0.8143685651 2.2039631357 -0.7092662423
| 28> H -0.0406163404 1.9868213721 0.8168394005
| 29> H 0.9128758958 -1.2573090827 0.8086423221
| 30> H 2.8470302575 -1.7525964395 -0.628137317
| 31> H 1.344956897 -1.8970337249 -1.5400827846
| 32> H 2.3706079013 -0.4735160968 -1.7454088778
| 33> H 3.03701488 -0.1892604706 1.2533629805
| 34> H 1.7350440698 0.9036962604 1.7031322276
| 35> H 2.6443452587 1.1734785703 0.212317929
| 36> *
| 37>
| 38>                          ****END OF INPUT****

CARTESIAN COORDINATES (ANGSTROEM)
---------------------------------
  C     -1.600849   -0.166589    1.507286
  C     -1.298505   -0.471657    0.041173
  C     -2.513482   -0.128495   -0.821096
  C     -0.014715    0.223141   -0.466100
  C     -0.044836    1.734153   -0.238401
  C      1.246883   -0.487548    0.104173
  C      1.998723   -1.197751   -1.023384
  C      2.219609    0.414294    0.863378
  H     -0.726907   -0.337721    2.130674
  H     -1.917554    0.865945    1.628164
  H     -2.403798   -0.808969    1.862578
  H     -1.129669   -1.551694   -0.054294
  H     -2.314855   -0.342774   -1.868919
  H     -2.778179    0.921530   -0.726988
  H     -3.370949   -0.719912   -0.507702
  H      0.000714    0.077277   -1.552651
  H     -0.938970    2.156805   -0.689354
  H      0.814369    2.203963   -0.709266
  H     -0.040616    1.986821    0.816839
  H      0.912876   -1.257309    0.808642
  H      2.847030   -1.752596   -0.628137
  H      1.344957   -1.897034   -1.540083
  H      2.370608   -0.473516   -1.745409
  H      3.037015   -0.189260    1.253363
  H      1.735044    0.903696    1.703132
  H      2.644345    1.173479    0.212318

 Total Charge           Charge          ....    0
 Multiplicity           Mult            ....    1
 Number of Electrons    NEL             ....   66
 Basis Dimension        Dim             ....  242

ORBITAL ENERGIES
----------------

  NO   OCC          E(Eh)            E(eV)
   0   2.0000     -10.020976      -272.6846
   1   2.0000     -10.020352      -272.6676
   2   2.0000     -10.017517      -272.5905
   3   2.0000     -10.004712      -272.2421
   4   2.0000     -10.004360      -272.2325
   5   2.0000     -10.003836      -272.2182
   6   2.0000     -10.003290      -272.2034
   7   2.0000     -10.002584      -272.1842
   8   2.0000      -0.784547       -21.3486
   9   2.0000      -0.734892       -19.9974
  10   2.0000      -0.678362       -18.4592
  11   2.0000      -0.642230       -17.4760
  12   2.0000      -0.637888       -17.3578
  13   2.0000      -0.596474       -16.2309
  14   2.0000      -0.525208       -14.2916
  15   2.0000      -0.491547       -13.3757
  16   2.0000      -0.434895       -11.8341
  17   2.0000      -0.413324       -11.2471
  18   2.0000      -0.412239       -11.2176
  19   2.0000      -0.383883       -10.4460
  20   2.0000      -0.373374       -10.1600
  21   2.0000      -0.360539        -9.8108
  22   2.0000      -0.351102        -9.5540
  23   2.0000      -0.348091        -9.4720
  24   2.0000      -0.336434        -9.1548
  25   2.0000      -0.326001        -8.8709
  26   2.0000      -0.321041        -8.7360
  27   2.0000      -0.309581        -8.4241
  28   2.0000      -0.294180        -8.0050
  29   2.0000      -0.287199        -7.8151
  30   2.0000      -0.267440        -7.2774
  31   2.0000      -0.263321        -7.1653
  32   2.0000      -0.255139        -6.9427
  33   0.0000       0.082725         2.2511
  34   0.0000       0.109461         2.9786
  35   0.0000       0.113822         3.0972
  36   0.0000       0.119427         3.2498
  37   0.0000       0.133546         3.6340

MULLIKEN ATOMIC CHARGES
-----------------------
   0 C :   -0.547058
   1 C :   -0.056863
   2 C :   -0.559821
   3 C :   -0.011105
   4 C :   -0.600508
   5 C :   -0.042756
   6 C :   -0.552079
   7 C :   -0.554123
   8 H :    0.162367
   9 H :    0.166906
  10 H :    0.158908
  11 H :    0.161907
  12 H :    0.156256
  13 H :    0.165704
  14 H :    0.158434
  15 H :    0.166851
  16 H :    0.164123
  17 H :    0.160298
  18 H :    0.178275
  19 H :    0.166096
  20 H :    0.153258
  21 H :    0.157505
  22 H :    0.163845
  23 H :    0.157945
  24 H :    0.158414
  25 H :    0.167220
Sum of atomic charges:    0.0000000

LOEWDIN ATOMIC CHARGES
----------------------
   0 C :   -0.423551
   1 C :   -0.238272
   2 C :   -0.426323
   3 C :   -0.223254
   4 C :   -0.417730
   5 C :   -0.238054
   6 C :   -0.423925
   7 C :   -0.423561
   8 H :    0.157280
   9 H :    0.156232
  10 H :    0.155726
  11 H :    0.158758
  12 H :    0.155058
  13 H :    0.154617
  14 H :    0.155158
  15 H :    0.163692
  16 H :    0.157294
  17 H :    0.156665
  18 H :    0.157209
  19 H :    0.160234
  20 H :    0.152238
  21 H :    0.154213
  22 H :    0.154817
  23 H :    0.154998
  24 H :    0.154825
  25 H :    0.155655

  Mayer bond orders larger than 0.100000
B(  0-C ,  1-C ) :   0.8789 B(  0-C ,  8-H ) :   0.9712 B(  0-C ,  9-H ) :   0.9814
B(  0-C , 10-H ) :   0.9702 B(  1-C ,  2-C ) :   0.9031 B(  1-C ,  3-C ) :   0.8334
B(  1-C , 11-H ) :   0.9783 B(  2-C , 12-H ) :   0.9774 B(  2-C , 13-H ) :   0.9831
B(  2-C , 14-H ) :   0.9743 B(  3-C ,  4-C ) :   0.8453 B(  3-C ,  5-C ) :   0.8518
B(  3-C , 15-H ) :   1.0044 B(  4-C , 16-H ) :   0.9744 B(  4-C , 17-H ) :   0.9698
B(  4-C , 18-H ) :   0.9847 B(  5-C ,  6-C ) :   0.8874 B(  5-C ,  7-C ) :   0.8785
B(  5-C , 19-H ) :   0.9791 B(  6-C , 20-H ) :   0.9748 B(  6-C , 21-H ) :   0.9736
B(  6-C , 22-H ) :   0.9854 B(  7-C , 23-H ) :   0.9688 B(  7-C , 24-H ) :   0.9759
B(  7-C , 25-H ) :   0.9906

Dispersion correction           -0.008047714
FINAL SINGLE POINT ENERGY      -315.576428429984

DIPOLE MOMENT
-------------

Method             : SCF
Type of density    : Electron Density
Multiplicity       :   1
Irrep              :   0
Energy             :  -315.5812568750149580 Eh
Relativity type    :
Basis              : AO
                                X                 Y                 Z
Electronic contribution:     -0.093676686      -0.957973971      -0.365407291
Nuclear contribution   :      0.080177316       0.899443125       0.368610881
                        -----------------------------------------
Total Dipole Moment    :     -0.013499370      -0.058530846       0.003203590
                        -----------------------------------------
Magnitude (a.u.)       :      0.060152772
Magnitude (Debye)      :      0.152896195

Rotational constants in cm-1:             0.092940             0.041658             0.039088
Rotational constants in MHz :          2786.278129          1248.884811          1171.821591

                             ****ORCA TERMINATED NORMALLY****
TOTAL RUN TIME: 0 days 0 hours 0 minutes 33 seconds 149 msec
