                         Program Version 6.0.0  -   RELEASE  -
|  1> ! r2scan-3c def2/J RI DEFGRID2 scfconv6 printgap
|  2> %output
|  3>     printlevel normal
|  4> end
|  5> * xyz 0 1
|  6> C 2.4714239957 0.8425180108 0.2990569649
|  7> C 1.2456533799 -0.0662312377 0.2494271257
|  8> C 1.4744515132 -1.2214423828 -0.7229927618
|  9> C 0.0063629973 0.7366387808 -0.1562606295
| 10> C -1.2995625454 0.0293773797 0.0928695556
| 11> O -1.3802296536 -1.0453387358 0.6560823488
| 12> C -2.5218452467 0.7655585487 -0.3854377895
| 13> H 2.3337295181 1.6394598585 1.0258916074
| 14> H 3.3525331351 0.2718979499 0.5810120502
| 15> H 2.6505345048 1.2892840288 -0.6762684653
| 16> H 1.0673601379 -0.48542036 1.2459722528
| 17> H 0.6061542617 -1.8760922467 -0.7413221509
| 18> H 2.3371390158 -1.8090784049 -0.4188895406
| 19> H 1.6509050934 -0.8443879521 -1.7284058813
| 20> H 0.0578540588 0.9991350647 -1.2150637908
| 21> H -0.0346241328 1.6733892665 0.4062098851
| 22> H -3.1355028212 1.0173975714 0.4773593132
| 23> H -2.2659097294 1.6676232668 -0.9290996672
| 24> H -3.1137776982 0.1037934085 -1.0138196655
| 25> *
| 26>
| 27>                          ****END OF INPUT****

CARTESIAN COORDINATES (ANGSTROEM)
---------------------------------
  C      2.471424    0.842518    0.299057
  C      1.245653   -0.066231    0.249427
  C      1.474452   -1.221442   -0.722993
  C      0.006363    0.736639   -0.156261
  C     -1.299563    0.029377    0.092870
  O     -1.380230   -1.045339    0.656082
  C     -2.521845    0.765559   -0.385438
  H      2.333730    1.639460    1.025892
  H      3.352533    0.271898    0.581012
  H      2.650535    1.289284   -0.676268
  H      1.067360   -0.485420    1.245972
  H      0.606154   -1.876092   -0.741322
  H      2.337139   -1.809078   -0.418890
  H      1.650905   -0.844388   -1.728406
  H      0.057854    0.999135   -1.215064
  H     -0.034624    1.673389    0.406210
  H     -3.135503    1.017398    0.477359
  H     -2.265910    1.667623   -0.929100
  H     -3.113778    0.103793   -1.013820

 Total Charge           Charge          ....    0
 Multiplicity           Mult            ....    1
 Number of Electrons    NEL             ....   56
 Basis Dimension        Dim             ....  198

ORBITAL ENERGIES
----------------

  NO   OCC          E(Eh)            E(eV)
   0   2.0000     -18.937947      -515.3277
   1   2.0000     -10.120095      -275.3818
   2   2.0000     -10.038520      -273.1620
   3   2.0000     -10.035528      -273.0806
   4   2.0000     -10.034277      -273.0465
   5   2.0000     -10.017740      -272.5966
   6   2.0000     -10.011146      -272.4171
   7   2.0000      -1.004217       -27.3261
   8   2.0000      -0.782017       -21.2798
   9   2.0000      -0.728256       -19.8169
  10   2.0000      -0.667056       -18.1515
  11   2.0000      -0.649553       -17.6752
  12   2.0000      -0.542666       -14.7667
  13   2.0000      -0.496153       -13.5010
  14   2.0000      -0.448262       -12.1978
  15   2.0000      -0.437167       -11.8959
  16   2.0000      -0.419085       -11.4039
  17   2.0000      -0.408257       -11.1092
  18   2.0000      -0.385860       -10.4998
  19   2.0000      -0.381107       -10.3704
  20   2.0000      -0.365184        -9.9372
  21   2.0000      -0.354308        -9.6412
  22   2.0000      -0.340783        -9.2732
  23   2.0000      -0.322085        -8.7644
  24   2.0000      -0.301934        -8.2160
  25   2.0000      -0.298531        -8.1234
  26   2.0000      -0.295200        -8.0328
  27   2.0000      -0.215051        -5.8518
  28   0.0000      -0.045989        -1.2514
  29   0.0000       0.071141         1.9358
  30   0.0000       0.098264         2.6739
  31   0.0000       0.123051         3.3484
  32   0.0000       0.126769         3.4496

MULLIKEN ATOMIC CHARGES
-----------------------
   0 C :   -0.459918
   1 C :    0.009368
   2 C :   -0.548961
   3 C :   -0.311881
   4 C :    0.310017
   5 O :   -0.358903
   6 C :   -0.537553
   7 H :    0.143432
   8 H :    0.149871
   9 H :    0.141807
  10 H :    0.158535
  11 H :    0.176812
  12 H :    0.145969
  13 H :    0.141465
  14 H :    0.161765
  15 H :    0.163017
  16 H :    0.180329
  17 H :    0.155472
  18 H :    0.179358
Sum of atomic charges:   -0.0000000

LOEWDIN ATOMIC CHARGES
----------------------
   0 C :   -0.414700
   1 C :   -0.234584
   2 C :   -0.409867
   3 C :   -0.280827
   4 C :    0.222793
   5 O :   -0.476239
   6 C :   -0.391880
   7 H :    0.151527
   8 H :    0.154846
   9 H :    0.152793
  10 H :    0.170576
  11 H :    0.168179
  12 H :    0.154457
  13 H :    0.149566
  14 H :    0.178500
  15 H :    0.182684
  16 H :    0.182358
  17 H :    0.158335
  18 H :    0.181482

  Mayer bond orders larger than 0.100000
B(  0-C ,  1-C ) :   0.8844 B(  0-C ,  7-H ) :   0.9818 B(  0-C ,  8-H ) :   0.9788
B(  0-C ,  9-H ) :   0.9793 B(  1-C ,  2-C ) :   0.9063 B(  1-C ,  3-C ) :   0.9094
B(  1-C , 10-H ) :   0.9592 B(  2-C , 11-H ) :   0.9696 B(  2-C , 12-H ) :   0.9715
B(  2-C , 13-H ) :   0.9868 B(  3-C ,  4-C ) :   0.9126 B(  3-C ,  5-O ) :  -0.1034
B(  3-C , 14-H ) :   0.9501 B(  3-C , 15-H ) :   0.9349 B(  4-C ,  5-O ) :   1.9173
B(  4-C ,  6-C ) :   0.8876 B(  6-C , 16-H ) :   0.9583 B(  6-C , 17-H ) :   0.9763
B(  6-C , 18-H ) :   0.9617

Dispersion correction           -0.004936740
FINAL SINGLE POINT ENERGY      -311.005180859452

DIPOLE MOMENT
-------------

Method             : SCF
Type of density    : Electron Density
Multiplicity       :   1
Irrep              :   0
Energy             :  -311.0091287094569452 Eh
Relativity type    :
Basis              : AO
                                X                 Y                 Z
Electronic contribution:     -5.092794258      -2.464973113       2.347616398
Nuclear contribution   :      5.145433513       3.405982820      -2.792026471
                        -----------------------------------------
Total Dipole Moment    :      0.052639255       0.941009707      -0.444410073
                        -----------------------------------------
Magnitude (a.u.)       :      1.042003106
Magnitude (Debye)      :      2.648561411

Rotational constants in cm-1:             0.159748             0.050773             0.044211
Rotational constants in MHz :          4789.133196          1522.147959          1325.411696

                             ****ORCA TERMINATED NORMALLY****
TOTAL RUN TIME: 0 days 0 hours 0 minutes 28 seconds 212 msec
