                         Program Version 6.0.0  -   RELEASE  -
|  1> ! pbe def2-sv(p) def2/J RI DEFGRID1 loosescf d4 GCP(DFT/SV(P)) printgap
|  2> %output
|  3>     printlevel normal
|  4> end
|  5> * xyz 0 1
|  6> C -1.4344394718 0.0154961097 0.6500207907
|  7> C 0.0687961201 0.3069549462 0.5163770188
|  8> C 0.8538688966 -0.9092896381 -0.0054146559
|  9> O 2.2413942612 -0.6659245831 -0.0008242998
| 10> O 0.2845973936 1.4151804491 -0.3337821889
| 11> O -2.0372264101 -0.1953325304 -0.6085202007
| 12> H -1.9248449878 0.8980235447 1.0680579224
| 13> H -1.5933780818 -0.8317429861 1.3226137542
| 14> H 0.4722692384 0.5890723363 1.4946000552
| 15> H 0.5264824762 -1.1518409579 -1.0261683962
| 16> H 0.6928722686 -1.7723405431 0.6433436338
| 17> H 2.3925994092 0.2049004772 -0.3998866354
| 18> H -0.360276011 1.3614382169 -1.0575459248
| 19> H -1.8657080364 -1.0972989282 -0.9088327914
| 20> *
| 21>
| 22>                          ****END OF INPUT****

CARTESIAN COORDINATES (ANGSTROEM)
---------------------------------
  C     -1.434439    0.015496    0.650021
  C      0.068796    0.306955    0.516377
  C      0.853869   -0.909290   -0.005415
  O      2.241394   -0.665925   -0.000824
  O      0.284597    1.415180   -0.333782
  O     -2.037226   -0.195333   -0.608520
  H     -1.924845    0.898024    1.068058
  H     -1.593378   -0.831743    1.322614
  H      0.472269    0.589072    1.494600
  H      0.526482   -1.151841   -1.026168
  H      0.692872   -1.772341    0.643344
  H      2.392599    0.204900   -0.399887
  H     -0.360276    1.361438   -1.057546
  H     -1.865708   -1.097299   -0.908833

 Total Charge           Charge          ....    0
 Multiplicity           Mult            ....    1
 Number of Electrons    NEL             ....   50
 Basis Dimension        Dim             ....  100

ORBITAL ENERGIES
----------------

  NO   OCC          E(Eh)            E(eV)
   0   2.0000     -18.769675      -510.7488
   1   2.0000     -18.753079      -510.2972
   2   2.0000     -18.738901      -509.9114
   3   2.0000      -9.942968      -270.5619
   4   2.0000      -9.940006      -270.4813
   5   2.0000      -9.932151      -270.2676
   6   2.0000      -0.951235       -25.8844
   7   2.0000      -0.928008       -25.2524
   8   2.0000      -0.908113       -24.7110
   9   2.0000      -0.682782       -18.5794
  10   2.0000      -0.613836       -16.7033
  11   2.0000      -0.554177       -15.0799
  12   2.0000      -0.483668       -13.1613
  13   2.0000      -0.467518       -12.7218
  14   2.0000      -0.435215       -11.8428
  15   2.0000      -0.420206       -11.4344
  16   2.0000      -0.396382       -10.7861
  17   2.0000      -0.384729       -10.4690
  18   2.0000      -0.348441        -9.4816
  19   2.0000      -0.304110        -8.2753
  20   2.0000      -0.293644        -7.9905
  21   2.0000      -0.280154        -7.6234
  22   2.0000      -0.247898        -6.7456
  23   2.0000      -0.233681        -6.3588
  24   2.0000      -0.202297        -5.5048
  25   0.0000       0.005789         0.1575
  26   0.0000       0.046087         1.2541
  27   0.0000       0.053126         1.4456
  28   0.0000       0.071085         1.9343
  29   0.0000       0.085341         2.3223

MULLIKEN ATOMIC CHARGES
-----------------------
   0 C :   -0.003479
   1 C :   -0.016636
   2 C :    0.049698
   3 O :   -0.439395
   4 O :   -0.440068
   5 O :   -0.441258
   6 H :    0.101824
   7 H :    0.084579
   8 H :    0.078796
   9 H :    0.044280
  10 H :    0.077996
  11 H :    0.297284
  12 H :    0.300485
  13 H :    0.305894
Sum of atomic charges:    0.0000000

LOEWDIN ATOMIC CHARGES
----------------------
   0 C :   -0.136779
   1 C :   -0.102772
   2 C :   -0.140282
   3 O :   -0.342197
   4 O :   -0.328516
   5 O :   -0.334179
   6 H :    0.118830
   7 H :    0.104970
   8 H :    0.117851
   9 H :    0.085912
  10 H :    0.110307
  11 H :    0.280086
  12 H :    0.279913
  13 H :    0.286857

  Mayer bond orders larger than 0.100000
B(  0-C ,  1-C ) :   1.0289 B(  0-C ,  5-O ) :   1.0505 B(  0-C ,  6-H ) :   0.9217
B(  0-C ,  7-H ) :   0.9219 B(  1-C ,  2-C ) :   1.0332 B(  1-C ,  4-O ) :   1.0337
B(  1-C ,  8-H ) :   0.8894 B(  2-C ,  3-O ) :   1.0794 B(  2-C ,  9-H ) :   0.8987
B(  2-C , 10-H ) :   0.9196 B(  3-O , 11-H ) :   0.8384 B(  4-O , 12-H ) :   0.8331
B(  5-O , 13-H ) :   0.8462

Dispersion correction           -0.009250662
FINAL SINGLE POINT ENERGY      -344.011417969187

DIPOLE MOMENT
-------------

Method             : SCF
Type of density    : Electron Density
Multiplicity       :   1
Irrep              :   0
Energy             :  -344.0856475583732390 Eh
Relativity type    :
Basis              : AO
                                X                 Y                 Z
Electronic contribution:      0.922327527       1.286982711      -1.160774330
Nuclear contribution   :     -1.550093719      -1.680287472       1.051928655
                        -----------------------------------------
Total Dipole Moment    :     -0.627766193      -0.393304762      -0.108845674
                        -----------------------------------------
Magnitude (a.u.)       :      0.748749898
Magnitude (Debye)      :      1.903170992

Rotational constants in cm-1:             0.205699             0.074666             0.065098
Rotational constants in MHz :          6166.687734          2238.425185          1951.590735

                             ****ORCA TERMINATED NORMALLY****
TOTAL RUN TIME: 0 days 0 hours 0 minutes 6 seconds 532 msec
