                         Program Version 6.0.0  -   RELEASE  -
|  1> ! pbe def2-sv(p) def2/J RI DEFGRID1 loosescf d4 GCP(DFT/SV(P)) printgap
|  2> %output
|  3>     printlevel normal
|  4> end
|  5> * xyz 0 1
|  6> C -1.4566473342 0.3593243216 -0.2200806411
|  7> C 0.0035043388 0.3835515683 0.2649413884
|  8> C 0.8218815959 -0.7264714328 -0.4086076598
|  9> O 2.0960832668 -0.8756563307 0.1715672329
| 10> O 0.5916039826 1.6499736198 0.0561764693
| 11> O -2.1269523644 -0.8296867649 0.1164900957
| 12> H -1.479764943 0.4095473916 -1.31256417
| 13> H -1.9766688636 1.2373864083 0.1836257699
| 14> H 0.0378020581 0.2335610053 1.350169169
| 15> H 0.9154946875 -0.5090135616 -1.4828871222
| 16> H 0.3089890127 -1.6822316224 -0.2892450544
| 17> H 2.5067354802 0.0002981347 0.2296705037
| 18> H 0.5463599025 1.873724503 -0.8847135999
| 19> H -2.2375110277 -0.8798500809 1.0762473279
| 20> *
| 21>
| 22>                          ****END OF INPUT****

CARTESIAN COORDINATES (ANGSTROEM)
---------------------------------
  C     -1.456647    0.359324   -0.220081
  C      0.003504    0.383552    0.264941
  C      0.821882   -0.726471   -0.408608
  O      2.096083   -0.875656    0.171567
  O      0.591604    1.649974    0.056176
  O     -2.126952   -0.829687    0.116490
  H     -1.479765    0.409547   -1.312564
  H     -1.976669    1.237386    0.183626
  H      0.037802    0.233561    1.350169
  H      0.915495   -0.509014   -1.482887
  H      0.308989   -1.682232   -0.289245
  H      2.506735    0.000298    0.229671
  H      0.546360    1.873725   -0.884714
  H     -2.237511   -0.879850    1.076247

 Total Charge           Charge          ....    0
 Multiplicity           Mult            ....    1
 Number of Electrons    NEL             ....   50
 Basis Dimension        Dim             ....  100

ORBITAL ENERGIES
----------------

  NO   OCC          E(Eh)            E(eV)
   0   2.0000     -18.763246      -510.5739
   1   2.0000     -18.757409      -510.4151
   2   2.0000     -18.739303      -509.9223
   3   2.0000      -9.941414      -270.5196
   4   2.0000      -9.938148      -270.4307
   5   2.0000      -9.927489      -270.1407
   6   2.0000      -0.945644       -25.7323
   7   2.0000      -0.930270       -25.3139
   8   2.0000      -0.911430       -24.8013
   9   2.0000      -0.680871       -18.5274
  10   2.0000      -0.605846       -16.4859
  11   2.0000      -0.563642       -15.3375
  12   2.0000      -0.472600       -12.8601
  13   2.0000      -0.471356       -12.8262
  14   2.0000      -0.448800       -12.2125
  15   2.0000      -0.400582       -10.9004
  16   2.0000      -0.395146       -10.7525
  17   2.0000      -0.376462       -10.2441
  18   2.0000      -0.344654        -9.3785
  19   2.0000      -0.316103        -8.6016
  20   2.0000      -0.292716        -7.9652
  21   2.0000      -0.269414        -7.3311
  22   2.0000      -0.252692        -6.8761
  23   2.0000      -0.224398        -6.1062
  24   2.0000      -0.203676        -5.5423
  25   0.0000       0.009884         0.2690
  26   0.0000       0.024146         0.6571
  27   0.0000       0.052784         1.4363
  28   0.0000       0.070914         1.9297
  29   0.0000       0.089845         2.4448

MULLIKEN ATOMIC CHARGES
-----------------------
   0 C :    0.020672
   1 C :   -0.048563
   2 C :    0.055675
   3 O :   -0.434044
   4 O :   -0.429177
   5 O :   -0.428089
   6 H :    0.072521
   7 H :    0.088100
   8 H :    0.068699
   9 H :    0.050447
  10 H :    0.091715
  11 H :    0.293549
  12 H :    0.297181
  13 H :    0.301317
Sum of atomic charges:   -0.0000000

LOEWDIN ATOMIC CHARGES
----------------------
   0 C :   -0.140343
   1 C :   -0.107397
   2 C :   -0.137167
   3 O :   -0.340913
   4 O :   -0.319877
   5 O :   -0.330845
   6 H :    0.108742
   7 H :    0.100301
   8 H :    0.111258
   9 H :    0.089662
  10 H :    0.117832
  11 H :    0.277793
  12 H :    0.283723
  13 H :    0.287230

  Mayer bond orders larger than 0.100000
B(  0-C ,  1-C ) :   1.0200 B(  0-C ,  5-O ) :   1.0663 B(  0-C ,  6-H ) :   0.9151
B(  0-C ,  7-H ) :   0.9221 B(  1-C ,  2-C ) :   1.0448 B(  1-C ,  4-O ) :   1.0105
B(  1-C ,  8-H ) :   0.8902 B(  2-C ,  3-O ) :   1.0734 B(  2-C ,  9-H ) :   0.9037
B(  2-C , 10-H ) :   0.9107 B(  3-O , 11-H ) :   0.8439 B(  4-O , 12-H ) :   0.8502
B(  5-O , 13-H ) :   0.8507

Dispersion correction           -0.009043918
FINAL SINGLE POINT ENERGY      -344.008301767810

DIPOLE MOMENT
-------------

Method             : SCF
Type of density    : Electron Density
Multiplicity       :   1
Irrep              :   0
Energy             :  -344.0817004403648980 Eh
Relativity type    :
Basis              : AO
                                X                 Y                 Z
Electronic contribution:      0.968488442      -0.002976128       0.939766759
Nuclear contribution   :     -1.285004094       0.640346181      -1.054739483
                        -----------------------------------------
Total Dipole Moment    :     -0.316515652       0.637370053      -0.114972724
                        -----------------------------------------
Magnitude (a.u.)       :      0.720861616
Magnitude (Debye)      :      1.832284615

Rotational constants in cm-1:             0.172401             0.079246             0.058874
Rotational constants in MHz :          5168.458785          2375.726760          1765.007554

                             ****ORCA TERMINATED NORMALLY****
TOTAL RUN TIME: 0 days 0 hours 0 minutes 6 seconds 834 msec
