                         Program Version 6.0.0  -   RELEASE  -
|  1> ! pbe def2-sv(p) def2/J RI DEFGRID1 loosescf d4 GCP(DFT/SV(P)) printgap
|  2> %output
|  3>     printlevel normal
|  4> end
|  5> * xyz 0 1
|  6> C -3.0097769125 0.2964671601 -0.1318562995
|  7> C -1.5717035854 0.6044771924 0.271387471
|  8> C -0.5942953486 -0.3428929862 -0.4234962719
|  9> C 0.8902597639 -0.163908351 -0.0408589794
| 10> C 1.3859624441 1.2529105001 -0.3481899838
| 11> C 1.7290639442 -1.1819726738 -0.8200150096
| 12> O 1.0964059074 -0.4705862584 1.3362481219
| 13> H -3.2737324832 -0.7223302928 0.1428632868
| 14> H -3.1345468298 0.4037876308 -1.2069295186
| 15> H -3.698602827 0.9759213264 0.3642085943
| 16> H -1.3448801154 1.6380394014 0.0055492338
| 17> H -1.4800404856 0.50045057 1.3546179186
| 18> H -0.8739164948 -1.370826877 -0.1796980529
| 19> H -0.6841344881 -0.2193476794 -1.5039493289
| 20> H 1.2196743236 1.4884021871 -1.3951085004
| 21> H 2.4506929642 1.3201106603 -0.1373233609
| 22> H 0.8692294345 1.9882478305 0.2635192939
| 23> H 1.6419098104 -1.0079121023 -1.8876429722
| 24> H 1.391441073 -2.1890825379 -0.5907104704
| 25> H 2.7715353098 -1.0968386405 -0.5251774664
| 26> H 0.6895865466 0.219160837 1.8763984665
| 27> *
| 28>
| 29>                          ****END OF INPUT****

CARTESIAN COORDINATES (ANGSTROEM)
---------------------------------
  C     -3.009777    0.296467   -0.131856
  C     -1.571704    0.604477    0.271387
  C     -0.594295   -0.342893   -0.423496
  C      0.890260   -0.163908   -0.040859
  C      1.385962    1.252911   -0.348190
  C      1.729064   -1.181973   -0.820015
  O      1.096406   -0.470586    1.336248
  H     -3.273732   -0.722330    0.142863
  H     -3.134547    0.403788   -1.206930
  H     -3.698603    0.975921    0.364209
  H     -1.344880    1.638039    0.005549
  H     -1.480040    0.500451    1.354618
  H     -0.873916   -1.370827   -0.179698
  H     -0.684134   -0.219348   -1.503949
  H      1.219674    1.488402   -1.395109
  H      2.450693    1.320111   -0.137323
  H      0.869229    1.988248    0.263519
  H      1.641910   -1.007912   -1.887643
  H      1.391441   -2.189083   -0.590710
  H      2.771535   -1.096839   -0.525177
  H      0.689587    0.219161    1.876398

 Total Charge           Charge          ....    0
 Multiplicity           Mult            ....    1
 Number of Electrons    NEL             ....   58
 Basis Dimension        Dim             ....  126

ORBITAL ENERGIES
----------------

  NO   OCC          E(Eh)            E(eV)
   0   2.0000     -18.735237      -509.8117
   1   2.0000      -9.943375      -270.5730
   2   2.0000      -9.887711      -269.0583
   3   2.0000      -9.878620      -268.8109
   4   2.0000      -9.875458      -268.7249
   5   2.0000      -9.873563      -268.6733
   6   2.0000      -9.866961      -268.4937
   7   2.0000      -0.913944       -24.8697
   8   2.0000      -0.722258       -19.6536
   9   2.0000      -0.684954       -18.6385
  10   2.0000      -0.616851       -16.7854
  11   2.0000      -0.605835       -16.4856
  12   2.0000      -0.531524       -14.4635
  13   2.0000      -0.503586       -13.7033
  14   2.0000      -0.440408       -11.9841
  15   2.0000      -0.419323       -11.4104
  16   2.0000      -0.402427       -10.9506
  17   2.0000      -0.391387       -10.6502
  18   2.0000      -0.362256        -9.8575
  19   2.0000      -0.346342        -9.4244
  20   2.0000      -0.343004        -9.3336
  21   2.0000      -0.335442        -9.1278
  22   2.0000      -0.323956        -8.8153
  23   2.0000      -0.314405        -8.5554
  24   2.0000      -0.296426        -8.0662
  25   2.0000      -0.289952        -7.8900
  26   2.0000      -0.287518        -7.8238
  27   2.0000      -0.260148        -7.0790
  28   2.0000      -0.209695        -5.7061
  29   0.0000       0.022526         0.6130
  30   0.0000       0.052298         1.4231
  31   0.0000       0.055731         1.5165
  32   0.0000       0.071465         1.9447
  33   0.0000       0.076217         2.0740

MULLIKEN ATOMIC CHARGES
-----------------------
   0 C :   -0.257895
   1 C :   -0.204371
   2 C :   -0.117539
   3 C :   -0.043312
   4 C :   -0.239467
   5 C :   -0.198510
   6 O :   -0.425833
   7 H :    0.100573
   8 H :    0.098224
   9 H :    0.101568
  10 H :    0.091508
  11 H :    0.068292
  12 H :    0.078574
  13 H :    0.070758
  14 H :    0.092833
  15 H :    0.103719
  16 H :    0.095193
  17 H :    0.091142
  18 H :    0.100230
  19 H :    0.099937
  20 H :    0.294375
Sum of atomic charges:   -0.0000000

LOEWDIN ATOMIC CHARGES
----------------------
   0 C :   -0.336581
   1 C :   -0.241220
   2 C :   -0.227630
   3 C :   -0.015128
   4 C :   -0.339070
   5 C :   -0.324631
   6 O :   -0.321739
   7 H :    0.118215
   8 H :    0.117380
   9 H :    0.118275
  10 H :    0.114685
  11 H :    0.107008
  12 H :    0.117934
  13 H :    0.115845
  14 H :    0.122043
  15 H :    0.122107
  16 H :    0.113039
  17 H :    0.119509
  18 H :    0.121931
  19 H :    0.121186
  20 H :    0.276839

  Mayer bond orders larger than 0.100000
B(  0-C ,  1-C ) :   1.1609 B(  0-C ,  7-H ) :   0.9543 B(  0-C ,  8-H ) :   0.9542
B(  0-C ,  9-H ) :   0.9526 B(  1-C ,  2-C ) :   1.1319 B(  1-C , 10-H ) :   0.9169
B(  1-C , 11-H ) :   0.9120 B(  2-C ,  3-C ) :   1.0254 B(  2-C , 12-H ) :   0.9096
B(  2-C , 13-H ) :   0.9080 B(  3-C ,  4-C ) :   1.0833 B(  3-C ,  5-C ) :   1.0877
B(  3-C ,  6-O ) :   1.0252 B(  4-C , 14-H ) :   0.9401 B(  4-C , 15-H ) :   0.9425
B(  4-C , 16-H ) :   0.9355 B(  5-C , 17-H ) :   0.9458 B(  5-C , 18-H ) :   0.9414
B(  5-C , 19-H ) :   0.9417 B(  6-O , 20-H ) :   0.8482

Dispersion correction           -0.016437462
FINAL SINGLE POINT ENERGY      -311.521800733248

DIPOLE MOMENT
-------------

Method             : SCF
Type of density    : Electron Density
Multiplicity       :   1
Irrep              :   0
Energy             :  -311.6011926352557566 Eh
Relativity type    :
Basis              : AO
                                X                 Y                 Z
Electronic contribution:      2.923704812      -1.325428678       3.029576326
Nuclear contribution   :     -3.225819309       1.801591229      -3.188109413
                        -----------------------------------------
Total Dipole Moment    :     -0.302114497       0.476162551      -0.158533086
                        -----------------------------------------
Magnitude (a.u.)       :      0.585778698
Magnitude (Debye)      :      1.488931124

Rotational constants in cm-1:             0.142196             0.047691             0.046727
Rotational constants in MHz :          4262.940988          1429.755107          1400.847184

                             ****ORCA TERMINATED NORMALLY****
TOTAL RUN TIME: 0 days 0 hours 0 minutes 9 seconds 310 msec
