                         Program Version 6.0.0  -   RELEASE  -
|  1> ! r2scan-3c def2/J RI DEFGRID2 scfconv6 printgap
|  2> %output
|  3>     printlevel normal
|  4> end
|  5> * xyz 0 1
|  6> C -1.1142250581 -0.0777393073 0.7130928117
|  7> C 0.2290670646 0.5894791021 0.3664493663
|  8> C 1.1379867581 -0.3454376431 -0.4502167774
|  9> O 1.6473587875 -1.4143430627 0.3078461397
| 10> O 0.0129512098 1.7406230524 -0.4268606316
| 11> O -1.8139672019 -0.4930646101 -0.4359027597
| 12> H -1.7270397736 0.6236362609 1.2969800291
| 13> H -0.9459805749 -0.9702185888 1.3174352709
| 14> H 0.7488092262 0.8430568607 1.300024762
| 15> H 2.000016182 0.2326134255 -0.7908385792
| 16> H 0.5888817724 -0.7021921134 -1.3279443675
| 17> H 0.9529607533 -2.0744032714 0.4377091059
| 18> H -0.3348982245 2.4557612601 0.1238954854
| 19> H -1.8564295955 0.2575030111 -1.0479738116
| 20> *
| 21>
| 22>                          ****END OF INPUT****

CARTESIAN COORDINATES (ANGSTROEM)
---------------------------------
  C     -1.114225   -0.077739    0.713093
  C      0.229067    0.589479    0.366449
  C      1.137987   -0.345438   -0.450217
  O      1.647359   -1.414343    0.307846
  O      0.012951    1.740623   -0.426861
  O     -1.813967   -0.493065   -0.435903
  H     -1.727040    0.623636    1.296980
  H     -0.945981   -0.970219    1.317435
  H      0.748809    0.843057    1.300025
  H      2.000016    0.232613   -0.790839
  H      0.588882   -0.702192   -1.327944
  H      0.952961   -2.074403    0.437709
  H     -0.334898    2.455761    0.123895
  H     -1.856430    0.257503   -1.047974

 Total Charge           Charge          ....    0
 Multiplicity           Mult            ....    1
 Number of Electrons    NEL             ....   50
 Basis Dimension        Dim             ....  169

ORBITAL ENERGIES
----------------

  NO   OCC          E(Eh)            E(eV)
   0   2.0000     -18.968147      -516.1495
   1   2.0000     -18.955517      -515.8058
   2   2.0000     -18.954442      -515.7766
   3   2.0000     -10.089163      -274.5401
   4   2.0000     -10.083810      -274.3944
   5   2.0000     -10.075643      -274.1722
   6   2.0000      -1.012729       -27.5577
   7   2.0000      -0.990633       -26.9565
   8   2.0000      -0.986266       -26.8377
   9   2.0000      -0.725537       -19.7429
  10   2.0000      -0.652817       -17.7640
  11   2.0000      -0.571998       -15.5648
  12   2.0000      -0.510216       -13.8837
  13   2.0000      -0.476304       -12.9609
  14   2.0000      -0.474376       -12.9084
  15   2.0000      -0.435767       -11.8578
  16   2.0000      -0.412783       -11.2324
  17   2.0000      -0.390589       -10.6285
  18   2.0000      -0.377601       -10.2750
  19   2.0000      -0.324092        -8.8190
  20   2.0000      -0.315888        -8.5957
  21   2.0000      -0.298543        -8.1238
  22   2.0000      -0.267537        -7.2801
  23   2.0000      -0.251336        -6.8392
  24   2.0000      -0.231029        -6.2866
  25   0.0000       0.038389         1.0446
  26   0.0000       0.048436         1.3180
  27   0.0000       0.079141         2.1535
  28   0.0000       0.114479         3.1151
  29   0.0000       0.132843         3.6148

MULLIKEN ATOMIC CHARGES
-----------------------
   0 C :   -0.186968
   1 C :    0.074842
   2 C :   -0.224062
   3 O :   -0.426576
   4 O :   -0.443842
   5 O :   -0.426054
   6 H :    0.133499
   7 H :    0.134917
   8 H :    0.137029
   9 H :    0.150981
  10 H :    0.152406
  11 H :    0.307839
  12 H :    0.301609
  13 H :    0.314380
Sum of atomic charges:   -0.0000000

LOEWDIN ATOMIC CHARGES
----------------------
   0 C :    0.012967
   1 C :    0.070909
   2 C :    0.039911
   3 O :   -0.600872
   4 O :   -0.602815
   5 O :   -0.607706
   6 H :    0.160736
   7 H :    0.177996
   8 H :    0.174001
   9 H :    0.185879
  10 H :    0.173548
  11 H :    0.268620
  12 H :    0.272382
  13 H :    0.274444

  Mayer bond orders larger than 0.100000
B(  0-C ,  1-C ) :   0.9262 B(  0-C ,  5-O ) :   0.9693 B(  0-C ,  6-H ) :   0.9724
B(  0-C ,  7-H ) :   0.9703 B(  1-C ,  2-C ) :   0.9005 B(  1-C ,  4-O ) :   0.9133
B(  1-C ,  8-H ) :   0.9404 B(  2-C ,  3-O ) :   0.9843 B(  2-C ,  9-H ) :   0.9724
B(  2-C , 10-H ) :   0.9839 B(  3-O , 11-H ) :   0.8880 B(  4-O , 12-H ) :   0.8946
B(  5-O , 13-H ) :   0.8740

Dispersion correction           -0.003079981
FINAL SINGLE POINT ENERGY      -344.723821553772

DIPOLE MOMENT
-------------

Method             : SCF
Type of density    : Electron Density
Multiplicity       :   1
Irrep              :   0
Energy             :  -344.7311832567127681 Eh
Relativity type    :
Basis              : AO
                                X                 Y                 Z
Electronic contribution:      0.117430161      -0.022820783      -0.785995326
Nuclear contribution   :     -0.540493537       0.622118372       1.220097784
                        -----------------------------------------
Total Dipole Moment    :     -0.423063376       0.599297590       0.434102457
                        -----------------------------------------
Magnitude (a.u.)       :      0.852399651
Magnitude (Debye)      :      2.166627728

Rotational constants in cm-1:             0.147101             0.093407             0.068740
Rotational constants in MHz :          4409.963748          2800.279757          2060.768422

                             ****ORCA TERMINATED NORMALLY****
TOTAL RUN TIME: 0 days 0 hours 0 minutes 20 seconds 610 msec
