                         Program Version 6.0.0  -   RELEASE  -
|  1> ! r2scan-3c def2/J RI DEFGRID2 scfconv6 printgap
|  2> %output
|  3>     printlevel normal
|  4> end
|  5> * xyz 0 1
|  6> C -2.5298868741 0.0884813519 0.3034056812
|  7> C -1.2664850829 0.7074208065 -0.2836855054
|  8> C -7.65878e-05 -0.0118949475 0.2013863938
|  9> C 1.2662333594 0.7081969409 -0.2829236907
| 10> C 2.5297426213 0.0884512299 0.3030865145
| 11> O 0.0004592661 -1.3733760858 -0.1878677079
| 12> H -2.5542466366 -0.9792799928 0.0986775583
| 13> H -2.5526589038 0.2271704855 1.3817737819
| 14> H -3.4160850166 0.5488407239 -0.1253206311
| 15> H -1.3043354873 0.6559529832 -1.3747114405
| 16> H -1.2035953395 1.7582285337 0.001338707
| 17> H -0.0004056156 -0.0454046666 1.2971392539
| 18> H 1.3039163953 0.6582607146 -1.3740009074
| 19> H 1.2033284893 1.7585498339 0.0036195423
| 20> H 2.5527213115 0.2255576854 1.3816483059
| 21> H 2.554013416 -0.9789892173 0.0968160234
| 22> H 3.4158319744 0.5493882158 -0.1251907279
| 23> H -0.0001434978 -1.4137534627 -1.1547511474
| 24> *
| 25>
| 26>                          ****END OF INPUT****

CARTESIAN COORDINATES (ANGSTROEM)
---------------------------------
  C     -2.529887    0.088481    0.303406
  C     -1.266485    0.707421   -0.283686
  C     -0.000077   -0.011895    0.201386
  C      1.266233    0.708197   -0.282924
  C      2.529743    0.088451    0.303087
  O      0.000459   -1.373376   -0.187868
  H     -2.554247   -0.979280    0.098678
  H     -2.552659    0.227170    1.381774
  H     -3.416085    0.548841   -0.125321
  H     -1.304335    0.655953   -1.374711
  H     -1.203595    1.758229    0.001339
  H     -0.000406   -0.045405    1.297139
  H      1.303916    0.658261   -1.374001
  H      1.203328    1.758550    0.003620
  H      2.552721    0.225558    1.381648
  H      2.554013   -0.978989    0.096816
  H      3.415832    0.549388   -0.125191
  H     -0.000143   -1.413753   -1.154751

 Total Charge           Charge          ....    0
 Multiplicity           Mult            ....    1
 Number of Electrons    NEL             ....   50
 Basis Dimension        Dim             ....  179

ORBITAL ENERGIES
----------------

  NO   OCC          E(Eh)            E(eV)
   0   2.0000     -18.945496      -515.5332
   1   2.0000     -10.076761      -274.2026
   2   2.0000     -10.025801      -272.8159
   3   2.0000     -10.025771      -272.8151
   4   2.0000     -10.012798      -272.4621
   5   2.0000     -10.012763      -272.4611
   6   2.0000      -0.984975       -26.8025
   7   2.0000      -0.756844       -20.5948
   8   2.0000      -0.720815       -19.6144
   9   2.0000      -0.638651       -17.3786
  10   2.0000      -0.567200       -15.4343
  11   2.0000      -0.562122       -15.2961
  12   2.0000      -0.451619       -12.2892
  13   2.0000      -0.431933       -11.7535
  14   2.0000      -0.424052       -11.5390
  15   2.0000      -0.404930       -11.0187
  16   2.0000      -0.373142       -10.1537
  17   2.0000      -0.358426        -9.7533
  18   2.0000      -0.347126        -9.4458
  19   2.0000      -0.324911        -8.8413
  20   2.0000      -0.309567        -8.4237
  21   2.0000      -0.308725        -8.4008
  22   2.0000      -0.303455        -8.2574
  23   2.0000      -0.279546        -7.6068
  24   2.0000      -0.233171        -6.3449
  25   0.0000       0.069620         1.8945
  26   0.0000       0.110728         3.0131
  27   0.0000       0.112461         3.0602
  28   0.0000       0.113325         3.0837
  29   0.0000       0.123252         3.3539

MULLIKEN ATOMIC CHARGES
-----------------------
   0 C :   -0.492566
   1 C :   -0.226578
   2 C :   -0.007962
   3 C :   -0.226574
   4 C :   -0.492508
   5 O :   -0.423653
   6 H :    0.166364
   7 H :    0.142525
   8 H :    0.145121
   9 H :    0.133042
  10 H :    0.136094
  11 H :    0.133102
  12 H :    0.133073
  13 H :    0.136093
  14 H :    0.142501
  15 H :    0.166392
  16 H :    0.145113
  17 H :    0.290421
Sum of atomic charges:    0.0000000

LOEWDIN ATOMIC CHARGES
----------------------
   0 C :   -0.420738
   1 C :   -0.295160
   2 C :    0.047202
   3 C :   -0.295176
   4 C :   -0.420727
   5 O :   -0.612922
   6 H :    0.161221
   7 H :    0.151281
   8 H :    0.148856
   9 H :    0.154972
  10 H :    0.157922
  11 H :    0.181938
  12 H :    0.154975
  13 H :    0.157908
  14 H :    0.151283
  15 H :    0.161241
  16 H :    0.148848
  17 H :    0.267074

  Mayer bond orders larger than 0.100000
B(  0-C ,  1-C ) :   0.9051 B(  0-C ,  6-H ) :   0.9777 B(  0-C ,  7-H ) :   0.9822
B(  0-C ,  8-H ) :   0.9760 B(  1-C ,  2-C ) :   0.9476 B(  1-C ,  9-H ) :   0.9703
B(  1-C , 10-H ) :   0.9712 B(  2-C ,  3-C ) :   0.9476 B(  2-C ,  5-O ) :   0.8820
B(  2-C , 11-H ) :   0.9598 B(  3-C ,  4-C ) :   0.9051 B(  3-C , 12-H ) :   0.9703
B(  3-C , 13-H ) :   0.9712 B(  4-C , 14-H ) :   0.9821 B(  4-C , 15-H ) :   0.9778
B(  4-C , 16-H ) :   0.9760 B(  5-O , 17-H ) :   0.8954

Dispersion correction           -0.004194266
FINAL SINGLE POINT ENERGY      -272.903453769762

DIPOLE MOMENT
-------------

Method             : SCF
Type of density    : Electron Density
Multiplicity       :   1
Irrep              :   0
Energy             :  -272.9087755433177449 Eh
Relativity type    :
Basis              : AO
                                X                 Y                 Z
Electronic contribution:      0.000850066      -2.294453553      -0.470782137
Nuclear contribution   :     -0.001549514       2.760825041       0.097631416
                        -----------------------------------------
Total Dipole Moment    :     -0.000699448       0.466371488      -0.373150721
                        -----------------------------------------
Magnitude (a.u.)       :      0.597280767
Magnitude (Debye)      :      1.518167059

Rotational constants in cm-1:             0.240472             0.063768             0.055711
Rotational constants in MHz :          7209.156538          1911.703386          1670.179216

                             ****ORCA TERMINATED NORMALLY****
TOTAL RUN TIME: 0 days 0 hours 0 minutes 23 seconds 217 msec
