                         Program Version 6.0.0  -   RELEASE  -
|  1> ! r2scan-3c def2/J RI DEFGRID2 scfconv6 printgap
|  2> %output
|  3>     printlevel normal
|  4> end
|  5> %cpcm
|  6>     smd true
|  7>     smdsolvent "water"
|  8> end
|  9> * xyz 0 1
| 10> C -2.5298868741 0.0884813519 0.3034056812
| 11> C -1.2664850829 0.7074208065 -0.2836855054
| 12> C -7.65878e-05 -0.0118949475 0.2013863938
| 13> C 1.2662333594 0.7081969409 -0.2829236907
| 14> C 2.5297426213 0.0884512299 0.3030865145
| 15> O 0.0004592661 -1.3733760858 -0.1878677079
| 16> H -2.5542466366 -0.9792799928 0.0986775583
| 17> H -2.5526589038 0.2271704855 1.3817737819
| 18> H -3.4160850166 0.5488407239 -0.1253206311
| 19> H -1.3043354873 0.6559529832 -1.3747114405
| 20> H -1.2035953395 1.7582285337 0.001338707
| 21> H -0.0004056156 -0.0454046666 1.2971392539
| 22> H 1.3039163953 0.6582607146 -1.3740009074
| 23> H 1.2033284893 1.7585498339 0.0036195423
| 24> H 2.5527213115 0.2255576854 1.3816483059
| 25> H 2.554013416 -0.9789892173 0.0968160234
| 26> H 3.4158319744 0.5493882158 -0.1251907279
| 27> H -0.0001434978 -1.4137534627 -1.1547511474
| 28> *
| 29>
| 30>                          ****END OF INPUT****

CARTESIAN COORDINATES (ANGSTROEM)
---------------------------------
  C     -2.529887    0.088481    0.303406
  C     -1.266485    0.707421   -0.283686
  C     -0.000077   -0.011895    0.201386
  C      1.266233    0.708197   -0.282924
  C      2.529743    0.088451    0.303087
  O      0.000459   -1.373376   -0.187868
  H     -2.554247   -0.979280    0.098678
  H     -2.552659    0.227170    1.381774
  H     -3.416085    0.548841   -0.125321
  H     -1.304335    0.655953   -1.374711
  H     -1.203595    1.758229    0.001339
  H     -0.000406   -0.045405    1.297139
  H      1.303916    0.658261   -1.374001
  H      1.203328    1.758550    0.003620
  H      2.552721    0.225558    1.381648
  H      2.554013   -0.978989    0.096816
  H      3.415832    0.549388   -0.125191
  H     -0.000143   -1.413753   -1.154751

 Total Charge           Charge          ....    0
 Multiplicity           Mult            ....    1
 Number of Electrons    NEL             ....   50
 Basis Dimension        Dim             ....  179

ORBITAL ENERGIES
----------------

  NO   OCC          E(Eh)            E(eV)
   0   2.0000     -18.947102      -515.5769
   1   2.0000     -10.070571      -274.0342
   2   2.0000     -10.015904      -272.5466
   3   2.0000     -10.015887      -272.5461
   4   2.0000     -10.007502      -272.3180
   5   2.0000     -10.007486      -272.3175
   6   2.0000      -0.985348       -26.8127
   7   2.0000      -0.749434       -20.3931
   8   2.0000      -0.713931       -19.4270
   9   2.0000      -0.633470       -17.2376
  10   2.0000      -0.560111       -15.2414
  11   2.0000      -0.556071       -15.1315
  12   2.0000      -0.444445       -12.0940
  13   2.0000      -0.427973       -11.6457
  14   2.0000      -0.419089       -11.4040
  15   2.0000      -0.396710       -10.7950
  16   2.0000      -0.368943       -10.0395
  17   2.0000      -0.353328        -9.6145
  18   2.0000      -0.344565        -9.3761
  19   2.0000      -0.318942        -8.6788
  20   2.0000      -0.303109        -8.2480
  21   2.0000      -0.301968        -8.2170
  22   2.0000      -0.296671        -8.0728
  23   2.0000      -0.276380        -7.5207
  24   2.0000      -0.234468        -6.3802
  25   0.0000       0.086153         2.3443
  26   0.0000       0.119308         3.2465
  27   0.0000       0.120635         3.2826
  28   0.0000       0.124048         3.3755
  29   0.0000       0.130071         3.5394

MULLIKEN ATOMIC CHARGES
-----------------------
   0 C :   -0.539032
   1 C :   -0.245513
   2 C :    0.021994
   3 C :   -0.245510
   4 C :   -0.539010
   5 O :   -0.511022
   6 H :    0.159993
   7 H :    0.157715
   8 H :    0.158315
   9 H :    0.155053
  10 H :    0.151414
  11 H :    0.145638
  12 H :    0.155042
  13 H :    0.151429
  14 H :    0.157697
  15 H :    0.160020
  16 H :    0.158310
  17 H :    0.347468
Sum of atomic charges:    0.0000000

LOEWDIN ATOMIC CHARGES
----------------------
   0 C :   -0.429855
   1 C :   -0.294280
   2 C :    0.049140
   3 C :   -0.294294
   4 C :   -0.429849
   5 O :   -0.649224
   6 H :    0.156207
   7 H :    0.154052
   8 H :    0.153007
   9 H :    0.162352
  10 H :    0.163344
  11 H :    0.184567
  12 H :    0.162339
  13 H :    0.163334
  14 H :    0.154051
  15 H :    0.156222
  16 H :    0.153002
  17 H :    0.285884

  Mayer bond orders larger than 0.100000
B(  0-C ,  1-C ) :   0.8853 B(  0-C ,  6-H ) :   0.9811 B(  0-C ,  7-H ) :   0.9808
B(  0-C ,  8-H ) :   0.9721 B(  1-C ,  2-C ) :   0.9403 B(  1-C ,  9-H ) :   0.9716
B(  1-C , 10-H ) :   0.9684 B(  2-C ,  3-C ) :   0.9403 B(  2-C ,  5-O ) :   0.8636
B(  2-C , 11-H ) :   0.9623 B(  3-C ,  4-C ) :   0.8853 B(  3-C , 12-H ) :   0.9716
B(  3-C , 13-H ) :   0.9683 B(  4-C , 14-H ) :   0.9808 B(  4-C , 15-H ) :   0.9812
B(  4-C , 16-H ) :   0.9721 B(  5-O , 17-H ) :   0.8682

Dispersion correction           -0.004194266
FINAL SINGLE POINT ENERGY      -272.909043472316

DIPOLE MOMENT
-------------

Method             : SCF
Type of density    : Electron Density
Multiplicity       :   1
Irrep              :   0
Energy             :  -272.9143652458718066 Eh
Relativity type    :
Basis              : AO
                                X                 Y                 Z
Electronic contribution:      0.000654410      -2.030750859      -0.667384142
Nuclear contribution   :     -0.001549514       2.760825041       0.097631416
                        -----------------------------------------
Total Dipole Moment    :     -0.000895104       0.730074182      -0.569752726
                        -----------------------------------------
Magnitude (a.u.)       :      0.926081682
Magnitude (Debye)      :      2.353912566

Rotational constants in cm-1:             0.240472             0.063768             0.055711
Rotational constants in MHz :          7209.156538          1911.703386          1670.179216

                             ****ORCA TERMINATED NORMALLY****
TOTAL RUN TIME: 0 days 0 hours 0 minutes 27 seconds 829 msec
