                         Program Version 6.0.0  -   RELEASE  -
|  1> ! r2scan-3c def2/J RI DEFGRID2 scfconv6 printgap
|  2> %output
|  3>     printlevel normal
|  4> end
|  5> * xyz 0 1
|  6> C 1.9907335354 1.1037790275 -0.3796679663
|  7> C 1.4061469774 -0.305901041 -0.28647246
|  8> H 2.0266799965 -0.9837905743 -0.8859137899
|  9> C -0.0316865657 -0.3677523441 -0.8384720853
| 10> C -1.1024131007 0.2719431069 0.0607351381
| 11> C -2.2102862319 0.894562384 -0.7881226098
| 12> C -1.6996112299 -0.7626606521 1.0152210777
| 13> O 1.5135114656 -0.8186423483 1.0310667697
| 14> H 2.9919539902 1.1145190916 0.0445067486
| 15> H 2.0481426739 1.4142492324 -1.4185195602
| 16> H 1.3740827795 1.8164429197 0.1632835959
| 17> H -0.0190457158 0.1286878623 -1.8097047631
| 18> H -0.2957110724 -1.4136592759 -1.0049563807
| 19> H -0.6477686965 1.0729631127 0.6534590097
| 20> H -2.9860898054 1.312872827 -0.1508473851
| 21> H -2.6625418993 0.1413189098 -1.4295837808
| 22> H -1.8151290353 1.6901293894 -1.415492712
| 23> H -2.351869117 -0.2834845187 1.7421849704
| 24> H -2.2871538417 -1.4882333931 0.4558402217
| 25> H -0.918080276 -1.2995324508 1.5462972491
| 26> H 1.1455088101 -0.1656650564 1.6424773927
| 27> *
| 28>
| 29>                          ****END OF INPUT****

CARTESIAN COORDINATES (ANGSTROEM)
---------------------------------
  C      1.990734    1.103779   -0.379668
  C      1.406147   -0.305901   -0.286472
  H      2.026680   -0.983791   -0.885914
  C     -0.031687   -0.367752   -0.838472
  C     -1.102413    0.271943    0.060735
  C     -2.210286    0.894562   -0.788123
  C     -1.699611   -0.762661    1.015221
  O      1.513511   -0.818642    1.031067
  H      2.991954    1.114519    0.044507
  H      2.048143    1.414249   -1.418520
  H      1.374083    1.816443    0.163284
  H     -0.019046    0.128688   -1.809705
  H     -0.295711   -1.413659   -1.004956
  H     -0.647769    1.072963    0.653459
  H     -2.986090    1.312873   -0.150847
  H     -2.662542    0.141319   -1.429584
  H     -1.815129    1.690129   -1.415493
  H     -2.351869   -0.283485    1.742185
  H     -2.287154   -1.488233    0.455840
  H     -0.918080   -1.299532    1.546297
  H      1.145509   -0.165665    1.642477

 Total Charge           Charge          ....    0
 Multiplicity           Mult            ....    1
 Number of Electrons    NEL             ....   58
 Basis Dimension        Dim             ....  208

ORBITAL ENERGIES
----------------

  NO   OCC          E(Eh)            E(eV)
   0   2.0000     -18.944949      -515.5183
   1   2.0000     -10.080792      -274.3123
   2   2.0000     -10.036986      -273.1203
   3   2.0000     -10.021560      -272.7005
   4   2.0000     -10.020876      -272.6819
   5   2.0000     -10.017239      -272.5829
   6   2.0000     -10.012481      -272.4535
   7   2.0000      -0.983726       -26.7686
   8   2.0000      -0.777638       -21.1606
   9   2.0000      -0.722451       -19.6589
  10   2.0000      -0.651153       -17.7188
  11   2.0000      -0.648547       -17.6479
  12   2.0000      -0.576585       -15.6897
  13   2.0000      -0.526025       -14.3139
  14   2.0000      -0.461780       -12.5657
  15   2.0000      -0.432539       -11.7700
  16   2.0000      -0.415052       -11.2941
  17   2.0000      -0.408241       -11.1088
  18   2.0000      -0.394716       -10.7408
  19   2.0000      -0.384716       -10.4687
  20   2.0000      -0.354981        -9.6595
  21   2.0000      -0.345799        -9.4097
  22   2.0000      -0.339673        -9.2430
  23   2.0000      -0.327113        -8.9012
  24   2.0000      -0.309304        -8.4166
  25   2.0000      -0.297657        -8.0996
  26   2.0000      -0.294709        -8.0194
  27   2.0000      -0.275183        -7.4881
  28   2.0000      -0.231349        -6.2953
  29   0.0000       0.054863         1.4929
  30   0.0000       0.090509         2.4629
  31   0.0000       0.102098         2.7782
  32   0.0000       0.110532         3.0077
  33   0.0000       0.129433         3.5220

MULLIKEN ATOMIC CHARGES
-----------------------
   0 C :   -0.496930
   1 C :   -0.044743
   2 H :    0.141484
   3 C :   -0.235910
   4 C :   -0.025616
   5 C :   -0.489596
   6 C :   -0.549174
   7 O :   -0.414004
   8 H :    0.164787
   9 H :    0.146887
  10 H :    0.143860
  11 H :    0.148584
  12 H :    0.157405
  13 H :    0.139083
  14 H :    0.145265
  15 H :    0.152538
  16 H :    0.146602
  17 H :    0.147466
  18 H :    0.150303
  19 H :    0.170917
  20 H :    0.300794
Sum of atomic charges:   -0.0000000

LOEWDIN ATOMIC CHARGES
----------------------
   0 C :   -0.402123
   1 C :    0.044890
   2 H :    0.180450
   3 C :   -0.280882
   4 C :   -0.248223
   5 C :   -0.415307
   6 C :   -0.419443
   7 O :   -0.608492
   8 H :    0.161844
   9 H :    0.158691
  10 H :    0.151719
  11 H :    0.163472
  12 H :    0.167625
  13 H :    0.149506
  14 H :    0.152671
  15 H :    0.155332
  16 H :    0.151809
  17 H :    0.150836
  18 H :    0.154213
  19 H :    0.163632
  20 H :    0.267782

  Mayer bond orders larger than 0.100000
B(  0-C ,  1-C ) :   0.9722 B(  0-C ,  8-H ) :   0.9735 B(  0-C ,  9-H ) :   0.9716
B(  0-C , 10-H ) :   0.9687 B(  1-C ,  2-H ) :   0.9581 B(  1-C ,  3-C ) :   0.9028
B(  1-C ,  7-O ) :   0.9464 B(  3-C ,  4-C ) :   0.7903 B(  3-C , 11-H ) :   0.9905
B(  3-C , 12-H ) :   0.9588 B(  4-C ,  5-C ) :   0.8869 B(  4-C ,  6-C ) :   0.9147
B(  4-C , 13-H ) :   0.9823 B(  5-C , 14-H ) :   0.9780 B(  5-C , 15-H ) :   0.9840
B(  5-C , 16-H ) :   0.9805 B(  6-C , 17-H ) :   0.9778 B(  6-C , 18-H ) :   0.9849
B(  6-C , 19-H ) :   0.9691 B(  7-O , 20-H ) :   0.8888

Dispersion correction           -0.005668029
FINAL SINGLE POINT ENERGY      -312.200046364566

DIPOLE MOMENT
-------------

Method             : SCF
Type of density    : Electron Density
Multiplicity       :   1
Irrep              :   0
Energy             :  -312.2056080067428638 Eh
Relativity type    :
Basis              : AO
                                X                 Y                 Z
Electronic contribution:      3.890084200      -2.326586996       1.546284394
Nuclear contribution   :     -4.102663333       2.855646003      -1.736220603
                        -----------------------------------------
Total Dipole Moment    :     -0.212579133       0.529059007      -0.189936209
                        -----------------------------------------
Magnitude (a.u.)       :      0.600973447
Magnitude (Debye)      :      1.527553105

Rotational constants in cm-1:             0.127192             0.056395             0.045385
Rotational constants in MHz :          3813.123604          1690.668288          1360.607911

                             ****ORCA TERMINATED NORMALLY****
TOTAL RUN TIME: 0 days 0 hours 0 minutes 30 seconds 266 msec
