                         Program Version 6.0.0  -   RELEASE  -
|  1> ! r2scan-3c def2/J RI DEFGRID2 scfconv6 printgap
|  2> %output
|  3>     printlevel normal
|  4> end
|  5> %cpcm
|  6>     smd true
|  7>     smdsolvent "water"
|  8> end
|  9> * xyz 0 1
| 10> C 1.9907335354 1.1037790275 -0.3796679663
| 11> C 1.4061469774 -0.305901041 -0.28647246
| 12> H 2.0266799965 -0.9837905743 -0.8859137899
| 13> C -0.0316865657 -0.3677523441 -0.8384720853
| 14> C -1.1024131007 0.2719431069 0.0607351381
| 15> C -2.2102862319 0.894562384 -0.7881226098
| 16> C -1.6996112299 -0.7626606521 1.0152210777
| 17> O 1.5135114656 -0.8186423483 1.0310667697
| 18> H 2.9919539902 1.1145190916 0.0445067486
| 19> H 2.0481426739 1.4142492324 -1.4185195602
| 20> H 1.3740827795 1.8164429197 0.1632835959
| 21> H -0.0190457158 0.1286878623 -1.8097047631
| 22> H -0.2957110724 -1.4136592759 -1.0049563807
| 23> H -0.6477686965 1.0729631127 0.6534590097
| 24> H -2.9860898054 1.312872827 -0.1508473851
| 25> H -2.6625418993 0.1413189098 -1.4295837808
| 26> H -1.8151290353 1.6901293894 -1.415492712
| 27> H -2.351869117 -0.2834845187 1.7421849704
| 28> H -2.2871538417 -1.4882333931 0.4558402217
| 29> H -0.918080276 -1.2995324508 1.5462972491
| 30> H 1.1455088101 -0.1656650564 1.6424773927
| 31> *
| 32>
| 33>                          ****END OF INPUT****

CARTESIAN COORDINATES (ANGSTROEM)
---------------------------------
  C      1.990734    1.103779   -0.379668
  C      1.406147   -0.305901   -0.286472
  H      2.026680   -0.983791   -0.885914
  C     -0.031687   -0.367752   -0.838472
  C     -1.102413    0.271943    0.060735
  C     -2.210286    0.894562   -0.788123
  C     -1.699611   -0.762661    1.015221
  O      1.513511   -0.818642    1.031067
  H      2.991954    1.114519    0.044507
  H      2.048143    1.414249   -1.418520
  H      1.374083    1.816443    0.163284
  H     -0.019046    0.128688   -1.809705
  H     -0.295711   -1.413659   -1.004956
  H     -0.647769    1.072963    0.653459
  H     -2.986090    1.312873   -0.150847
  H     -2.662542    0.141319   -1.429584
  H     -1.815129    1.690129   -1.415493
  H     -2.351869   -0.283485    1.742185
  H     -2.287154   -1.488233    0.455840
  H     -0.918080   -1.299532    1.546297
  H      1.145509   -0.165665    1.642477

 Total Charge           Charge          ....    0
 Multiplicity           Mult            ....    1
 Number of Electrons    NEL             ....   58
 Basis Dimension        Dim             ....  208

ORBITAL ENERGIES
----------------

  NO   OCC          E(Eh)            E(eV)
   0   2.0000     -18.947702      -515.5932
   1   2.0000     -10.074700      -274.1465
   2   2.0000     -10.025271      -272.8015
   3   2.0000     -10.012222      -272.4464
   4   2.0000     -10.009183      -272.3637
   5   2.0000     -10.006355      -272.2868
   6   2.0000     -10.004530      -272.2371
   7   2.0000      -0.985286       -26.8110
   8   2.0000      -0.767819       -20.8934
   9   2.0000      -0.713749       -19.4221
  10   2.0000      -0.641507       -17.4563
  11   2.0000      -0.639766       -17.4089
  12   2.0000      -0.569964       -15.5095
  13   2.0000      -0.516671       -14.0593
  14   2.0000      -0.454771       -12.3749
  15   2.0000      -0.426030       -11.5929
  16   2.0000      -0.408522       -11.1165
  17   2.0000      -0.399772       -10.8784
  18   2.0000      -0.385922       -10.5015
  19   2.0000      -0.376091       -10.2339
  20   2.0000      -0.345600        -9.4042
  21   2.0000      -0.336150        -9.1471
  22   2.0000      -0.333224        -9.0675
  23   2.0000      -0.319154        -8.6846
  24   2.0000      -0.304838        -8.2951
  25   2.0000      -0.288777        -7.8580
  26   2.0000      -0.285237        -7.7617
  27   2.0000      -0.268310        -7.3011
  28   2.0000      -0.233101        -6.3430
  29   0.0000       0.070608         1.9213
  30   0.0000       0.104376         2.8402
  31   0.0000       0.111928         3.0457
  32   0.0000       0.122365         3.3297
  33   0.0000       0.138219         3.7611

MULLIKEN ATOMIC CHARGES
-----------------------
   0 C :   -0.532943
   1 C :   -0.017028
   2 H :    0.150362
   3 C :   -0.293722
   4 C :    0.012364
   5 C :   -0.530677
   6 C :   -0.587952
   7 O :   -0.501143
   8 H :    0.163469
   9 H :    0.164639
  10 H :    0.166192
  11 H :    0.163861
  12 H :    0.165402
  13 H :    0.162983
  14 H :    0.155233
  15 H :    0.160819
  16 H :    0.158423
  17 H :    0.158690
  18 H :    0.161306
  19 H :    0.163388
  20 H :    0.356333
Sum of atomic charges:    0.0000000

LOEWDIN ATOMIC CHARGES
----------------------
   0 C :   -0.405404
   1 C :    0.044259
   2 H :    0.182712
   3 C :   -0.282525
   4 C :   -0.244526
   5 C :   -0.423738
   6 C :   -0.426419
   7 O :   -0.646226
   8 H :    0.160909
   9 H :    0.164371
  10 H :    0.159891
  11 H :    0.169605
  12 H :    0.167203
  13 H :    0.159030
  14 H :    0.154529
  15 H :    0.156528
  16 H :    0.154936
  17 H :    0.154216
  18 H :    0.155325
  19 H :    0.159609
  20 H :    0.285714

  Mayer bond orders larger than 0.100000
B(  0-C ,  1-C ) :   0.9625 B(  0-C ,  8-H ) :   0.9705 B(  0-C ,  9-H ) :   0.9681
B(  0-C , 10-H ) :   0.9657 B(  1-C ,  2-H ) :   0.9590 B(  1-C ,  3-C ) :   0.9076
B(  1-C ,  7-O ) :   0.9272 B(  3-C ,  4-C ) :   0.7918 B(  3-C , 11-H ) :   0.9859
B(  3-C , 12-H ) :   0.9651 B(  4-C ,  5-C ) :   0.8743 B(  4-C ,  6-C ) :   0.8942
B(  4-C , 13-H ) :   0.9755 B(  5-C , 14-H ) :   0.9772 B(  5-C , 15-H ) :   0.9815
B(  5-C , 16-H ) :   0.9776 B(  6-C , 17-H ) :   0.9746 B(  6-C , 18-H ) :   0.9848
B(  6-C , 19-H ) :   0.9730 B(  7-O , 20-H ) :   0.8623

Dispersion correction           -0.005668029
FINAL SINGLE POINT ENERGY      -312.205595079796

DIPOLE MOMENT
-------------

Method             : SCF
Type of density    : Electron Density
Multiplicity       :   1
Irrep              :   0
Energy             :  -312.2111567219729409 Eh
Relativity type    :
Basis              : AO
                                X                 Y                 Z
Electronic contribution:      3.795418897      -2.035902733       1.494139472
Nuclear contribution   :     -4.102663333       2.855646003      -1.736220603
                        -----------------------------------------
Total Dipole Moment    :     -0.307244435       0.819743270      -0.242081131
                        -----------------------------------------
Magnitude (a.u.)       :      0.908284892
Magnitude (Debye)      :      2.308676722

Rotational constants in cm-1:             0.127192             0.056395             0.045385
Rotational constants in MHz :          3813.123604          1690.668288          1360.607911

                             ****ORCA TERMINATED NORMALLY****
TOTAL RUN TIME: 0 days 0 hours 0 minutes 36 seconds 124 msec
