                         Program Version 6.0.0  -   RELEASE  -
|  1> ! pbe def2-sv(p) def2/J RI DEFGRID1 loosescf d4 GCP(DFT/SV(P)) printgap
|  2> %output
|  3>     printlevel normal
|  4> end
|  5> * xyz 0 1
|  6> C -3.2704815612 1.1216248441 -0.758051142
|  7> C -2.563229646 0.0543449425 0.0315064101
|  8> O -3.2085290783 -0.7900984545 0.6428889692
|  9> C -1.0895665177 0.0086516596 0.0210388411
| 10> C -0.2744213229 1.1035785866 -0.2608957998
| 11> C 1.1021199225 0.9922265747 -0.2412727322
| 12> C 1.7035786993 -0.2305763438 0.0526713705
| 13> C 0.8934351954 -1.3335321568 0.3480335585
| 14> C -0.4732223205 -1.2083937702 0.3415503913
| 15> O 3.0370887391 -0.4514364306 0.0856383551
| 16> C 3.9207744366 0.6169156985 -0.2120472103
| 17> H -4.0456775018 1.5680392053 -0.1393860978
| 18> H -3.7688224882 0.6314104143 -1.5932764888
| 19> H -2.6056360153 1.8832623218 -1.142573294
| 20> H -0.7031699534 2.0707826734 -0.4676541081
| 21> H 1.6996351824 1.863691458 -0.4529535688
| 22> H 1.3703372986 -2.2718655375 0.5812411615
| 23> H -1.1040347136 -2.0534945754 0.5739149154
| 24> H 3.7599404427 0.9881493718 -1.226693448
| 25> H 4.9183958004 0.1918629639 -0.1307702855
| 26> H 3.8083910912 1.4317231491 0.5067808513
| 27> *
| 28>
| 29>                          ****END OF INPUT****

CARTESIAN COORDINATES (ANGSTROEM)
---------------------------------
  C     -3.270482    1.121625   -0.758051
  C     -2.563230    0.054345    0.031506
  O     -3.208529   -0.790098    0.642889
  C     -1.089567    0.008652    0.021039
  C     -0.274421    1.103579   -0.260896
  C      1.102120    0.992227   -0.241273
  C      1.703579   -0.230576    0.052671
  C      0.893435   -1.333532    0.348034
  C     -0.473222   -1.208394    0.341550
  O      3.037089   -0.451436    0.085638
  C      3.920774    0.616916   -0.212047
  H     -4.045678    1.568039   -0.139386
  H     -3.768822    0.631410   -1.593276
  H     -2.605636    1.883262   -1.142573
  H     -0.703170    2.070783   -0.467654
  H      1.699635    1.863691   -0.452954
  H      1.370337   -2.271866    0.581241
  H     -1.104035   -2.053495    0.573915
  H      3.759940    0.988149   -1.226693
  H      4.918396    0.191863   -0.130770
  H      3.808391    1.431723    0.506781

 Total Charge           Charge          ....    0
 Multiplicity           Mult            ....    1
 Number of Electrons    NEL             ....   80
 Basis Dimension        Dim             ....  174

ORBITAL ENERGIES
----------------

  NO   OCC          E(Eh)            E(eV)
   0   2.0000     -18.804712      -511.7022
   1   2.0000     -18.726984      -509.5871
   2   2.0000      -9.966283      -271.1964
   3   2.0000      -9.965852      -271.1846
   4   2.0000      -9.952189      -270.8128
   5   2.0000      -9.908026      -269.6111
   6   2.0000      -9.902207      -269.4527
   7   2.0000      -9.897479      -269.3241
   8   2.0000      -9.897284      -269.3188
   9   2.0000      -9.895387      -269.2672
  10   2.0000      -9.882706      -268.9221
  11   2.0000      -0.985730       -26.8231
  12   2.0000      -0.922073       -25.0909
  13   2.0000      -0.783789       -21.3280
  14   2.0000      -0.704428       -19.1685
  15   2.0000      -0.681725       -18.5507
  16   2.0000      -0.667532       -18.1645
  17   2.0000      -0.634235       -17.2584
  18   2.0000      -0.562143       -15.2967
  19   2.0000      -0.548573       -14.9274
  20   2.0000      -0.503016       -13.6878
  21   2.0000      -0.486206       -13.2303
  22   2.0000      -0.446588       -12.1523
  23   2.0000      -0.434399       -11.8206
  24   2.0000      -0.422490       -11.4965
  25   2.0000      -0.405631       -11.0378
  26   2.0000      -0.393939       -10.7196
  27   2.0000      -0.390909       -10.6372
  28   2.0000      -0.382647       -10.4123
  29   2.0000      -0.365071        -9.9341
  30   2.0000      -0.355568        -9.6755
  31   2.0000      -0.350760        -9.5447
  32   2.0000      -0.330980        -9.0064
  33   2.0000      -0.319737        -8.7005
  34   2.0000      -0.312188        -8.4951
  35   2.0000      -0.290215        -7.8972
  36   2.0000      -0.284560        -7.7433
  37   2.0000      -0.239632        -6.5207
  38   2.0000      -0.207164        -5.6372
  39   2.0000      -0.190844        -5.1931
  40   0.0000      -0.075531        -2.0553
  41   0.0000      -0.042769        -1.1638
  42   0.0000       0.009462         0.2575
  43   0.0000       0.033330         0.9070
  44   0.0000       0.047008         1.2791

MULLIKEN ATOMIC CHARGES
-----------------------
   0 C :   -0.246856
   1 C :   -0.000497
   2 O :   -0.185459
   3 C :    0.104234
   4 C :   -0.116565
   5 C :   -0.190003
   6 C :    0.277321
   7 C :   -0.101253
   8 C :   -0.098175
   9 O :   -0.254770
  10 C :   -0.118818
  11 H :    0.122236
  12 H :    0.131351
  13 H :    0.107099
  14 H :    0.050306
  15 H :    0.040556
  16 H :    0.050368
  17 H :    0.063238
  18 H :    0.116758
  19 H :    0.131654
  20 H :    0.117276
Sum of atomic charges:   -0.0000000

LOEWDIN ATOMIC CHARGES
----------------------
   0 C :   -0.360040
   1 C :    0.044447
   2 O :   -0.150449
   3 C :   -0.094715
   4 C :   -0.098141
   5 C :   -0.176311
   6 C :    0.040274
   7 C :   -0.137814
   8 C :   -0.078630
   9 O :   -0.076615
  10 C :   -0.200638
  11 H :    0.142622
  12 H :    0.149994
  13 H :    0.122214
  14 H :    0.126082
  15 H :    0.127415
  16 H :    0.132915
  17 H :    0.135095
  18 H :    0.113215
  19 H :    0.125777
  20 H :    0.113301

  Mayer bond orders larger than 0.100000
B(  0-C ,  1-C ) :   1.0928 B(  0-C , 11-H ) :   0.9251 B(  0-C , 12-H ) :   0.9224
B(  0-C , 13-H ) :   0.9268 B(  1-C ,  2-O ) :   2.1247 B(  1-C ,  3-C ) :   0.9632
B(  3-C ,  4-C ) :   1.3333 B(  3-C ,  8-C ) :   1.3280 B(  4-C ,  5-C ) :   1.3711
B(  4-C , 14-H ) :   0.9489 B(  5-C ,  6-C ) :   1.2837 B(  5-C , 15-H ) :   0.9599
B(  6-C ,  7-C ) :   1.3074 B(  6-C ,  9-O ) :   1.1664 B(  7-C ,  8-C ) :   1.3804
B(  7-C , 16-H ) :   0.9692 B(  8-C , 17-H ) :   0.9596 B(  9-O , 10-C ) :   0.9784
B( 10-C , 18-H ) :   0.9423 B( 10-C , 19-H ) :   0.9584 B( 10-C , 20-H ) :   0.9421

Dispersion correction           -0.021828666
FINAL SINGLE POINT ENERGY      -498.353189323537

DIPOLE MOMENT
-------------

Method             : SCF
Type of density    : Electron Density
Multiplicity       :   1
Irrep              :   0
Energy             :  -498.4178999808664230 Eh
Relativity type    :
Basis              : AO
                                X                 Y                 Z
Electronic contribution:     -1.781420933      -4.867186246       2.646261583
Nuclear contribution   :      3.120965585       5.895420632      -3.264706785
                        -----------------------------------------
Total Dipole Moment    :      1.339544652       1.028234385      -0.618445202
                        -----------------------------------------
Magnitude (a.u.)       :      1.798366007
Magnitude (Debye)      :      4.571083119

Rotational constants in cm-1:             0.111547             0.019021             0.016492
Rotational constants in MHz :          3344.087817           570.226033           494.414133

                             ****ORCA TERMINATED NORMALLY****
TOTAL RUN TIME: 0 days 0 hours 0 minutes 12 seconds 718 msec
