                         Program Version 6.0.0  -   RELEASE  -
|  1> ! r2scan-3c def2/J RI DEFGRID2 scfconv6 printgap
|  2> %output
|  3>     printlevel normal
|  4> end
|  5> %cpcm
|  6>     smd true
|  7>     smdsolvent "water"
|  8> end
|  9> * xyz 0 1
| 10> C -2.8799769214 -0.1590057002 0.2774951316
| 11> C -1.6612551685 0.7445126702 0.1521113183
| 12> C -0.4048295782 -0.0322474993 -0.1473252149
| 13> O -0.3380227189 -1.2342321446 -0.2875521968
| 14> O 0.6438835002 0.7806713237 -0.2530612735
| 15> C 1.9321967164 0.202489913 -0.5223315622
| 16> C 2.6205859647 -0.2309507066 0.762944813
| 17> H -2.734316638 -0.8803342705 1.0774081123
| 18> H -3.7645249471 0.4329984134 0.4906867619
| 19> H -3.0365164261 -0.7115096979 -0.645356802
| 20> H -1.4905612267 1.3027418186 1.0741490879
| 21> H -1.7947820441 1.4736668723 -0.6488656598
| 22> H 1.7981130487 -0.6511308399 -1.1937830081
| 23> H 2.4887835987 0.9951969032 -1.023042565
| 24> H 3.614879536 -0.5987983957 0.5317291151
| 25> H 2.6982363744 0.6093061576 1.4475662164
| 26> H 2.0521054607 -1.0262652613 1.2399457769
| 27> *
| 28>
| 29>                          ****END OF INPUT****

CARTESIAN COORDINATES (ANGSTROEM)
---------------------------------
  C     -2.879977   -0.159006    0.277495
  C     -1.661255    0.744513    0.152111
  C     -0.404830   -0.032247   -0.147325
  O     -0.338023   -1.234232   -0.287552
  O      0.643884    0.780671   -0.253061
  C      1.932197    0.202490   -0.522332
  C      2.620586   -0.230951    0.762945
  H     -2.734317   -0.880334    1.077408
  H     -3.764525    0.432998    0.490687
  H     -3.036516   -0.711510   -0.645357
  H     -1.490561    1.302742    1.074149
  H     -1.794782    1.473667   -0.648866
  H      1.798113   -0.651131   -1.193783
  H      2.488784    0.995197   -1.023043
  H      3.614880   -0.598798    0.531729
  H      2.698236    0.609306    1.447566
  H      2.052105   -1.026265    1.239946

 Total Charge           Charge          ....    0
 Multiplicity           Mult            ....    1
 Number of Electrons    NEL             ....   56
 Basis Dimension        Dim             ....  193

ORBITAL ENERGIES
----------------

  NO   OCC          E(Eh)            E(eV)
   0   2.0000     -19.000016      -517.0167
   1   2.0000     -18.944755      -515.5130
   2   2.0000     -10.162159      -276.5264
   3   2.0000     -10.082832      -274.3678
   4   2.0000     -10.038101      -273.1506
   5   2.0000     -10.017906      -272.6011
   6   2.0000     -10.016253      -272.5561
   7   2.0000      -1.077076       -29.3087
   8   2.0000      -0.989245       -26.9187
   9   2.0000      -0.758781       -20.6475
  10   2.0000      -0.723046       -19.6751
  11   2.0000      -0.640681       -17.4338
  12   2.0000      -0.586169       -15.9505
  13   2.0000      -0.517299       -14.0764
  14   2.0000      -0.474049       -12.8995
  15   2.0000      -0.459091       -12.4925
  16   2.0000      -0.447185       -12.1685
  17   2.0000      -0.413323       -11.2471
  18   2.0000      -0.403374       -10.9764
  19   2.0000      -0.368999       -10.0410
  20   2.0000      -0.357094        -9.7170
  21   2.0000      -0.349328        -9.5057
  22   2.0000      -0.335171        -9.1205
  23   2.0000      -0.326536        -8.8855
  24   2.0000      -0.315091        -8.5741
  25   2.0000      -0.303759        -8.2657
  26   2.0000      -0.276573        -7.5259
  27   2.0000      -0.253032        -6.8853
  28   0.0000      -0.020353        -0.5538
  29   0.0000       0.079317         2.1583
  30   0.0000       0.095367         2.5951
  31   0.0000       0.123318         3.3557
  32   0.0000       0.133299         3.6273

MULLIKEN ATOMIC CHARGES
-----------------------
   0 C :   -0.520558
   1 C :   -0.248174
   2 C :    0.403489
   3 O :   -0.511597
   4 O :   -0.197129
   5 C :   -0.142019
   6 C :   -0.493547
   7 H :    0.163222
   8 H :    0.165379
   9 H :    0.163065
  10 H :    0.185571
  11 H :    0.185493
  12 H :    0.170776
  13 H :    0.173215
  14 H :    0.169720
  15 H :    0.165250
  16 H :    0.167845
Sum of atomic charges:   -0.0000000

LOEWDIN ATOMIC CHARGES
----------------------
   0 C :   -0.409914
   1 C :   -0.236020
   2 C :    0.374527
   3 O :   -0.493154
   4 O :   -0.602292
   5 C :    0.030824
   6 C :   -0.393996
   7 H :    0.160435
   8 H :    0.158864
   9 H :    0.160423
  10 H :    0.190605
  11 H :    0.190742
  12 H :    0.188983
  13 H :    0.188523
  14 H :    0.167536
  15 H :    0.161732
  16 H :    0.162182

  Mayer bond orders larger than 0.100000
B(  0-C ,  1-C ) :   0.9017 B(  0-C ,  7-H ) :   0.9766 B(  0-C ,  8-H ) :   0.9643
B(  0-C ,  9-H ) :   0.9767 B(  1-C ,  2-C ) :   1.0060 B(  1-C , 10-H ) :   0.9271
B(  1-C , 11-H ) :   0.9282 B(  2-C ,  3-O ) :   1.7844 B(  2-C ,  4-O ) :   1.0989
B(  4-O ,  5-C ) :   0.7989 B(  5-C ,  6-C ) :   0.9366 B(  5-C , 12-H ) :   0.9639
B(  5-C , 13-H ) :   0.9525 B(  6-C , 14-H ) :   0.9601 B(  6-C , 15-H ) :   0.9699
B(  6-C , 16-H ) :   0.9696

Dispersion correction           -0.003941997
FINAL SINGLE POINT ENERGY      -346.942960858654

DIPOLE MOMENT
-------------

Method             : SCF
Type of density    : Electron Density
Multiplicity       :   1
Irrep              :   0
Energy             :  -346.9494438092552855 Eh
Relativity type    :
Basis              : AO
                                X                 Y                 Z
Electronic contribution:      0.519347867       0.157134235      -2.073459129
Nuclear contribution   :     -0.153624549       0.880661242       2.197087716
                        -----------------------------------------
Total Dipole Moment    :      0.365723318       1.037795477       0.123628587
                        -----------------------------------------
Magnitude (a.u.)       :      1.107274593
Magnitude (Debye)      :      2.814468346

Rotational constants in cm-1:             0.225463             0.046147             0.042978
Rotational constants in MHz :          6759.212214          1383.455615          1288.436102

                             ****ORCA TERMINATED NORMALLY****
TOTAL RUN TIME: 0 days 0 hours 0 minutes 26 seconds 839 msec
