                         Program Version 6.0.0  -   RELEASE  -
|  1> ! r2scan-3c def2/J RI DEFGRID2 scfconv6 printgap
|  2> %output
|  3>     printlevel normal
|  4> end
|  5> * xyz 0 1
|  6> C -2.1231106819 1.0472236193 -0.585222476
|  7> C -1.5327306421 -0.0285901879 0.3229325878
|  8> C -2.618912005 -0.9714386936 0.8325628917
|  9> C -0.4644880086 -0.8317683961 -0.4258736425
| 10> O 0.642875225 -0.0079189417 -0.8100199956
| 11> C 1.6429784263 0.1477588585 0.0507723913
| 12> O 1.6732475728 -0.3753683034 1.1458628112
| 13> C 2.7249594258 1.01781245 -0.5153152454
| 14> H -1.3348794988 1.6751493774 -0.9932180498
| 15> H -2.8134141484 1.6740443063 -0.0273373137
| 16> H -2.6606886063 0.5866216118 -1.4105271271
| 17> H -1.0447383682 0.4505169553 1.1797648614
| 18> H -3.0876848098 -1.4915464879 0.0009339802
| 19> H -3.3811323587 -0.40753477 1.3627048433
| 20> H -2.1995703741 -1.7088191817 1.5123323867
| 21> H -0.0934322018 -1.6461860368 0.2043482182
| 22> H -0.8610383156 -1.2279805272 -1.3616950307
| 23> H 2.2865047522 1.8236159152 -1.09481065
| 24> H 3.3401130078 0.4129655159 -1.1779599957
| 25> H 3.3423223408 1.4031588506 0.2894007283
| 26> *
| 27>
| 28>                          ****END OF INPUT****

CARTESIAN COORDINATES (ANGSTROEM)
---------------------------------
  C     -2.123111    1.047224   -0.585222
  C     -1.532731   -0.028590    0.322933
  C     -2.618912   -0.971439    0.832563
  C     -0.464488   -0.831768   -0.425874
  O      0.642875   -0.007919   -0.810020
  C      1.642978    0.147759    0.050772
  O      1.673248   -0.375368    1.145863
  C      2.724959    1.017812   -0.515315
  H     -1.334879    1.675149   -0.993218
  H     -2.813414    1.674044   -0.027337
  H     -2.660689    0.586622   -1.410527
  H     -1.044738    0.450517    1.179765
  H     -3.087685   -1.491546    0.000934
  H     -3.381132   -0.407535    1.362705
  H     -2.199570   -1.708819    1.512332
  H     -0.093432   -1.646186    0.204348
  H     -0.861038   -1.227981   -1.361695
  H      2.286505    1.823616   -1.094811
  H      3.340113    0.412966   -1.177960
  H      3.342322    1.403159    0.289401

 Total Charge           Charge          ....    0
 Multiplicity           Mult            ....    1
 Number of Electrons    NEL             ....   64
 Basis Dimension        Dim             ....  222

ORBITAL ENERGIES
----------------

  NO   OCC          E(Eh)            E(eV)
   0   2.0000     -18.996779      -516.9286
   1   2.0000     -18.928625      -515.0741
   2   2.0000     -10.156128      -276.3623
   3   2.0000     -10.085936      -274.4523
   4   2.0000     -10.041878      -273.2534
   5   2.0000     -10.039331      -273.1841
   6   2.0000     -10.023514      -272.7537
   7   2.0000     -10.019303      -272.6391
   8   2.0000      -1.072364       -29.1805
   9   2.0000      -0.976078       -26.5604
  10   2.0000      -0.782675       -21.2977
  11   2.0000      -0.728274       -19.8173
  12   2.0000      -0.662122       -18.0173
  13   2.0000      -0.657021       -17.8785
  14   2.0000      -0.562775       -15.3139
  15   2.0000      -0.517410       -14.0795
  16   2.0000      -0.470867       -12.8129
  17   2.0000      -0.448728       -12.2105
  18   2.0000      -0.447024       -12.1641
  19   2.0000      -0.422197       -11.4886
  20   2.0000      -0.410326       -11.1655
  21   2.0000      -0.386764       -10.5244
  22   2.0000      -0.372624       -10.1396
  23   2.0000      -0.370545       -10.0830
  24   2.0000      -0.359818        -9.7912
  25   2.0000      -0.356019        -9.6878
  26   2.0000      -0.325195        -8.8490
  27   2.0000      -0.316769        -8.6197
  28   2.0000      -0.307310        -8.3623
  29   2.0000      -0.297858        -8.1051
  30   2.0000      -0.266458        -7.2507
  31   2.0000      -0.236780        -6.4431
  32   0.0000      -0.014673        -0.3993
  33   0.0000       0.074550         2.0286
  34   0.0000       0.077498         2.1088
  35   0.0000       0.112182         3.0526
  36   0.0000       0.125268         3.4087

MULLIKEN ATOMIC CHARGES
-----------------------
   0 C :   -0.506924
   1 C :   -0.016894
   2 C :   -0.487462
   3 C :   -0.191492
   4 O :   -0.173982
   5 C :    0.413074
   6 O :   -0.428858
   7 C :   -0.520374
   8 H :    0.159364
   9 H :    0.149887
  10 H :    0.146154
  11 H :    0.164498
  12 H :    0.145940
  13 H :    0.153051
  14 H :    0.154435
  15 H :    0.170829
  16 H :    0.154529
  17 H :    0.166238
  18 H :    0.172317
  19 H :    0.175669
Sum of atomic charges:   -0.0000000

LOEWDIN ATOMIC CHARGES
----------------------
   0 C :   -0.410377
   1 C :   -0.221076
   2 C :   -0.408534
   3 C :    0.038261
   4 O :   -0.599384
   5 C :    0.353851
   6 O :   -0.435424
   7 C :   -0.335248
   8 H :    0.161216
   9 H :    0.154290
  10 H :    0.153852
  11 H :    0.169486
  12 H :    0.154152
  13 H :    0.157604
  14 H :    0.157561
  15 H :    0.194356
  16 H :    0.183870
  17 H :    0.175332
  18 H :    0.181115
  19 H :    0.175098

  Mayer bond orders larger than 0.100000
B(  0-C ,  1-C ) :   0.9125 B(  0-C ,  8-H ) :   0.9738 B(  0-C ,  9-H ) :   0.9717
B(  0-C , 10-H ) :   0.9818 B(  1-C ,  2-C ) :   0.9108 B(  1-C ,  3-C ) :   0.9387
B(  1-C , 11-H ) :   0.9517 B(  2-C , 12-H ) :   0.9802 B(  2-C , 13-H ) :   0.9711
B(  2-C , 14-H ) :   0.9744 B(  3-C ,  4-O ) :   0.8472 B(  3-C , 15-H ) :   0.9664
B(  3-C , 16-H ) :   0.9616 B(  4-O ,  5-C ) :   1.0453 B(  5-C ,  6-O ) :   1.8465
B(  5-C ,  7-C ) :   0.9541 B(  7-C , 17-H ) :   0.9684 B(  7-C , 18-H ) :   0.9387
B(  7-C , 19-H ) :   0.9839

Dispersion correction           -0.005249470
FINAL SINGLE POINT ENERGY      -386.238674550263

DIPOLE MOMENT
-------------

Method             : SCF
Type of density    : Electron Density
Multiplicity       :   1
Irrep              :   0
Energy             :  -386.2453728325910447 Eh
Relativity type    :
Basis              : AO
                                X                 Y                 Z
Electronic contribution:      7.625341615      -1.201665977       0.772981711
Nuclear contribution   :     -7.947239347       1.442851123      -1.417340026
                        -----------------------------------------
Total Dipole Moment    :     -0.321897732       0.241185146      -0.644358316
                        -----------------------------------------
Magnitude (a.u.)       :      0.759595987
Magnitude (Debye)      :      1.930739561

Rotational constants in cm-1:             0.134613             0.037140             0.032897
Rotational constants in MHz :          4035.608692          1113.423776           986.235191

                             ****ORCA TERMINATED NORMALLY****
TOTAL RUN TIME: 0 days 0 hours 0 minutes 31 seconds 656 msec
