                         Program Version 6.0.0  -   RELEASE  -
|  1> ! pbe def2-sv(p) def2/J RI DEFGRID1 loosescf d4 GCP(DFT/SV(P)) printgap
|  2> %output
|  3>     printlevel normal
|  4> end
|  5> * xyz 0 1
|  6> C -1.7379261243 -0.6209960535 1.0089892011
|  7> C -1.2598174155 -0.3380005314 -0.4129803303
|  8> C -2.3551653654 0.3901240538 -1.1917456652
|  9> C 0.0308256027 0.4901421572 -0.4376217316
| 10> C 1.2589089134 -0.2204295151 0.1623198567
| 11> C 2.4780400607 -0.0515879442 -0.7448785552
| 12> C 1.5872240317 0.3067995533 1.5586893756
| 13> H -2.6748052652 -1.1736575359 0.9874606573
| 14> H -1.0095928693 -1.2131773591 1.556106624
| 15> H -1.9034025496 0.3116009659 1.5445153587
| 16> H -1.06258335 -1.2954670539 -0.909776145
| 17> H -3.2695115639 -0.1984751035 -1.2062175969
| 18> H -2.5726633314 1.3501628887 -0.7284237653
| 19> H -2.0454252173 0.5671832083 -2.2191690136
| 20> H -0.1419629459 1.4300134499 0.0907191987
| 21> H 0.2419218985 0.7406863012 -1.4795045951
| 22> H 1.0427037609 -1.2919555311 0.2372000107
| 23> H 2.2885772881 -0.4777164318 -1.7274590252
| 24> H 2.716458845 1.0032021125 -0.865141736
| 25> H 3.344146221 -0.5516391063 -0.3167587
| 26> H 0.7328157153 0.2162181755 2.2232700588
| 27> H 2.4172605656 -0.2492468588 1.9897511079
| 28> H 1.8711601029 1.3559932384 1.5054036434
| 29> *
| 30>
| 31>                          ****END OF INPUT****

CARTESIAN COORDINATES (ANGSTROEM)
---------------------------------
  C     -1.737926   -0.620996    1.008989
  C     -1.259817   -0.338001   -0.412980
  C     -2.355165    0.390124   -1.191746
  C      0.030826    0.490142   -0.437622
  C      1.258909   -0.220430    0.162320
  C      2.478040   -0.051588   -0.744879
  C      1.587224    0.306800    1.558689
  H     -2.674805   -1.173658    0.987461
  H     -1.009593   -1.213177    1.556107
  H     -1.903403    0.311601    1.544515
  H     -1.062583   -1.295467   -0.909776
  H     -3.269512   -0.198475   -1.206218
  H     -2.572663    1.350163   -0.728424
  H     -2.045425    0.567183   -2.219169
  H     -0.141963    1.430013    0.090719
  H      0.241922    0.740686   -1.479505
  H      1.042704   -1.291956    0.237200
  H      2.288577   -0.477716   -1.727459
  H      2.716459    1.003202   -0.865142
  H      3.344146   -0.551639   -0.316759
  H      0.732816    0.216218    2.223270
  H      2.417261   -0.249247    1.989751
  H      1.871160    1.355993    1.505404

 Total Charge           Charge          ....    0
 Multiplicity           Mult            ....    1
 Number of Electrons    NEL             ....   58
 Basis Dimension        Dim             ....  130

ORBITAL ENERGIES
----------------

  NO   OCC          E(Eh)            E(eV)
   0   2.0000      -9.890406      -269.1316
   1   2.0000      -9.889228      -269.0996
   2   2.0000      -9.874315      -268.6938
   3   2.0000      -9.868974      -268.5484
   4   2.0000      -9.868178      -268.5268
   5   2.0000      -9.867992      -268.5217
   6   2.0000      -9.867758      -268.5153
   7   2.0000      -0.738497       -20.0955
   8   2.0000      -0.697768       -18.9872
   9   2.0000      -0.610755       -16.6195
  10   2.0000      -0.603028       -16.4092
  11   2.0000      -0.600335       -16.3359
  12   2.0000      -0.502546       -13.6750
  13   2.0000      -0.493457       -13.4277
  14   2.0000      -0.415837       -11.3155
  15   2.0000      -0.408801       -11.1240
  16   2.0000      -0.391522       -10.6539
  17   2.0000      -0.377411       -10.2699
  18   2.0000      -0.360218        -9.8020
  19   2.0000      -0.347762        -9.4631
  20   2.0000      -0.337728        -9.1900
  21   2.0000      -0.334256        -9.0956
  22   2.0000      -0.320271        -8.7150
  23   2.0000      -0.310983        -8.4623
  24   2.0000      -0.291344        -7.9279
  25   2.0000      -0.285961        -7.7814
  26   2.0000      -0.274150        -7.4600
  27   2.0000      -0.269794        -7.3415
  28   2.0000      -0.260268        -7.0822
  29   0.0000       0.034202         0.9307
  30   0.0000       0.055208         1.5023
  31   0.0000       0.060297         1.6408
  32   0.0000       0.072617         1.9760
  33   0.0000       0.091787         2.4976

MULLIKEN ATOMIC CHARGES
-----------------------
   0 C :   -0.249763
   1 C :   -0.202142
   2 C :   -0.234931
   3 C :   -0.095886
   4 C :   -0.161051
   5 C :   -0.253405
   6 C :   -0.256424
   7 H :    0.096423
   8 H :    0.111325
   9 H :    0.092909
  10 H :    0.072481
  11 H :    0.095971
  12 H :    0.091117
  13 H :    0.096327
  14 H :    0.069651
  15 H :    0.071439
  16 H :    0.074945
  17 H :    0.099679
  18 H :    0.095558
  19 H :    0.094156
  20 H :    0.102609
  21 H :    0.094611
  22 H :    0.094402
Sum of atomic charges:   -0.0000000

LOEWDIN ATOMIC CHARGES
----------------------
   0 C :   -0.331226
   1 C :   -0.155703
   2 C :   -0.329347
   3 C :   -0.207895
   4 C :   -0.157088
   5 C :   -0.328851
   6 C :   -0.330510
   7 H :    0.117067
   8 H :    0.117001
   9 H :    0.115861
  10 H :    0.112288
  11 H :    0.115757
  12 H :    0.115878
  13 H :    0.115524
  14 H :    0.113702
  15 H :    0.113349
  16 H :    0.112200
  17 H :    0.115177
  18 H :    0.115805
  19 H :    0.114691
  20 H :    0.115452
  21 H :    0.115413
  22 H :    0.115456

  Mayer bond orders larger than 0.100000
B(  0-C ,  1-C ) :   1.1102 B(  0-C ,  7-H ) :   0.9486 B(  0-C ,  8-H ) :   0.9405
B(  0-C ,  9-H ) :   0.9468 B(  1-C ,  2-C ) :   1.1120 B(  1-C ,  3-C ) :   1.0912
B(  1-C , 10-H ) :   0.9028 B(  2-C , 11-H ) :   0.9508 B(  2-C , 12-H ) :   0.9496
B(  2-C , 13-H ) :   0.9495 B(  3-C ,  4-C ) :   1.0428 B(  3-C , 14-H ) :   0.9111
B(  3-C , 15-H ) :   0.9229 B(  4-C ,  5-C ) :   1.1174 B(  4-C ,  6-C ) :   1.1172
B(  4-C , 16-H ) :   0.9068 B(  5-C , 17-H ) :   0.9488 B(  5-C , 18-H ) :   0.9491
B(  5-C , 19-H ) :   0.9517 B(  6-C , 20-H ) :   0.9446 B(  6-C , 21-H ) :   0.9504
B(  6-C , 22-H ) :   0.9469

Dispersion correction           -0.018444808
FINAL SINGLE POINT ENERGY      -275.660088276540

DIPOLE MOMENT
-------------

Method             : SCF
Type of density    : Electron Density
Multiplicity       :   1
Irrep              :   0
Energy             :  -275.7377827208510439 Eh
Relativity type    :
Basis              : AO
                                X                 Y                 Z
Electronic contribution:      0.009139000      -0.548060631      -0.657285371
Nuclear contribution   :     -0.023362748       0.491338936       0.639803661
                        -----------------------------------------
Total Dipole Moment    :     -0.014223749      -0.056721695      -0.017481710
                        -----------------------------------------
Magnitude (a.u.)       :      0.061035039
Magnitude (Debye)      :      0.155138739

Rotational constants in cm-1:             0.137907             0.048809             0.040331
Rotational constants in MHz :          4134.335903          1463.268970          1209.084791

                             ****ORCA TERMINATED NORMALLY****
TOTAL RUN TIME: 0 days 0 hours 0 minutes 10 seconds 207 msec
