                         Program Version 6.0.0  -   RELEASE  -
|  1> ! pbe def2-sv(p) def2/J RI DEFGRID1 loosescf d4 GCP(DFT/SV(P)) printgap
|  2> %output
|  3>     printlevel normal
|  4> end
|  5> * xyz 0 1
|  6> C -4.3080659056 0.3418002978 -0.0176440682
|  7> C -2.8293797634 0.711068113 -0.0638114631
|  8> C -1.9525634909 -0.4863216069 0.2968947503
|  9> C -0.4688309936 -0.2753210236 0.1402440515
| 10> C 0.3653433312 -1.3896732279 0.0876765903
| 11> C 1.7330233471 -1.2626837346 -0.0362121584
| 12> C 2.3093035842 0.001797862 -0.1146963255
| 13> C 1.4907426656 1.1210172322 -0.064044783
| 14> C 0.1190903843 0.9786798119 0.0639200324
| 15> O 3.6644988181 0.0869623199 -0.2398812891
| 16> H -4.5837871292 -0.0028688401 0.9765818659
| 17> H -4.9238838053 1.2027602138 -0.2656404422
| 18> H -4.5266199822 -0.452432702 -0.7279552378
| 19> H -2.6477289195 1.5278346512 0.6370572969
| 20> H -2.5728442862 1.058965408 -1.0668622914
| 21> H -2.244173079 -1.3359818758 -0.326597366
| 22> H -2.1528147364 -0.7711639706 1.3351050465
| 23> H -0.067414548 -2.3779226056 0.1458700318
| 24> H 2.3748024347 -2.1289701495 -0.0765382831
| 25> H 1.9224330515 2.1100730026 -0.123968657
| 26> H -0.4878640185 1.8690304952 0.1020654017
| 27> H 3.9412616277 1.0142852353 -0.2848574288
| 28> *
| 29>
| 30>                          ****END OF INPUT****

CARTESIAN COORDINATES (ANGSTROEM)
---------------------------------
  C     -4.308066    0.341800   -0.017644
  C     -2.829380    0.711068   -0.063811
  C     -1.952563   -0.486322    0.296895
  C     -0.468831   -0.275321    0.140244
  C      0.365343   -1.389673    0.087677
  C      1.733023   -1.262684   -0.036212
  C      2.309304    0.001798   -0.114696
  C      1.490743    1.121017   -0.064045
  C      0.119090    0.978680    0.063920
  O      3.664499    0.086962   -0.239881
  H     -4.583787   -0.002869    0.976582
  H     -4.923884    1.202760   -0.265640
  H     -4.526620   -0.452433   -0.727955
  H     -2.647729    1.527835    0.637057
  H     -2.572844    1.058965   -1.066862
  H     -2.244173   -1.335982   -0.326597
  H     -2.152815   -0.771164    1.335105
  H     -0.067415   -2.377923    0.145870
  H      2.374802   -2.128970   -0.076538
  H      1.922433    2.110073   -0.123969
  H     -0.487864    1.869030    0.102065
  H      3.941262    1.014285   -0.284857

 Total Charge           Charge          ....    0
 Multiplicity           Mult            ....    1
 Number of Electrons    NEL             ....   74
 Basis Dimension        Dim             ....  164

ORBITAL ENERGIES
----------------

  NO   OCC          E(Eh)            E(eV)
   0   2.0000     -18.776422      -510.9324
   1   2.0000      -9.945901      -270.6417
   2   2.0000      -9.890823      -269.1430
   3   2.0000      -9.887772      -269.0600
   4   2.0000      -9.887067      -269.0408
   5   2.0000      -9.886593      -269.0279
   6   2.0000      -9.886022      -269.0123
   7   2.0000      -9.885349      -268.9940
   8   2.0000      -9.881999      -268.9029
   9   2.0000      -9.874619      -268.7020
  10   2.0000      -0.957461       -26.0538
  11   2.0000      -0.771946       -21.0057
  12   2.0000      -0.716054       -19.4848
  13   2.0000      -0.668633       -18.1944
  14   2.0000      -0.665376       -18.1058
  15   2.0000      -0.602942       -16.4069
  16   2.0000      -0.557364       -15.1666
  17   2.0000      -0.542480       -14.7616
  18   2.0000      -0.507397       -13.8070
  19   2.0000      -0.491305       -13.3691
  20   2.0000      -0.434272       -11.8171
  21   2.0000      -0.420908       -11.4535
  22   2.0000      -0.409941       -11.1551
  23   2.0000      -0.390262       -10.6196
  24   2.0000      -0.371681       -10.1140
  25   2.0000      -0.363934        -9.9032
  26   2.0000      -0.358305        -9.7500
  27   2.0000      -0.348014        -9.4699
  28   2.0000      -0.344697        -9.3797
  29   2.0000      -0.320203        -8.7132
  30   2.0000      -0.299901        -8.1607
  31   2.0000      -0.297547        -8.0967
  32   2.0000      -0.291698        -7.9375
  33   2.0000      -0.279970        -7.6184
  34   2.0000      -0.279205        -7.5976
  35   2.0000      -0.225084        -6.1249
  36   2.0000      -0.186338        -5.0705
  37   0.0000      -0.030992        -0.8433
  38   0.0000      -0.013348        -0.3632
  39   0.0000       0.025665         0.6984
  40   0.0000       0.042392         1.1535
  41   0.0000       0.055642         1.5141

MULLIKEN ATOMIC CHARGES
-----------------------
   0 C :   -0.248440
   1 C :   -0.211042
   2 C :   -0.134864
   3 C :    0.097200
   4 C :   -0.119345
   5 C :   -0.118294
   6 C :    0.251201
   7 C :   -0.155401
   8 C :   -0.143486
   9 O :   -0.340245
  10 H :    0.096141
  11 H :    0.101569
  12 H :    0.097610
  13 H :    0.097262
  14 H :    0.092816
  15 H :    0.084446
  16 H :    0.095303
  17 H :    0.036474
  18 H :    0.042575
  19 H :    0.022002
  20 H :    0.041115
  21 H :    0.315403
Sum of atomic charges:   -0.0000000

LOEWDIN ATOMIC CHARGES
----------------------
   0 C :   -0.337854
   1 C :   -0.235318
   2 C :   -0.212949
   3 C :   -0.061884
   4 C :   -0.112816
   5 C :   -0.146149
   6 C :    0.018972
   7 C :   -0.176207
   8 C :   -0.121309
   9 O :   -0.240604
  10 H :    0.117092
  11 H :    0.118915
  12 H :    0.117081
  13 H :    0.116436
  14 H :    0.117575
  15 H :    0.122462
  16 H :    0.127445
  17 H :    0.121544
  18 H :    0.129470
  19 H :    0.118321
  20 H :    0.122948
  21 H :    0.296828

  Mayer bond orders larger than 0.100000
B(  0-C ,  1-C ) :   1.1535 B(  0-C , 10-H ) :   0.9532 B(  0-C , 11-H ) :   0.9527
B(  0-C , 12-H ) :   0.9533 B(  1-C ,  2-C ) :   1.1630 B(  1-C , 13-H ) :   0.9085
B(  1-C , 14-H ) :   0.9268 B(  2-C ,  3-C ) :   1.0460 B(  2-C , 15-H ) :   0.9096
B(  2-C , 16-H ) :   0.8924 B(  3-C ,  4-C ) :   1.3603 B(  3-C ,  8-C ) :   1.4085
B(  4-C ,  5-C ) :   1.3745 B(  4-C , 17-H ) :   0.9659 B(  5-C ,  6-C ) :   1.3514
B(  5-C , 18-H ) :   0.9640 B(  6-C ,  7-C ) :   1.3187 B(  6-C ,  9-O ) :   1.1799
B(  7-C ,  8-C ) :   1.3359 B(  7-C , 19-H ) :   0.9559 B(  8-C , 20-H ) :   0.9514
B(  9-O , 21-H ) :   0.8435

Dispersion correction           -0.021420083
FINAL SINGLE POINT ENERGY      -424.447315244629

DIPOLE MOMENT
-------------

Method             : SCF
Type of density    : Electron Density
Multiplicity       :   1
Irrep              :   0
Energy             :  -424.5171994336678267 Eh
Relativity type    :
Basis              : AO
                                X                 Y                 Z
Electronic contribution:     14.850981000      -1.080581835      -0.292651587
Nuclear contribution   :    -14.926946384       1.608942229       0.300654723
                        -----------------------------------------
Total Dipole Moment    :     -0.075965383       0.528360393       0.008003136
                        -----------------------------------------
Magnitude (a.u.)       :      0.533853440
Magnitude (Debye)      :      1.356947605

Rotational constants in cm-1:             0.150375             0.020180             0.018040
Rotational constants in MHz :          4508.127116           604.971882           540.839270

                             ****ORCA TERMINATED NORMALLY****
TOTAL RUN TIME: 0 days 0 hours 0 minutes 10 seconds 944 msec
