                         Program Version 6.0.0  -   RELEASE  -
|  1> ! pbe def2-sv(p) def2/J RI DEFGRID1 loosescf d4 GCP(DFT/SV(P)) printgap
|  2> %output
|  3>     printlevel normal
|  4> end
|  5> * xyz 0 1
|  6> C -1.293827203 0.0197843497 0.5898569871
|  7> C 0.0918311115 0.6839269317 0.6420123907
|  8> C 1.2136596344 -0.3751797794 0.683405763
|  9> O 1.226109236 -1.1893144954 -0.4703866793
| 10> O 0.2611553652 1.5334104278 -0.4751954392
| 11> O -1.515998326 -0.574967931 -0.6677986594
| 12> H -2.0727484099 0.7768911912 0.7063785657
| 13> H -1.3854433395 -0.7123705006 1.4000348741
| 14> H 0.1719535635 1.304090281 1.5410062735
| 15> H 1.0525376749 -1.0427064626 1.5317561376
| 16> H 2.1771012916 0.1305704149 0.807554107
| 17> H 1.5223327769 -0.6494856398 -1.2175185882
| 18> H -0.3173440988 1.1977762829 -1.1816121666
| 19> H -0.831272836 -1.2548700666 -0.800462693
| 20> *
| 21>
| 22>                          ****END OF INPUT****

CARTESIAN COORDINATES (ANGSTROEM)
---------------------------------
  C     -1.293827    0.019784    0.589857
  C      0.091831    0.683927    0.642012
  C      1.213660   -0.375180    0.683406
  O      1.226109   -1.189314   -0.470387
  O      0.261155    1.533410   -0.475195
  O     -1.515998   -0.574968   -0.667799
  H     -2.072748    0.776891    0.706379
  H     -1.385443   -0.712371    1.400035
  H      0.171954    1.304090    1.541006
  H      1.052538   -1.042706    1.531756
  H      2.177101    0.130570    0.807554
  H      1.522333   -0.649486   -1.217519
  H     -0.317344    1.197776   -1.181612
  H     -0.831273   -1.254870   -0.800463

 Total Charge           Charge          ....    0
 Multiplicity           Mult            ....    1
 Number of Electrons    NEL             ....   50
 Basis Dimension        Dim             ....  100

ORBITAL ENERGIES
----------------

  NO   OCC          E(Eh)            E(eV)
   0   2.0000     -18.769357      -510.7402
   1   2.0000     -18.751016      -510.2411
   2   2.0000     -18.747820      -510.1541
   3   2.0000      -9.939623      -270.4709
   4   2.0000      -9.938278      -270.4343
   5   2.0000      -9.935170      -270.3497
   6   2.0000      -0.953306       -25.9408
   7   2.0000      -0.928310       -25.2606
   8   2.0000      -0.910115       -24.7655
   9   2.0000      -0.683091       -18.5878
  10   2.0000      -0.611759       -16.6468
  11   2.0000      -0.550574       -14.9819
  12   2.0000      -0.482347       -13.1253
  13   2.0000      -0.465798       -12.6750
  14   2.0000      -0.439844       -11.9688
  15   2.0000      -0.422938       -11.5087
  16   2.0000      -0.397436       -10.8148
  17   2.0000      -0.373202       -10.1553
  18   2.0000      -0.355780        -9.6813
  19   2.0000      -0.308986        -8.4079
  20   2.0000      -0.301026        -8.1913
  21   2.0000      -0.278042        -7.5659
  22   2.0000      -0.248489        -6.7617
  23   2.0000      -0.234055        -6.3690
  24   2.0000      -0.207169        -5.6374
  25   0.0000       0.012313         0.3350
  26   0.0000       0.046325         1.2606
  27   0.0000       0.066987         1.8228
  28   0.0000       0.081214         2.2099
  29   0.0000       0.092655         2.5213

MULLIKEN ATOMIC CHARGES
-----------------------
   0 C :    0.015320
   1 C :   -0.024905
   2 C :    0.034325
   3 O :   -0.445621
   4 O :   -0.439483
   5 O :   -0.453494
   6 H :    0.099311
   7 H :    0.077826
   8 H :    0.071188
   9 H :    0.086121
  10 H :    0.091482
  11 H :    0.300330
  12 H :    0.294222
  13 H :    0.293380
Sum of atomic charges:    0.0000000

LOEWDIN ATOMIC CHARGES
----------------------
   0 C :   -0.133604
   1 C :   -0.100034
   2 C :   -0.136867
   3 O :   -0.330158
   4 O :   -0.334163
   5 O :   -0.342509
   6 H :    0.115418
   7 H :    0.101152
   8 H :    0.113630
   9 H :    0.113658
  10 H :    0.106128
  11 H :    0.284543
  12 H :    0.272922
  13 H :    0.269886

  Mayer bond orders larger than 0.100000
B(  0-C ,  1-C ) :   1.0476 B(  0-C ,  5-O ) :   1.0552 B(  0-C ,  6-H ) :   0.9263
B(  0-C ,  7-H ) :   0.9198 B(  1-C ,  2-C ) :   1.0104 B(  1-C ,  4-O ) :   1.0681
B(  1-C ,  8-H ) :   0.8928 B(  2-C ,  3-O ) :   1.0312 B(  2-C ,  9-H ) :   0.9226
B(  2-C , 10-H ) :   0.9247 B(  3-O , 11-H ) :   0.8370 B(  3-O , 13-H ) :   0.1102
B(  4-O , 12-H ) :   0.8208 B(  5-O , 13-H ) :   0.8092

Dispersion correction           -0.009740096
FINAL SINGLE POINT ENERGY      -344.015922061695

DIPOLE MOMENT
-------------

Method             : SCF
Type of density    : Electron Density
Multiplicity       :   1
Irrep              :   0
Energy             :  -344.0921981544504433 Eh
Relativity type    :
Basis              : AO
                                X                 Y                 Z
Electronic contribution:      0.011358637       0.111765343      -2.356402130
Nuclear contribution   :      0.297083638      -0.238070140       2.590856413
                        -----------------------------------------
Total Dipole Moment    :      0.308442276      -0.126304797       0.234454283
                        -----------------------------------------
Magnitude (a.u.)       :      0.407502577
Magnitude (Debye)      :      1.035789234

Rotational constants in cm-1:             0.142796             0.107635             0.085548
Rotational constants in MHz :          4280.925622          3226.819897          2564.673346

                             ****ORCA TERMINATED NORMALLY****
TOTAL RUN TIME: 0 days 0 hours 0 minutes 6 seconds 928 msec
