                         Program Version 6.0.0  -   RELEASE  -
|  1> ! pbe def2-sv(p) def2/J RI DEFGRID1 loosescf d4 GCP(DFT/SV(P)) printgap
|  2> %output
|  3>     printlevel normal
|  4> end
|  5> * xyz 0 1
|  6> C -1.5444178688 1.1065088757 -0.536282394
|  7> C -1.1518816681 0.422494703 0.7703773168
|  8> C -0.0677176291 -0.6589818199 0.6343574324
|  9> H -0.0614818751 -1.2280614013 1.5720793892
| 10> C -0.34823347 -1.6239962577 -0.5147795353
| 11> C 1.3491391698 -0.0712367769 0.5080468261
| 12> O 1.5561295252 0.6589206312 -0.6903454865
| 13> H -0.6652918371 1.4367209813 -1.0803557666
| 14> H -2.1029457992 0.426530857 -1.1736384895
| 15> H -2.1728074674 1.9694420583 -0.3279701327
| 16> H -2.0430862471 -0.0394412339 1.2022881498
| 17> H -0.8003017268 1.1741378721 1.4817124559
| 18> H 0.3248476607 -2.4764110728 -0.4589994248
| 19> H -0.1879020256 -1.1267136802 -1.4671668036
| 20> H -1.3719403763 -1.9861028848 -0.4677779831
| 21> H 2.0670251326 -0.9024841528 0.507702073
| 22> H 1.5544494632 0.5514876893 1.38301826
| 23> H 1.7681890372 1.5751165048 -0.4813402746
| 24> *
| 25>
| 26>                          ****END OF INPUT****

CARTESIAN COORDINATES (ANGSTROEM)
---------------------------------
  C     -1.544418    1.106509   -0.536282
  C     -1.151882    0.422495    0.770377
  C     -0.067718   -0.658982    0.634357
  H     -0.061482   -1.228061    1.572079
  C     -0.348233   -1.623996   -0.514780
  C      1.349139   -0.071237    0.508047
  O      1.556130    0.658921   -0.690345
  H     -0.665292    1.436721   -1.080356
  H     -2.102946    0.426531   -1.173638
  H     -2.172807    1.969442   -0.327970
  H     -2.043086   -0.039441    1.202288
  H     -0.800302    1.174138    1.481712
  H      0.324848   -2.476411   -0.458999
  H     -0.187902   -1.126714   -1.467167
  H     -1.371940   -1.986103   -0.467778
  H      2.067025   -0.902484    0.507702
  H      1.554449    0.551488    1.383018
  H      1.768189    1.575117   -0.481340

 Total Charge           Charge          ....    0
 Multiplicity           Mult            ....    1
 Number of Electrons    NEL             ....   50
 Basis Dimension        Dim             ....  108

ORBITAL ENERGIES
----------------

  NO   OCC          E(Eh)            E(eV)
   0   2.0000     -18.743452      -510.0353
   1   2.0000      -9.926928      -270.1254
   2   2.0000      -9.888462      -269.0787
   3   2.0000      -9.879079      -268.8234
   4   2.0000      -9.864950      -268.4389
   5   2.0000      -9.862614      -268.3754
   6   2.0000      -0.918457       -24.9925
   7   2.0000      -0.722348       -19.6561
   8   2.0000      -0.649147       -17.6642
   9   2.0000      -0.601657       -16.3719
  10   2.0000      -0.557970       -15.1831
  11   2.0000      -0.485891       -13.2218
  12   2.0000      -0.457651       -12.4533
  13   2.0000      -0.419290       -11.4095
  14   2.0000      -0.402698       -10.9580
  15   2.0000      -0.378262       -10.2930
  16   2.0000      -0.352259        -9.5854
  17   2.0000      -0.338904        -9.2220
  18   2.0000      -0.329003        -8.9526
  19   2.0000      -0.312940        -8.5155
  20   2.0000      -0.294213        -8.0059
  21   2.0000      -0.284933        -7.7534
  22   2.0000      -0.274127        -7.4594
  23   2.0000      -0.266739        -7.2584
  24   2.0000      -0.208537        -5.6746
  25   0.0000       0.016459         0.4479
  26   0.0000       0.050332         1.3696
  27   0.0000       0.069014         1.8780
  28   0.0000       0.083939         2.2841
  29   0.0000       0.092758         2.5241

MULLIKEN ATOMIC CHARGES
-----------------------
   0 C :   -0.284203
   1 C :   -0.168600
   2 C :   -0.149731
   3 H :    0.064662
   4 C :   -0.258868
   5 C :    0.011410
   6 O :   -0.427300
   7 H :    0.099238
   8 H :    0.100504
   9 H :    0.094401
  10 H :    0.083493
  11 H :    0.068616
  12 H :    0.093109
  13 H :    0.121766
  14 H :    0.098471
  15 H :    0.075567
  16 H :    0.072480
  17 H :    0.304985
Sum of atomic charges:    0.0000000

LOEWDIN ATOMIC CHARGES
----------------------
   0 C :   -0.351848
   1 C :   -0.225890
   2 C :   -0.169947
   3 H :    0.116843
   4 C :   -0.332853
   5 C :   -0.113167
   6 O :   -0.340242
   7 H :    0.114757
   8 H :    0.117619
   9 H :    0.115646
  10 H :    0.114468
  11 H :    0.107796
  12 H :    0.117127
  13 H :    0.125604
  14 H :    0.116603
  15 H :    0.100558
  16 H :    0.097957
  17 H :    0.288971

  Mayer bond orders larger than 0.100000
B(  0-C ,  1-C ) :   1.1615 B(  0-C ,  7-H ) :   0.9370 B(  0-C ,  8-H ) :   0.9466
B(  0-C ,  9-H ) :   0.9491 B(  1-C ,  2-C ) :   1.0732 B(  1-C , 10-H ) :   0.9249
B(  1-C , 11-H ) :   0.9297 B(  2-C ,  3-H ) :   0.8917 B(  2-C ,  4-C ) :   1.1106
B(  2-C ,  5-C ) :   1.0483 B(  4-C , 12-H ) :   0.9488 B(  4-C , 13-H ) :   0.9383
B(  4-C , 14-H ) :   0.9534 B(  5-C ,  6-O ) :   1.0856 B(  5-C , 15-H ) :   0.9303
B(  5-C , 16-H ) :   0.9300 B(  6-O , 17-H ) :   0.8466

Dispersion correction           -0.013580302
FINAL SINGLE POINT ENERGY      -272.296879460730

DIPOLE MOMENT
-------------

Method             : SCF
Type of density    : Electron Density
Multiplicity       :   1
Irrep              :   0
Energy             :  -272.3667910702793620 Eh
Relativity type    :
Basis              : AO
                                X                 Y                 Z
Electronic contribution:      3.557299452       0.908955333      -0.143616519
Nuclear contribution   :     -3.439899132      -0.577303914       0.636667054
                        -----------------------------------------
Total Dipole Moment    :      0.117400320       0.331651419       0.493050535
                        -----------------------------------------
Magnitude (a.u.)       :      0.605701518
Magnitude (Debye)      :      1.539570908

Rotational constants in cm-1:             0.132770             0.095578             0.076929
Rotational constants in MHz :          3980.356071          2865.368405          2306.262365

                             ****ORCA TERMINATED NORMALLY****
TOTAL RUN TIME: 0 days 0 hours 0 minutes 7 seconds 871 msec
