                         Program Version 6.0.0  -   RELEASE  -
|  1> ! pbe def2-sv(p) def2/J RI DEFGRID1 loosescf d4 GCP(DFT/SV(P)) printgap
|  2> %output
|  3>     printlevel normal
|  4> end
|  5> * xyz 0 1
|  6> C -2.9864079849 0.0630560352 0.8693824802
|  7> C -2.341552867 0.3133358715 -0.4892808552
|  8> C -1.1221760055 -0.5731726732 -0.7512412765
|  9> C 0.0803592516 -0.2607333595 0.1369321379
| 10> C 1.2513222761 -1.2207552571 -0.0997789267
| 11> C 2.4487805996 -0.4542417478 0.4490202218
| 12> C 2.2126744989 0.9692013784 -0.0592437452
| 13> C 0.6828518907 1.1380074712 -0.1020985899
| 14> H -2.3143884633 0.3378092388 1.6780096629
| 15> H -3.8939405746 0.6537265624 0.9694414981
| 16> H -3.2462674941 -0.9875533356 0.979125565
| 17> H -3.0815044671 0.1180522179 -1.2691567531
| 18> H -2.0522677369 1.3630005712 -0.5651387974
| 19> H -1.4065668536 -1.6180923538 -0.6024243822
| 20> H -0.82249254 -0.4591337695 -1.7964043254
| 21> H -0.2199189212 -0.3469660192 1.1847682249
| 22> H 1.1036987676 -2.182868939 0.3888958932
| 23> H 1.3788828638 -1.3921767002 -1.1703808172
| 24> H 2.4292469052 -0.4730473651 1.5399665957
| 25> H 3.4018265486 -0.861850001 0.1150059908
| 26> H 2.6893521199 1.7132535161 0.5774705986
| 27> H 2.6288612618 1.0720600399 -1.0620233726
| 28> H 0.342871009 1.8411571466 0.6575283963
| 29> H 0.371165685 1.5241528539 -1.0728315735
| 30> *
| 31>
| 32>                          ****END OF INPUT****

CARTESIAN COORDINATES (ANGSTROEM)
---------------------------------
  C     -2.986408    0.063056    0.869382
  C     -2.341553    0.313336   -0.489281
  C     -1.122176   -0.573173   -0.751241
  C      0.080359   -0.260733    0.136932
  C      1.251322   -1.220755   -0.099779
  C      2.448781   -0.454242    0.449020
  C      2.212674    0.969201   -0.059244
  C      0.682852    1.138007   -0.102099
  H     -2.314388    0.337809    1.678010
  H     -3.893941    0.653727    0.969441
  H     -3.246267   -0.987553    0.979126
  H     -3.081504    0.118052   -1.269157
  H     -2.052268    1.363001   -0.565139
  H     -1.406567   -1.618092   -0.602424
  H     -0.822493   -0.459134   -1.796404
  H     -0.219919   -0.346966    1.184768
  H      1.103699   -2.182869    0.388896
  H      1.378883   -1.392177   -1.170381
  H      2.429247   -0.473047    1.539967
  H      3.401827   -0.861850    0.115006
  H      2.689352    1.713254    0.577471
  H      2.628861    1.072060   -1.062023
  H      0.342871    1.841157    0.657528
  H      0.371166    1.524153   -1.072832

 Total Charge           Charge          ....    0
 Multiplicity           Mult            ....    1
 Number of Electrons    NEL             ....   64
 Basis Dimension        Dim             ....  144

ORBITAL ENERGIES
----------------

  NO   OCC          E(Eh)            E(eV)
   0   2.0000      -9.883038      -268.9311
   1   2.0000      -9.878287      -268.8018
   2   2.0000      -9.876372      -268.7498
   3   2.0000      -9.875114      -268.7155
   4   2.0000      -9.875002      -268.7125
   5   2.0000      -9.873678      -268.6764
   6   2.0000      -9.873664      -268.6761
   7   2.0000      -9.869429      -268.5608
   8   2.0000      -0.758557       -20.6414
   9   2.0000      -0.704073       -19.1588
  10   2.0000      -0.642976       -17.4963
  11   2.0000      -0.629527       -17.1303
  12   2.0000      -0.583625       -15.8812
  13   2.0000      -0.520431       -14.1617
  14   2.0000      -0.503139       -13.6911
  15   2.0000      -0.477281       -12.9875
  16   2.0000      -0.434565       -11.8251
  17   2.0000      -0.423356       -11.5201
  18   2.0000      -0.395625       -10.7655
  19   2.0000      -0.383274       -10.4294
  20   2.0000      -0.366682        -9.9779
  21   2.0000      -0.352888        -9.6026
  22   2.0000      -0.351832        -9.5738
  23   2.0000      -0.316069        -8.6007
  24   2.0000      -0.300097        -8.1661
  25   2.0000      -0.293180        -7.9778
  26   2.0000      -0.290198        -7.8967
  27   2.0000      -0.289320        -7.8728
  28   2.0000      -0.277707        -7.5568
  29   2.0000      -0.268260        -7.2997
  30   2.0000      -0.262890        -7.1536
  31   2.0000      -0.261576        -7.1179
  32   0.0000       0.028994         0.7890
  33   0.0000       0.044289         1.2052
  34   0.0000       0.052652         1.4327
  35   0.0000       0.071032         1.9329
  36   0.0000       0.085275         2.3205

MULLIKEN ATOMIC CHARGES
-----------------------
   0 C :   -0.293529
   1 C :   -0.159756
   2 C :   -0.104167
   3 C :   -0.229180
   4 C :   -0.112505
   5 C :   -0.144993
   6 C :   -0.154778
   7 C :   -0.120953
   8 H :    0.108228
   9 H :    0.101409
  10 H :    0.096332
  11 H :    0.081941
  12 H :    0.088297
  13 H :    0.072952
  14 H :    0.072110
  15 H :    0.068561
  16 H :    0.082866
  17 H :    0.071205
  18 H :    0.075649
  19 H :    0.085389
  20 H :    0.080813
  21 H :    0.076537
  22 H :    0.079771
  23 H :    0.077800
Sum of atomic charges:   -0.0000000

LOEWDIN ATOMIC CHARGES
----------------------
   0 C :   -0.342547
   1 C :   -0.234743
   2 C :   -0.216152
   3 C :   -0.147899
   4 C :   -0.218818
   5 C :   -0.227994
   6 C :   -0.228861
   7 C :   -0.224588
   8 H :    0.115839
   9 H :    0.118954
  10 H :    0.116330
  11 H :    0.114909
  12 H :    0.114732
  13 H :    0.112290
  14 H :    0.111614
  15 H :    0.114109
  16 H :    0.114884
  17 H :    0.113040
  18 H :    0.114400
  19 H :    0.114713
  20 H :    0.115960
  21 H :    0.116381
  22 H :    0.117351
  23 H :    0.116096

  Mayer bond orders larger than 0.100000
B(  0-C ,  1-C ) :   1.1535 B(  0-C ,  8-H ) :   0.9502 B(  0-C ,  9-H ) :   0.9514
B(  0-C , 10-H ) :   0.9548 B(  1-C ,  2-C ) :   1.1281 B(  1-C , 11-H ) :   0.9257
B(  1-C , 12-H ) :   0.9194 B(  2-C ,  3-C ) :   1.0959 B(  2-C , 13-H ) :   0.9167
B(  2-C , 14-H ) :   0.9056 B(  3-C ,  4-C ) :   1.1112 B(  3-C ,  7-C ) :   1.1155
B(  3-C , 15-H ) :   0.8888 B(  4-C ,  5-C ) :   1.1163 B(  4-C , 16-H ) :   0.9214
B(  4-C , 17-H ) :   0.9139 B(  5-C ,  6-C ) :   1.1600 B(  5-C , 18-H ) :   0.9163
B(  5-C , 19-H ) :   0.9283 B(  6-C ,  7-C ) :   1.1606 B(  6-C , 20-H ) :   0.9227
B(  6-C , 21-H ) :   0.9191 B(  7-C , 22-H ) :   0.9157 B(  7-C , 23-H ) :   0.9130

Dispersion correction           -0.020839436
FINAL SINGLE POINT ENERGY      -313.693439561196

DIPOLE MOMENT
-------------

Method             : SCF
Type of density    : Electron Density
Multiplicity       :   1
Irrep              :   0
Energy             :  -313.7744818005557477 Eh
Relativity type    :
Basis              : AO
                                X                 Y                 Z
Electronic contribution:      2.512702697      -0.273711676      -0.500888184
Nuclear contribution   :     -2.525011305       0.282878357       0.517727529
                        -----------------------------------------
Total Dipole Moment    :     -0.012308608       0.009166680       0.016839344
                        -----------------------------------------
Magnitude (a.u.)       :      0.022783621
Magnitude (Debye)      :      0.057911361

Rotational constants in cm-1:             0.143345             0.036103             0.033465
Rotational constants in MHz :          4297.364061          1082.342905          1003.245431

                             ****ORCA TERMINATED NORMALLY****
TOTAL RUN TIME: 0 days 0 hours 0 minutes 11 seconds 164 msec
