                         Program Version 6.0.0  -   RELEASE  -
|  1> ! pbe def2-sv(p) def2/J RI DEFGRID1 loosescf d4 GCP(DFT/SV(P)) printgap
|  2> %output
|  3>     printlevel normal
|  4> end
|  5> * xyz 0 1
|  6> C -0.3900771357 -2.407438504 0.7711121996
|  7> C 0.0771072541 -1.3475022538 -0.2118884182
|  8> O 1.085676105 -0.5893626134 0.4319653418
|  9> C 1.6010640309 0.4900753944 -0.1743480707
| 10> O 1.2748036153 0.8419283809 -1.2855513796
| 11> C 2.590373254 1.176373648 0.7083144798
| 12> O -1.0065171857 -0.5554072178 -0.6867934794
| 13> C -1.5091550051 0.4595576868 0.0291649267
| 14> O -1.1127353556 0.7763641524 1.1274778942
| 15> C -2.5977909244 1.147008328 -0.731656525
| 16> H -0.7831213634 -1.9202634925 1.6598124026
| 17> H 0.4535607615 -3.0301790724 1.0475337824
| 18> H -1.1632698422 -3.0104468917 0.3067082357
| 19> H 0.4849543804 -1.7844998567 -1.1345338974
| 20> H 3.2363751426 0.4402822996 1.1763266302
| 21> H 3.1610541884 1.8954172696 0.1304730325
| 22> H 2.0378578408 1.690129291 1.4930902153
| 23> H -2.1356396887 1.7434280193 -1.5159732949
| 24> H -3.2406625769 0.4092381215 -1.2009912384
| 25> H -3.1576020939 1.7932366779 -0.0639465779
| 26> *
| 27>
| 28>                          ****END OF INPUT****

CARTESIAN COORDINATES (ANGSTROEM)
---------------------------------
  C     -0.390077   -2.407439    0.771112
  C      0.077107   -1.347502   -0.211888
  O      1.085676   -0.589363    0.431965
  C      1.601064    0.490075   -0.174348
  O      1.274804    0.841928   -1.285551
  C      2.590373    1.176374    0.708314
  O     -1.006517   -0.555407   -0.686793
  C     -1.509155    0.459558    0.029165
  O     -1.112735    0.776364    1.127478
  C     -2.597791    1.147008   -0.731657
  H     -0.783121   -1.920263    1.659812
  H      0.453561   -3.030179    1.047534
  H     -1.163270   -3.010447    0.306708
  H      0.484954   -1.784500   -1.134534
  H      3.236375    0.440282    1.176327
  H      3.161054    1.895417    0.130473
  H      2.037858    1.690129    1.493090
  H     -2.135640    1.743428   -1.515973
  H     -3.240663    0.409238   -1.200991
  H     -3.157602    1.793237   -0.063947

 Total Charge           Charge          ....    0
 Multiplicity           Mult            ....    1
 Number of Electrons    NEL             ....   78
 Basis Dimension        Dim             ....  160

ORBITAL ENERGIES
----------------

  NO   OCC          E(Eh)            E(eV)
   0   2.0000     -18.803796      -511.6773
   1   2.0000     -18.803676      -511.6740
   2   2.0000     -18.738071      -509.8888
   3   2.0000     -18.735879      -509.8292
   4   2.0000     -10.017846      -272.5995
   5   2.0000     -10.014864      -272.5183
   6   2.0000     -10.014279      -272.5024
   7   2.0000      -9.895888      -269.2808
   8   2.0000      -9.893465      -269.2149
   9   2.0000      -9.893034      -269.2031
  10   2.0000      -1.033726       -28.1291
  11   2.0000      -0.990594       -26.9554
  12   2.0000      -0.922559       -25.1041
  13   2.0000      -0.911676       -24.8080
  14   2.0000      -0.730809       -19.8863
  15   2.0000      -0.681105       -18.5338
  16   2.0000      -0.666837       -18.1455
  17   2.0000      -0.602919       -16.4062
  18   2.0000      -0.574235       -15.6257
  19   2.0000      -0.486470       -13.2375
  20   2.0000      -0.448322       -12.1995
  21   2.0000      -0.433385       -11.7930
  22   2.0000      -0.427636       -11.6366
  23   2.0000      -0.417994       -11.3742
  24   2.0000      -0.413192       -11.2435
  25   2.0000      -0.406278       -11.0554
  26   2.0000      -0.384483       -10.4623
  27   2.0000      -0.374013       -10.1774
  28   2.0000      -0.366360        -9.9692
  29   2.0000      -0.358513        -9.7556
  30   2.0000      -0.354675        -9.6512
  31   2.0000      -0.350200        -9.5294
  32   2.0000      -0.330665        -8.9979
  33   2.0000      -0.324808        -8.8385
  34   2.0000      -0.297436        -8.0936
  35   2.0000      -0.274845        -7.4789
  36   2.0000      -0.267227        -7.2716
  37   2.0000      -0.220209        -5.9922
  38   2.0000      -0.214817        -5.8455
  39   0.0000      -0.028897        -0.7863
  40   0.0000      -0.024473        -0.6659
  41   0.0000       0.042831         1.1655
  42   0.0000       0.063304         1.7226
  43   0.0000       0.064707         1.7608

MULLIKEN ATOMIC CHARGES
-----------------------
   0 C :   -0.244567
   1 C :    0.183013
   2 O :   -0.232998
   3 C :    0.087683
   4 O :   -0.204921
   5 C :   -0.235844
   6 O :   -0.239993
   7 C :    0.096436
   8 O :   -0.208408
   9 C :   -0.237690
  10 H :    0.131756
  11 H :    0.118430
  12 H :    0.116843
  13 H :    0.091079
  14 H :    0.122390
  15 H :    0.123574
  16 H :    0.144810
  17 H :    0.143762
  18 H :    0.121705
  19 H :    0.122940
Sum of atomic charges:    0.0000000

LOEWDIN ATOMIC CHARGES
----------------------
   0 C :   -0.349859
   1 C :    0.048576
   2 O :   -0.062115
   3 C :    0.037817
   4 O :   -0.162620
   5 C :   -0.356398
   6 O :   -0.063510
   7 C :    0.037888
   8 O :   -0.167727
   9 C :   -0.356776
  10 H :    0.138938
  11 H :    0.134975
  12 H :    0.132568
  13 H :    0.115878
  14 H :    0.141547
  15 H :    0.139844
  16 H :    0.156056
  17 H :    0.155026
  18 H :    0.140774
  19 H :    0.139118

  Mayer bond orders larger than 0.100000
B(  0-C ,  1-C ) :   1.1310 B(  0-C , 10-H ) :   0.9325 B(  0-C , 11-H ) :   0.9380
B(  0-C , 12-H ) :   0.9375 B(  1-C ,  2-O ) :   0.9575 B(  1-C ,  6-O ) :   0.9547
B(  1-C , 13-H ) :   0.9201 B(  2-O ,  3-C ) :   1.1280 B(  3-C ,  4-O ) :   2.0733
B(  3-C ,  5-C ) :   1.1025 B(  5-C , 14-H ) :   0.9284 B(  5-C , 15-H ) :   0.9396
B(  5-C , 16-H ) :   0.9184 B(  6-O ,  7-C ) :   1.1389 B(  7-C ,  8-O ) :   2.0538
B(  7-C ,  9-C ) :   1.0945 B(  9-C , 17-H ) :   0.9203 B(  9-C , 18-H ) :   0.9298
B(  9-C , 19-H ) :   0.9401

Dispersion correction           -0.017807833
FINAL SINGLE POINT ENERGY      -534.466084136373

DIPOLE MOMENT
-------------

Method             : SCF
Type of density    : Electron Density
Multiplicity       :   1
Irrep              :   0
Energy             :  -534.5452310236290714 Eh
Relativity type    :
Basis              : AO
                                X                 Y                 Z
Electronic contribution:      0.993557039       1.007553603      -1.698570269
Nuclear contribution   :     -1.034504911      -1.656977001       1.774997801
                        -----------------------------------------
Total Dipole Moment    :     -0.040947872      -0.649423398       0.076427533
                        -----------------------------------------
Magnitude (a.u.)       :      0.655185963
Magnitude (Debye)      :      1.665350370

Rotational constants in cm-1:             0.058840             0.038280             0.029956
Rotational constants in MHz :          1763.969326          1147.615406           898.060955

                             ****ORCA TERMINATED NORMALLY****
TOTAL RUN TIME: 0 days 0 hours 0 minutes 13 seconds 231 msec
