                         Program Version 6.0.0  -   RELEASE  -
|  1> ! r2scan-3c def2/J RI DEFGRID2 scfconv6 printgap
|  2> %output
|  3>     printlevel normal
|  4> end
|  5> * xyz 0 1
|  6> C 3.0391979578 -0.9598321347 0.9620497834
|  7> C 2.5973232203 0.0963568336 -0.0045437105
|  8> C 3.4669685886 0.8693362523 -0.6371357476
|  9> C 1.1126989922 0.2542904231 -0.2305333143
| 10> H 0.9684894108 0.8687210722 -1.1253028601
| 11> C 0.3899642766 -1.0776406321 -0.4511869905
| 12> C -1.0495763407 -0.8111184617 -0.8789133615
| 13> C -1.7203048626 0.1618802999 0.0485495456
| 14> C -1.0251194719 0.9630292577 0.8716276506
| 15> C 0.4565936046 0.9854203044 0.9496332468
| 16> C -3.1692770815 0.214691302 0.0407077134
| 17> O -3.9007561466 -0.4752128627 -0.6473012632
| 18> H 2.8737000659 -1.9486543678 0.5372704307
| 19> H 4.0977263768 -0.855219283 1.1830885827
| 20> H 2.4801989474 -0.8996582746 1.8932771998
| 21> H 3.1556611933 1.620803275 -1.3432427108
| 22> H 4.5284267385 0.7820393947 -0.4776992639
| 23> H 0.8999665773 -1.6582856219 -1.2208018887
| 24> H 0.3881799598 -1.6552962374 0.4735268325
| 25> H -1.0756476183 -0.4021195079 -1.8933290201
| 26> H -1.6320378119 -1.7351305802 -0.8973102217
| 27> H -1.5539956607 1.6331924123 1.5364464905
| 28> H 0.8061028793 2.0193727472 0.9933563169
| 29> H 0.7514490591 0.5177530758 1.8943755236
| 30> H -3.60850176 0.9569493968 0.7342712133
| 31> *
| 32>
| 33>                          ****END OF INPUT****

CARTESIAN COORDINATES (ANGSTROEM)
---------------------------------
  C      3.039198   -0.959832    0.962050
  C      2.597323    0.096357   -0.004544
  C      3.466969    0.869336   -0.637136
  C      1.112699    0.254290   -0.230533
  H      0.968489    0.868721   -1.125303
  C      0.389964   -1.077641   -0.451187
  C     -1.049576   -0.811118   -0.878913
  C     -1.720305    0.161880    0.048550
  C     -1.025119    0.963029    0.871628
  C      0.456594    0.985420    0.949633
  C     -3.169277    0.214691    0.040708
  O     -3.900756   -0.475213   -0.647301
  H      2.873700   -1.948654    0.537270
  H      4.097726   -0.855219    1.183089
  H      2.480199   -0.899658    1.893277
  H      3.155661    1.620803   -1.343243
  H      4.528427    0.782039   -0.477699
  H      0.899967   -1.658286   -1.220802
  H      0.388180   -1.655296    0.473527
  H     -1.075648   -0.402120   -1.893329
  H     -1.632038   -1.735131   -0.897310
  H     -1.553996    1.633192    1.536446
  H      0.806103    2.019373    0.993356
  H      0.751449    0.517753    1.894376
  H     -3.608502    0.956949    0.734271

 Total Charge           Charge          ....    0
 Multiplicity           Mult            ....    1
 Number of Electrons    NEL             ....   82
 Basis Dimension        Dim             ....  284

ORBITAL ENERGIES
----------------

  NO   OCC          E(Eh)            E(eV)
   0   2.0000     -18.939390      -515.3670
   1   2.0000     -10.109317      -275.0885
   2   2.0000     -10.063209      -273.8338
   3   2.0000     -10.052010      -273.5291
   4   2.0000     -10.050193      -273.4796
   5   2.0000     -10.049890      -273.4714
   6   2.0000     -10.047747      -273.4131
   7   2.0000     -10.038403      -273.1588
   8   2.0000     -10.038120      -273.1511
   9   2.0000     -10.033106      -273.0147
  10   2.0000     -10.019324      -272.6397
  11   2.0000      -0.999752       -27.2046
  12   2.0000      -0.834656       -22.7121
  13   2.0000      -0.784778       -21.3549
  14   2.0000      -0.731003       -19.8916
  15   2.0000      -0.724977       -19.7276
  16   2.0000      -0.664212       -18.0741
  17   2.0000      -0.626935       -17.0598
  18   2.0000      -0.597733       -16.2651
  19   2.0000      -0.558071       -15.1859
  20   2.0000      -0.511773       -13.9260
  21   2.0000      -0.498555       -13.5664
  22   2.0000      -0.465749       -12.6737
  23   2.0000      -0.443974       -12.0812
  24   2.0000      -0.427881       -11.6432
  25   2.0000      -0.420126       -11.4322
  26   2.0000      -0.413292       -11.2463
  27   2.0000      -0.399086       -10.8597
  28   2.0000      -0.393539       -10.7087
  29   2.0000      -0.378442       -10.2979
  30   2.0000      -0.371258       -10.1024
  31   2.0000      -0.367688       -10.0053
  32   2.0000      -0.352655        -9.5962
  33   2.0000      -0.345689        -9.4067
  34   2.0000      -0.340246        -9.2586
  35   2.0000      -0.308261        -8.3882
  36   2.0000      -0.304712        -8.2916
  37   2.0000      -0.293259        -7.9800
  38   2.0000      -0.248596        -6.7647
  39   2.0000      -0.232292        -6.3210
  40   2.0000      -0.218121        -5.9354
  41   0.0000      -0.087236        -2.3738
  42   0.0000      -0.016299        -0.4435
  43   0.0000       0.024531         0.6675
  44   0.0000       0.064481         1.7546
  45   0.0000       0.087191         2.3726

MULLIKEN ATOMIC CHARGES
-----------------------
   0 C :   -0.534329
   1 C :    0.073964
   2 C :   -0.378761
   3 C :    0.002322
   4 H :    0.178057
   5 C :   -0.346266
   6 C :   -0.326239
   7 C :    0.129061
   8 C :   -0.135841
   9 C :   -0.411326
  10 C :    0.017375
  11 O :   -0.350658
  12 H :    0.169705
  13 H :    0.154078
  14 H :    0.159567
  15 H :    0.142227
  16 H :    0.139280
  17 H :    0.169962
  18 H :    0.168571
  19 H :    0.182556
  20 H :    0.183483
  21 H :    0.160764
  22 H :    0.172106
  23 H :    0.180304
  24 H :    0.100037
Sum of atomic charges:    0.0000000

LOEWDIN ATOMIC CHARGES
----------------------
   0 C :   -0.392618
   1 C :   -0.122957
   2 C :   -0.316734
   3 C :   -0.197778
   4 H :    0.173419
   5 C :   -0.274735
   6 C :   -0.262838
   7 C :   -0.115081
   8 C :   -0.120890
   9 C :   -0.267634
  10 C :    0.201115
  11 O :   -0.468611
  12 H :    0.166261
  13 H :    0.161814
  14 H :    0.157799
  15 H :    0.158145
  16 H :    0.156737
  17 H :    0.165053
  18 H :    0.164856
  19 H :    0.175327
  20 H :    0.180891
  21 H :    0.170767
  22 H :    0.175410
  23 H :    0.176775
  24 H :    0.155507

  Mayer bond orders larger than 0.100000
B(  0-C ,  1-C ) :   0.8809 B(  0-C , 12-H ) :   0.9630 B(  0-C , 13-H ) :   0.9789
B(  0-C , 14-H ) :   0.9810 B(  1-C ,  2-C ) :   1.8732 B(  1-C ,  3-C ) :   0.8678
B(  2-C , 15-H ) :   0.9899 B(  2-C , 16-H ) :   0.9687 B(  3-C ,  4-H ) :   0.9977
B(  3-C ,  5-C ) :   0.8431 B(  3-C ,  9-C ) :   0.9044 B(  5-C ,  6-C ) :   0.8953
B(  5-C , 17-H ) :   0.9736 B(  5-C , 18-H ) :   0.9806 B(  6-C ,  7-C ) :   0.8640
B(  6-C , 19-H ) :   0.9972 B(  6-C , 20-H ) :   0.9852 B(  7-C ,  8-C ) :   1.7385
B(  7-C , 10-C ) :   0.9102 B(  7-C , 24-H ) :  -0.1313 B(  8-C ,  9-C ) :   0.8893
B(  8-C , 11-O ) :   0.1057 B(  8-C , 21-H ) :   0.9183 B(  9-C , 22-H ) :   0.9641
B(  9-C , 23-H ) :   0.9807 B( 10-C , 11-O ) :   1.9074 B( 10-C , 24-H ) :   1.0414

Dispersion correction           -0.008902402
FINAL SINGLE POINT ENERGY      -464.557423995872

DIPOLE MOMENT
-------------

Method             : SCF
Type of density    : Electron Density
Multiplicity       :   1
Irrep              :   0
Energy             :  -464.5580600263001543 Eh
Relativity type    :
Basis              : AO
                                X                 Y                 Z
Electronic contribution:    -10.980143276       1.105414211      -1.470533910
Nuclear contribution   :     12.213142783      -0.715860862       2.136862979
                        -----------------------------------------
Total Dipole Moment    :      1.232999507       0.389553349       0.666329069
                        -----------------------------------------
Magnitude (a.u.)       :      1.454659419
Magnitude (Debye)      :      3.697450401

Rotational constants in cm-1:             0.099199             0.018155             0.017195
Rotational constants in MHz :          2973.896252           544.273683           515.505541

                             ****ORCA TERMINATED NORMALLY****
TOTAL RUN TIME: 0 days 0 hours 0 minutes 56 seconds 89 msec
