                         Program Version 6.0.0  -   RELEASE  -
|  1> ! r2scan-3c def2/J RI DEFGRID2 scfconv6 printgap
|  2> %output
|  3>     printlevel normal
|  4> end
|  5> %cpcm
|  6>     smd true
|  7>     smdsolvent "water"
|  8> end
|  9> * xyz 0 1
| 10> C 3.0391979578 -0.9598321347 0.9620497834
| 11> C 2.5973232203 0.0963568336 -0.0045437105
| 12> C 3.4669685886 0.8693362523 -0.6371357476
| 13> C 1.1126989922 0.2542904231 -0.2305333143
| 14> H 0.9684894108 0.8687210722 -1.1253028601
| 15> C 0.3899642766 -1.0776406321 -0.4511869905
| 16> C -1.0495763407 -0.8111184617 -0.8789133615
| 17> C -1.7203048626 0.1618802999 0.0485495456
| 18> C -1.0251194719 0.9630292577 0.8716276506
| 19> C 0.4565936046 0.9854203044 0.9496332468
| 20> C -3.1692770815 0.214691302 0.0407077134
| 21> O -3.9007561466 -0.4752128627 -0.6473012632
| 22> H 2.8737000659 -1.9486543678 0.5372704307
| 23> H 4.0977263768 -0.855219283 1.1830885827
| 24> H 2.4801989474 -0.8996582746 1.8932771998
| 25> H 3.1556611933 1.620803275 -1.3432427108
| 26> H 4.5284267385 0.7820393947 -0.4776992639
| 27> H 0.8999665773 -1.6582856219 -1.2208018887
| 28> H 0.3881799598 -1.6552962374 0.4735268325
| 29> H -1.0756476183 -0.4021195079 -1.8933290201
| 30> H -1.6320378119 -1.7351305802 -0.8973102217
| 31> H -1.5539956607 1.6331924123 1.5364464905
| 32> H 0.8061028793 2.0193727472 0.9933563169
| 33> H 0.7514490591 0.5177530758 1.8943755236
| 34> H -3.60850176 0.9569493968 0.7342712133
| 35> *
| 36>
| 37>                          ****END OF INPUT****

CARTESIAN COORDINATES (ANGSTROEM)
---------------------------------
  C      3.039198   -0.959832    0.962050
  C      2.597323    0.096357   -0.004544
  C      3.466969    0.869336   -0.637136
  C      1.112699    0.254290   -0.230533
  H      0.968489    0.868721   -1.125303
  C      0.389964   -1.077641   -0.451187
  C     -1.049576   -0.811118   -0.878913
  C     -1.720305    0.161880    0.048550
  C     -1.025119    0.963029    0.871628
  C      0.456594    0.985420    0.949633
  C     -3.169277    0.214691    0.040708
  O     -3.900756   -0.475213   -0.647301
  H      2.873700   -1.948654    0.537270
  H      4.097726   -0.855219    1.183089
  H      2.480199   -0.899658    1.893277
  H      3.155661    1.620803   -1.343243
  H      4.528427    0.782039   -0.477699
  H      0.899967   -1.658286   -1.220802
  H      0.388180   -1.655296    0.473527
  H     -1.075648   -0.402120   -1.893329
  H     -1.632038   -1.735131   -0.897310
  H     -1.553996    1.633192    1.536446
  H      0.806103    2.019373    0.993356
  H      0.751449    0.517753    1.894376
  H     -3.608502    0.956949    0.734271

 Total Charge           Charge          ....    0
 Multiplicity           Mult            ....    1
 Number of Electrons    NEL             ....   82
 Basis Dimension        Dim             ....  284

ORBITAL ENERGIES
----------------

  NO   OCC          E(Eh)            E(eV)
   0   2.0000     -18.949975      -515.6550
   1   2.0000     -10.114290      -275.2238
   2   2.0000     -10.055118      -273.6137
   3   2.0000     -10.041651      -273.2472
   4   2.0000     -10.038215      -273.1537
   5   2.0000     -10.034660      -273.0570
   6   2.0000     -10.034514      -273.0530
   7   2.0000     -10.027997      -272.8757
   8   2.0000     -10.022960      -272.7386
   9   2.0000     -10.015751      -272.5425
  10   2.0000     -10.007632      -272.3215
  11   2.0000      -1.012817       -27.5602
  12   2.0000      -0.822419       -22.3792
  13   2.0000      -0.774450       -21.0739
  14   2.0000      -0.717897       -19.5350
  15   2.0000      -0.713698       -19.4207
  16   2.0000      -0.650218       -17.6933
  17   2.0000      -0.617918       -16.8144
  18   2.0000      -0.586290       -15.9538
  19   2.0000      -0.550104       -14.9691
  20   2.0000      -0.498764       -13.5721
  21   2.0000      -0.486405       -13.2357
  22   2.0000      -0.460237       -12.5237
  23   2.0000      -0.434300       -11.8179
  24   2.0000      -0.423291       -11.5183
  25   2.0000      -0.412224       -11.2172
  26   2.0000      -0.402159       -10.9433
  27   2.0000      -0.388317       -10.5666
  28   2.0000      -0.383689       -10.4407
  29   2.0000      -0.376038       -10.2325
  30   2.0000      -0.362769        -9.8714
  31   2.0000      -0.356047        -9.6885
  32   2.0000      -0.344157        -9.3650
  33   2.0000      -0.336062        -9.1447
  34   2.0000      -0.327881        -8.9221
  35   2.0000      -0.292240        -7.9523
  36   2.0000      -0.291271        -7.9259
  37   2.0000      -0.281069        -7.6483
  38   2.0000      -0.242202        -6.5907
  39   2.0000      -0.230111        -6.2616
  40   2.0000      -0.223829        -6.0907
  41   0.0000      -0.086519        -2.3543
  42   0.0000      -0.007782        -0.2117
  43   0.0000       0.030365         0.8263
  44   0.0000       0.080355         2.1866
  45   0.0000       0.101525         2.7626

MULLIKEN ATOMIC CHARGES
-----------------------
   0 C :   -0.564273
   1 C :    0.040021
   2 C :   -0.459900
   3 C :    0.028148
   4 H :    0.192853
   5 C :   -0.365247
   6 C :   -0.336890
   7 C :    0.071968
   8 C :   -0.113982
   9 C :   -0.425321
  10 C :    0.057926
  11 O :   -0.458669
  12 H :    0.183855
  13 H :    0.167691
  14 H :    0.183978
  15 H :    0.165293
  16 H :    0.163186
  17 H :    0.177960
  18 H :    0.184270
  19 H :    0.197701
  20 H :    0.179564
  21 H :    0.194036
  22 H :    0.189675
  23 H :    0.212360
  24 H :    0.133798
Sum of atomic charges:    0.0000000

LOEWDIN ATOMIC CHARGES
----------------------
   0 C :   -0.399783
   1 C :   -0.121256
   2 C :   -0.347703
   3 C :   -0.197817
   4 H :    0.177837
   5 C :   -0.273290
   6 C :   -0.268754
   7 C :   -0.128357
   8 C :   -0.087496
   9 C :   -0.264972
  10 C :    0.212545
  11 O :   -0.554482
  12 H :    0.171516
  13 H :    0.164686
  14 H :    0.167381
  15 H :    0.163630
  16 H :    0.161805
  17 H :    0.167789
  18 H :    0.170103
  19 H :    0.178503
  20 H :    0.177351
  21 H :    0.184589
  22 H :    0.183188
  23 H :    0.190444
  24 H :    0.172543

  Mayer bond orders larger than 0.100000
B(  0-C ,  1-C ) :   0.8853 B(  0-C , 12-H ) :   0.9572 B(  0-C , 13-H ) :   0.9761
B(  0-C , 14-H ) :   0.9717 B(  1-C ,  2-C ) :   1.8589 B(  1-C ,  3-C ) :   0.8483
B(  2-C , 15-H ) :   0.9855 B(  2-C , 16-H ) :   0.9711 B(  3-C ,  4-H ) :   0.9979
B(  3-C ,  5-C ) :   0.8318 B(  3-C ,  9-C ) :   0.8926 B(  5-C ,  6-C ) :   0.9044
B(  5-C , 17-H ) :   0.9697 B(  5-C , 18-H ) :   0.9811 B(  6-C ,  7-C ) :   0.8275
B(  6-C , 19-H ) :   0.9883 B(  6-C , 20-H ) :   0.9864 B(  7-C ,  8-C ) :   1.7407
B(  7-C , 10-C ) :   0.9777 B(  8-C ,  9-C ) :   0.9026 B(  8-C , 21-H ) :   0.9107
B(  9-C , 22-H ) :   0.9532 B(  9-C , 23-H ) :   0.9679 B( 10-C , 11-O ) :   1.8257
B( 10-C , 24-H ) :   1.0116

Dispersion correction           -0.008902402
FINAL SINGLE POINT ENERGY      -464.564455097900

DIPOLE MOMENT
-------------

Method             : SCF
Type of density    : Electron Density
Multiplicity       :   1
Irrep              :   0
Energy             :  -464.5650911283285609 Eh
Relativity type    :
Basis              : AO
                                X                 Y                 Z
Electronic contribution:    -10.529919682       1.399652087      -0.994296290
Nuclear contribution   :     12.213142783      -0.715860862       2.136862979
                        -----------------------------------------
Total Dipole Moment    :      1.683223100       0.683791225       1.142566690
                        -----------------------------------------
Magnitude (a.u.)       :      2.146222049
Magnitude (Debye)      :      5.455262912

Rotational constants in cm-1:             0.099199             0.018155             0.017195
Rotational constants in MHz :          2973.896252           544.273683           515.505541

                             ****ORCA TERMINATED NORMALLY****
TOTAL RUN TIME: 0 days 0 hours 1 minutes 6 seconds 582 msec
