                         Program Version 6.0.0  -   RELEASE  -
|  1> ! r2scan-3c def2/J RI DEFGRID2 scfconv6 printgap
|  2> %output
|  3>     printlevel normal
|  4> end
|  5> %cpcm
|  6>     smd true
|  7>     smdsolvent "water"
|  8> end
|  9> * xyz 0 1
| 10> C -1.1455963867 0.1981156657 -0.5120136162
| 11> C -0.040390156 0.5162860066 0.4982605515
| 12> C 0.9380876084 -0.6593096083 0.6146802476
| 13> O 1.5795450927 -0.8676480201 -0.6245734539
| 14> O 0.5748502732 1.7109881775 0.0793708679
| 15> O -1.9686524933 -0.810424656 0.0280557817
| 16> H -0.6735633199 -0.1223444253 -1.4476804902
| 17> H -1.7106273334 1.1203527181 -0.6947876466
| 18> H -0.5123183708 0.6530901325 1.485537896
| 19> H 0.3545725697 -1.5381318661 0.9130577394
| 20> H 1.6779149889 -0.4377557983 1.3965278681
| 21> H 2.1288667378 -1.6609022281 -0.5685294001
| 22> H 1.389213384 1.8479919995 0.5839638752
| 23> H -2.6484301506 -1.0412633502 -0.6199494282
| 24> *
| 25>
| 26>                          ****END OF INPUT****

CARTESIAN COORDINATES (ANGSTROEM)
---------------------------------
  C     -1.145596    0.198116   -0.512014
  C     -0.040390    0.516286    0.498261
  C      0.938088   -0.659310    0.614680
  O      1.579545   -0.867648   -0.624573
  O      0.574850    1.710988    0.079371
  O     -1.968652   -0.810425    0.028056
  H     -0.673563   -0.122344   -1.447680
  H     -1.710627    1.120353   -0.694788
  H     -0.512318    0.653090    1.485538
  H      0.354573   -1.538132    0.913058
  H      1.677915   -0.437756    1.396528
  H      2.128867   -1.660902   -0.568529
  H      1.389213    1.847992    0.583964
  H     -2.648430   -1.041263   -0.619949

 Total Charge           Charge          ....    0
 Multiplicity           Mult            ....    1
 Number of Electrons    NEL             ....   50
 Basis Dimension        Dim             ....  169

ORBITAL ENERGIES
----------------

  NO   OCC          E(Eh)            E(eV)
   0   2.0000     -18.957124      -515.8496
   1   2.0000     -18.955920      -515.8168
   2   2.0000     -18.953452      -515.7497
   3   2.0000     -10.082396      -274.3559
   4   2.0000     -10.071897      -274.0702
   5   2.0000     -10.071422      -274.0573
   6   2.0000      -1.004719       -27.3398
   7   2.0000      -0.989165       -26.9166
   8   2.0000      -0.982394       -26.7323
   9   2.0000      -0.724564       -19.7164
  10   2.0000      -0.641706       -17.4617
  11   2.0000      -0.553236       -15.0543
  12   2.0000      -0.510452       -13.8901
  13   2.0000      -0.477146       -12.9838
  14   2.0000      -0.448422       -12.2022
  15   2.0000      -0.437865       -11.9149
  16   2.0000      -0.419335       -11.4107
  17   2.0000      -0.376862       -10.2549
  18   2.0000      -0.360667        -9.8142
  19   2.0000      -0.344177        -9.3655
  20   2.0000      -0.325619        -8.8605
  21   2.0000      -0.279733        -7.6119
  22   2.0000      -0.251162        -6.8345
  23   2.0000      -0.245639        -6.6842
  24   2.0000      -0.238788        -6.4978
  25   0.0000       0.058307         1.5866
  26   0.0000       0.068271         1.8577
  27   0.0000       0.105093         2.8597
  28   0.0000       0.125810         3.4235
  29   0.0000       0.145851         3.9688

MULLIKEN ATOMIC CHARGES
-----------------------
   0 C :   -0.186713
   1 C :    0.073371
   2 C :   -0.168444
   3 O :   -0.508201
   4 O :   -0.510268
   5 O :   -0.509643
   6 H :    0.154384
   7 H :    0.146347
   8 H :    0.150050
   9 H :    0.151675
  10 H :    0.154039
  11 H :    0.349279
  12 H :    0.352274
  13 H :    0.351850
Sum of atomic charges:   -0.0000000

LOEWDIN ATOMIC CHARGES
----------------------
   0 C :    0.042199
   1 C :    0.086929
   2 C :    0.025308
   3 O :   -0.647693
   4 O :   -0.613705
   5 O :   -0.645775
   6 H :    0.175620
   7 H :    0.172522
   8 H :    0.182326
   9 H :    0.180243
  10 H :    0.170967
  11 H :    0.288979
  12 H :    0.292560
  13 H :    0.289519

  Mayer bond orders larger than 0.100000
B(  0-C ,  1-C ) :   0.9520 B(  0-C ,  5-O ) :   0.9336 B(  0-C ,  6-H ) :   0.9644
B(  0-C ,  7-H ) :   0.9587 B(  1-C ,  2-C ) :   0.9793 B(  1-C ,  4-O ) :   0.9038
B(  1-C ,  8-H ) :   0.9306 B(  2-C ,  3-O ) :   0.9321 B(  2-C ,  9-H ) :   0.9529
B(  2-C , 10-H ) :   0.9612 B(  3-O , 11-H ) :   0.8726 B(  4-O , 12-H ) :   0.8670
B(  5-O , 13-H ) :   0.8690

Dispersion correction           -0.003013835
FINAL SINGLE POINT ENERGY      -344.741742550675

DIPOLE MOMENT
-------------

Method             : SCF
Type of density    : Electron Density
Multiplicity       :   1
Irrep              :   0
Energy             :  -344.7489775904173257 Eh
Relativity type    :
Basis              : AO
                                X                 Y                 Z
Electronic contribution:      0.308226019       0.379545115      -0.489659168
Nuclear contribution   :      0.008039044      -1.105582688       0.975657111
                        -----------------------------------------
Total Dipole Moment    :      0.316265063      -0.726037572       0.485997943
                        -----------------------------------------
Magnitude (a.u.)       :      0.929165296
Magnitude (Debye)      :      2.361750490

Rotational constants in cm-1:             0.147031             0.094025             0.068858
Rotational constants in MHz :          4407.882539          2818.802166          2064.320331

                             ****ORCA TERMINATED NORMALLY****
TOTAL RUN TIME: 0 days 0 hours 0 minutes 23 seconds 421 msec
