                         Program Version 6.0.0  -   RELEASE  -
|  1> ! pbe def2-sv(p) def2/J RI DEFGRID1 loosescf d4 GCP(DFT/SV(P)) printgap
|  2> %output
|  3>     printlevel normal
|  4> end
|  5> * xyz 0 1
|  6> C 1.7332068145 -1.1873498347 -0.1150968324
|  7> C 1.2390313939 0.1339545736 0.4701689257
|  8> H 1.0815269105 0.0171613322 1.5491765462
|  9> C -0.0631941246 0.6282901082 -0.1763727284
| 10> C -1.2923127325 -0.2491642713 0.1203077253
| 11> C -2.5065159166 0.6220138685 0.4432912412
| 12> C -1.6233711495 -1.1686710503 -1.0546653061
| 13> O 2.2442314094 1.1334428913 0.3793815072
| 14> H 1.8206993118 -1.1149858757 -1.1972882152
| 15> H 2.7098553314 -1.4251049588 0.300471127
| 16> H 1.0467597103 -1.9902079873 0.1331950989
| 17> H -0.2363610183 1.637385721 0.2045210519
| 18> H 0.0822558194 0.7052990858 -1.2562973562
| 19> H -1.0762759756 -0.8672241929 0.9987070205
| 20> H -3.3759929744 0.0015151274 0.647798182
| 21> H -2.7392481997 1.2723452847 -0.3971595384
| 22> H -2.3145856406 1.2406690083 1.3167875935
| 23> H -0.7754256329 -1.7939958096 -1.317471236
| 24> H -2.4604013907 -1.8159745959 -0.8027904755
| 25> H -1.900001226 -0.5781601842 -1.9256227446
| 26> H 2.4611926708 1.2686183267 -0.5538948522
| 27> *
| 28>
| 29>                          ****END OF INPUT****

CARTESIAN COORDINATES (ANGSTROEM)
---------------------------------
  C      1.733207   -1.187350   -0.115097
  C      1.239031    0.133955    0.470169
  H      1.081527    0.017161    1.549177
  C     -0.063194    0.628290   -0.176373
  C     -1.292313   -0.249164    0.120308
  C     -2.506516    0.622014    0.443291
  C     -1.623371   -1.168671   -1.054665
  O      2.244231    1.133443    0.379382
  H      1.820699   -1.114986   -1.197288
  H      2.709855   -1.425105    0.300471
  H      1.046760   -1.990208    0.133195
  H     -0.236361    1.637386    0.204521
  H      0.082256    0.705299   -1.256297
  H     -1.076276   -0.867224    0.998707
  H     -3.375993    0.001515    0.647798
  H     -2.739248    1.272345   -0.397160
  H     -2.314586    1.240669    1.316788
  H     -0.775426   -1.793996   -1.317471
  H     -2.460401   -1.815975   -0.802790
  H     -1.900001   -0.578160   -1.925623
  H      2.461193    1.268618   -0.553895

 Total Charge           Charge          ....    0
 Multiplicity           Mult            ....    1
 Number of Electrons    NEL             ....   58
 Basis Dimension        Dim             ....  126

ORBITAL ENERGIES
----------------

  NO   OCC          E(Eh)            E(eV)
   0   2.0000     -18.734654      -509.7958
   1   2.0000      -9.934466      -270.3306
   2   2.0000      -9.896780      -269.3051
   3   2.0000      -9.878327      -268.8030
   4   2.0000      -9.875208      -268.7181
   5   2.0000      -9.873730      -268.6778
   6   2.0000      -9.872570      -268.6463
   7   2.0000      -0.913155       -24.8482
   8   2.0000      -0.732915       -19.9436
   9   2.0000      -0.673689       -18.3320
  10   2.0000      -0.614670       -16.7260
  11   2.0000      -0.608013       -16.5449
  12   2.0000      -0.540146       -14.6981
  13   2.0000      -0.503332       -13.6964
  14   2.0000      -0.436905       -11.8888
  15   2.0000      -0.415744       -11.3130
  16   2.0000      -0.406761       -11.0685
  17   2.0000      -0.386927       -10.5288
  18   2.0000      -0.375348       -10.2137
  19   2.0000      -0.361432        -9.8351
  20   2.0000      -0.341777        -9.3002
  21   2.0000      -0.335599        -9.1321
  22   2.0000      -0.321731        -8.7547
  23   2.0000      -0.310656        -8.4534
  24   2.0000      -0.299421        -8.1477
  25   2.0000      -0.284283        -7.7357
  26   2.0000      -0.279217        -7.5979
  27   2.0000      -0.262025        -7.1301
  28   2.0000      -0.208085        -5.6623
  29   0.0000       0.030797         0.8380
  30   0.0000       0.040304         1.0967
  31   0.0000       0.057410         1.5622
  32   0.0000       0.073515         2.0004
  33   0.0000       0.081987         2.2310

MULLIKEN ATOMIC CHARGES
-----------------------
   0 C :   -0.262516
   1 C :    0.001974
   2 H :    0.073043
   3 C :   -0.102508
   4 C :   -0.186398
   5 C :   -0.252373
   6 C :   -0.254301
   7 O :   -0.428036
   8 H :    0.085986
   9 H :    0.110527
  10 H :    0.112182
  11 H :    0.085152
  12 H :    0.059213
  13 H :    0.078137
  14 H :    0.095786
  15 H :    0.096859
  16 H :    0.103850
  17 H :    0.102256
  18 H :    0.097079
  19 H :    0.095637
  20 H :    0.288450
Sum of atomic charges:    0.0000000

LOEWDIN ATOMIC CHARGES
----------------------
   0 C :   -0.355006
   1 C :   -0.057464
   2 H :    0.111519
   3 C :   -0.230593
   4 C :   -0.157051
   5 C :   -0.328345
   6 C :   -0.330997
   7 O :   -0.331101
   8 H :    0.113316
   9 H :    0.123924
  10 H :    0.124097
  11 H :    0.119446
  12 H :    0.109353
  13 H :    0.112828
  14 H :    0.115552
  15 H :    0.116793
  16 H :    0.117309
  17 H :    0.115093
  18 H :    0.116851
  19 H :    0.116172
  20 H :    0.278305

  Mayer bond orders larger than 0.100000
B(  0-C ,  1-C ) :   1.1120 B(  0-C ,  8-H ) :   0.9394 B(  0-C ,  9-H ) :   0.9422
B(  0-C , 10-H ) :   0.9289 B(  1-C ,  2-H ) :   0.9028 B(  1-C ,  3-C ) :   1.0829
B(  1-C ,  7-O ) :   1.0326 B(  3-C ,  4-C ) :   1.0210 B(  3-C , 11-H ) :   0.9170
B(  3-C , 12-H ) :   0.9039 B(  4-C ,  5-C ) :   1.1126 B(  4-C ,  6-C ) :   1.1128
B(  4-C , 13-H ) :   0.9104 B(  5-C , 14-H ) :   0.9517 B(  5-C , 15-H ) :   0.9500
B(  5-C , 16-H ) :   0.9491 B(  6-C , 17-H ) :   0.9436 B(  6-C , 18-H ) :   0.9501
B(  6-C , 19-H ) :   0.9470 B(  7-O , 20-H ) :   0.8565

Dispersion correction           -0.016315699
FINAL SINGLE POINT ENERGY      -311.515539312990

DIPOLE MOMENT
-------------

Method             : SCF
Type of density    : Electron Density
Multiplicity       :   1
Irrep              :   0
Energy             :  -311.5950530856603677 Eh
Relativity type    :
Basis              : AO
                                X                 Y                 Z
Electronic contribution:      5.069495813       2.935682408       1.708641302
Nuclear contribution   :     -5.291712324      -3.212956683      -2.152021816
                        -----------------------------------------
Total Dipole Moment    :     -0.222216511      -0.277274275      -0.443380514
                        -----------------------------------------
Magnitude (a.u.)       :      0.568196693
Magnitude (Debye)      :      1.444241217

Rotational constants in cm-1:             0.141194             0.048998             0.040186
Rotational constants in MHz :          4232.899527          1468.934844          1204.749688

                             ****ORCA TERMINATED NORMALLY****
TOTAL RUN TIME: 0 days 0 hours 0 minutes 10 seconds 61 msec
