                         Program Version 6.0.0  -   RELEASE  -
|  1> ! pbe def2-sv(p) def2/J RI DEFGRID1 loosescf d4 GCP(DFT/SV(P)) printgap
|  2> %output
|  3>     printlevel normal
|  4> end
|  5> * xyz 0 1
|  6> C 2.280926827 -1.0077234631 -0.6490454914
|  7> C 1.5984612864 0.3252560462 -0.3680382128
|  8> C 0.3522052063 0.2044950785 0.5217459974
|  9> H 0.6329609267 -0.3370825264 1.4341348446
| 10> C -0.8211860772 -0.5558215512 -0.1354986134
| 11> C -1.8952505915 -0.8378743967 0.9149026231
| 12> C -1.4329708188 0.1993348722 -1.3152479388
| 13> O -0.043060735 1.4825308637 0.99137676
| 14> H 1.654424541 -1.6491570109 -1.262772608
| 15> H 2.5001883827 -1.5263361255 0.281262299
| 16> H 3.2154607242 -0.840219416 -1.1783559988
| 17> H 2.2984582946 0.9822032065 0.1542699058
| 18> H 1.3335588253 0.808203186 -1.3106284005
| 19> H -0.4280926407 -1.510868516 -0.4944873305
| 20> H -2.7523710466 -1.3300414022 0.4624122945
| 21> H -1.5027024588 -1.4779042847 1.7016334483
| 22> H -2.2246329715 0.0949860114 1.3676068256
| 23> H -1.8996092612 1.1225545332 -0.9789791649
| 24> H -2.2022534003 -0.4129514112 -1.7794093538
| 25> H -0.6868092235 0.4304979017 -2.0709563604
| 26> H -0.2344315748 2.0413855592 0.2256033576
| 27> *
| 28>
| 29>                          ****END OF INPUT****

CARTESIAN COORDINATES (ANGSTROEM)
---------------------------------
  C      2.280927   -1.007723   -0.649045
  C      1.598461    0.325256   -0.368038
  C      0.352205    0.204495    0.521746
  H      0.632961   -0.337083    1.434135
  C     -0.821186   -0.555822   -0.135499
  C     -1.895251   -0.837874    0.914903
  C     -1.432971    0.199335   -1.315248
  O     -0.043061    1.482531    0.991377
  H      1.654425   -1.649157   -1.262773
  H      2.500188   -1.526336    0.281262
  H      3.215461   -0.840219   -1.178356
  H      2.298458    0.982203    0.154270
  H      1.333559    0.808203   -1.310628
  H     -0.428093   -1.510869   -0.494487
  H     -2.752371   -1.330041    0.462412
  H     -1.502702   -1.477904    1.701633
  H     -2.224633    0.094986    1.367607
  H     -1.899609    1.122555   -0.978979
  H     -2.202253   -0.412951   -1.779409
  H     -0.686809    0.430498   -2.070956
  H     -0.234432    2.041386    0.225603

 Total Charge           Charge          ....    0
 Multiplicity           Mult            ....    1
 Number of Electrons    NEL             ....   58
 Basis Dimension        Dim             ....  126

ORBITAL ENERGIES
----------------

  NO   OCC          E(Eh)            E(eV)
   0   2.0000     -18.738704      -509.9061
   1   2.0000      -9.930905      -270.2337
   2   2.0000      -9.892420      -269.1864
   3   2.0000      -9.882864      -268.9264
   4   2.0000      -9.878520      -268.8082
   5   2.0000      -9.877661      -268.7848
   6   2.0000      -9.866638      -268.4849
   7   2.0000      -0.916896       -24.9500
   8   2.0000      -0.724561       -19.7163
   9   2.0000      -0.687541       -18.7089
  10   2.0000      -0.613823       -16.7030
  11   2.0000      -0.597761       -16.2659
  12   2.0000      -0.539631       -14.6841
  13   2.0000      -0.506262       -13.7761
  14   2.0000      -0.430529       -11.7153
  15   2.0000      -0.428063       -11.6482
  16   2.0000      -0.406194       -11.0531
  17   2.0000      -0.390416       -10.6237
  18   2.0000      -0.371529       -10.1098
  19   2.0000      -0.351398        -9.5620
  20   2.0000      -0.339377        -9.2349
  21   2.0000      -0.333887        -9.0855
  22   2.0000      -0.325081        -8.8459
  23   2.0000      -0.309597        -8.4245
  24   2.0000      -0.296341        -8.0639
  25   2.0000      -0.291513        -7.9325
  26   2.0000      -0.283174        -7.7055
  27   2.0000      -0.258739        -7.0406
  28   2.0000      -0.210670        -5.7326
  29   0.0000       0.025250         0.6871
  30   0.0000       0.040592         1.1046
  31   0.0000       0.059926         1.6307
  32   0.0000       0.072964         1.9854
  33   0.0000       0.087808         2.3894

MULLIKEN ATOMIC CHARGES
-----------------------
   0 C :   -0.291283
   1 C :   -0.159251
   2 C :    0.052148
   3 H :    0.059943
   4 C :   -0.161843
   5 C :   -0.228140
   6 C :   -0.289132
   7 O :   -0.426627
   8 H :    0.111321
   9 H :    0.102418
  10 H :    0.104848
  11 H :    0.091329
  12 H :    0.074430
  13 H :    0.073437
  14 H :    0.093857
  15 H :    0.092725
  16 H :    0.101303
  17 H :    0.090888
  18 H :    0.106122
  19 H :    0.106474
  20 H :    0.295036
Sum of atomic charges:    0.0000000

LOEWDIN ATOMIC CHARGES
----------------------
   0 C :   -0.340985
   1 C :   -0.249455
   2 C :   -0.046766
   3 H :    0.109796
   4 C :   -0.170973
   5 C :   -0.330208
   6 C :   -0.338879
   7 O :   -0.321261
   8 H :    0.116802
   9 H :    0.119461
  10 H :    0.122297
  11 H :    0.120313
  12 H :    0.110048
  13 H :    0.116864
  14 H :    0.114568
  15 H :    0.116471
  16 H :    0.119802
  17 H :    0.113375
  18 H :    0.124286
  19 H :    0.115285
  20 H :    0.279158

  Mayer bond orders larger than 0.100000
B(  0-C ,  1-C ) :   1.1417 B(  0-C ,  8-H ) :   0.9470 B(  0-C ,  9-H ) :   0.9537
B(  0-C , 10-H ) :   0.9474 B(  1-C ,  2-C ) :   1.0863 B(  1-C , 11-H ) :   0.9157
B(  1-C , 12-H ) :   0.9062 B(  2-C ,  3-H ) :   0.9009 B(  2-C ,  4-C ) :   0.9966
B(  2-C ,  7-O ) :   1.0361 B(  4-C ,  5-C ) :   1.1108 B(  4-C ,  6-C ) :   1.0933
B(  4-C , 13-H ) :   0.8891 B(  5-C , 14-H ) :   0.9522 B(  5-C , 15-H ) :   0.9491
B(  5-C , 16-H ) :   0.9422 B(  6-C , 17-H ) :   0.9420 B(  6-C , 18-H ) :   0.9476
B(  6-C , 19-H ) :   0.9455 B(  7-O , 20-H ) :   0.8482

Dispersion correction           -0.016782483
FINAL SINGLE POINT ENERGY      -311.518494330551

DIPOLE MOMENT
-------------

Method             : SCF
Type of density    : Electron Density
Multiplicity       :   1
Irrep              :   0
Energy             :  -311.5983638799749542 Eh
Relativity type    :
Basis              : AO
                                X                 Y                 Z
Electronic contribution:      0.343685613       3.231105760       2.623631875
Nuclear contribution   :     -0.278195569      -3.359824654      -3.220700156
                        -----------------------------------------
Total Dipole Moment    :      0.065490044      -0.128718894      -0.597068281
                        -----------------------------------------
Magnitude (a.u.)       :      0.614286604
Magnitude (Debye)      :      1.561392461

Rotational constants in cm-1:             0.109221             0.059012             0.052478
Rotational constants in MHz :          3274.352379          1769.126518          1573.254590

                             ****ORCA TERMINATED NORMALLY****
TOTAL RUN TIME: 0 days 0 hours 0 minutes 8 seconds 986 msec
