                         Program Version 6.0.0  -   RELEASE  -
|  1> ! pbe def2-sv(p) def2/J RI DEFGRID1 loosescf d4 GCP(DFT/SV(P)) printgap
|  2> %output
|  3>     printlevel normal
|  4> end
|  5> * xyz 0 1
|  6> C -3.7513739714 0.8571889631 -1.2480776242
|  7> C -3.0271335162 0.1803821537 -0.1007094506
|  8> O -1.6154786144 0.266327412 -0.3473815502
|  9> C -0.8063125561 -0.2838699709 0.5521429279
| 10> O -1.2218476306 -0.8435688496 1.5533283212
| 11> C 0.6247002812 -0.1466964764 0.2139654452
| 12> C 1.0420035425 0.5042928284 -0.9459078789
| 13> C 2.3918349137 0.6099754676 -1.2241937833
| 14> C 3.3280780694 0.0713945223 -0.3544099365
| 15> C 2.9166069469 -0.5768546278 0.8002693574
| 16> C 1.5693003541 -0.6867208484 1.0857381047
| 17> H -4.8215673886 0.8019897926 -1.0783686497
| 18> H -3.4518564652 1.8989129101 -1.3140935694
| 19> H -3.5104642426 0.3619186842 -2.184058157
| 20> H -3.2992934637 -0.8770195446 -0.0136715693
| 21> H -3.2406294135 0.6645795026 0.8582971634
| 22> H 0.3051887746 0.9192763459 -1.6145878401
| 23> H 2.715910446 1.1136314894 -2.1213753533
| 24> H 4.3804831314 0.1567010785 -0.5766670816
| 25> H 3.6452221619 -0.9960507012 1.4764820552
| 26> H 1.2207548586 -1.1859253609 1.9775105104
| 27> *
| 28>
| 29>                          ****END OF INPUT****

CARTESIAN COORDINATES (ANGSTROEM)
---------------------------------
  C     -3.751374    0.857189   -1.248078
  C     -3.027134    0.180382   -0.100709
  O     -1.615479    0.266327   -0.347382
  C     -0.806313   -0.283870    0.552143
  O     -1.221848   -0.843569    1.553328
  C      0.624700   -0.146696    0.213965
  C      1.042004    0.504293   -0.945908
  C      2.391835    0.609975   -1.224194
  C      3.328078    0.071395   -0.354410
  C      2.916607   -0.576855    0.800269
  C      1.569300   -0.686721    1.085738
  H     -4.821567    0.801990   -1.078369
  H     -3.451856    1.898913   -1.314094
  H     -3.510464    0.361919   -2.184058
  H     -3.299293   -0.877020   -0.013672
  H     -3.240629    0.664580    0.858297
  H      0.305189    0.919276   -1.614588
  H      2.715910    1.113631   -2.121375
  H      4.380483    0.156701   -0.576667
  H      3.645222   -0.996051    1.476482
  H      1.220755   -1.185925    1.977511

 Total Charge           Charge          ....    0
 Multiplicity           Mult            ....    1
 Number of Electrons    NEL             ....   80
 Basis Dimension        Dim             ....  174

ORBITAL ENERGIES
----------------

  NO   OCC          E(Eh)            E(eV)
   0   2.0000     -18.799623      -511.5638
   1   2.0000     -18.732655      -509.7415
   2   2.0000     -10.005384      -272.2603
   3   2.0000      -9.947541      -270.6864
   4   2.0000      -9.908448      -269.6226
   5   2.0000      -9.903788      -269.4958
   6   2.0000      -9.901807      -269.4419
   7   2.0000      -9.900703      -269.4118
   8   2.0000      -9.900413      -269.4039
   9   2.0000      -9.899970      -269.3919
  10   2.0000      -9.889910      -269.1181
  11   2.0000      -1.005818       -27.3697
  12   2.0000      -0.907276       -24.6882
  13   2.0000      -0.785813       -21.3831
  14   2.0000      -0.714559       -19.4441
  15   2.0000      -0.682894       -18.5825
  16   2.0000      -0.677964       -18.4483
  17   2.0000      -0.601218       -16.3600
  18   2.0000      -0.555755       -15.1229
  19   2.0000      -0.544274       -14.8105
  20   2.0000      -0.509435       -13.8624
  21   2.0000      -0.489127       -13.3098
  22   2.0000      -0.446056       -12.1378
  23   2.0000      -0.435063       -11.8387
  24   2.0000      -0.416243       -11.3266
  25   2.0000      -0.401893       -10.9361
  26   2.0000      -0.388804       -10.5799
  27   2.0000      -0.383680       -10.4405
  28   2.0000      -0.382630       -10.4119
  29   2.0000      -0.358938        -9.7672
  30   2.0000      -0.356345        -9.6966
  31   2.0000      -0.340015        -9.2523
  32   2.0000      -0.318760        -8.6739
  33   2.0000      -0.317949        -8.6518
  34   2.0000      -0.310604        -8.4520
  35   2.0000      -0.297406        -8.0928
  36   2.0000      -0.258028        -7.0213
  37   2.0000      -0.238390        -6.4869
  38   2.0000      -0.236539        -6.4366
  39   2.0000      -0.220245        -5.9932
  40   0.0000      -0.074740        -2.0338
  41   0.0000      -0.041497        -1.1292
  42   0.0000       0.021572         0.5870
  43   0.0000       0.038549         1.0490
  44   0.0000       0.047360         1.2887

MULLIKEN ATOMIC CHARGES
-----------------------
   0 C :   -0.271280
   1 C :   -0.026342
   2 O :   -0.244969
   3 C :    0.163050
   4 O :   -0.204016
   5 C :    0.025986
   6 C :   -0.080531
   7 C :   -0.043354
   8 C :   -0.040262
   9 C :   -0.043011
  10 C :   -0.087196
  11 H :    0.111540
  12 H :    0.115053
  13 H :    0.115143
  14 H :    0.106358
  15 H :    0.106143
  16 H :    0.056914
  17 H :    0.056743
  18 H :    0.060045
  19 H :    0.059043
  20 H :    0.064944
Sum of atomic charges:   -0.0000000

LOEWDIN ATOMIC CHARGES
----------------------
   0 C :   -0.350878
   1 C :   -0.106646
   2 O :   -0.066406
   3 C :    0.045618
   4 O :   -0.168257
   5 C :   -0.076629
   6 C :   -0.100002
   7 C :   -0.121644
   8 C :   -0.108632
   9 C :   -0.120372
  10 C :   -0.088189
  11 H :    0.130804
  12 H :    0.126466
  13 H :    0.126493
  14 H :    0.117025
  15 H :    0.116973
  16 H :    0.129988
  17 H :    0.125762
  18 H :    0.126066
  19 H :    0.126974
  20 H :    0.135487

  Mayer bond orders larger than 0.100000
B(  0-C ,  1-C ) :   1.1506 B(  0-C , 11-H ) :   0.9442 B(  0-C , 12-H ) :   0.9497
B(  0-C , 13-H ) :   0.9498 B(  1-C ,  2-O ) :   0.9072 B(  1-C , 14-H ) :   0.9308
B(  1-C , 15-H ) :   0.9312 B(  2-O ,  3-C ) :   1.2385 B(  3-C ,  4-O ) :   2.0465
B(  3-C ,  5-C ) :   0.9491 B(  5-C ,  6-C ) :   1.3655 B(  5-C , 10-C ) :   1.3900
B(  6-C ,  7-C ) :   1.3589 B(  6-C , 16-H ) :   0.9583 B(  7-C ,  8-C ) :   1.3750
B(  7-C , 17-H ) :   0.9647 B(  8-C ,  9-C ) :   1.3665 B(  8-C , 18-H ) :   0.9644
B(  9-C , 10-C ) :   1.3572 B(  9-C , 19-H ) :   0.9668 B( 10-C , 20-H ) :   0.9569

Dispersion correction           -0.020899547
FINAL SINGLE POINT ENERGY      -498.380981587784

DIPOLE MOMENT
-------------

Method             : SCF
Type of density    : Electron Density
Multiplicity       :   1
Irrep              :   0
Energy             :  -498.4476387673644240 Eh
Relativity type    :
Basis              : AO
                                X                 Y                 Z
Electronic contribution:      5.769703767      -2.284323559       3.609307100
Nuclear contribution   :     -5.723827657       2.672752140      -4.288835218
                        -----------------------------------------
Total Dipole Moment    :      0.045876109       0.388428581      -0.679528118
                        -----------------------------------------
Magnitude (a.u.)       :      0.784053470
Magnitude (Debye)      :      1.992905541

Rotational constants in cm-1:             0.092587             0.020453             0.016858
Rotational constants in MHz :          2775.680357           613.162966           505.391534

                             ****ORCA TERMINATED NORMALLY****
TOTAL RUN TIME: 0 days 0 hours 0 minutes 17 seconds 153 msec
