                         Program Version 6.0.0  -   RELEASE  -
|  1> ! r2scan-3c def2/J RI DEFGRID2 scfconv6 printgap
|  2> %output
|  3>     printlevel normal
|  4> end
|  5> * xyz 0 1
|  6> C -2.3443321463 0.9950397408 -0.5430573037
|  7> C -1.804414306 0.1513294178 0.6158248682
|  8> C -0.5274814142 -0.521006229 0.1818783661
|  9> O -0.4701898749 -1.5856711154 -0.4000356835
| 10> O 0.5329344056 0.2125988134 0.4818065332
| 11> C 1.8375642602 -0.2416289855 0.0810167896
| 12> C 2.6664262401 0.9583255858 -0.3408482828
| 13> H -3.2840158354 1.4557977614 -0.2541973697
| 14> H -1.6353070612 1.7763640583 -0.8041975264
| 15> H -2.5135987579 0.3689233178 -1.415948012
| 16> H -2.5273353787 -0.6193367034 0.8810101711
| 17> H -1.5952174324 0.7864948922 1.4749917948
| 18> H 2.2848830594 -0.7466027502 0.9422706819
| 19> H 1.7190408884 -0.9644264193 -0.7324331595
| 20> H 3.6681431228 0.6290102689 -0.5965651684
| 21> H 2.2194033733 1.4421597454 -1.2048697656
| 22> H 2.7205256623 1.674628009 0.4737038658
| 23> *
| 24>
| 25>                          ****END OF INPUT****

CARTESIAN COORDINATES (ANGSTROEM)
---------------------------------
  C     -2.344332    0.995040   -0.543057
  C     -1.804414    0.151329    0.615825
  C     -0.527481   -0.521006    0.181878
  O     -0.470190   -1.585671   -0.400036
  O      0.532934    0.212599    0.481807
  C      1.837564   -0.241629    0.081017
  C      2.666426    0.958326   -0.340848
  H     -3.284016    1.455798   -0.254197
  H     -1.635307    1.776364   -0.804198
  H     -2.513599    0.368923   -1.415948
  H     -2.527335   -0.619337    0.881010
  H     -1.595217    0.786495    1.474992
  H      2.284883   -0.746603    0.942271
  H      1.719041   -0.964426   -0.732433
  H      3.668143    0.629010   -0.596565
  H      2.219403    1.442160   -1.204870
  H      2.720526    1.674628    0.473704

 Total Charge           Charge          ....    0
 Multiplicity           Mult            ....    1
 Number of Electrons    NEL             ....   56
 Basis Dimension        Dim             ....  193

ORBITAL ENERGIES
----------------

  NO   OCC          E(Eh)            E(eV)
   0   2.0000     -18.996776      -516.9285
   1   2.0000     -18.925489      -514.9887
   2   2.0000     -10.150599      -276.2118
   3   2.0000     -10.090549      -274.5778
   4   2.0000     -10.042843      -273.2797
   5   2.0000     -10.032458      -272.9971
   6   2.0000     -10.031618      -272.9742
   7   2.0000      -1.071103       -29.1462
   8   2.0000      -0.973517       -26.4908
   9   2.0000      -0.766428       -20.8556
  10   2.0000      -0.733385       -19.9564
  11   2.0000      -0.639999       -17.4153
  12   2.0000      -0.594920       -16.1886
  13   2.0000      -0.531655       -14.4671
  14   2.0000      -0.465785       -12.6747
  15   2.0000      -0.461532       -12.5589
  16   2.0000      -0.440975       -11.9995
  17   2.0000      -0.409885       -11.1535
  18   2.0000      -0.398418       -10.8415
  19   2.0000      -0.385194       -10.4817
  20   2.0000      -0.374084       -10.1794
  21   2.0000      -0.350402        -9.5349
  22   2.0000      -0.340702        -9.2710
  23   2.0000      -0.328946        -8.9511
  24   2.0000      -0.323996        -8.8164
  25   2.0000      -0.307343        -8.3632
  26   2.0000      -0.269564        -7.3352
  27   2.0000      -0.232732        -6.3330
  28   0.0000      -0.013230        -0.3600
  29   0.0000       0.074564         2.0290
  30   0.0000       0.095733         2.6050
  31   0.0000       0.119208         3.2438
  32   0.0000       0.122400         3.3307

MULLIKEN ATOMIC CHARGES
-----------------------
   0 C :   -0.471372
   1 C :   -0.293860
   2 C :    0.413201
   3 O :   -0.435968
   4 O :   -0.170696
   5 C :   -0.157061
   6 C :   -0.443434
   7 H :    0.153498
   8 H :    0.151781
   9 H :    0.163716
  10 H :    0.160517
  11 H :    0.153368
  12 H :    0.143663
  13 H :    0.181249
  14 H :    0.147216
  15 H :    0.151052
  16 H :    0.153131
Sum of atomic charges:    0.0000000

LOEWDIN ATOMIC CHARGES
----------------------
   0 C :   -0.392335
   1 C :   -0.236568
   2 C :    0.356666
   3 O :   -0.437134
   4 O :   -0.596937
   5 C :    0.032161
   6 C :   -0.387447
   7 H :    0.153040
   8 H :    0.156055
   9 H :    0.160704
  10 H :    0.174816
  11 H :    0.173475
  12 H :    0.174794
  13 H :    0.192833
  14 H :    0.159371
  15 H :    0.157921
  16 H :    0.158586

  Mayer bond orders larger than 0.100000
B(  0-C ,  1-C ) :   0.8968 B(  0-C ,  7-H ) :   0.9704 B(  0-C ,  8-H ) :   0.9768
B(  0-C ,  9-H ) :   0.9755 B(  1-C ,  2-C ) :   0.9504 B(  1-C , 10-H ) :   0.9731
B(  1-C , 11-H ) :   0.9760 B(  2-C ,  3-O ) :   1.8334 B(  2-C ,  4-O ) :   1.0604
B(  4-O ,  5-C ) :   0.7844 B(  5-C ,  6-C ) :   0.9466 B(  5-C , 12-H ) :   0.9490
B(  5-C , 13-H ) :   0.9648 B(  6-C , 14-H ) :   0.9680 B(  6-C , 15-H ) :   0.9731
B(  6-C , 16-H ) :   0.9698

Dispersion correction           -0.003919636
FINAL SINGLE POINT ENERGY      -346.934936654478

DIPOLE MOMENT
-------------

Method             : SCF
Type of density    : Electron Density
Multiplicity       :   1
Irrep              :   0
Energy             :  -346.9414319387557271 Eh
Relativity type    :
Basis              : AO
                                X                 Y                 Z
Electronic contribution:     -0.692239016      -4.632586275       1.405404020
Nuclear contribution   :      0.992124211       5.423838312      -1.158582303
                        -----------------------------------------
Total Dipole Moment    :      0.299885195       0.791252037       0.246821718
                        -----------------------------------------
Magnitude (a.u.)       :      0.881437392
Magnitude (Debye)      :      2.240435801

Rotational constants in cm-1:             0.158427             0.050861             0.043543
Rotational constants in MHz :          4749.523413          1524.776651          1305.396741

                             ****ORCA TERMINATED NORMALLY****
TOTAL RUN TIME: 0 days 0 hours 0 minutes 20 seconds 414 msec
