                         Program Version 6.0.0  -   RELEASE  -
|  1> ! r2scan-3c def2/J RI DEFGRID2 scfconv6 printgap
|  2> %output
|  3>     printlevel normal
|  4> end
|  5> %cpcm
|  6>     smd true
|  7>     smdsolvent "water"
|  8> end
|  9> * xyz 0 1
| 10> C -2.3443321463 0.9950397408 -0.5430573037
| 11> C -1.804414306 0.1513294178 0.6158248682
| 12> C -0.5274814142 -0.521006229 0.1818783661
| 13> O -0.4701898749 -1.5856711154 -0.4000356835
| 14> O 0.5329344056 0.2125988134 0.4818065332
| 15> C 1.8375642602 -0.2416289855 0.0810167896
| 16> C 2.6664262401 0.9583255858 -0.3408482828
| 17> H -3.2840158354 1.4557977614 -0.2541973697
| 18> H -1.6353070612 1.7763640583 -0.8041975264
| 19> H -2.5135987579 0.3689233178 -1.415948012
| 20> H -2.5273353787 -0.6193367034 0.8810101711
| 21> H -1.5952174324 0.7864948922 1.4749917948
| 22> H 2.2848830594 -0.7466027502 0.9422706819
| 23> H 1.7190408884 -0.9644264193 -0.7324331595
| 24> H 3.6681431228 0.6290102689 -0.5965651684
| 25> H 2.2194033733 1.4421597454 -1.2048697656
| 26> H 2.7205256623 1.674628009 0.4737038658
| 27> *
| 28>
| 29>                          ****END OF INPUT****

CARTESIAN COORDINATES (ANGSTROEM)
---------------------------------
  C     -2.344332    0.995040   -0.543057
  C     -1.804414    0.151329    0.615825
  C     -0.527481   -0.521006    0.181878
  O     -0.470190   -1.585671   -0.400036
  O      0.532934    0.212599    0.481807
  C      1.837564   -0.241629    0.081017
  C      2.666426    0.958326   -0.340848
  H     -3.284016    1.455798   -0.254197
  H     -1.635307    1.776364   -0.804198
  H     -2.513599    0.368923   -1.415948
  H     -2.527335   -0.619337    0.881010
  H     -1.595217    0.786495    1.474992
  H      2.284883   -0.746603    0.942271
  H      1.719041   -0.964426   -0.732433
  H      3.668143    0.629010   -0.596565
  H      2.219403    1.442160   -1.204870
  H      2.720526    1.674628    0.473704

 Total Charge           Charge          ....    0
 Multiplicity           Mult            ....    1
 Number of Electrons    NEL             ....   56
 Basis Dimension        Dim             ....  193

ORBITAL ENERGIES
----------------

  NO   OCC          E(Eh)            E(eV)
   0   2.0000     -19.002673      -517.0890
   1   2.0000     -18.942355      -515.4477
   2   2.0000     -10.161927      -276.5201
   3   2.0000     -10.082775      -274.3663
   4   2.0000     -10.037304      -273.1289
   5   2.0000     -10.022418      -272.7239
   6   2.0000     -10.018658      -272.6215
   7   2.0000      -1.078753       -29.3544
   8   2.0000      -0.988178       -26.8897
   9   2.0000      -0.762097       -20.7377
  10   2.0000      -0.724930       -19.7264
  11   2.0000      -0.633647       -17.2424
  12   2.0000      -0.587948       -15.9989
  13   2.0000      -0.530074       -14.4240
  14   2.0000      -0.468709       -12.7542
  15   2.0000      -0.458736       -12.4828
  16   2.0000      -0.449347       -12.2274
  17   2.0000      -0.409471       -11.1423
  18   2.0000      -0.395756       -10.7691
  19   2.0000      -0.379945       -10.3388
  20   2.0000      -0.363468        -9.8905
  21   2.0000      -0.341675        -9.2974
  22   2.0000      -0.336380        -9.1534
  23   2.0000      -0.327349        -8.9076
  24   2.0000      -0.316340        -8.6081
  25   2.0000      -0.307715        -8.3733
  26   2.0000      -0.276282        -7.5180
  27   2.0000      -0.249469        -6.7884
  28   0.0000      -0.021937        -0.5969
  29   0.0000       0.077768         2.1162
  30   0.0000       0.105536         2.8718
  31   0.0000       0.128245         3.4897
  32   0.0000       0.130658         3.5554

MULLIKEN ATOMIC CHARGES
-----------------------
   0 C :   -0.492444
   1 C :   -0.308604
   2 C :    0.449461
   3 O :   -0.522412
   4 O :   -0.187323
   5 C :   -0.149062
   6 C :   -0.486790
   7 H :    0.173004
   8 H :    0.164799
   9 H :    0.165820
  10 H :    0.175425
  11 H :    0.173051
  12 H :    0.170019
  13 H :    0.176984
  14 H :    0.168554
  15 H :    0.164467
  16 H :    0.165050
Sum of atomic charges:    0.0000000

LOEWDIN ATOMIC CHARGES
----------------------
   0 C :   -0.393886
   1 C :   -0.233649
   2 C :    0.365804
   3 O :   -0.499648
   4 O :   -0.597366
   5 C :    0.036677
   6 C :   -0.390483
   7 H :    0.160543
   8 H :    0.160355
   9 H :    0.160681
  10 H :    0.180414
  11 H :    0.182306
  12 H :    0.184786
  13 H :    0.192222
  14 H :    0.167865
  15 H :    0.161313
  16 H :    0.162066

  Mayer bond orders larger than 0.100000
B(  0-C ,  1-C ) :   0.8879 B(  0-C ,  7-H ) :   0.9652 B(  0-C ,  8-H ) :   0.9721
B(  0-C ,  9-H ) :   0.9733 B(  1-C ,  2-C ) :   0.9513 B(  1-C , 10-H ) :   0.9679
B(  1-C , 11-H ) :   0.9669 B(  2-C ,  3-O ) :   1.7613 B(  2-C ,  4-O ) :   1.0879
B(  4-O ,  5-C ) :   0.7736 B(  5-C ,  6-C ) :   0.9432 B(  5-C , 12-H ) :   0.9402
B(  5-C , 13-H ) :   0.9604 B(  6-C , 14-H ) :   0.9618 B(  6-C , 15-H ) :   0.9707
B(  6-C , 16-H ) :   0.9671

Dispersion correction           -0.003919636
FINAL SINGLE POINT ENERGY      -346.940206279250

DIPOLE MOMENT
-------------

Method             : SCF
Type of density    : Electron Density
Multiplicity       :   1
Irrep              :   0
Energy             :  -346.9467015635271991 Eh
Relativity type    :
Basis              : AO
                                X                 Y                 Z
Electronic contribution:     -0.597277147      -4.327351750       1.539912993
Nuclear contribution   :      0.992124211       5.423838312      -1.158582303
                        -----------------------------------------
Total Dipole Moment    :      0.394847064       1.096486561       0.381330690
                        -----------------------------------------
Magnitude (a.u.)       :      1.226213717
Magnitude (Debye)      :      3.116787572

Rotational constants in cm-1:             0.158427             0.050861             0.043543
Rotational constants in MHz :          4749.523413          1524.776651          1305.396741

                             ****ORCA TERMINATED NORMALLY****
TOTAL RUN TIME: 0 days 0 hours 0 minutes 24 seconds 264 msec
