                         Program Version 6.0.0  -   RELEASE  -
|  1> ! pbe def2-sv(p) def2/J RI DEFGRID1 loosescf d4 GCP(DFT/SV(P)) printgap
|  2> %output
|  3>     printlevel normal
|  4> end
|  5> * xyz 0 1
|  6> C 2.2063532942 -0.4929566644 1.6866593865
|  7> C 2.4560066079 -0.1388084993 0.2476626937
|  8> C 3.6586603223 -0.2485907437 -0.2951962513
|  9> C 1.2712595669 0.335551335 -0.559981743
| 10> H 1.6464045393 0.7349943991 -1.5059671109
| 11> C 0.3701577841 -0.8666372126 -0.8871969044
| 12> C -1.04736333 -0.4223990008 -1.2462753952
| 13> C -1.6268232694 0.2742819297 -0.0521354039
| 14> C -0.8504165375 1.1290726974 0.6349750348
| 15> C 0.51755989 1.4726853421 0.1787790089
| 16> C -2.9739877812 -0.0263093146 0.3783846403
| 17> O -3.7370468188 -0.8079406829 -0.1630211866
| 18> H 2.759841728 -1.387857999 1.9602592672
| 19> H 2.5445742975 0.3127949508 2.3373082801
| 20> H 1.1493832208 -0.6603831318 1.8754401962
| 21> H 3.8494393555 0.0150760517 -1.3214398315
| 22> H 4.5031359995 -0.6106644305 0.2665322704
| 23> H 0.8114870733 -1.4278631634 -1.7108796493
| 24> H 0.3109761111 -1.5353079881 -0.0264385648
| 25> H -1.0196180165 0.2574145135 -2.1009725661
| 26> H -1.6735824078 -1.2761296182 -1.5098567315
| 27> H -1.2261215273 1.6227366165 1.5200870494
| 28> H 0.409899323 2.3131757884 -0.5137383721
| 29> H 1.1124690717 1.8367237623 1.0156483492
| 30> H -3.302276431 0.5243228384 1.2808374841
| 31> *
| 32>
| 33>                          ****END OF INPUT****

CARTESIAN COORDINATES (ANGSTROEM)
---------------------------------
  C      2.206353   -0.492957    1.686659
  C      2.456007   -0.138808    0.247663
  C      3.658660   -0.248591   -0.295196
  C      1.271260    0.335551   -0.559982
  H      1.646405    0.734994   -1.505967
  C      0.370158   -0.866637   -0.887197
  C     -1.047363   -0.422399   -1.246275
  C     -1.626823    0.274282   -0.052135
  C     -0.850417    1.129073    0.634975
  C      0.517560    1.472685    0.178779
  C     -2.973988   -0.026309    0.378385
  O     -3.737047   -0.807941   -0.163021
  H      2.759842   -1.387858    1.960259
  H      2.544574    0.312795    2.337308
  H      1.149383   -0.660383    1.875440
  H      3.849439    0.015076   -1.321440
  H      4.503136   -0.610664    0.266532
  H      0.811487   -1.427863   -1.710880
  H      0.310976   -1.535308   -0.026439
  H     -1.019618    0.257415   -2.100973
  H     -1.673582   -1.276130   -1.509857
  H     -1.226122    1.622737    1.520087
  H      0.409899    2.313176   -0.513738
  H      1.112469    1.836724    1.015648
  H     -3.302276    0.524323    1.280837

 Total Charge           Charge          ....    0
 Multiplicity           Mult            ....    1
 Number of Electrons    NEL             ....   82
 Basis Dimension        Dim             ....  182

ORBITAL ENERGIES
----------------

  NO   OCC          E(Eh)            E(eV)
   0   2.0000     -18.741846      -509.9916
   1   2.0000      -9.961955      -271.0786
   2   2.0000      -9.919553      -269.9248
   3   2.0000      -9.908876      -269.6342
   4   2.0000      -9.908126      -269.6138
   5   2.0000      -9.904910      -269.5263
   6   2.0000      -9.903660      -269.4923
   7   2.0000      -9.893908      -269.2269
   8   2.0000      -9.892093      -269.1775
   9   2.0000      -9.887981      -269.0657
  10   2.0000      -9.875508      -268.7262
  11   2.0000      -0.931127       -25.3373
  12   2.0000      -0.784113       -21.3368
  13   2.0000      -0.734595       -19.9893
  14   2.0000      -0.684505       -18.6263
  15   2.0000      -0.675973       -18.3942
  16   2.0000      -0.621852       -16.9214
  17   2.0000      -0.591041       -16.0830
  18   2.0000      -0.561961       -15.2917
  19   2.0000      -0.520329       -14.1589
  20   2.0000      -0.483535       -13.1577
  21   2.0000      -0.469150       -12.7662
  22   2.0000      -0.447797       -12.1852
  23   2.0000      -0.434332       -11.8188
  24   2.0000      -0.405938       -11.0461
  25   2.0000      -0.402389       -10.9496
  26   2.0000      -0.390725       -10.6322
  27   2.0000      -0.383002       -10.4220
  28   2.0000      -0.363227        -9.8839
  29   2.0000      -0.356125        -9.6906
  30   2.0000      -0.354489        -9.6461
  31   2.0000      -0.348727        -9.4893
  32   2.0000      -0.345025        -9.3886
  33   2.0000      -0.333954        -9.0873
  34   2.0000      -0.324635        -8.8338
  35   2.0000      -0.300696        -8.1823
  36   2.0000      -0.285191        -7.7604
  37   2.0000      -0.282844        -7.6966
  38   2.0000      -0.238337        -6.4855
  39   2.0000      -0.219336        -5.9684
  40   2.0000      -0.200704        -5.4614
  41   0.0000      -0.090172        -2.4537
  42   0.0000      -0.019309        -0.5254
  43   0.0000       0.022508         0.6125
  44   0.0000       0.024089         0.6555
  45   0.0000       0.041368         1.1257

MULLIKEN ATOMIC CHARGES
-----------------------
   0 C :   -0.234666
   1 C :   -0.060466
   2 C :   -0.228505
   3 C :   -0.130009
   4 H :    0.052898
   5 C :   -0.139125
   6 C :   -0.043074
   7 C :   -0.060909
   8 C :   -0.180194
   9 C :   -0.040158
  10 C :    0.034461
  11 O :   -0.173577
  12 H :    0.117372
  13 H :    0.119418
  14 H :    0.112181
  15 H :    0.085140
  16 H :    0.081199
  17 H :    0.090092
  18 H :    0.093472
  19 H :    0.091299
  20 H :    0.095825
  21 H :    0.068768
  22 H :    0.116040
  23 H :    0.101013
  24 H :    0.031506
Sum of atomic charges:   -0.0000000

LOEWDIN ATOMIC CHARGES
----------------------
   0 C :   -0.329811
   1 C :   -0.051724
   2 C :   -0.266517
   3 C :   -0.124667
   4 H :    0.121736
   5 C :   -0.204588
   6 C :   -0.210969
   7 C :   -0.103785
   8 C :   -0.088002
   9 C :   -0.214047
  10 C :   -0.006494
  11 O :   -0.135204
  12 H :    0.133938
  13 H :    0.134286
  14 H :    0.122720
  15 H :    0.117309
  16 H :    0.116714
  17 H :    0.123936
  18 H :    0.121833
  19 H :    0.129914
  20 H :    0.130610
  21 H :    0.124842
  22 H :    0.148488
  23 H :    0.131705
  24 H :    0.077776

  Mayer bond orders larger than 0.100000
B(  0-C ,  1-C ) :   1.1027 B(  0-C , 12-H ) :   0.9373 B(  0-C , 13-H ) :   0.9262
B(  0-C , 14-H ) :   0.9304 B(  1-C ,  2-C ) :   2.0386 B(  1-C ,  3-C ) :   1.0305
B(  2-C , 15-H ) :   0.9085 B(  2-C , 16-H ) :   0.9151 B(  3-C ,  4-H ) :   0.8719
B(  3-C ,  5-C ) :   1.1074 B(  3-C ,  9-C ) :   1.0523 B(  5-C ,  6-C ) :   1.1192
B(  5-C , 17-H ) :   0.9142 B(  5-C , 18-H ) :   0.9091 B(  6-C ,  7-C ) :   1.0937
B(  6-C , 19-H ) :   0.8826 B(  6-C , 20-H ) :   0.8911 B(  7-C ,  8-C ) :   1.7241
B(  7-C , 10-C ) :   1.0349 B(  8-C ,  9-C ) :   1.0959 B(  8-C , 11-O ) :   0.1046
B(  8-C , 21-H ) :   0.9314 B(  9-C , 22-H ) :   0.8739 B(  9-C , 23-H ) :   0.9050
B( 10-C , 11-O ) :   2.0991 B( 10-C , 24-H ) :   0.9170

Dispersion correction           -0.026806010
FINAL SINGLE POINT ENERGY      -463.621218999610

DIPOLE MOMENT
-------------

Method             : SCF
Type of density    : Electron Density
Multiplicity       :   1
Irrep              :   0
Energy             :  -463.6969305106632646 Eh
Relativity type    :
Basis              : AO
                                X                 Y                 Z
Electronic contribution:    -10.022027808       0.035843322      -1.180479660
Nuclear contribution   :     11.086291596       0.662595960       1.467523247
                        -----------------------------------------
Total Dipole Moment    :      1.064263789       0.698439282       0.287043587
                        -----------------------------------------
Magnitude (a.u.)       :      1.304940176
Magnitude (Debye)      :      3.316894330

Rotational constants in cm-1:             0.086458             0.019818             0.018884
Rotational constants in MHz :          2591.934410           594.141205           566.124062

                             ****ORCA TERMINATED NORMALLY****
TOTAL RUN TIME: 0 days 0 hours 0 minutes 18 seconds 856 msec
