                         Program Version 6.0.0  -   RELEASE  -
|  1> ! pbe def2-sv(p) def2/J RI DEFGRID1 loosescf d4 GCP(DFT/SV(P)) printgap
|  2> %output
|  3>     printlevel normal
|  4> end
|  5> * xyz 0 1
|  6> C -1.2745583432 0.2991364147 -0.1701618376
|  7> C 0.1483490937 0.6536464321 0.2761597027
|  8> C 1.1862670352 -0.2613833556 -0.3987485581
|  9> O 1.2204604725 -1.5461390606 0.171382203
| 10> O 0.3395570431 2.008524954 -0.0624772044
| 11> O -1.5503189246 -1.0413746577 0.1692655818
| 12> H -1.3422595538 0.455815803 -1.254397304
| 13> H -1.9686987092 0.9875325073 0.3261435718
| 14> H 0.2211034085 0.5058295402 1.3646970815
| 15> H 2.1890269071 0.1532215304 -0.262123604
| 16> H 0.9771752741 -0.3164793069 -1.4765621372
| 17> H 0.3098011726 -1.8838556805 0.2011358018
| 18> H 1.2031509015 2.3042708804 0.2578488675
| 19> H -2.4589039766 -1.2546335046 -0.0837932929
| 20> *
| 21>
| 22>                          ****END OF INPUT****

CARTESIAN COORDINATES (ANGSTROEM)
---------------------------------
  C     -1.274558    0.299136   -0.170162
  C      0.148349    0.653646    0.276160
  C      1.186267   -0.261383   -0.398749
  O      1.220460   -1.546139    0.171382
  O      0.339557    2.008525   -0.062477
  O     -1.550319   -1.041375    0.169266
  H     -1.342260    0.455816   -1.254397
  H     -1.968699    0.987533    0.326144
  H      0.221103    0.505830    1.364697
  H      2.189027    0.153222   -0.262124
  H      0.977175   -0.316479   -1.476562
  H      0.309801   -1.883856    0.201136
  H      1.203151    2.304271    0.257849
  H     -2.458904   -1.254634   -0.083793

 Total Charge           Charge          ....    0
 Multiplicity           Mult            ....    1
 Number of Electrons    NEL             ....   50
 Basis Dimension        Dim             ....  100

ORBITAL ENERGIES
----------------

  NO   OCC          E(Eh)            E(eV)
   0   2.0000     -18.771183      -510.7899
   1   2.0000     -18.752652      -510.2856
   2   2.0000     -18.725108      -509.5361
   3   2.0000      -9.938923      -270.4518
   4   2.0000      -9.938002      -270.4268
   5   2.0000      -9.921463      -269.9767
   6   2.0000      -0.946379       -25.7523
   7   2.0000      -0.927883       -25.2490
   8   2.0000      -0.901878       -24.5414
   9   2.0000      -0.680576       -18.5194
  10   2.0000      -0.603451       -16.4207
  11   2.0000      -0.534012       -14.5312
  12   2.0000      -0.499251       -13.5853
  13   2.0000      -0.462876       -12.5955
  14   2.0000      -0.438308       -11.9270
  15   2.0000      -0.401550       -10.9267
  16   2.0000      -0.397644       -10.8205
  17   2.0000      -0.353659        -9.6235
  18   2.0000      -0.349010        -9.4971
  19   2.0000      -0.313602        -8.5336
  20   2.0000      -0.305864        -8.3230
  21   2.0000      -0.256801        -6.9879
  22   2.0000      -0.234345        -6.3769
  23   2.0000      -0.228123        -6.2075
  24   2.0000      -0.196080        -5.3356
  25   0.0000       0.006847         0.1863
  26   0.0000       0.027553         0.7497
  27   0.0000       0.074977         2.0402
  28   0.0000       0.079754         2.1702
  29   0.0000       0.086879         2.3641

MULLIKEN ATOMIC CHARGES
-----------------------
   0 C :    0.026073
   1 C :   -0.044061
   2 C :    0.047909
   3 O :   -0.450622
   4 O :   -0.425546
   5 O :   -0.444738
   6 H :    0.078070
   7 H :    0.088153
   8 H :    0.072963
   9 H :    0.069068
  10 H :    0.063619
  11 H :    0.299828
  12 H :    0.304680
  13 H :    0.314603
Sum of atomic charges:    0.0000000

LOEWDIN ATOMIC CHARGES
----------------------
   0 C :   -0.125204
   1 C :   -0.090709
   2 C :   -0.133633
   3 O :   -0.348583
   4 O :   -0.323772
   5 O :   -0.335299
   6 H :    0.100031
   7 H :    0.103613
   8 H :    0.101108
   9 H :    0.103601
  10 H :    0.094472
  11 H :    0.270974
  12 H :    0.288485
  13 H :    0.294917

  Mayer bond orders larger than 0.100000
B(  0-C ,  1-C ) :   1.0644 B(  0-C ,  5-O ) :   1.0515 B(  0-C ,  6-H ) :   0.9111
B(  0-C ,  7-H ) :   0.9216 B(  1-C ,  2-C ) :   1.0244 B(  1-C ,  4-O ) :   1.0562
B(  1-C ,  8-H ) :   0.9023 B(  2-C ,  3-O ) :   1.0836 B(  2-C ,  9-H ) :   0.9286
B(  2-C , 10-H ) :   0.9084 B(  3-O , 11-H ) :   0.8199 B(  4-O , 12-H ) :   0.8483
B(  5-O , 13-H ) :   0.8435

Dispersion correction           -0.009275283
FINAL SINGLE POINT ENERGY      -344.008893355092

DIPOLE MOMENT
-------------

Method             : SCF
Type of density    : Electron Density
Multiplicity       :   1
Irrep              :   0
Energy             :  -344.0832680205535326 Eh
Relativity type    :
Basis              : AO
                                X                 Y                 Z
Electronic contribution:      0.083888338      -0.580635136       0.765709526
Nuclear contribution   :     -0.815695824       0.884262507      -0.865603377
                        -----------------------------------------
Total Dipole Moment    :     -0.731807486       0.303627370      -0.099893851
                        -----------------------------------------
Magnitude (a.u.)       :      0.798567816
Magnitude (Debye)      :      2.029798079

Rotational constants in cm-1:             0.130036             0.112724             0.064935
Rotational constants in MHz :          3898.391900          3379.374993          1946.702755

                             ****ORCA TERMINATED NORMALLY****
TOTAL RUN TIME: 0 days 0 hours 0 minutes 6 seconds 811 msec
