                         Program Version 6.0.0  -   RELEASE  -
|  1> ! r2scan-3c def2/J RI DEFGRID2 scfconv6 printgap
|  2> %output
|  3>     printlevel normal
|  4> end
|  5> * xyz 0 1
|  6> C 1.8972975199 1.1377546006 -0.0012515966
|  7> C 1.3877638501 -0.254516548 -0.3770764821
|  8> H 2.0124710095 -0.6409930109 -1.2024233539
|  9> C -0.058375778 -0.2482187592 -0.8965073793
| 10> C -1.1129364181 0.4149254363 -0.0018349209
| 11> C -2.3846110372 0.6643677524 -0.8131242868
| 12> C -1.4352874241 -0.4426550653 1.2190346159
| 13> O 1.4887328533 -1.1552718321 0.7151426361
| 14> H 1.4190179655 1.480040183 0.9124937891
| 15> H 2.9729073119 1.1151973593 0.1600170775
| 16> H 1.6821687649 1.8393623061 -0.8015426066
| 17> H -0.0453103752 0.2626045661 -1.8614563979
| 18> H -0.3490776078 -1.2867188243 -1.0694298142
| 19> H -0.7347690798 1.3832792973 0.3378489068
| 20> H -3.1493943892 1.1166965871 -0.1863364269
| 21> H -2.7730821755 -0.272907466 -1.2057195673
| 22> H -2.1862456535 1.3317700594 -1.6486456243
| 23> H -1.893479538 -1.3793898377 0.9080641638
| 24> H -0.5303622086 -0.6776872995 1.7708007286
| 25> H -2.1265453687 0.0773976554 1.8787002929
| 26> H 2.4014996164 -1.1640311595 1.0321807389
| 27> *
| 28>
| 29>                          ****END OF INPUT****

CARTESIAN COORDINATES (ANGSTROEM)
---------------------------------
  C      1.897298    1.137755   -0.001252
  C      1.387764   -0.254517   -0.377076
  H      2.012471   -0.640993   -1.202423
  C     -0.058376   -0.248219   -0.896507
  C     -1.112936    0.414925   -0.001835
  C     -2.384611    0.664368   -0.813124
  C     -1.435287   -0.442655    1.219035
  O      1.488733   -1.155272    0.715143
  H      1.419018    1.480040    0.912494
  H      2.972907    1.115197    0.160017
  H      1.682169    1.839362   -0.801543
  H     -0.045310    0.262605   -1.861456
  H     -0.349078   -1.286719   -1.069430
  H     -0.734769    1.383279    0.337849
  H     -3.149394    1.116697   -0.186336
  H     -2.773082   -0.272907   -1.205720
  H     -2.186246    1.331770   -1.648646
  H     -1.893480   -1.379390    0.908064
  H     -0.530362   -0.677687    1.770801
  H     -2.126545    0.077398    1.878700
  H      2.401500   -1.164031    1.032181

 Total Charge           Charge          ....    0
 Multiplicity           Mult            ....    1
 Number of Electrons    NEL             ....   58
 Basis Dimension        Dim             ....  208

ORBITAL ENERGIES
----------------

  NO   OCC          E(Eh)            E(eV)
   0   2.0000     -18.945878      -515.5435
   1   2.0000     -10.082018      -274.3457
   2   2.0000     -10.026975      -272.8478
   3   2.0000     -10.021035      -272.6862
   4   2.0000     -10.020730      -272.6779
   5   2.0000     -10.010352      -272.3955
   6   2.0000      -9.999708      -272.1059
   7   2.0000      -0.984298       -26.7841
   8   2.0000      -0.773323       -21.0432
   9   2.0000      -0.719197       -19.5703
  10   2.0000      -0.650834       -17.7101
  11   2.0000      -0.640176       -17.4201
  12   2.0000      -0.566344       -15.4110
  13   2.0000      -0.514549       -14.0016
  14   2.0000      -0.477531       -12.9943
  15   2.0000      -0.436529       -11.8786
  16   2.0000      -0.410436       -11.1685
  17   2.0000      -0.396534       -10.7902
  18   2.0000      -0.385312       -10.4849
  19   2.0000      -0.377189       -10.2638
  20   2.0000      -0.350833        -9.5467
  21   2.0000      -0.345237        -9.3944
  22   2.0000      -0.330156        -8.9840
  23   2.0000      -0.321991        -8.7618
  24   2.0000      -0.313521        -8.5313
  25   2.0000      -0.289213        -7.8699
  26   2.0000      -0.283179        -7.7057
  27   2.0000      -0.271582        -7.3901
  28   2.0000      -0.231972        -6.3123
  29   0.0000       0.056848         1.5469
  30   0.0000       0.099206         2.6995
  31   0.0000       0.114512         3.1160
  32   0.0000       0.120890         3.2896
  33   0.0000       0.133667         3.6373

MULLIKEN ATOMIC CHARGES
-----------------------
   0 C :   -0.521675
   1 C :    0.043106
   2 H :    0.131267
   3 C :   -0.292665
   4 C :   -0.045424
   5 C :   -0.483912
   6 C :   -0.509312
   7 O :   -0.419703
   8 H :    0.168339
   9 H :    0.141290
  10 H :    0.153947
  11 H :    0.145579
  12 H :    0.156937
  13 H :    0.145157
  14 H :    0.146725
  15 H :    0.147751
  16 H :    0.142770
  17 H :    0.142352
  18 H :    0.181662
  19 H :    0.139847
  20 H :    0.285961
Sum of atomic charges:   -0.0000000

LOEWDIN ATOMIC CHARGES
----------------------
   0 C :   -0.405667
   1 C :    0.048181
   2 H :    0.161531
   3 C :   -0.271935
   4 C :   -0.242164
   5 C :   -0.417268
   6 C :   -0.415710
   7 O :   -0.622855
   8 H :    0.161143
   9 H :    0.151238
  10 H :    0.160961
  11 H :    0.163885
  12 H :    0.172056
  13 H :    0.156453
  14 H :    0.152900
  15 H :    0.154100
  16 H :    0.149992
  17 H :    0.153462
  18 H :    0.173544
  19 H :    0.148085
  20 H :    0.268066

  Mayer bond orders larger than 0.100000
B(  0-C ,  1-C ) :   0.8948 B(  0-C ,  8-H ) :   0.9815 B(  0-C ,  9-H ) :   0.9651
B(  0-C , 10-H ) :   0.9720 B(  1-C ,  2-H ) :   0.9670 B(  1-C ,  3-C ) :   0.9608
B(  1-C ,  7-O ) :   0.9068 B(  3-C ,  4-C ) :   0.8818 B(  3-C , 11-H ) :   0.9756
B(  3-C , 12-H ) :   0.9730 B(  4-C ,  5-C ) :   0.8980 B(  4-C ,  6-C ) :   0.9121
B(  4-C , 13-H ) :   0.9607 B(  5-C , 14-H ) :   0.9782 B(  5-C , 15-H ) :   0.9859
B(  5-C , 16-H ) :   0.9800 B(  6-C , 17-H ) :   0.9832 B(  6-C , 18-H ) :   0.9637
B(  6-C , 19-H ) :   0.9769 B(  7-O , 20-H ) :   0.9030

Dispersion correction           -0.005659403
FINAL SINGLE POINT ENERGY      -312.200827621538

DIPOLE MOMENT
-------------

Method             : SCF
Type of density    : Electron Density
Multiplicity       :   1
Irrep              :   0
Energy             :  -312.2063799032803786 Eh
Relativity type    :
Basis              : AO
                                X                 Y                 Z
Electronic contribution:      3.596614076      -2.646422915       0.713991269
Nuclear contribution   :     -3.074035012       2.970549657      -0.904516573
                        -----------------------------------------
Total Dipole Moment    :      0.522579064       0.324126743      -0.190525304
                        -----------------------------------------
Magnitude (a.u.)       :      0.643775516
Magnitude (Debye)      :      1.636347319

Rotational constants in cm-1:             0.131721             0.054535             0.047216
Rotational constants in MHz :          3948.907912          1634.912982          1415.510300

                             ****ORCA TERMINATED NORMALLY****
TOTAL RUN TIME: 0 days 0 hours 0 minutes 30 seconds 756 msec
