                         Program Version 6.0.0  -   RELEASE  -
|  1> ! r2scan-3c def2/J RI DEFGRID2 scfconv6 printgap
|  2> %output
|  3>     printlevel normal
|  4> end
|  5> %cpcm
|  6>     smd true
|  7>     smdsolvent "water"
|  8> end
|  9> * xyz 0 1
| 10> C 1.8972975199 1.1377546006 -0.0012515966
| 11> C 1.3877638501 -0.254516548 -0.3770764821
| 12> H 2.0124710095 -0.6409930109 -1.2024233539
| 13> C -0.058375778 -0.2482187592 -0.8965073793
| 14> C -1.1129364181 0.4149254363 -0.0018349209
| 15> C -2.3846110372 0.6643677524 -0.8131242868
| 16> C -1.4352874241 -0.4426550653 1.2190346159
| 17> O 1.4887328533 -1.1552718321 0.7151426361
| 18> H 1.4190179655 1.480040183 0.9124937891
| 19> H 2.9729073119 1.1151973593 0.1600170775
| 20> H 1.6821687649 1.8393623061 -0.8015426066
| 21> H -0.0453103752 0.2626045661 -1.8614563979
| 22> H -0.3490776078 -1.2867188243 -1.0694298142
| 23> H -0.7347690798 1.3832792973 0.3378489068
| 24> H -3.1493943892 1.1166965871 -0.1863364269
| 25> H -2.7730821755 -0.272907466 -1.2057195673
| 26> H -2.1862456535 1.3317700594 -1.6486456243
| 27> H -1.893479538 -1.3793898377 0.9080641638
| 28> H -0.5303622086 -0.6776872995 1.7708007286
| 29> H -2.1265453687 0.0773976554 1.8787002929
| 30> H 2.4014996164 -1.1640311595 1.0321807389
| 31> *
| 32>
| 33>                          ****END OF INPUT****

CARTESIAN COORDINATES (ANGSTROEM)
---------------------------------
  C      1.897298    1.137755   -0.001252
  C      1.387764   -0.254517   -0.377076
  H      2.012471   -0.640993   -1.202423
  C     -0.058376   -0.248219   -0.896507
  C     -1.112936    0.414925   -0.001835
  C     -2.384611    0.664368   -0.813124
  C     -1.435287   -0.442655    1.219035
  O      1.488733   -1.155272    0.715143
  H      1.419018    1.480040    0.912494
  H      2.972907    1.115197    0.160017
  H      1.682169    1.839362   -0.801543
  H     -0.045310    0.262605   -1.861456
  H     -0.349078   -1.286719   -1.069430
  H     -0.734769    1.383279    0.337849
  H     -3.149394    1.116697   -0.186336
  H     -2.773082   -0.272907   -1.205720
  H     -2.186246    1.331770   -1.648646
  H     -1.893480   -1.379390    0.908064
  H     -0.530362   -0.677687    1.770801
  H     -2.126545    0.077398    1.878700
  H      2.401500   -1.164031    1.032181

 Total Charge           Charge          ....    0
 Multiplicity           Mult            ....    1
 Number of Electrons    NEL             ....   58
 Basis Dimension        Dim             ....  208

ORBITAL ENERGIES
----------------

  NO   OCC          E(Eh)            E(eV)
   0   2.0000     -18.945997      -515.5468
   1   2.0000     -10.075201      -274.1602
   2   2.0000     -10.023176      -272.7445
   3   2.0000     -10.014520      -272.5090
   4   2.0000     -10.008989      -272.3584
   5   2.0000     -10.005497      -272.2634
   6   2.0000     -10.001609      -272.1576
   7   2.0000      -0.983531       -26.7632
   8   2.0000      -0.769223       -20.9316
   9   2.0000      -0.712285       -19.3823
  10   2.0000      -0.643423       -17.5084
  11   2.0000      -0.639576       -17.4037
  12   2.0000      -0.561405       -15.2766
  13   2.0000      -0.510814       -13.9000
  14   2.0000      -0.471859       -12.8399
  15   2.0000      -0.431547       -11.7430
  16   2.0000      -0.405920       -11.0456
  17   2.0000      -0.391258       -10.6467
  18   2.0000      -0.381297       -10.3756
  19   2.0000      -0.373006       -10.1500
  20   2.0000      -0.343527        -9.3478
  21   2.0000      -0.342689        -9.3250
  22   2.0000      -0.325439        -8.8556
  23   2.0000      -0.319300        -8.6886
  24   2.0000      -0.310852        -8.4587
  25   2.0000      -0.286739        -7.8026
  26   2.0000      -0.279385        -7.6024
  27   2.0000      -0.269048        -7.3212
  28   2.0000      -0.232130        -6.3166
  29   0.0000       0.073415         1.9977
  30   0.0000       0.107027         2.9124
  31   0.0000       0.122788         3.3412
  32   0.0000       0.128437         3.4950
  33   0.0000       0.135574         3.6892

MULLIKEN ATOMIC CHARGES
-----------------------
   0 C :   -0.554397
   1 C :    0.048630
   2 H :    0.142853
   3 C :   -0.312224
   4 C :   -0.013071
   5 C :   -0.530229
   6 C :   -0.563422
   7 O :   -0.498913
   8 H :    0.170228
   9 H :    0.163326
  10 H :    0.168809
  11 H :    0.163301
  12 H :    0.160383
  13 H :    0.158526
  14 H :    0.156874
  15 H :    0.158332
  16 H :    0.157872
  17 H :    0.158352
  18 H :    0.170618
  19 H :    0.154689
  20 H :    0.339463
Sum of atomic charges:   -0.0000000

LOEWDIN ATOMIC CHARGES
----------------------
   0 C :   -0.408218
   1 C :    0.050387
   2 H :    0.167895
   3 C :   -0.275759
   4 C :   -0.240489
   5 C :   -0.425092
   6 C :   -0.426643
   7 O :   -0.655561
   8 H :    0.161396
   9 H :    0.158855
  10 H :    0.165851
  11 H :    0.170692
  12 H :    0.170347
  13 H :    0.160845
  14 H :    0.154796
  15 H :    0.156120
  16 H :    0.154548
  17 H :    0.155802
  18 H :    0.166405
  19 H :    0.152245
  20 H :    0.285579

  Mayer bond orders larger than 0.100000
B(  0-C ,  1-C ) :   0.9070 B(  0-C ,  8-H ) :   0.9759 B(  0-C ,  9-H ) :   0.9615
B(  0-C , 10-H ) :   0.9689 B(  1-C ,  2-H ) :   0.9645 B(  1-C ,  3-C ) :   0.9485
B(  1-C ,  7-O ) :   0.8975 B(  3-C ,  4-C ) :   0.8699 B(  3-C , 11-H ) :   0.9702
B(  3-C , 12-H ) :   0.9797 B(  4-C ,  5-C ) :   0.8890 B(  4-C ,  6-C ) :   0.8893
B(  4-C , 13-H ) :   0.9593 B(  5-C , 14-H ) :   0.9762 B(  5-C , 15-H ) :   0.9845
B(  5-C , 16-H ) :   0.9767 B(  6-C , 17-H ) :   0.9840 B(  6-C , 18-H ) :   0.9691
B(  6-C , 19-H ) :   0.9738 B(  7-O , 20-H ) :   0.8780

Dispersion correction           -0.005659403
FINAL SINGLE POINT ENERGY      -312.205366505106

DIPOLE MOMENT
-------------

Method             : SCF
Type of density    : Electron Density
Multiplicity       :   1
Irrep              :   0
Energy             :  -312.2109187868475715 Eh
Relativity type    :
Basis              : AO
                                X                 Y                 Z
Electronic contribution:      3.775176030      -2.448012878       0.573821891
Nuclear contribution   :     -3.074035012       2.970549657      -0.904516573
                        -----------------------------------------
Total Dipole Moment    :      0.701141019       0.522536780      -0.330694682
                        -----------------------------------------
Magnitude (a.u.)       :      0.934880948
Magnitude (Debye)      :      2.376278523

Rotational constants in cm-1:             0.131721             0.054535             0.047216
Rotational constants in MHz :          3948.907912          1634.912982          1415.510300

                             ****ORCA TERMINATED NORMALLY****
TOTAL RUN TIME: 0 days 0 hours 0 minutes 37 seconds 165 msec
