                         Program Version 6.0.0  -   RELEASE  -
|  1> ! r2scan-3c def2/J RI DEFGRID2 scfconv6 printgap
|  2> %output
|  3>     printlevel normal
|  4> end
|  5> %cpcm
|  6>     smd true
|  7>     smdsolvent "water"
|  8> end
|  9> * xyz 0 1
| 10> C -1.9485295486 0.2715885988 0.6285842098
| 11> C -1.0679979482 0.2360913246 -0.617164806
| 12> N -0.0208445593 -0.7713835574 -0.5087774871
| 13> C 1.0480960883 -0.488458863 0.4347943554
| 14> C 1.9634263949 0.6851767488 0.0681838192
| 15> H -1.4121754195 0.6830206471 1.4793113437
| 16> H -2.8205882043 0.8922596668 0.4418732459
| 17> H -2.2746254077 -0.7347283334 0.8745829301
| 18> H -0.6729323292 1.2473094669 -0.8122429868
| 19> H -1.6843907461 -0.0477059289 -1.4741153524
| 20> H 0.3872821134 -0.9237604708 -1.4255722718
| 21> H 0.5973772119 -0.3121070734 1.413051785
| 22> H 1.6491886801 -1.3997403035 0.5047214181
| 23> H 2.7642757819 0.7693358696 0.7974000322
| 24> H 2.4039168792 0.5293231926 -0.9151347209
| 25> H 1.4119751594 1.6225296706 0.0566578376
| 26> *
| 27>
| 28>                          ****END OF INPUT****

CARTESIAN COORDINATES (ANGSTROEM)
---------------------------------
  C     -1.948530    0.271589    0.628584
  C     -1.067998    0.236091   -0.617165
  N     -0.020845   -0.771384   -0.508777
  C      1.048096   -0.488459    0.434794
  C      1.963426    0.685177    0.068184
  H     -1.412175    0.683021    1.479311
  H     -2.820588    0.892260    0.441873
  H     -2.274625   -0.734728    0.874583
  H     -0.672932    1.247309   -0.812243
  H     -1.684391   -0.047706   -1.474115
  H      0.387282   -0.923760   -1.425572
  H      0.597377   -0.312107    1.413052
  H      1.649189   -1.399740    0.504721
  H      2.764276    0.769336    0.797400
  H      2.403917    0.529323   -0.915135
  H      1.411975    1.622530    0.056658

 Total Charge           Charge          ....    0
 Multiplicity           Mult            ....    1
 Number of Electrons    NEL             ....   42
 Basis Dimension        Dim             ....  155

ORBITAL ENERGIES
----------------

  NO   OCC          E(Eh)            E(eV)
   0   2.0000     -14.132772      -384.5723
   1   2.0000     -10.041123      -273.2329
   2   2.0000     -10.039995      -273.2021
   3   2.0000     -10.007100      -272.3070
   4   2.0000     -10.006010      -272.2774
   5   2.0000      -0.860455       -23.4142
   6   2.0000      -0.714203       -19.4345
   7   2.0000      -0.673638       -18.3306
   8   2.0000      -0.590260       -16.0618
   9   2.0000      -0.532615       -14.4932
  10   2.0000      -0.456606       -12.4249
  11   2.0000      -0.427148       -11.6233
  12   2.0000      -0.391413       -10.6509
  13   2.0000      -0.376205       -10.2371
  14   2.0000      -0.363767        -9.8986
  15   2.0000      -0.337631        -9.1874
  16   2.0000      -0.326120        -8.8742
  17   2.0000      -0.318360        -8.6630
  18   2.0000      -0.297696        -8.1007
  19   2.0000      -0.290354        -7.9009
  20   2.0000      -0.185242        -5.0407
  21   0.0000       0.087724         2.3871
  22   0.0000       0.112751         3.0681
  23   0.0000       0.124246         3.3809
  24   0.0000       0.135844         3.6965
  25   0.0000       0.141885         3.8609

MULLIKEN ATOMIC CHARGES
-----------------------
   0 C :   -0.503500
   1 C :   -0.185979
   2 N :   -0.397672
   3 C :   -0.214831
   4 C :   -0.496454
   5 H :    0.157619
   6 H :    0.159292
   7 H :    0.156236
   8 H :    0.128657
   9 H :    0.154514
  10 H :    0.270864
  11 H :    0.148595
  12 H :    0.155016
  13 H :    0.156973
  14 H :    0.153803
  15 H :    0.156868
Sum of atomic charges:   -0.0000000

LOEWDIN ATOMIC CHARGES
----------------------
   0 C :   -0.410118
   1 C :   -0.074658
   2 N :   -0.874176
   3 C :   -0.081955
   4 C :   -0.422591
   5 H :    0.152818
   6 H :    0.156544
   7 H :    0.155878
   8 H :    0.152991
   9 H :    0.177162
  10 H :    0.255105
  11 H :    0.175705
  12 H :    0.174839
  13 H :    0.155732
  14 H :    0.153778
  15 H :    0.152946

  Mayer bond orders larger than 0.100000
B(  0-C ,  1-C ) :   0.9080 B(  0-C ,  5-H ) :   0.9697 B(  0-C ,  6-H ) :   0.9708
B(  0-C ,  7-H ) :   0.9754 B(  1-C ,  2-N ) :   0.9175 B(  1-C ,  8-H ) :   0.9545
B(  1-C ,  9-H ) :   0.9718 B(  2-N ,  3-C ) :   0.9600 B(  2-N , 10-H ) :   0.8989
B(  3-C ,  4-C ) :   0.8801 B(  3-C , 11-H ) :   0.9727 B(  3-C , 12-H ) :   0.9760
B(  4-C , 13-H ) :   0.9684 B(  4-C , 14-H ) :   0.9736 B(  4-C , 15-H ) :   0.9731

Dispersion correction           -0.003535306
FINAL SINGLE POINT ENERGY      -213.716979093259

DIPOLE MOMENT
-------------

Method             : SCF
Type of density    : Electron Density
Multiplicity       :   1
Irrep              :   0
Energy             :  -213.7256774765054672 Eh
Relativity type    :
Basis              : AO
                                X                 Y                 Z
Electronic contribution:     -0.062086917      -1.738877049      -1.113741303
Nuclear contribution   :      0.327591866       2.177689906       0.879578734
                        -----------------------------------------
Total Dipole Moment    :      0.265504949       0.438812857      -0.234162569
                        -----------------------------------------
Magnitude (a.u.)       :      0.563809995
Magnitude (Debye)      :      1.433091118

Rotational constants in cm-1:             0.304600             0.093770             0.089713
Rotational constants in MHz :          9131.692407          2811.147240          2689.536098

                             ****ORCA TERMINATED NORMALLY****
TOTAL RUN TIME: 0 days 0 hours 0 minutes 18 seconds 301 msec
