                         Program Version 6.0.0  -   RELEASE  -
|  1> ! pbe def2-sv(p) def2/J RI DEFGRID1 loosescf d4 GCP(DFT/SV(P)) printgap
|  2> %output
|  3>     printlevel normal
|  4> end
|  5> * xyz 0 1
|  6> C 2.1842233108 -0.9250034537 -0.6165628826
|  7> C 1.2022903252 -0.1418037443 0.2503084534
|  8> C 1.7756261459 1.2260729589 0.6302499703
|  9> O 0.0001137622 -0.0012068498 -0.5005623017
| 10> C -1.2020848718 0.1413566765 0.2499667398
| 11> C -2.1825754164 0.9261368882 -0.6171140097
| 12> C -1.7775883702 -1.2256274102 0.6298304493
| 13> H 2.3677968797 -0.3790041351 -1.5376275789
| 14> H 3.1211402108 -1.0645063411 -0.0863981894
| 15> H 1.7650527851 -1.8951408977 -0.868533279
| 16> H 0.9940893026 -0.7127480893 1.1681959004
| 17> H 1.0630090184 1.7896563678 1.2282468045
| 18> H 1.9942246912 1.7922704385 -0.2714189112
| 19> H 2.6884873879 1.0983179383 1.2040350494
| 20> H -0.9932834377 0.7119000432 1.1679259118
| 21> H -3.1201160609 1.0654440365 -0.0880047927
| 22> H -1.7626342407 1.8963866938 -0.8673816582
| 23> H -2.3651848351 0.381318324 -1.5390700559
| 24> H -2.6901596379 -1.096491572 1.2037956815
| 25> H -1.0657014413 -1.7903260732 1.2276426058
| 26> H -1.997229018 -1.7914080814 -0.2718387035
| 27> *
| 28>
| 29>                          ****END OF INPUT****

CARTESIAN COORDINATES (ANGSTROEM)
---------------------------------
  C      2.184223   -0.925003   -0.616563
  C      1.202290   -0.141804    0.250308
  C      1.775626    1.226073    0.630250
  O      0.000114   -0.001207   -0.500562
  C     -1.202085    0.141357    0.249967
  C     -2.182575    0.926137   -0.617114
  C     -1.777588   -1.225627    0.629830
  H      2.367797   -0.379004   -1.537628
  H      3.121140   -1.064506   -0.086398
  H      1.765053   -1.895141   -0.868533
  H      0.994089   -0.712748    1.168196
  H      1.063009    1.789656    1.228247
  H      1.994225    1.792270   -0.271419
  H      2.688487    1.098318    1.204035
  H     -0.993283    0.711900    1.167926
  H     -3.120116    1.065444   -0.088005
  H     -1.762634    1.896387   -0.867382
  H     -2.365185    0.381318   -1.539070
  H     -2.690160   -1.096492    1.203796
  H     -1.065701   -1.790326    1.227643
  H     -1.997229   -1.791408   -0.271839

 Total Charge           Charge          ....    0
 Multiplicity           Mult            ....    1
 Number of Electrons    NEL             ....   58
 Basis Dimension        Dim             ....  126

ORBITAL ENERGIES
----------------

  NO   OCC          E(Eh)            E(eV)
   0   2.0000     -18.739135      -509.9178
   1   2.0000      -9.936183      -270.3773
   2   2.0000      -9.936156      -270.3766
   3   2.0000      -9.871721      -268.6232
   4   2.0000      -9.871707      -268.6228
   5   2.0000      -9.870300      -268.5845
   6   2.0000      -9.870293      -268.5843
   7   2.0000      -0.922375       -25.0991
   8   2.0000      -0.716695       -19.5023
   9   2.0000      -0.668776       -18.1983
  10   2.0000      -0.614650       -16.7255
  11   2.0000      -0.611438       -16.6381
  12   2.0000      -0.534317       -14.5395
  13   2.0000      -0.500591       -13.6218
  14   2.0000      -0.451777       -12.2935
  15   2.0000      -0.411745       -11.2042
  16   2.0000      -0.398304       -10.8384
  17   2.0000      -0.372959       -10.1487
  18   2.0000      -0.367573       -10.0022
  19   2.0000      -0.361039        -9.8244
  20   2.0000      -0.340811        -9.2740
  21   2.0000      -0.340351        -9.2614
  22   2.0000      -0.324957        -8.8425
  23   2.0000      -0.318626        -8.6703
  24   2.0000      -0.310520        -8.4497
  25   2.0000      -0.298595        -8.1252
  26   2.0000      -0.292978        -7.9723
  27   2.0000      -0.250801        -6.8247
  28   2.0000      -0.196567        -5.3488
  29   0.0000       0.030913         0.8412
  30   0.0000       0.059358         1.6152
  31   0.0000       0.068368         1.8604
  32   0.0000       0.073219         1.9924
  33   0.0000       0.083463         2.2711

MULLIKEN ATOMIC CHARGES
-----------------------
   0 C :   -0.234185
   1 C :   -0.015238
   2 C :   -0.244453
   3 O :   -0.329626
   4 C :   -0.015277
   5 C :   -0.234163
   6 C :   -0.244358
   7 H :    0.102348
   8 H :    0.094743
   9 H :    0.102835
  10 H :    0.062813
  11 H :    0.101310
  12 H :    0.099653
  13 H :    0.094985
  14 H :    0.062844
  15 H :    0.094725
  16 H :    0.102784
  17 H :    0.102378
  18 H :    0.094964
  19 H :    0.101266
  20 H :    0.099651
Sum of atomic charges:   -0.0000000

LOEWDIN ATOMIC CHARGES
----------------------
   0 C :   -0.339499
   1 C :   -0.050182
   2 C :   -0.348291
   3 O :   -0.165439
   4 C :   -0.050186
   5 C :   -0.339507
   6 C :   -0.348258
   7 H :    0.122821
   8 H :    0.120850
   9 H :    0.121218
  10 H :    0.095927
  11 H :    0.117500
  12 H :    0.121463
  13 H :    0.120904
  14 H :    0.095956
  15 H :    0.120834
  16 H :    0.121192
  17 H :    0.122838
  18 H :    0.120888
  19 H :    0.117509
  20 H :    0.121461

  Mayer bond orders larger than 0.100000
B(  0-C ,  1-C ) :   1.1178 B(  0-C ,  7-H ) :   0.9451 B(  0-C ,  8-H ) :   0.9464
B(  0-C ,  9-H ) :   0.9477 B(  1-C ,  2-C ) :   1.1165 B(  1-C ,  3-O ) :   0.9919
B(  1-C , 10-H ) :   0.8922 B(  2-C , 11-H ) :   0.9408 B(  2-C , 12-H ) :   0.9429
B(  2-C , 13-H ) :   0.9422 B(  3-O ,  4-C ) :   0.9917 B(  4-C ,  5-C ) :   1.1178
B(  4-C ,  6-C ) :   1.1165 B(  4-C , 14-H ) :   0.8922 B(  5-C , 15-H ) :   0.9464
B(  5-C , 16-H ) :   0.9477 B(  5-C , 17-H ) :   0.9451 B(  6-C , 18-H ) :   0.9422
B(  6-C , 19-H ) :   0.9409 B(  6-C , 20-H ) :   0.9429

Dispersion correction           -0.015659887
FINAL SINGLE POINT ENERGY      -311.523684348124

DIPOLE MOMENT
-------------

Method             : SCF
Type of density    : Electron Density
Multiplicity       :   1
Irrep              :   0
Energy             :  -311.6019778364457125 Eh
Relativity type    :
Basis              : AO
                                X                 Y                 Z
Electronic contribution:      0.000607197      -0.004667608      -1.132744923
Nuclear contribution   :     -0.000475270       0.005300213       1.558899841
                        -----------------------------------------
Total Dipole Moment    :      0.000131926       0.000632605       0.426154918
                        -----------------------------------------
Magnitude (a.u.)       :      0.426155408
Magnitude (Debye)      :      1.083200964

Rotational constants in cm-1:             0.137368             0.051318             0.045255
Rotational constants in MHz :          4118.200688          1538.488908          1356.715550

                             ****ORCA TERMINATED NORMALLY****
TOTAL RUN TIME: 0 days 0 hours 0 minutes 7 seconds 337 msec
