                         Program Version 6.0.0  -   RELEASE  -
|  1> ! r2scan-3c def2/J RI DEFGRID2 scfconv6 printgap
|  2> %output
|  3>     printlevel normal
|  4> end
|  5> * xyz 0 1
|  6> C -3.5528119808 -0.0233886915 -0.3459280739
|  7> C -2.2197602412 0.3955178136 0.2632836684
|  8> C -1.0989876218 -0.5720672013 -0.1123456205
|  9> C 0.2416658092 -0.2043298041 0.5234421939
| 10> C 1.3471901945 -1.2376330687 0.2025888525
| 11> C 2.4626420449 -0.4656339478 -0.5094875073
| 12> C 2.3069022367 0.9590546123 0.0118604367
| 13> C 0.792433794 1.143138716 0.0265545108
| 14> H -4.3373167603 0.6763511215 -0.068497862
| 15> H -3.4834961701 -0.0495266126 -1.4311730114
| 16> H -3.8365620626 -1.0141237148 0.0023341328
| 17> H -1.9659706442 1.3999019262 -0.0799281278
| 18> H -2.3131549251 0.4306716445 1.3512204863
| 19> H -1.3799367708 -1.5774127369 0.2121939132
| 20> H -0.9882292052 -0.5931442796 -1.1993757824
| 21> H 0.0997150968 -0.1537004974 1.6074490717
| 22> H 1.7268214848 -1.6787769701 1.1244103509
| 23> H 0.9651745342 -2.0468383297 -0.4187728152
| 24> H 3.4480681686 -0.8832502305 -0.3086372971
| 25> H 2.2989819992 -0.478165263 -1.5880895809
| 26> H 2.7031844803 1.0308907458 1.0260585648
| 27> H 2.8132769572 1.6948628552 -0.6113443643
| 28> H 0.4801909422 1.974119804 0.6570974409
| 29> H 0.4411817961 1.3317952784 -0.9895806776
| 30> *
| 31>
| 32>                          ****END OF INPUT****

CARTESIAN COORDINATES (ANGSTROEM)
---------------------------------
  C     -3.552812   -0.023389   -0.345928
  C     -2.219760    0.395518    0.263284
  C     -1.098988   -0.572067   -0.112346
  C      0.241666   -0.204330    0.523442
  C      1.347190   -1.237633    0.202589
  C      2.462642   -0.465634   -0.509488
  C      2.306902    0.959055    0.011860
  C      0.792434    1.143139    0.026555
  H     -4.337317    0.676351   -0.068498
  H     -3.483496   -0.049527   -1.431173
  H     -3.836562   -1.014124    0.002334
  H     -1.965971    1.399902   -0.079928
  H     -2.313155    0.430672    1.351220
  H     -1.379937   -1.577413    0.212194
  H     -0.988229   -0.593144   -1.199376
  H      0.099715   -0.153700    1.607449
  H      1.726821   -1.678777    1.124410
  H      0.965175   -2.046838   -0.418773
  H      3.448068   -0.883250   -0.308637
  H      2.298982   -0.478165   -1.588090
  H      2.703184    1.030891    1.026059
  H      2.813277    1.694863   -0.611344
  H      0.480191    1.974120    0.657097
  H      0.441182    1.331795   -0.989581

 Total Charge           Charge          ....    0
 Multiplicity           Mult            ....    1
 Number of Electrons    NEL             ....   64
 Basis Dimension        Dim             ....  232

ORBITAL ENERGIES
----------------

  NO   OCC          E(Eh)            E(eV)
   0   2.0000     -10.023948      -272.7655
   1   2.0000     -10.019948      -272.6566
   2   2.0000     -10.018180      -272.6085
   3   2.0000     -10.017749      -272.5968
   4   2.0000     -10.017662      -272.5944
   5   2.0000     -10.016579      -272.5650
   6   2.0000     -10.015644      -272.5395
   7   2.0000     -10.012774      -272.4614
   8   2.0000      -0.804911       -21.9027
   9   2.0000      -0.749746       -20.4016
  10   2.0000      -0.687591       -18.7103
  11   2.0000      -0.670986       -18.2584
  12   2.0000      -0.616618       -16.7790
  13   2.0000      -0.551794       -15.0151
  14   2.0000      -0.532080       -14.4786
  15   2.0000      -0.511567       -13.9204
  16   2.0000      -0.449419       -12.2293
  17   2.0000      -0.435909       -11.8617
  18   2.0000      -0.427346       -11.6287
  19   2.0000      -0.389898       -10.6097
  20   2.0000      -0.380916       -10.3652
  21   2.0000      -0.370379       -10.0785
  22   2.0000      -0.351480        -9.5643
  23   2.0000      -0.337740        -9.1904
  24   2.0000      -0.314803        -8.5662
  25   2.0000      -0.301516        -8.2047
  26   2.0000      -0.300551        -8.1784
  27   2.0000      -0.296184        -8.0596
  28   2.0000      -0.290394        -7.9020
  29   2.0000      -0.279231        -7.5983
  30   2.0000      -0.276104        -7.5132
  31   2.0000      -0.267864        -7.2889
  32   0.0000       0.084980         2.3124
  33   0.0000       0.094381         2.5682
  34   0.0000       0.103278         2.8103
  35   0.0000       0.115672         3.1476
  36   0.0000       0.125777         3.4226

MULLIKEN ATOMIC CHARGES
-----------------------
   0 C :   -0.475496
   1 C :   -0.229340
   2 C :   -0.402699
   3 C :    0.084721
   4 C :   -0.389954
   5 C :   -0.302723
   6 C :   -0.243217
   7 C :   -0.429242
   8 H :    0.145210
   9 H :    0.141941
  10 H :    0.141151
  11 H :    0.143284
  12 H :    0.140960
  13 H :    0.145426
  14 H :    0.145847
  15 H :    0.158207
  16 H :    0.153899
  17 H :    0.155921
  18 H :    0.148870
  19 H :    0.151405
  20 H :    0.144951
  21 H :    0.151258
  22 H :    0.158168
  23 H :    0.161449
Sum of atomic charges:    0.0000000

LOEWDIN ATOMIC CHARGES
----------------------
   0 C :   -0.425411
   1 C :   -0.314017
   2 C :   -0.301868
   3 C :   -0.226946
   4 C :   -0.299505
   5 C :   -0.303305
   6 C :   -0.302177
   7 C :   -0.302790
   8 H :    0.149269
   9 H :    0.149387
  10 H :    0.149362
  11 H :    0.153451
  12 H :    0.151462
  13 H :    0.156082
  14 H :    0.155226
  15 H :    0.159423
  16 H :    0.157217
  17 H :    0.159556
  18 H :    0.155175
  19 H :    0.153977
  20 H :    0.155432
  21 H :    0.155125
  22 H :    0.158116
  23 H :    0.157760

  Mayer bond orders larger than 0.100000
B(  0-C ,  1-C ) :   0.8954 B(  0-C ,  8-H ) :   0.9752 B(  0-C ,  9-H ) :   0.9848
B(  0-C , 10-H ) :   0.9852 B(  1-C ,  2-C ) :   0.9022 B(  1-C , 11-H ) :   0.9605
B(  1-C , 12-H ) :   0.9773 B(  2-C ,  3-C ) :   0.8839 B(  2-C , 13-H ) :   0.9921
B(  2-C , 14-H ) :   0.9998 B(  3-C ,  4-C ) :   0.9140 B(  3-C ,  7-C ) :   0.8761
B(  3-C , 15-H ) :   0.9514 B(  4-C ,  5-C ) :   0.9286 B(  4-C , 16-H ) :   0.9804
B(  4-C , 17-H ) :   0.9838 B(  5-C ,  6-C ) :   0.9009 B(  5-C , 18-H ) :   0.9530
B(  5-C , 19-H ) :   0.9949 B(  6-C ,  7-C ) :   0.8839 B(  6-C , 20-H ) :   0.9808
B(  6-C , 21-H ) :   0.9611 B(  7-C , 22-H ) :   0.9514 B(  7-C , 23-H ) :   1.0126

Dispersion correction           -0.006871281
FINAL SINGLE POINT ENERGY      -314.382911453097

DIPOLE MOMENT
-------------

Method             : SCF
Type of density    : Electron Density
Multiplicity       :   1
Irrep              :   0
Energy             :  -314.3861511735346426 Eh
Relativity type    :
Basis              : AO
                                X                 Y                 Z
Electronic contribution:      3.138074981      -0.040526977       0.712486742
Nuclear contribution   :     -3.122273280       0.059718526      -0.670444668
                        -----------------------------------------
Total Dipole Moment    :      0.015801701       0.019191549       0.042042075
                        -----------------------------------------
Magnitude (a.u.)       :      0.048842045
Magnitude (Debye)      :      0.124146612

Rotational constants in cm-1:             0.164193             0.032950             0.029794
Rotational constants in MHz :          4922.372688           987.823400           893.208346

                             ****ORCA TERMINATED NORMALLY****
TOTAL RUN TIME: 0 days 0 hours 0 minutes 24 seconds 821 msec
