                         Program Version 6.0.0  -   RELEASE  -
|  1> ! r2scan-3c def2/J RI DEFGRID2 scfconv6 printgap
|  2> %output
|  3>     printlevel normal
|  4> end
|  5> %cpcm
|  6>     smd true
|  7>     smdsolvent "water"
|  8> end
|  9> * xyz 0 1
| 10> C 2.1966800216 -0.7472992747 0.5789162547
| 11> C 1.4144139064 0.4186175017 -0.0161122398
| 12> C 0.3305240817 -0.0250168373 -1.0088936057
| 13> C -1.0893358695 -0.0220437917 -0.4175684124
| 14> H -1.7899297294 -0.3034996126 -1.22312452
| 15> C -1.2635569699 -1.0071360478 0.7334165403
| 16> O -1.4468908953 1.2605983225 0.074219672
| 17> H 2.9404589516 -0.3799504288 1.282489215
| 18> H 2.7119034029 -1.295776601 -0.2069325302
| 19> H 1.5402641042 -1.4359043607 1.1028489778
| 20> H 0.9437226979 0.9958677212 0.7827612246
| 21> H 2.119139116 1.0808211722 -0.523127957
| 22> H 0.3304316962 0.6460912233 -1.871292941
| 23> H 0.5461414805 -1.0282685382 -1.3774723024
| 24> H -0.6467002186 -0.7070397307 1.5748739021
| 25> H -2.3012914419 -1.0039471592 1.0565986565
| 26> H -0.9908827426 -2.0081265621 0.4144059464
| 27> H -1.3679282459 1.9085653587 -0.6381215392
| 28> *
| 29>
| 30>                          ****END OF INPUT****

CARTESIAN COORDINATES (ANGSTROEM)
---------------------------------
  C      2.196680   -0.747299    0.578916
  C      1.414414    0.418618   -0.016112
  C      0.330524   -0.025017   -1.008894
  C     -1.089336   -0.022044   -0.417568
  H     -1.789930   -0.303500   -1.223125
  C     -1.263557   -1.007136    0.733417
  O     -1.446891    1.260598    0.074220
  H      2.940459   -0.379950    1.282489
  H      2.711903   -1.295777   -0.206933
  H      1.540264   -1.435904    1.102849
  H      0.943723    0.995868    0.782761
  H      2.119139    1.080821   -0.523128
  H      0.330432    0.646091   -1.871293
  H      0.546141   -1.028269   -1.377472
  H     -0.646700   -0.707040    1.574874
  H     -2.301291   -1.003947    1.056599
  H     -0.990883   -2.008127    0.414406
  H     -1.367928    1.908565   -0.638122

 Total Charge           Charge          ....    0
 Multiplicity           Mult            ....    1
 Number of Electrons    NEL             ....   50
 Basis Dimension        Dim             ....  179

ORBITAL ENERGIES
----------------

  NO   OCC          E(Eh)            E(eV)
   0   2.0000     -18.947554      -515.5892
   1   2.0000     -10.074745      -274.1477
   2   2.0000     -10.014933      -272.5202
   3   2.0000     -10.013970      -272.4940
   4   2.0000     -10.009387      -272.3693
   5   2.0000     -10.006551      -272.2921
   6   2.0000      -0.984389       -26.7866
   7   2.0000      -0.754241       -20.5239
   8   2.0000      -0.703804       -19.1515
   9   2.0000      -0.644212       -17.5299
  10   2.0000      -0.567909       -15.4536
  11   2.0000      -0.532200       -14.4819
  12   2.0000      -0.464279       -12.6337
  13   2.0000      -0.437313       -11.8999
  14   2.0000      -0.411576       -11.1996
  15   2.0000      -0.376943       -10.2571
  16   2.0000      -0.372523       -10.1369
  17   2.0000      -0.348703        -9.4887
  18   2.0000      -0.347835        -9.4651
  19   2.0000      -0.333398        -9.0722
  20   2.0000      -0.308490        -8.3944
  21   2.0000      -0.294978        -8.0268
  22   2.0000      -0.289957        -7.8901
  23   2.0000      -0.272343        -7.4108
  24   2.0000      -0.235030        -6.3955
  25   0.0000       0.075512         2.0548
  26   0.0000       0.106067         2.8862
  27   0.0000       0.123706         3.3662
  28   0.0000       0.136536         3.7153
  29   0.0000       0.139208         3.7880

MULLIKEN ATOMIC CHARGES
-----------------------
   0 C :   -0.524056
   1 C :   -0.279635
   2 C :   -0.268760
   3 C :    0.041032
   4 H :    0.142530
   5 C :   -0.551146
   6 O :   -0.508287
   7 H :    0.152900
   8 H :    0.156976
   9 H :    0.158775
  10 H :    0.162992
  11 H :    0.150553
  12 H :    0.162919
  13 H :    0.159913
  14 H :    0.170891
  15 H :    0.160837
  16 H :    0.169591
  17 H :    0.341978
Sum of atomic charges:   -0.0000000

LOEWDIN ATOMIC CHARGES
----------------------
   0 C :   -0.432688
   1 C :   -0.320415
   2 C :   -0.291842
   3 C :    0.050727
   4 H :    0.167196
   5 C :   -0.394771
   6 O :   -0.657171
   7 H :    0.151576
   8 H :    0.151240
   9 H :    0.152655
  10 H :    0.161618
  11 H :    0.155298
  12 H :    0.163392
  13 H :    0.167383
  14 H :    0.163097
  15 H :    0.160494
  16 H :    0.165700
  17 H :    0.286511

  Mayer bond orders larger than 0.100000
B(  0-C ,  1-C ) :   0.8913 B(  0-C ,  7-H ) :   0.9720 B(  0-C ,  8-H ) :   0.9831
B(  0-C ,  9-H ) :   0.9742 B(  1-C ,  2-C ) :   0.8168 B(  1-C , 10-H ) :   0.9840
B(  1-C , 11-H ) :   0.9636 B(  2-C ,  3-C ) :   0.9265 B(  2-C , 12-H ) :   0.9712
B(  2-C , 13-H ) :   0.9744 B(  3-C ,  4-H ) :   0.9615 B(  3-C ,  5-C ) :   0.9168
B(  3-C ,  6-O ) :   0.9147 B(  5-C , 14-H ) :   0.9711 B(  5-C , 15-H ) :   0.9635
B(  5-C , 16-H ) :   0.9689 B(  6-O , 17-H ) :   0.8737

Dispersion correction           -0.004412829
FINAL SINGLE POINT ENERGY      -272.905336473062

DIPOLE MOMENT
-------------

Method             : SCF
Type of density    : Electron Density
Multiplicity       :   1
Irrep              :   0
Energy             :  -272.9105488396789383 Eh
Relativity type    :
Basis              : AO
                                X                 Y                 Z
Electronic contribution:     -3.497959208       3.136500364      -1.171424094
Nuclear contribution   :      3.764326448      -3.294105082       0.351886587
                        -----------------------------------------
Total Dipole Moment    :      0.266367240      -0.157604717      -0.819537507
                        -----------------------------------------
Magnitude (a.u.)       :      0.876032236
Magnitude (Debye)      :      2.226696986

Rotational constants in cm-1:             0.174265             0.075577             0.064943
Rotational constants in MHz :          5224.332237          2265.736077          1946.947553

                             ****ORCA TERMINATED NORMALLY****
TOTAL RUN TIME: 0 days 0 hours 0 minutes 27 seconds 118 msec
