                         Program Version 6.0.0  -   RELEASE  -
|  1> ! pbe def2-sv(p) def2/J RI DEFGRID1 loosescf d4 GCP(DFT/SV(P)) printgap
|  2> %output
|  3>     printlevel normal
|  4> end
|  5> * xyz 0 1
|  6> C 1.7271744635 -2.4279667471 0.8842122447
|  7> O 0.9662677767 -1.8127105327 -0.1566657701
|  8> C 0.6878603079 -0.4871069494 -0.0533069652
|  9> C 1.6503776446 0.5250258614 0.0214776932
| 10> C 1.283841185 1.8579901396 0.1222640921
| 11> C -0.0484530048 2.2230177938 0.1327964559
| 12> C -1.0173163281 1.2389370152 0.0325331923
| 13> C -0.666055313 -0.1047704741 -0.0622156787
| 14> C -1.7182340932 -1.1624843093 -0.1469771541
| 15> O -2.6534352474 -1.2406298175 0.6207582558
| 16> O -1.521457302 -1.9970992844 -1.1425803297
| 17> Cl -2.6850292145 1.6897301693 0.0020230456
| 18> Cl 3.3405347837 0.1585824915 -0.0853986869
| 19> H 2.7570586108 -2.0733935016 0.9099886188
| 20> H 1.7095052973 -3.4885572563 0.6469125935
| 21> H 1.2529653616 -2.2545042442 1.8528981708
| 22> H 2.0521227559 2.6117171689 0.1794467379
| 23> H -0.3371759599 3.2574210243 0.2049540329
| 24> H -2.1906991473 -2.7101114085 -1.1831575514
| 25> *
| 26>
| 27>                          ****END OF INPUT****

CARTESIAN COORDINATES (ANGSTROEM)
---------------------------------
  C      1.727174   -2.427967    0.884212
  O      0.966268   -1.812711   -0.156666
  C      0.687860   -0.487107   -0.053307
  C      1.650378    0.525026    0.021478
  C      1.283841    1.857990    0.122264
  C     -0.048453    2.223018    0.132796
  C     -1.017316    1.238937    0.032533
  C     -0.666055   -0.104770   -0.062216
  C     -1.718234   -1.162484   -0.146977
  O     -2.653435   -1.240630    0.620758
  O     -1.521457   -1.997099   -1.142580
  Cl    -2.685029    1.689730    0.002023
  Cl     3.340535    0.158582   -0.085399
  H      2.757059   -2.073394    0.909989
  H      1.709505   -3.488557    0.646913
  H      1.252965   -2.254504    1.852898
  H      2.052123    2.611717    0.179447
  H     -0.337176    3.257421    0.204954
  H     -2.190699   -2.710111   -1.183158

 Total Charge           Charge          ....    0
 Multiplicity           Mult            ....    1
 Number of Electrons    NEL             ....  112
 Basis Dimension        Dim             ....  202

ORBITAL ENERGIES
----------------

  NO   OCC          E(Eh)            E(eV)
   0   2.0000    -100.654801     -2738.9564
   1   2.0000    -100.643693     -2738.6541
   2   2.0000     -18.803495      -511.6691
   3   2.0000     -18.795112      -511.4410
   4   2.0000     -18.741937      -509.9940
   5   2.0000     -10.022731      -272.7324
   6   2.0000      -9.981553      -271.6119
   7   2.0000      -9.966850      -271.2118
   8   2.0000      -9.964106      -271.1371
   9   2.0000      -9.943268      -270.5701
  10   2.0000      -9.928822      -270.1770
  11   2.0000      -9.922144      -269.9953
  12   2.0000      -9.915931      -269.8262
  13   2.0000      -9.190461      -250.0852
  14   2.0000      -9.179640      -249.7907
  15   2.0000      -7.021838      -191.0739
  16   2.0000      -7.011147      -190.7830
  17   2.0000      -7.010387      -190.7623
  18   2.0000      -7.009847      -190.7476
  19   2.0000      -6.999715      -190.4719
  20   2.0000      -6.998709      -190.4445
  21   2.0000      -1.016142       -27.6506
  22   2.0000      -0.978396       -26.6235
  23   2.0000      -0.916949       -24.9514
  24   2.0000      -0.833148       -22.6711
  25   2.0000      -0.809265       -22.0212
  26   2.0000      -0.758030       -20.6270
  27   2.0000      -0.714008       -19.4292
  28   2.0000      -0.668309       -18.1856
  29   2.0000      -0.636087       -17.3088
  30   2.0000      -0.616939       -16.7878
  31   2.0000      -0.562950       -15.3187
  32   2.0000      -0.540549       -14.7091
  33   2.0000      -0.493163       -13.4196
  34   2.0000      -0.476338       -12.9618
  35   2.0000      -0.466657       -12.6984
  36   2.0000      -0.433974       -11.8090
  37   2.0000      -0.432159       -11.7596
  38   2.0000      -0.413193       -11.2435
  39   2.0000      -0.411119       -11.1871
  40   2.0000      -0.403677       -10.9846
  41   2.0000      -0.398026       -10.8308
  42   2.0000      -0.372802       -10.1445
  43   2.0000      -0.366737        -9.9794
  44   2.0000      -0.358711        -9.7610
  45   2.0000      -0.336357        -9.1527
  46   2.0000      -0.334921        -9.1137
  47   2.0000      -0.316964        -8.6250
  48   2.0000      -0.287590        -7.8257
  49   2.0000      -0.284843        -7.7510
  50   2.0000      -0.277759        -7.5582
  51   2.0000      -0.265070        -7.2129
  52   2.0000      -0.258835        -7.0433
  53   2.0000      -0.237290        -6.4570
  54   2.0000      -0.221323        -6.0225
  55   2.0000      -0.215144        -5.8544
  56   0.0000      -0.075302        -2.0491
  57   0.0000      -0.054773        -1.4905
  58   0.0000      -0.015665        -0.4263
  59   0.0000      -0.003783        -0.1029
  60   0.0000       0.020267         0.5515

MULLIKEN ATOMIC CHARGES
-----------------------
   0 C :   -0.110804
   1 O :   -0.263817
   2 C :    0.130436
   3 C :    0.044019
   4 C :   -0.089869
   5 C :   -0.098926
   6 C :    0.085755
   7 C :   -0.025132
   8 C :    0.079149
   9 O :   -0.169915
  10 O :   -0.260605
  11 Cl:   -0.048108
  12 Cl:   -0.055402
  13 H :    0.118068
  14 H :    0.123898
  15 H :    0.109763
  16 H :    0.057968
  17 H :    0.054763
  18 H :    0.318756
Sum of atomic charges:   -0.0000000

LOEWDIN ATOMIC CHARGES
----------------------
   0 C :   -0.204540
   1 O :   -0.096190
   2 C :    0.026499
   3 C :   -0.161996
   4 C :   -0.124020
   5 C :   -0.143434
   6 C :   -0.115016
   7 C :   -0.095041
   8 C :    0.019280
   9 O :   -0.152406
  10 O :   -0.178050
  11 Cl:    0.159964
  12 Cl:    0.157093
  13 H :    0.098867
  14 H :    0.122837
  15 H :    0.111913
  16 H :    0.136536
  17 H :    0.136274
  18 H :    0.301428

  Mayer bond orders larger than 0.100000
B(  0-C ,  1-O ) :   0.9488 B(  0-C , 13-H ) :   0.9288 B(  0-C , 14-H ) :   0.9629
B(  0-C , 15-H ) :   0.9444 B(  1-O ,  2-C ) :   1.2210 B(  2-C ,  3-C ) :   1.3358
B(  2-C ,  7-C ) :   1.3585 B(  3-C ,  4-C ) :   1.3778 B(  3-C , 12-Cl) :   0.9938
B(  4-C ,  5-C ) :   1.3234 B(  4-C , 16-H ) :   0.9628 B(  5-C ,  6-C ) :   1.3603
B(  5-C , 17-H ) :   0.9704 B(  6-C ,  7-C ) :   1.4340 B(  6-C , 11-Cl) :   1.0419
B(  7-C ,  8-C ) :   0.8669 B(  8-C ,  9-O ) :   2.1162 B(  8-C , 10-O ) :   1.3159
B( 10-O , 18-H ) :   0.8182

Dispersion correction           -0.027005832
FINAL SINGLE POINT ENERGY     -1452.783431157090

DIPOLE MOMENT
-------------

Method             : SCF
Type of density    : Electron Density
Multiplicity       :   1
Irrep              :   0
Energy             : -1452.8376598584882231 Eh
Relativity type    :
Basis              : AO
                                X                 Y                 Z
Electronic contribution:     -3.297309275       6.632989573      -2.596767018
Nuclear contribution   :      3.992285627      -6.925021808       2.551484439
                        -----------------------------------------
Total Dipole Moment    :      0.694976352      -0.292032235      -0.045282580
                        -----------------------------------------
Magnitude (a.u.)       :      0.755198959
Magnitude (Debye)      :      1.919563204

Rotational constants in cm-1:             0.031622             0.016190             0.011332
Rotational constants in MHz :           947.995170           485.370861           339.733206

                             ****ORCA TERMINATED NORMALLY****
TOTAL RUN TIME: 0 days 0 hours 0 minutes 15 seconds 670 msec
