                         Program Version 6.0.0  -   RELEASE  -
|  1> ! r2scan-3c def2/J RI DEFGRID2 scfconv6 printgap
|  2> %output
|  3>     printlevel normal
|  4> end
|  5> * xyz 0 1
|  6> C 1.0160678746 -1.2424694595 0.4921239409
|  7> C 0.9919201823 0.2754957077 0.3216781805
|  8> C 2.2457518878 0.7376809917 -0.4197531816
|  9> C -0.2549179932 0.7583619197 -0.4302892722
| 10> C -1.5846128733 0.4299043618 0.261211934
| 11> O -2.1877125978 -0.7632321851 -0.1980561999
| 12> H 0.9328803321 -1.7351497669 -0.474351832
| 13> H 0.2090874922 -1.577590095 1.1391229681
| 14> H 1.9536638526 -1.5509546099 0.9494682173
| 15> H 0.9886365841 0.7361798281 1.3164995284
| 16> H 2.2834076545 0.2931730115 -1.4118350134
| 17> H 3.1403564714 0.4424822567 0.1230583669
| 18> H 2.2514928519 1.8195549869 -0.5278808399
| 19> H -0.2750518029 0.3225839878 -1.431796083
| 20> H -0.1858185063 1.8412333178 -0.5438253365
| 21> H -1.4461947737 0.3883893143 1.3505375348
| 22> H -2.3221025122 1.2058641445 0.0430687741
| 23> H -1.5724017953 -1.4981723141 -0.0690774387
| 24> *
| 25>
| 26>                          ****END OF INPUT****

CARTESIAN COORDINATES (ANGSTROEM)
---------------------------------
  C      1.016068   -1.242469    0.492124
  C      0.991920    0.275496    0.321678
  C      2.245752    0.737681   -0.419753
  C     -0.254918    0.758362   -0.430289
  C     -1.584613    0.429904    0.261212
  O     -2.187713   -0.763232   -0.198056
  H      0.932880   -1.735150   -0.474352
  H      0.209087   -1.577590    1.139123
  H      1.953664   -1.550955    0.949468
  H      0.988637    0.736180    1.316500
  H      2.283408    0.293173   -1.411835
  H      3.140356    0.442482    0.123058
  H      2.251493    1.819555   -0.527881
  H     -0.275052    0.322584   -1.431796
  H     -0.185819    1.841233   -0.543825
  H     -1.446195    0.388389    1.350538
  H     -2.322103    1.205864    0.043069
  H     -1.572402   -1.498172   -0.069077

 Total Charge           Charge          ....    0
 Multiplicity           Mult            ....    1
 Number of Electrons    NEL             ....   50
 Basis Dimension        Dim             ....  179

ORBITAL ENERGIES
----------------

  NO   OCC          E(Eh)            E(eV)
   0   2.0000     -18.942569      -515.4535
   1   2.0000     -10.071821      -274.0682
   2   2.0000     -10.039804      -273.1970
   3   2.0000     -10.026273      -272.8288
   4   2.0000     -10.024817      -272.7891
   5   2.0000     -10.019309      -272.6393
   6   2.0000      -0.979716       -26.6594
   7   2.0000      -0.781377       -21.2623
   8   2.0000      -0.693487       -18.8707
   9   2.0000      -0.658111       -17.9081
  10   2.0000      -0.595430       -16.2025
  11   2.0000      -0.533048       -14.5050
  12   2.0000      -0.472286       -12.8515
  13   2.0000      -0.439788       -11.9672
  14   2.0000      -0.415231       -11.2990
  15   2.0000      -0.413950       -11.2642
  16   2.0000      -0.376738       -10.2516
  17   2.0000      -0.365917        -9.9571
  18   2.0000      -0.349700        -9.5158
  19   2.0000      -0.347051        -9.4437
  20   2.0000      -0.324563        -8.8318
  21   2.0000      -0.302753        -8.2383
  22   2.0000      -0.298611        -8.1256
  23   2.0000      -0.274523        -7.4702
  24   2.0000      -0.231792        -6.3074
  25   0.0000       0.060035         1.6336
  26   0.0000       0.091247         2.4830
  27   0.0000       0.106374         2.8946
  28   0.0000       0.119954         3.2641
  29   0.0000       0.125803         3.4233

MULLIKEN ATOMIC CHARGES
-----------------------
   0 C :   -0.533146
   1 C :   -0.028233
   2 C :   -0.478517
   3 C :   -0.270111
   4 C :   -0.193182
   5 O :   -0.423677
   6 H :    0.164174
   7 H :    0.146356
   8 H :    0.150188
   9 H :    0.148404
  10 H :    0.147602
  11 H :    0.146596
  12 H :    0.144790
  13 H :    0.163047
  14 H :    0.140764
  15 H :    0.132963
  16 H :    0.139678
  17 H :    0.302306
Sum of atomic charges:    0.0000000

LOEWDIN ATOMIC CHARGES
----------------------
   0 C :   -0.421981
   1 C :   -0.249011
   2 C :   -0.416782
   3 C :   -0.296756
   4 C :    0.001786
   5 O :   -0.624811
   6 H :    0.154711
   7 H :    0.150258
   8 H :    0.156864
   9 H :    0.155276
  10 H :    0.154355
  11 H :    0.152218
  12 H :    0.153874
  13 H :    0.169595
  14 H :    0.162390
  15 H :    0.157402
  16 H :    0.176967
  17 H :    0.263644

  Mayer bond orders larger than 0.100000
B(  0-C ,  1-C ) :   0.8689 B(  0-C ,  6-H ) :   0.9881 B(  0-C ,  7-H ) :   0.9644
B(  0-C ,  8-H ) :   0.9668 B(  1-C ,  2-C ) :   0.9236 B(  1-C ,  3-C ) :   0.9117
B(  1-C ,  9-H ) :   0.9547 B(  2-C , 10-H ) :   0.9852 B(  2-C , 11-H ) :   0.9753
B(  2-C , 12-H ) :   0.9742 B(  3-C ,  4-C ) :   0.8656 B(  3-C , 13-H ) :   0.9890
B(  3-C , 14-H ) :   0.9605 B(  4-C ,  5-O ) :   0.9565 B(  4-C , 15-H ) :   0.9901
B(  4-C , 16-H ) :   0.9759 B(  5-O , 17-H ) :   0.8834

Dispersion correction           -0.004406306
FINAL SINGLE POINT ENERGY      -272.896410746471

DIPOLE MOMENT
-------------

Method             : SCF
Type of density    : Electron Density
Multiplicity       :   1
Irrep              :   0
Energy             :  -272.9019989704294744 Eh
Relativity type    :
Basis              : AO
                                X                 Y                 Z
Electronic contribution:     -4.871576972      -0.539391266      -0.207584303
Nuclear contribution   :      5.557070832       0.633749030       0.431420052
                        -----------------------------------------
Total Dipole Moment    :      0.685493860       0.094357764       0.223835750
                        -----------------------------------------
Magnitude (a.u.)       :      0.727260382
Magnitude (Debye)      :      1.848548984

Rotational constants in cm-1:             0.208231             0.067802             0.056821
Rotational constants in MHz :          6242.615520          2032.646744          1703.456986

                             ****ORCA TERMINATED NORMALLY****
TOTAL RUN TIME: 0 days 0 hours 0 minutes 25 seconds 575 msec
