                         Program Version 6.0.0  -   RELEASE  -
|  1> ! r2scan-3c def2/J RI DEFGRID2 scfconv6 printgap
|  2> %output
|  3>     printlevel normal
|  4> end
|  5> %cpcm
|  6>     smd true
|  7>     smdsolvent "water"
|  8> end
|  9> * xyz 0 1
| 10> C 1.0160678746 -1.2424694595 0.4921239409
| 11> C 0.9919201823 0.2754957077 0.3216781805
| 12> C 2.2457518878 0.7376809917 -0.4197531816
| 13> C -0.2549179932 0.7583619197 -0.4302892722
| 14> C -1.5846128733 0.4299043618 0.261211934
| 15> O -2.1877125978 -0.7632321851 -0.1980561999
| 16> H 0.9328803321 -1.7351497669 -0.474351832
| 17> H 0.2090874922 -1.577590095 1.1391229681
| 18> H 1.9536638526 -1.5509546099 0.9494682173
| 19> H 0.9886365841 0.7361798281 1.3164995284
| 20> H 2.2834076545 0.2931730115 -1.4118350134
| 21> H 3.1403564714 0.4424822567 0.1230583669
| 22> H 2.2514928519 1.8195549869 -0.5278808399
| 23> H -0.2750518029 0.3225839878 -1.431796083
| 24> H -0.1858185063 1.8412333178 -0.5438253365
| 25> H -1.4461947737 0.3883893143 1.3505375348
| 26> H -2.3221025122 1.2058641445 0.0430687741
| 27> H -1.5724017953 -1.4981723141 -0.0690774387
| 28> *
| 29>
| 30>                          ****END OF INPUT****

CARTESIAN COORDINATES (ANGSTROEM)
---------------------------------
  C      1.016068   -1.242469    0.492124
  C      0.991920    0.275496    0.321678
  C      2.245752    0.737681   -0.419753
  C     -0.254918    0.758362   -0.430289
  C     -1.584613    0.429904    0.261212
  O     -2.187713   -0.763232   -0.198056
  H      0.932880   -1.735150   -0.474352
  H      0.209087   -1.577590    1.139123
  H      1.953664   -1.550955    0.949468
  H      0.988637    0.736180    1.316500
  H      2.283408    0.293173   -1.411835
  H      3.140356    0.442482    0.123058
  H      2.251493    1.819555   -0.527881
  H     -0.275052    0.322584   -1.431796
  H     -0.185819    1.841233   -0.543825
  H     -1.446195    0.388389    1.350538
  H     -2.322103    1.205864    0.043069
  H     -1.572402   -1.498172   -0.069077

 Total Charge           Charge          ....    0
 Multiplicity           Mult            ....    1
 Number of Electrons    NEL             ....   50
 Basis Dimension        Dim             ....  179

ORBITAL ENERGIES
----------------

  NO   OCC          E(Eh)            E(eV)
   0   2.0000     -18.948784      -515.6226
   1   2.0000     -10.066560      -273.9250
   2   2.0000     -10.026003      -272.8214
   3   2.0000     -10.014628      -272.5119
   4   2.0000     -10.008572      -272.3471
   5   2.0000     -10.006134      -272.2807
   6   2.0000      -0.984650       -26.7937
   7   2.0000      -0.768310       -20.9068
   8   2.0000      -0.684703       -18.6317
   9   2.0000      -0.643269       -17.5042
  10   2.0000      -0.589041       -16.0286
  11   2.0000      -0.520489       -14.1632
  12   2.0000      -0.468987       -12.7618
  13   2.0000      -0.429626       -11.6907
  14   2.0000      -0.406691       -11.0666
  15   2.0000      -0.402987       -10.9658
  16   2.0000      -0.369227       -10.0472
  17   2.0000      -0.353013        -9.6060
  18   2.0000      -0.339778        -9.2458
  19   2.0000      -0.336987        -9.1699
  20   2.0000      -0.318192        -8.6584
  21   2.0000      -0.291074        -7.9205
  22   2.0000      -0.284880        -7.7520
  23   2.0000      -0.268807        -7.3146
  24   2.0000      -0.237321        -6.4578
  25   0.0000       0.073207         1.9921
  26   0.0000       0.103931         2.8281
  27   0.0000       0.119268         3.2455
  28   0.0000       0.130869         3.5611
  29   0.0000       0.136268         3.7080

MULLIKEN ATOMIC CHARGES
-----------------------
   0 C :   -0.566109
   1 C :   -0.008094
   2 C :   -0.528483
   3 C :   -0.286843
   4 C :   -0.195385
   5 O :   -0.515728
   6 H :    0.173480
   7 H :    0.163904
   8 H :    0.158878
   9 H :    0.155938
  10 H :    0.158488
  11 H :    0.158244
  12 H :    0.155317
  13 H :    0.163258
  14 H :    0.156849
  15 H :    0.146833
  16 H :    0.152722
  17 H :    0.356731
Sum of atomic charges:    0.0000000

LOEWDIN ATOMIC CHARGES
----------------------
   0 C :   -0.426969
   1 C :   -0.245188
   2 C :   -0.426237
   3 C :   -0.296530
   4 C :   -0.000396
   5 O :   -0.664454
   6 H :    0.158287
   7 H :    0.156383
   8 H :    0.157855
   9 H :    0.157979
  10 H :    0.156277
  11 H :    0.154928
  12 H :    0.155519
  13 H :    0.169667
  14 H :    0.167500
  15 H :    0.165415
  16 H :    0.179838
  17 H :    0.280127

  Mayer bond orders larger than 0.100000
B(  0-C ,  1-C ) :   0.8705 B(  0-C ,  6-H ) :   0.9834 B(  0-C ,  7-H ) :   0.9615
B(  0-C ,  8-H ) :   0.9660 B(  1-C ,  2-C ) :   0.9082 B(  1-C ,  3-C ) :   0.9098
B(  1-C ,  9-H ) :   0.9568 B(  2-C , 10-H ) :   0.9844 B(  2-C , 11-H ) :   0.9731
B(  2-C , 12-H ) :   0.9728 B(  3-C ,  4-C ) :   0.8776 B(  3-C , 13-H ) :   0.9879
B(  3-C , 14-H ) :   0.9597 B(  4-C ,  5-O ) :   0.9388 B(  4-C , 15-H ) :   0.9797
B(  4-C , 16-H ) :   0.9730 B(  5-O , 17-H ) :   0.8572

Dispersion correction           -0.004406306
FINAL SINGLE POINT ENERGY      -272.902673263099

DIPOLE MOMENT
-------------

Method             : SCF
Type of density    : Electron Density
Multiplicity       :   1
Irrep              :   0
Energy             :  -272.9082614870574730 Eh
Relativity type    :
Basis              : AO
                                X                 Y                 Z
Electronic contribution:     -4.680691071      -0.535190957      -0.094742152
Nuclear contribution   :      5.557070832       0.633749030       0.431420052
                        -----------------------------------------
Total Dipole Moment    :      0.876379761       0.098558073       0.336677901
                        -----------------------------------------
Magnitude (a.u.)       :      0.943984739
Magnitude (Debye)      :      2.399418522

Rotational constants in cm-1:             0.208231             0.067802             0.056821
Rotational constants in MHz :          6242.615520          2032.646744          1703.456986

                             ****ORCA TERMINATED NORMALLY****
TOTAL RUN TIME: 0 days 0 hours 0 minutes 30 seconds 270 msec
