                         Program Version 6.0.0  -   RELEASE  -
|  1> ! pbe def2-sv(p) def2/J RI DEFGRID1 loosescf d4 GCP(DFT/SV(P)) printgap
|  2> %output
|  3>     printlevel normal
|  4> end
|  5> * xyz 0 1
|  6> C 4.7687515889 0.7265385337 -1.2258405488
|  7> C 3.4714393318 0.8326327712 -0.4282343328
|  8> C 3.2834014736 -0.3745249384 0.457808455
|  9> O 4.2175824804 -1.0544952035 0.8620408591
| 10> N 2.0171106837 -0.7463390383 0.7955606897
| 11> C 0.7707205625 -0.1996419559 0.4926064179
| 12> C 0.5289670533 1.1715218478 0.4213654806
| 13> C -0.737650493 1.6436527143 0.1321574611
| 14> C -1.786506895 0.7631215084 -0.0781452251
| 15> C -1.5595709553 -0.6053396657 0.0199572817
| 16> C -0.2945853718 -1.0829544578 0.3051833323
| 17> Cl -2.8622717764 -1.7250471005 -0.2148404695
| 18> Cl -3.3713711888 1.3647399844 -0.4414352465
| 19> H 5.6081600488 0.5669711579 -0.5537998035
| 20> H 4.935399146 1.6368799164 -1.7937494095
| 21> H 4.7247639608 -0.1142964707 -1.9136092136
| 22> H 2.6177315659 0.932599598 -1.0979015444
| 23> H 3.5242948105 1.7149747723 0.2128545219
| 24> H 1.9859816713 -1.6474649472 1.2617672941
| 25> H 1.3148794245 1.8775944265 0.6211003819
| 26> H -0.9219943978 2.7034853155 0.0773989844
| 27> H -0.1390520006 -2.1470763491 0.3763954021
| 28> *
| 29>
| 30>                          ****END OF INPUT****

CARTESIAN COORDINATES (ANGSTROEM)
---------------------------------
  C      4.768752    0.726539   -1.225841
  C      3.471439    0.832633   -0.428234
  C      3.283401   -0.374525    0.457808
  O      4.217582   -1.054495    0.862041
  N      2.017111   -0.746339    0.795561
  C      0.770721   -0.199642    0.492606
  C      0.528967    1.171522    0.421365
  C     -0.737650    1.643653    0.132157
  C     -1.786507    0.763122   -0.078145
  C     -1.559571   -0.605340    0.019957
  C     -0.294585   -1.082954    0.305183
  Cl    -2.862272   -1.725047   -0.214840
  Cl    -3.371371    1.364740   -0.441435
  H      5.608160    0.566971   -0.553800
  H      4.935399    1.636880   -1.793749
  H      4.724764   -0.114296   -1.913609
  H      2.617732    0.932600   -1.097902
  H      3.524295    1.714975    0.212855
  H      1.985982   -1.647465    1.261767
  H      1.314879    1.877594    0.621100
  H     -0.921994    2.703485    0.077399
  H     -0.139052   -2.147076    0.376395

 Total Charge           Charge          ....    0
 Multiplicity           Mult            ....    1
 Number of Electrons    NEL             ....  112
 Basis Dimension        Dim             ....  208

ORBITAL ENERGIES
----------------

  NO   OCC          E(Eh)            E(eV)
   0   2.0000    -100.653684     -2738.9260
   1   2.0000    -100.651010     -2738.8532
   2   2.0000     -18.729190      -509.6472
   3   2.0000     -14.043630      -382.1466
   4   2.0000      -9.998810      -272.0814
   5   2.0000      -9.973298      -271.3872
   6   2.0000      -9.966919      -271.2137
   7   2.0000      -9.965979      -271.1881
   8   2.0000      -9.923643      -270.0360
   9   2.0000      -9.923013      -270.0189
  10   2.0000      -9.918970      -269.9089
  11   2.0000      -9.908360      -269.6202
  12   2.0000      -9.883152      -268.9342
  13   2.0000      -9.189398      -250.0562
  14   2.0000      -9.186638      -249.9811
  15   2.0000      -7.020996      -191.0510
  16   2.0000      -7.018255      -190.9764
  17   2.0000      -7.009410      -190.7357
  18   2.0000      -7.008555      -190.7125
  19   2.0000      -7.006617      -190.6597
  20   2.0000      -7.005834      -190.6384
  21   2.0000      -0.950889       -25.8750
  22   2.0000      -0.871120       -23.7044
  23   2.0000      -0.841864       -22.9083
  24   2.0000      -0.789662       -21.4878
  25   2.0000      -0.768184       -20.9034
  26   2.0000      -0.712422       -19.3860
  27   2.0000      -0.691195       -18.8084
  28   2.0000      -0.671195       -18.2641
  29   2.0000      -0.608347       -16.5540
  30   2.0000      -0.582496       -15.8505
  31   2.0000      -0.566247       -15.4084
  32   2.0000      -0.522159       -14.2087
  33   2.0000      -0.504757       -13.7351
  34   2.0000      -0.460226       -12.5234
  35   2.0000      -0.457500       -12.4492
  36   2.0000      -0.437011       -11.8917
  37   2.0000      -0.427062       -11.6209
  38   2.0000      -0.421602       -11.4724
  39   2.0000      -0.408419       -11.1137
  40   2.0000      -0.392604       -10.6833
  41   2.0000      -0.373493       -10.1633
  42   2.0000      -0.368068       -10.0157
  43   2.0000      -0.364790        -9.9264
  44   2.0000      -0.352983        -9.6052
  45   2.0000      -0.335641        -9.1333
  46   2.0000      -0.325593        -8.8598
  47   2.0000      -0.315772        -8.5926
  48   2.0000      -0.313096        -8.5198
  49   2.0000      -0.310695        -8.4545
  50   2.0000      -0.290876        -7.9151
  51   2.0000      -0.267903        -7.2900
  52   2.0000      -0.263956        -7.1826
  53   2.0000      -0.240572        -6.5463
  54   2.0000      -0.215432        -5.8622
  55   2.0000      -0.208332        -5.6690
  56   0.0000      -0.066830        -1.8185
  57   0.0000      -0.062532        -1.7016
  58   0.0000      -0.026002        -0.7075
  59   0.0000      -0.012925        -0.3517
  60   0.0000       0.033706         0.9172

MULLIKEN ATOMIC CHARGES
-----------------------
   0 C :   -0.249518
   1 C :   -0.264040
   2 C :    0.056785
   3 O :   -0.207419
   4 N :   -0.183595
   5 C :    0.217329
   6 C :   -0.114805
   7 C :   -0.112519
   8 C :    0.090348
   9 C :    0.077253
  10 C :   -0.178133
  11 Cl:   -0.050053
  12 Cl:   -0.055286
  13 H :    0.122945
  14 H :    0.100257
  15 H :    0.107541
  16 H :    0.127513
  17 H :    0.129763
  18 H :    0.234908
  19 H :    0.053976
  20 H :    0.058206
  21 H :    0.038542
Sum of atomic charges:    0.0000000

LOEWDIN ATOMIC CHARGES
----------------------
   0 C :   -0.332260
   1 C :   -0.266009
   2 C :    0.032317
   3 O :   -0.185714
   4 N :   -0.108359
   5 C :   -0.000893
   6 C :   -0.139156
   7 C :   -0.124166
   8 C :   -0.164277
   9 C :   -0.146025
  10 C :   -0.152213
  11 Cl:    0.146690
  12 Cl:    0.141307
  13 H :    0.129808
  14 H :    0.120083
  15 H :    0.124124
  16 H :    0.133221
  17 H :    0.141432
  18 H :    0.243292
  19 H :    0.134313
  20 H :    0.137379
  21 H :    0.135107

  Mayer bond orders larger than 0.100000
B(  0-C ,  1-C ) :   1.1535 B(  0-C , 13-H ) :   0.9439 B(  0-C , 14-H ) :   0.9485
B(  0-C , 15-H ) :   0.9584 B(  1-C ,  2-C ) :   1.0134 B(  1-C , 16-H ) :   0.9023
B(  1-C , 17-H ) :   0.8870 B(  2-C ,  3-O ) :   2.0847 B(  2-C ,  4-N ) :   1.1618
B(  4-N ,  5-C ) :   1.0460 B(  4-N , 18-H ) :   0.8372 B(  5-C ,  6-C ) :   1.3331
B(  5-C , 10-C ) :   1.2911 B(  6-C ,  7-C ) :   1.3363 B(  6-C , 19-H ) :   0.9596
B(  7-C ,  8-C ) :   1.3755 B(  7-C , 20-H ) :   0.9637 B(  8-C ,  9-C ) :   1.4061
B(  8-C , 12-Cl) :   1.0343 B(  9-C , 10-C ) :   1.3838 B(  9-C , 11-Cl) :   1.0359
B( 10-C , 21-H ) :   0.9668

Dispersion correction           -0.028204972
FINAL SINGLE POINT ENERGY     -1397.090020764463

DIPOLE MOMENT
-------------

Method             : SCF
Type of density    : Electron Density
Multiplicity       :   1
Irrep              :   0
Energy             : -1397.1498545415577155 Eh
Relativity type    :
Basis              : AO
                                X                 Y                 Z
Electronic contribution:    -30.799227567      -5.128672508       1.630324513
Nuclear contribution   :     30.628316942       5.646056442      -1.737849078
                        -----------------------------------------
Total Dipole Moment    :     -0.170910624       0.517383934      -0.107524565
                        -----------------------------------------
Magnitude (a.u.)       :      0.555390051
Magnitude (Debye)      :      1.411689321

Rotational constants in cm-1:             0.044410             0.009200             0.008031
Rotational constants in MHz :          1331.391269           275.823076           240.755351

                             ****ORCA TERMINATED NORMALLY****
TOTAL RUN TIME: 0 days 0 hours 0 minutes 17 seconds 342 msec
