                         Program Version 6.0.0  -   RELEASE  -
|  1> ! r2scan-3c def2/J RI DEFGRID2 scfconv6 printgap
|  2> %output
|  3>     printlevel normal
|  4> end
|  5> * xyz 0 1
|  6> C -2.6883691759 -1.1812933351 -0.4166496004
|  7> C -2.447135912 0.1109043305 0.3556080375
|  8> C -1.177469636 0.8679755927 -0.0470128501
|  9> C 0.1272467268 0.3162014938 0.5354140781
| 10> C 0.6058995192 -0.9974128787 -0.1065793911
| 11> C 2.128960025 -0.8973317869 -0.1190172611
| 12> C 2.3619094952 0.5652574204 -0.4785558464
| 13> C 1.3014937602 1.3075072265 0.3390993938
| 14> H -3.6597622332 -1.5949118482 -0.1540415583
| 15> H -2.6777399141 -0.9910728884 -1.4875685988
| 16> H -1.931745912 -1.9254799667 -0.1906572834
| 17> H -3.30096737 0.7717463981 0.1853839934
| 18> H -2.4113845394 -0.1059159815 1.4255817082
| 19> H -1.103771425 0.9010044095 -1.1364951975
| 20> H -1.2839692873 1.8969971098 0.3068101229
| 21> H -0.0258421598 0.1551611556 1.6070692776
| 22> H 0.2607123617 -1.8738792945 0.4396963988
| 23> H 0.2411131461 -1.0618850916 -1.1325891731
| 24> H 2.5276123535 -1.1047948827 0.8756321655
| 25> H 2.5874892307 -1.5865675167 -0.826840828
| 26> H 3.3721019598 0.9019978001 -0.2500224741
| 27> H 2.1847341204 0.7114711125 -1.5452646072
| 28> H 1.71222513 1.5959957582 1.3070993457
| 29> H 0.9764477252 2.2160701823 -0.1662916493
| 30> *
| 31>
| 32>                          ****END OF INPUT****

CARTESIAN COORDINATES (ANGSTROEM)
---------------------------------
  C     -2.688369   -1.181293   -0.416650
  C     -2.447136    0.110904    0.355608
  C     -1.177470    0.867976   -0.047013
  C      0.127247    0.316201    0.535414
  C      0.605900   -0.997413   -0.106579
  C      2.128960   -0.897332   -0.119017
  C      2.361909    0.565257   -0.478556
  C      1.301494    1.307507    0.339099
  H     -3.659762   -1.594912   -0.154042
  H     -2.677740   -0.991073   -1.487569
  H     -1.931746   -1.925480   -0.190657
  H     -3.300967    0.771746    0.185384
  H     -2.411385   -0.105916    1.425582
  H     -1.103771    0.901004   -1.136495
  H     -1.283969    1.896997    0.306810
  H     -0.025842    0.155161    1.607069
  H      0.260712   -1.873879    0.439696
  H      0.241113   -1.061885   -1.132589
  H      2.527612   -1.104795    0.875632
  H      2.587489   -1.586568   -0.826841
  H      3.372102    0.901998   -0.250022
  H      2.184734    0.711471   -1.545265
  H      1.712225    1.595996    1.307099
  H      0.976448    2.216070   -0.166292

 Total Charge           Charge          ....    0
 Multiplicity           Mult            ....    1
 Number of Electrons    NEL             ....   64
 Basis Dimension        Dim             ....  232

ORBITAL ENERGIES
----------------

  NO   OCC          E(Eh)            E(eV)
   0   2.0000     -10.024820      -272.7892
   1   2.0000     -10.020503      -272.6718
   2   2.0000     -10.018067      -272.6055
   3   2.0000     -10.017999      -272.6036
   4   2.0000     -10.017610      -272.5930
   5   2.0000     -10.016628      -272.5663
   6   2.0000     -10.015887      -272.5461
   7   2.0000     -10.011088      -272.4156
   8   2.0000      -0.804696       -21.8969
   9   2.0000      -0.748109       -20.3571
  10   2.0000      -0.686298       -18.6751
  11   2.0000      -0.670622       -18.2486
  12   2.0000      -0.622900       -16.9500
  13   2.0000      -0.546437       -14.8693
  14   2.0000      -0.534050       -14.5322
  15   2.0000      -0.511843       -13.9280
  16   2.0000      -0.450937       -12.2706
  17   2.0000      -0.437037       -11.8924
  18   2.0000      -0.409657       -11.1473
  19   2.0000      -0.399579       -10.8731
  20   2.0000      -0.384234       -10.4555
  21   2.0000      -0.378629       -10.3030
  22   2.0000      -0.347146        -9.4463
  23   2.0000      -0.331609        -9.0235
  24   2.0000      -0.319191        -8.6856
  25   2.0000      -0.301399        -8.2015
  26   2.0000      -0.300243        -8.1700
  27   2.0000      -0.297554        -8.0969
  28   2.0000      -0.291202        -7.9240
  29   2.0000      -0.277647        -7.5552
  30   2.0000      -0.272395        -7.4122
  31   2.0000      -0.266878        -7.2621
  32   0.0000       0.084019         2.2863
  33   0.0000       0.089454         2.4342
  34   0.0000       0.094803         2.5797
  35   0.0000       0.115096         3.1319
  36   0.0000       0.127862         3.4793

MULLIKEN ATOMIC CHARGES
-----------------------
   0 C :   -0.493838
   1 C :   -0.221234
   2 C :   -0.336549
   3 C :    0.035872
   4 C :   -0.438354
   5 C :   -0.258797
   6 C :   -0.301032
   7 C :   -0.386005
   8 H :    0.143371
   9 H :    0.146179
  10 H :    0.151259
  11 H :    0.138715
  12 H :    0.132205
  13 H :    0.145834
  14 H :    0.145543
  15 H :    0.164946
  16 H :    0.156339
  17 H :    0.167924
  18 H :    0.147002
  19 H :    0.151159
  20 H :    0.149643
  21 H :    0.151848
  22 H :    0.154415
  23 H :    0.153553
Sum of atomic charges:    0.0000000

LOEWDIN ATOMIC CHARGES
----------------------
   0 C :   -0.426976
   1 C :   -0.314073
   2 C :   -0.301871
   3 C :   -0.223861
   4 C :   -0.303994
   5 C :   -0.302527
   6 C :   -0.303249
   7 C :   -0.299810
   8 H :    0.148760
   9 H :    0.149036
  10 H :    0.151602
  11 H :    0.151232
  12 H :    0.151984
  13 H :    0.155507
  14 H :    0.157241
  15 H :    0.159038
  16 H :    0.156422
  17 H :    0.158719
  18 H :    0.155522
  19 H :    0.155252
  20 H :    0.155281
  21 H :    0.154018
  22 H :    0.157482
  23 H :    0.159264

  Mayer bond orders larger than 0.100000
B(  0-C ,  1-C ) :   0.9021 B(  0-C ,  8-H ) :   0.9721 B(  0-C ,  9-H ) :   0.9873
B(  0-C , 10-H ) :   0.9739 B(  1-C ,  2-C ) :   0.8836 B(  1-C , 11-H ) :   0.9661
B(  1-C , 12-H ) :   0.9820 B(  2-C ,  3-C ) :   0.8914 B(  2-C , 13-H ) :   0.9905
B(  2-C , 14-H ) :   0.9822 B(  3-C ,  4-C ) :   0.8546 B(  3-C ,  7-C ) :   0.9091
B(  3-C , 15-H ) :   0.9793 B(  4-C ,  5-C ) :   0.8954 B(  4-C , 16-H ) :   0.9560
B(  4-C , 17-H ) :   1.0016 B(  5-C ,  6-C ) :   0.8993 B(  5-C , 18-H ) :   0.9831
B(  5-C , 19-H ) :   0.9613 B(  6-C ,  7-C ) :   0.9277 B(  6-C , 20-H ) :   0.9536
B(  6-C , 21-H ) :   0.9961 B(  7-C , 22-H ) :   0.9790 B(  7-C , 23-H ) :   0.9804

Dispersion correction           -0.007092587
FINAL SINGLE POINT ENERGY      -314.379235367160

DIPOLE MOMENT
-------------

Method             : SCF
Type of density    : Electron Density
Multiplicity       :   1
Irrep              :   0
Energy             :  -314.3824294277609397 Eh
Relativity type    :
Basis              : AO
                                X                 Y                 Z
Electronic contribution:      2.381766380       1.040803683       0.736570035
Nuclear contribution   :     -2.376129449      -1.026409980      -0.696584516
                        -----------------------------------------
Total Dipole Moment    :      0.005636931       0.014393703       0.039985519
                        -----------------------------------------
Magnitude (a.u.)       :      0.042869516
Magnitude (Debye)      :      0.108965651

Rotational constants in cm-1:             0.134819             0.039418             0.033312
Rotational constants in MHz :          4041.759013          1181.715596           998.654130

                             ****ORCA TERMINATED NORMALLY****
TOTAL RUN TIME: 0 days 0 hours 0 minutes 25 seconds 141 msec
