                         Program Version 6.0.0  -   RELEASE  -
|  1> ! pbe def2-sv(p) def2/J RI DEFGRID1 loosescf d4 GCP(DFT/SV(P)) printgap
|  2> %output
|  3>     printlevel normal
|  4> end
|  5> * xyz 0 1
|  6> C -2.1061004056 -1.0793645331 -0.488093834
|  7> C -1.4651891595 0.0108604972 0.3639302899
|  8> C -0.0650958413 0.4232281481 -0.113159507
|  9> C 0.3160751148 1.7635682937 0.5148047142
| 10> C 0.971688552 -0.6556170834 0.2222829838
| 11> C 2.3113501306 -0.4494387846 -0.4766630335
| 12> H -3.1109208192 -1.2918198445 -0.1307262185
| 13> H -2.1716069417 -0.759837978 -1.5258879738
| 14> H -1.5329402227 -2.0020664227 -0.4496542393
| 15> H -1.4040585812 -0.3246013981 1.4018055131
| 16> H -2.1133917252 0.8899424649 0.3405320593
| 17> H -0.09672943 0.5470932248 -1.2019068487
| 18> H -0.414972379 2.5262269996 0.2557297114
| 19> H 1.2886881199 2.097016983 0.164324606
| 20> H 0.3502939508 1.6755883596 1.5988560789
| 21> H 1.125135227 -0.6767223339 1.3038852178
| 22> H 0.5793172899 -1.6298000647 -0.0739336233
| 23> H 2.7944969031 0.4652246098 -0.1438082754
| 24> H 2.1724954286 -0.3931890865 -1.5542177623
| 25> H 2.9783536084 -1.2807934394 -0.2602968654
| 26> *
| 27>
| 28>                          ****END OF INPUT****

CARTESIAN COORDINATES (ANGSTROEM)
---------------------------------
  C     -2.106100   -1.079365   -0.488094
  C     -1.465189    0.010860    0.363930
  C     -0.065096    0.423228   -0.113160
  C      0.316075    1.763568    0.514805
  C      0.971689   -0.655617    0.222283
  C      2.311350   -0.449439   -0.476663
  H     -3.110921   -1.291820   -0.130726
  H     -2.171607   -0.759838   -1.525888
  H     -1.532940   -2.002066   -0.449654
  H     -1.404059   -0.324601    1.401806
  H     -2.113392    0.889942    0.340532
  H     -0.096729    0.547093   -1.201907
  H     -0.414972    2.526227    0.255730
  H      1.288688    2.097017    0.164325
  H      0.350294    1.675588    1.598856
  H      1.125135   -0.676722    1.303885
  H      0.579317   -1.629800   -0.073934
  H      2.794497    0.465225   -0.143808
  H      2.172495   -0.393189   -1.554218
  H      2.978354   -1.280793   -0.260297

 Total Charge           Charge          ....    0
 Multiplicity           Mult            ....    1
 Number of Electrons    NEL             ....   50
 Basis Dimension        Dim             ....  112

ORBITAL ENERGIES
----------------

  NO   OCC          E(Eh)            E(eV)
   0   2.0000      -9.887460      -269.0515
   1   2.0000      -9.877958      -268.7929
   2   2.0000      -9.877425      -268.7784
   3   2.0000      -9.869451      -268.5614
   4   2.0000      -9.869316      -268.5577
   5   2.0000      -9.867654      -268.5125
   6   2.0000      -0.733701       -19.9650
   7   2.0000      -0.670244       -18.2383
   8   2.0000      -0.638015       -17.3613
   9   2.0000      -0.568502       -15.4697
  10   2.0000      -0.536856       -14.6086
  11   2.0000      -0.491887       -13.3849
  12   2.0000      -0.413677       -11.2567
  13   2.0000      -0.400085       -10.8869
  14   2.0000      -0.392368       -10.6769
  15   2.0000      -0.367790       -10.0081
  16   2.0000      -0.361945        -9.8490
  17   2.0000      -0.336680        -9.1615
  18   2.0000      -0.321614        -8.7516
  19   2.0000      -0.319072        -8.6824
  20   2.0000      -0.302347        -8.2273
  21   2.0000      -0.298458        -8.1215
  22   2.0000      -0.277103        -7.5404
  23   2.0000      -0.266454        -7.2506
  24   2.0000      -0.265329        -7.2200
  25   0.0000       0.037861         1.0302
  26   0.0000       0.057484         1.5642
  27   0.0000       0.062069         1.6890
  28   0.0000       0.069920         1.9026
  29   0.0000       0.098727         2.6865

MULLIKEN ATOMIC CHARGES
-----------------------
   0 C :   -0.270521
   1 C :   -0.146722
   2 C :   -0.173388
   3 C :   -0.239626
   4 C :   -0.170429
   5 C :   -0.265906
   6 H :    0.100347
   7 H :    0.095999
   8 H :    0.104281
   9 H :    0.076364
  10 H :    0.077959
  11 H :    0.062714
  12 H :    0.095992
  13 H :    0.100899
  14 H :    0.090934
  15 H :    0.077407
  16 H :    0.084957
  17 H :    0.102929
  18 H :    0.096067
  19 H :    0.099740
Sum of atomic charges:   -0.0000000

LOEWDIN ATOMIC CHARGES
----------------------
   0 C :   -0.341396
   1 C :   -0.224710
   2 C :   -0.152231
   3 C :   -0.329547
   4 C :   -0.225856
   5 C :   -0.340411
   6 H :    0.119287
   7 H :    0.116286
   8 H :    0.115285
   9 H :    0.113905
  10 H :    0.112893
  11 H :    0.110312
  12 H :    0.116472
  13 H :    0.115658
  14 H :    0.116480
  15 H :    0.113251
  16 H :    0.112911
  17 H :    0.115687
  18 H :    0.116715
  19 H :    0.119010

  Mayer bond orders larger than 0.100000
B(  0-C ,  1-C ) :   1.1609 B(  0-C ,  6-H ) :   0.9503 B(  0-C ,  7-H ) :   0.9532
B(  0-C ,  8-H ) :   0.9462 B(  1-C ,  2-C ) :   1.0784 B(  1-C ,  9-H ) :   0.9185
B(  1-C , 10-H ) :   0.9258 B(  2-C ,  3-C ) :   1.1085 B(  2-C ,  4-C ) :   1.0801
B(  2-C , 11-H ) :   0.9039 B(  3-C , 12-H ) :   0.9468 B(  3-C , 13-H ) :   0.9472
B(  3-C , 14-H ) :   0.9488 B(  4-C ,  5-C ) :   1.1574 B(  4-C , 15-H ) :   0.9191
B(  4-C , 16-H ) :   0.9213 B(  5-C , 17-H ) :   0.9489 B(  5-C , 18-H ) :   0.9532
B(  5-C , 19-H ) :   0.9507

Dispersion correction           -0.014786662
FINAL SINGLE POINT ENERGY      -236.448885521220

DIPOLE MOMENT
-------------

Method             : SCF
Type of density    : Electron Density
Multiplicity       :   1
Irrep              :   0
Energy             :  -236.5168336428325802 Eh
Relativity type    :
Basis              : AO
                                X                 Y                 Z
Electronic contribution:     -0.429240010       0.135093452       0.248644208
Nuclear contribution   :      0.416694070      -0.147983598      -0.258274477
                        -----------------------------------------
Total Dipole Moment    :     -0.012545940      -0.012890147      -0.009630269
                        -----------------------------------------
Magnitude (a.u.)       :      0.020403396
Magnitude (Debye)      :      0.051861311

Rotational constants in cm-1:             0.154718             0.075455             0.056275
Rotational constants in MHz :          4638.326403          2262.082942          1687.094107

                             ****ORCA TERMINATED NORMALLY****
TOTAL RUN TIME: 0 days 0 hours 0 minutes 8 seconds 29 msec
