                         Program Version 6.0.0  -   RELEASE  -
|  1> ! pbe def2-sv(p) def2/J RI DEFGRID1 loosescf d4 GCP(DFT/SV(P)) printgap
|  2> %output
|  3>     printlevel normal
|  4> end
|  5> * xyz 0 1
|  6> C -1.155952264 -1.0519087971 -1.4597949228
|  7> C -1.2860840418 0.0651981415 -0.4254432366
|  8> C -1.9586899106 -0.4817044255 0.8346322405
|  9> C 0.0257127214 0.8601015307 -0.2101974435
| 10> C -0.2165115035 2.0013137241 0.7851093294
| 11> C 1.3357826961 0.1265689543 0.1710532901
| 12> C 1.2145203729 -0.907844631 1.2868994383
| 13> C 2.049094874 -0.4951723133 -1.0319190447
| 14> H -0.6608640112 -0.6927084292 -2.358484818
| 15> H -0.5970712349 -1.8935563416 -1.0606342563
| 16> H -2.1452511622 -1.4117594246 -1.7365660386
| 17> H -1.980333776 0.8053013961 -0.8477190534
| 18> H -1.4058472088 -1.3110882877 1.261239128
| 19> H -2.9526884924 -0.8425343812 0.5754460862
| 20> H -2.0713725624 0.2895336594 1.5902245696
| 21> H 0.229682298 1.3307575057 -1.1814032128
| 22> H -1.152710669 2.5101491181 0.5665727284
| 23> H 0.5877159787 2.731319364 0.7227749245
| 24> H -0.2545066257 1.6315925131 1.8062077367
| 25> H 1.9994773799 0.9183312172 0.5426831812
| 26> H 2.2093846203 -1.2011613588 1.6176967058
| 27> H 0.6810456318 -0.5033241774 2.1421557985
| 28> H 0.7045220444 -1.8020250611 0.9396342366
| 29> H 2.1428445411 0.2267563423 -1.8401979828
| 30> H 1.5222465247 -1.3660325633 -1.4072309815
| 31> H 3.0499059706 -0.8084867772 -0.74060348
| 32> *
| 33>
| 34>                          ****END OF INPUT****

CARTESIAN COORDINATES (ANGSTROEM)
---------------------------------
  C     -1.155952   -1.051909   -1.459795
  C     -1.286084    0.065198   -0.425443
  C     -1.958690   -0.481704    0.834632
  C      0.025713    0.860102   -0.210197
  C     -0.216512    2.001314    0.785109
  C      1.335783    0.126569    0.171053
  C      1.214520   -0.907845    1.286899
  C      2.049095   -0.495172   -1.031919
  H     -0.660864   -0.692708   -2.358485
  H     -0.597071   -1.893556   -1.060634
  H     -2.145251   -1.411759   -1.736566
  H     -1.980334    0.805301   -0.847719
  H     -1.405847   -1.311088    1.261239
  H     -2.952688   -0.842534    0.575446
  H     -2.071373    0.289534    1.590225
  H      0.229682    1.330758   -1.181403
  H     -1.152711    2.510149    0.566573
  H      0.587716    2.731319    0.722775
  H     -0.254507    1.631593    1.806208
  H      1.999477    0.918331    0.542683
  H      2.209385   -1.201161    1.617697
  H      0.681046   -0.503324    2.142156
  H      0.704522   -1.802025    0.939634
  H      2.142845    0.226756   -1.840198
  H      1.522247   -1.366033   -1.407231
  H      3.049906   -0.808487   -0.740603

 Total Charge           Charge          ....    0
 Multiplicity           Mult            ....    1
 Number of Electrons    NEL             ....   66
 Basis Dimension        Dim             ....  148

ORBITAL ENERGIES
----------------

  NO   OCC          E(Eh)            E(eV)
   0   2.0000      -9.889871      -269.1171
   1   2.0000      -9.889284      -269.1011
   2   2.0000      -9.887296      -269.0470
   3   2.0000      -9.869023      -268.5498
   4   2.0000      -9.867861      -268.5181
   5   2.0000      -9.867714      -268.5141
   6   2.0000      -9.866292      -268.4755
   7   2.0000      -9.865915      -268.4652
   8   2.0000      -0.744162       -20.2497
   9   2.0000      -0.694639       -18.9021
  10   2.0000      -0.651410       -17.7258
  11   2.0000      -0.612630       -16.6705
  12   2.0000      -0.599696       -16.3186
  13   2.0000      -0.556360       -15.1393
  14   2.0000      -0.518515       -14.1095
  15   2.0000      -0.466352       -12.6901
  16   2.0000      -0.425077       -11.5669
  17   2.0000      -0.397697       -10.8219
  18   2.0000      -0.396510       -10.7896
  19   2.0000      -0.378086       -10.2882
  20   2.0000      -0.371296       -10.1035
  21   2.0000      -0.354790        -9.6543
  22   2.0000      -0.344613        -9.3774
  23   2.0000      -0.340700        -9.2709
  24   2.0000      -0.333597        -9.0776
  25   2.0000      -0.321111        -8.7379
  26   2.0000      -0.313821        -8.5395
  27   2.0000      -0.303492        -8.2584
  28   2.0000      -0.290535        -7.9059
  29   2.0000      -0.285543        -7.7700
  30   2.0000      -0.264427        -7.1954
  31   2.0000      -0.262255        -7.1363
  32   2.0000      -0.250049        -6.8042
  33   0.0000       0.026190         0.7127
  34   0.0000       0.057016         1.5515
  35   0.0000       0.060845         1.6557
  36   0.0000       0.065054         1.7702
  37   0.0000       0.082185         2.2364

MULLIKEN ATOMIC CHARGES
-----------------------
   0 C :   -0.240403
   1 C :   -0.155267
   2 C :   -0.255497
   3 C :   -0.105812
   4 C :   -0.251328
   5 C :   -0.154536
   6 C :   -0.249484
   7 C :   -0.244244
   8 H :    0.097350
   9 H :    0.107413
  10 H :    0.093071
  11 H :    0.064480
  12 H :    0.098657
  13 H :    0.093301
  14 H :    0.097393
  15 H :    0.056251
  16 H :    0.094728
  17 H :    0.096032
  18 H :    0.105226
  19 H :    0.062470
  20 H :    0.093902
  21 H :    0.104650
  22 H :    0.107746
  23 H :    0.093371
  24 H :    0.097771
  25 H :    0.092761
Sum of atomic charges:    0.0000000

LOEWDIN ATOMIC CHARGES
----------------------
   0 C :   -0.330471
   1 C :   -0.146769
   2 C :   -0.334141
   3 C :   -0.137307
   4 C :   -0.330160
   5 C :   -0.146389
   6 C :   -0.330299
   7 C :   -0.331297
   8 H :    0.116311
   9 H :    0.114265
  10 H :    0.116958
  11 H :    0.115070
  12 H :    0.117056
  13 H :    0.117805
  14 H :    0.116775
  15 H :    0.113370
  16 H :    0.115478
  17 H :    0.116799
  18 H :    0.115592
  19 H :    0.115177
  20 H :    0.118253
  21 H :    0.116381
  22 H :    0.114669
  23 H :    0.114535
  24 H :    0.116428
  25 H :    0.115911

  Mayer bond orders larger than 0.100000
B(  0-C ,  1-C ) :   1.1309 B(  0-C ,  8-H ) :   0.9414 B(  0-C ,  9-H ) :   0.9349
B(  0-C , 10-H ) :   0.9445 B(  1-C ,  2-C ) :   1.1103 B(  1-C ,  3-C ) :   1.0580
B(  1-C , 11-H ) :   0.8890 B(  2-C , 12-H ) :   0.9404 B(  2-C , 13-H ) :   0.9460
B(  2-C , 14-H ) :   0.9439 B(  3-C ,  4-C ) :   1.1158 B(  3-C ,  5-C ) :   1.0310
B(  3-C , 15-H ) :   0.8851 B(  4-C , 16-H ) :   0.9450 B(  4-C , 17-H ) :   0.9428
B(  4-C , 18-H ) :   0.9393 B(  5-C ,  6-C ) :   1.1243 B(  5-C ,  7-C ) :   1.1184
B(  5-C , 19-H ) :   0.8962 B(  6-C , 20-H ) :   0.9421 B(  6-C , 21-H ) :   0.9394
B(  6-C , 22-H ) :   0.9341 B(  7-C , 23-H ) :   0.9471 B(  7-C , 24-H ) :   0.9389
B(  7-C , 25-H ) :   0.9480

Dispersion correction           -0.024197060
FINAL SINGLE POINT ENERGY      -314.866432760859

DIPOLE MOMENT
-------------

Method             : SCF
Type of density    : Electron Density
Multiplicity       :   1
Irrep              :   0
Energy             :  -314.9528831801375759 Eh
Relativity type    :
Basis              : AO
                                X                 Y                 Z
Electronic contribution:      0.095730933       1.345327388      -0.564848877
Nuclear contribution   :     -0.088019031      -1.303046172       0.555199619
                        -----------------------------------------
Total Dipole Moment    :      0.007711902       0.042281216      -0.009649258
                        -----------------------------------------
Magnitude (a.u.)       :      0.044048642
Magnitude (Debye)      :      0.111962751

Rotational constants in cm-1:             0.072030             0.053894             0.045423
Rotational constants in MHz :          2159.398424          1615.709634          1361.749150

                             ****ORCA TERMINATED NORMALLY****
TOTAL RUN TIME: 0 days 0 hours 0 minutes 11 seconds 693 msec
