                         Program Version 6.0.0  -   RELEASE  -
|  1> ! pbe def2-sv(p) def2/J RI DEFGRID1 loosescf d4 GCP(DFT/SV(P)) printgap
|  2> %output
|  3>     printlevel normal
|  4> end
|  5> * xyz 0 1
|  6> C -0.3587103789 2.3946061292 0.1630675532
|  7> N -0.1121108175 1.1461912213 -0.5372392734
|  8> C -1.2634304606 0.4566097943 -1.0300312026
|  9> C -2.0048634614 -0.3708184802 0.0463474822
| 10> F -3.2397961677 0.1085173084 0.3038162389
| 11> F -2.1853181498 -1.6572490324 -0.3138441909
| 12> F -1.3685207723 -0.3961268834 1.2252431613
| 13> C 1.0635221229 0.4520619564 -0.27747292
| 14> C 1.212186748 -0.905800272 -0.5789403185
| 15> C 2.4128964805 -1.5549023368 -0.3606074835
| 16> C 3.4989270825 -0.8817854408 0.1692022023
| 17> C 3.3621569081 0.4598317399 0.481104287
| 18> C 2.1681293727 1.1188097933 0.2648245748
| 19> H -0.2058549632 2.2877089405 1.2404741415
| 20> H -1.3849809701 2.7071521753 -0.008723
| 21> H 0.3019915882 3.1733204458 -0.2179620601
| 22> H -1.979223379 1.1819325708 -1.4247368327
| 23> H -0.9865489681 -0.2236895333 -1.8388366099
| 24> H 0.3938715637 -1.4883561775 -0.9715109134
| 25> H 2.4922119704 -2.6048677362 -0.6018009565
| 26> H 4.4322407614 -1.3949684916 0.3413865844
| 27> H 4.1956567246 1.0037437963 0.9004470523
| 28> H 2.1043895687 2.1629013248 0.5177862233
| 29> *
| 30>
| 31>                          ****END OF INPUT****

CARTESIAN COORDINATES (ANGSTROEM)
---------------------------------
  C     -0.358710    2.394606    0.163068
  N     -0.112111    1.146191   -0.537239
  C     -1.263430    0.456610   -1.030031
  C     -2.004863   -0.370818    0.046347
  F     -3.239796    0.108517    0.303816
  F     -2.185318   -1.657249   -0.313844
  F     -1.368521   -0.396127    1.225243
  C      1.063522    0.452062   -0.277473
  C      1.212187   -0.905800   -0.578940
  C      2.412896   -1.554902   -0.360607
  C      3.498927   -0.881785    0.169202
  C      3.362157    0.459832    0.481104
  C      2.168129    1.118810    0.264825
  H     -0.205855    2.287709    1.240474
  H     -1.384981    2.707152   -0.008723
  H      0.301992    3.173320   -0.217962
  H     -1.979223    1.181933   -1.424737
  H     -0.986549   -0.223690   -1.838837
  H      0.393872   -1.488356   -0.971511
  H      2.492212   -2.604868   -0.601801
  H      4.432241   -1.394968    0.341387
  H      4.195657    1.003744    0.900447
  H      2.104390    2.162901    0.517786

 Total Charge           Charge          ....    0
 Multiplicity           Mult            ....    1
 Number of Electrons    NEL             ....   98
 Basis Dimension        Dim             ....  202

ORBITAL ENERGIES
----------------

  NO   OCC          E(Eh)            E(eV)
   0   2.0000     -24.289462      -660.9499
   1   2.0000     -24.285973      -660.8549
   2   2.0000     -24.285162      -660.8329
   3   2.0000     -14.029038      -381.7495
   4   2.0000     -10.124193      -275.4933
   5   2.0000      -9.951059      -270.7821
   6   2.0000      -9.932173      -270.2682
   7   2.0000      -9.925787      -270.0944
   8   2.0000      -9.888748      -269.0865
   9   2.0000      -9.888062      -269.0679
  10   2.0000      -9.884360      -268.9671
  11   2.0000      -9.884097      -268.9599
  12   2.0000      -9.880500      -268.8621
  13   2.0000      -1.191024       -32.4094
  14   2.0000      -1.098773       -29.8991
  15   2.0000      -1.095086       -29.7988
  16   2.0000      -0.881004       -23.9733
  17   2.0000      -0.767077       -20.8732
  18   2.0000      -0.705975       -19.2105
  19   2.0000      -0.676476       -18.4079
  20   2.0000      -0.662717       -18.0335
  21   2.0000      -0.620412       -16.8823
  22   2.0000      -0.592323       -16.1179
  23   2.0000      -0.543707       -14.7950
  24   2.0000      -0.534245       -14.5375
  25   2.0000      -0.524998       -14.2859
  26   2.0000      -0.523151       -14.2357
  27   2.0000      -0.500509       -13.6195
  28   2.0000      -0.479517       -13.0483
  29   2.0000      -0.445512       -12.1230
  30   2.0000      -0.430890       -11.7251
  31   2.0000      -0.407410       -11.0862
  32   2.0000      -0.405017       -11.0211
  33   2.0000      -0.398239       -10.8366
  34   2.0000      -0.396472       -10.7886
  35   2.0000      -0.382118       -10.3980
  36   2.0000      -0.379116       -10.3163
  37   2.0000      -0.368886       -10.0379
  38   2.0000      -0.358594        -9.7579
  39   2.0000      -0.352407        -9.5895
  40   2.0000      -0.344265        -9.3679
  41   2.0000      -0.340563        -9.2672
  42   2.0000      -0.337486        -9.1835
  43   2.0000      -0.329484        -8.9657
  44   2.0000      -0.312336        -8.4991
  45   2.0000      -0.294925        -8.0253
  46   2.0000      -0.259399        -7.0586
  47   2.0000      -0.224535        -6.1099
  48   2.0000      -0.176230        -4.7955
  49   0.0000      -0.030408        -0.8274
  50   0.0000      -0.016546        -0.4502
  51   0.0000       0.028196         0.7673
  52   0.0000       0.041334         1.1247
  53   0.0000       0.054996         1.4965

MULLIKEN ATOMIC CHARGES
-----------------------
   0 C :   -0.177364
   1 N :   -0.233695
   2 C :   -0.155461
   3 C :    0.409641
   4 F :   -0.151830
   5 F :   -0.146250
   6 F :   -0.128501
   7 C :    0.251125
   8 C :   -0.165968
   9 C :   -0.063348
  10 C :   -0.047218
  11 C :   -0.054647
  12 C :   -0.159627
  13 H :    0.118975
  14 H :    0.116128
  15 H :    0.124550
  16 H :    0.126924
  17 H :    0.133706
  18 H :    0.030765
  19 H :    0.049427
  20 H :    0.045032
  21 H :    0.048471
  22 H :    0.029164
Sum of atomic charges:    0.0000000

LOEWDIN ATOMIC CHARGES
----------------------
   0 C :   -0.251181
   1 N :   -0.059563
   2 C :   -0.191324
   3 C :    0.105927
   4 F :   -0.058491
   5 F :   -0.052892
   6 F :   -0.036516
   7 C :    0.007040
   8 C :   -0.166602
   9 C :   -0.114352
  10 C :   -0.152667
  11 C :   -0.115202
  12 C :   -0.160634
  13 H :    0.117827
  14 H :    0.122650
  15 H :    0.119715
  16 H :    0.137249
  17 H :    0.138536
  18 H :    0.119780
  19 H :    0.123299
  20 H :    0.121000
  21 H :    0.122544
  22 H :    0.123859

  Mayer bond orders larger than 0.100000
B(  0-C ,  1-N ) :   1.0185 B(  0-C , 13-H ) :   0.9393 B(  0-C , 14-H ) :   0.9454
B(  0-C , 15-H ) :   0.9420 B(  1-N ,  2-C ) :   1.0986 B(  1-N ,  7-C ) :   1.0972
B(  2-C ,  3-C ) :   0.9846 B(  2-C , 16-H ) :   0.9056 B(  2-C , 17-H ) :   0.8954
B(  3-C ,  4-F ) :   1.1529 B(  3-C ,  5-F ) :   1.1386 B(  3-C ,  6-F ) :   1.1852
B(  7-C ,  8-C ) :   1.3136 B(  7-C , 12-C ) :   1.3232 B(  8-C ,  9-C ) :   1.3952
B(  8-C , 18-H ) :   0.9480 B(  9-C , 10-C ) :   1.3681 B(  9-C , 19-H ) :   0.9597
B( 10-C , 11-C ) :   1.3659 B( 10-C , 20-H ) :   0.9685 B( 11-C , 12-C ) :   1.3878
B( 11-C , 21-H ) :   0.9609 B( 12-C , 22-H ) :   0.9568

Dispersion correction           -0.026055033
FINAL SINGLE POINT ENERGY      -701.826102673707

DIPOLE MOMENT
-------------

Method             : SCF
Type of density    : Electron Density
Multiplicity       :   1
Irrep              :   0
Energy             :  -701.9191487419975601 Eh
Relativity type    :
Basis              : AO
                                X                 Y                 Z
Electronic contribution:    -15.192748367      -7.474306818       2.667407035
Nuclear contribution   :     15.078641656       8.192401333      -3.064771381
                        -----------------------------------------
Total Dipole Moment    :     -0.114106711       0.718094515      -0.397364346
                        -----------------------------------------
Magnitude (a.u.)       :      0.828600324
Magnitude (Debye)      :      2.106134647

Rotational constants in cm-1:             0.051829             0.017572             0.014687
Rotational constants in MHz :          1553.780321           526.784992           440.314034

                             ****ORCA TERMINATED NORMALLY****
TOTAL RUN TIME: 0 days 0 hours 0 minutes 15 seconds 452 msec
