                         Program Version 6.0.0  -   RELEASE  -
|  1> ! pbe def2-sv(p) def2/J RI DEFGRID1 loosescf d4 GCP(DFT/SV(P)) printgap
|  2> %output
|  3>     printlevel normal
|  4> end
|  5> * xyz 0 1
|  6> C -2.1683138467 0.6495366863 0.5713585472
|  7> C -1.3428005146 0.2970436804 -0.6618789775
|  8> C -0.5420573556 -0.9958592763 -0.5013941242
|  9> C 0.582005778 -0.88628582 0.5399294375
| 10> C 1.5613073425 0.0919643731 0.1618618008
| 11> N 2.3474571414 0.8670367306 -0.1459666559
| 12> H -2.8110863404 -0.1825320336 0.8502169558
| 13> H -1.531442285 0.8976219721 1.4168956464
| 14> H -2.7959782425 1.5127278666 0.3651011901
| 15> H -2.0155862819 0.1780882619 -1.5137398576
| 16> H -0.6604624324 1.1188625404 -0.8928210902
| 17> H -0.1043687484 -1.2649431217 -1.4650989506
| 18> H -1.2122161374 -1.8014328592 -0.1968026759
| 19> H 0.1761157816 -0.6070650444 1.5143883133
| 20> H 1.0920161012 -1.8475412189 0.6409620589
| 21> *
| 22>
| 23>                          ****END OF INPUT****

CARTESIAN COORDINATES (ANGSTROEM)
---------------------------------
  C     -2.168314    0.649537    0.571359
  C     -1.342801    0.297044   -0.661879
  C     -0.542057   -0.995859   -0.501394
  C      0.582006   -0.886286    0.539929
  C      1.561307    0.091964    0.161862
  N      2.347457    0.867037   -0.145967
  H     -2.811086   -0.182532    0.850217
  H     -1.531442    0.897622    1.416896
  H     -2.795978    1.512728    0.365101
  H     -2.015586    0.178088   -1.513740
  H     -0.660462    1.118863   -0.892821
  H     -0.104369   -1.264943   -1.465099
  H     -1.212216   -1.801433   -0.196803
  H      0.176116   -0.607065    1.514388
  H      1.092016   -1.847541    0.640962

 Total Charge           Charge          ....    0
 Multiplicity           Mult            ....    1
 Number of Electrons    NEL             ....   46
 Basis Dimension        Dim             ....  102

ORBITAL ENERGIES
----------------

  NO   OCC          E(Eh)            E(eV)
   0   2.0000     -13.975163      -380.2835
   1   2.0000      -9.935730      -270.3650
   2   2.0000      -9.924919      -270.0708
   3   2.0000      -9.911033      -269.6929
   4   2.0000      -9.897351      -269.3206
   5   2.0000      -9.885469      -268.9973
   6   2.0000      -0.813602       -22.1392
   7   2.0000      -0.749125       -20.3847
   8   2.0000      -0.685764       -18.6606
   9   2.0000      -0.608784       -16.5659
  10   2.0000      -0.534288       -14.5387
  11   2.0000      -0.463400       -12.6098
  12   2.0000      -0.445549       -12.1240
  13   2.0000      -0.422138       -11.4870
  14   2.0000      -0.381270       -10.3749
  15   2.0000      -0.372279       -10.1302
  16   2.0000      -0.359531        -9.7833
  17   2.0000      -0.311533        -8.4772
  18   2.0000      -0.309049        -8.4096
  19   2.0000      -0.307632        -8.3711
  20   2.0000      -0.292759        -7.9664
  21   2.0000      -0.283635        -7.7181
  22   2.0000      -0.283283        -7.7085
  23   0.0000      -0.001750        -0.0476
  24   0.0000       0.006989         0.1902
  25   0.0000       0.033446         0.9101
  26   0.0000       0.054597         1.4857
  27   0.0000       0.065919         1.7938

MULLIKEN ATOMIC CHARGES
-----------------------
   0 C :   -0.298104
   1 C :   -0.196261
   2 C :   -0.177393
   3 C :   -0.127446
   4 C :   -0.263812
   5 N :    0.053033
   6 H :    0.100717
   7 H :    0.110157
   8 H :    0.112702
   9 H :    0.096406
  10 H :    0.118934
  11 H :    0.109439
  12 H :    0.098274
  13 H :    0.133276
  14 H :    0.130077
Sum of atomic charges:   -0.0000000

LOEWDIN ATOMIC CHARGES
----------------------
   0 C :   -0.343576
   1 C :   -0.237464
   2 C :   -0.213580
   3 C :   -0.244074
   4 C :   -0.056921
   5 N :   -0.069458
   6 H :    0.117622
   7 H :    0.117477
   8 H :    0.125562
   9 H :    0.121931
  10 H :    0.126079
  11 H :    0.127186
  12 H :    0.121767
  13 H :    0.151700
  14 H :    0.155747

  Mayer bond orders larger than 0.100000
B(  0-C ,  1-C ) :   1.1478 B(  0-C ,  6-H ) :   0.9541 B(  0-C ,  7-H ) :   0.9507
B(  0-C ,  8-H ) :   0.9504 B(  1-C ,  2-C ) :   1.1246 B(  1-C ,  9-H ) :   0.9249
B(  1-C , 10-H ) :   0.9193 B(  2-C ,  3-C ) :   1.1016 B(  2-C , 11-H ) :   0.9223
B(  2-C , 12-H ) :   0.9201 B(  3-C ,  4-C ) :   1.1859 B(  3-C , 13-H ) :   0.8794
B(  3-C , 14-H ) :   0.8739 B(  4-C ,  5-N ) :   3.0453

Dispersion correction           -0.010787530
FINAL SINGLE POINT ENERGY      -250.095623869731

DIPOLE MOMENT
-------------

Method             : SCF
Type of density    : Electron Density
Multiplicity       :   1
Irrep              :   0
Energy             :  -250.1431721080441548 Eh
Relativity type    :
Basis              : AO
                                X                 Y                 Z
Electronic contribution:      8.135803998       0.975289289      -0.399312380
Nuclear contribution   :     -9.240275568      -1.868017574       0.673837489
                        -----------------------------------------
Total Dipole Moment    :     -1.104471570      -0.892728286       0.274525109
                        -----------------------------------------
Magnitude (a.u.)       :      1.446438826
Magnitude (Debye)      :      3.676555315

Rotational constants in cm-1:             0.214896             0.068838             0.062674
Rotational constants in MHz :          6442.429379          2063.725790          1878.910257

                             ****ORCA TERMINATED NORMALLY****
TOTAL RUN TIME: 0 days 0 hours 0 minutes 6 seconds 601 msec
