                         Program Version 6.0.0  -   RELEASE  -
|  1> ! pbe def2-sv(p) def2/J RI DEFGRID1 loosescf d4 GCP(DFT/SV(P)) printgap
|  2> %output
|  3>     printlevel normal
|  4> end
|  5> * xyz 0 1
|  6> C 1.8846995022 -0.1775723573 -1.2471033761
|  7> C 1.0306467489 -0.208255822 0.0212320645
|  8> C 1.8805893961 0.0841111216 1.2586742891
|  9> O 0.0056744022 0.7842042442 -0.0846315644
| 10> C -1.3515676218 0.3619314694 -0.0387271705
| 11> C -1.7358422037 -0.54162557 -1.2133910088
| 12> C -1.7345631545 -0.2729616186 1.3006752496
| 13> H 1.2761086853 -0.4062809897 -2.1180029222
| 14> H 2.3094385355 0.8145828513 -1.3738571727
| 15> H 2.6876720697 -0.9050329654 -1.17397346
| 16> H 0.5803106208 -1.2021457927 0.1242155164
| 17> H 2.3039989522 1.081791185 1.1797718454
| 18> H 2.68448248 -0.6415893244 1.3390236985
| 19> H 1.2695757488 0.0385034303 2.1563001676
| 20> H -1.8870630412 1.3142540418 -0.1402787878
| 21> H -2.8116251346 -0.6884990894 -1.2187457279
| 22> H -1.4390808959 -0.0762497631 -2.1500739908
| 23> H -1.2538556753 -1.5133819771 -1.1363396953
| 24> H -1.2518719998 -1.2387126653 1.4304911719
| 25> H -2.8102153247 -0.4160594895 1.3377849421
| 26> H -1.4376672883 0.3801183355 2.1175694411
| 27> *
| 28>
| 29>                          ****END OF INPUT****

CARTESIAN COORDINATES (ANGSTROEM)
---------------------------------
  C      1.884700   -0.177572   -1.247103
  C      1.030647   -0.208256    0.021232
  C      1.880589    0.084111    1.258674
  O      0.005674    0.784204   -0.084632
  C     -1.351568    0.361931   -0.038727
  C     -1.735842   -0.541626   -1.213391
  C     -1.734563   -0.272962    1.300675
  H      1.276109   -0.406281   -2.118003
  H      2.309439    0.814583   -1.373857
  H      2.687672   -0.905033   -1.173973
  H      0.580311   -1.202146    0.124216
  H      2.303999    1.081791    1.179772
  H      2.684482   -0.641589    1.339024
  H      1.269576    0.038503    2.156300
  H     -1.887063    1.314254   -0.140279
  H     -2.811625   -0.688499   -1.218746
  H     -1.439081   -0.076250   -2.150074
  H     -1.253856   -1.513382   -1.136340
  H     -1.251872   -1.238713    1.430491
  H     -2.810215   -0.416059    1.337785
  H     -1.437667    0.380118    2.117569

 Total Charge           Charge          ....    0
 Multiplicity           Mult            ....    1
 Number of Electrons    NEL             ....   58
 Basis Dimension        Dim             ....  126

ORBITAL ENERGIES
----------------

  NO   OCC          E(Eh)            E(eV)
   0   2.0000     -18.736315      -509.8411
   1   2.0000      -9.936791      -270.3938
   2   2.0000      -9.934788      -270.3393
   3   2.0000      -9.874274      -268.6927
   4   2.0000      -9.874220      -268.6912
   5   2.0000      -9.869333      -268.5582
   6   2.0000      -9.869319      -268.5578
   7   2.0000      -0.918658       -24.9979
   8   2.0000      -0.713884       -19.4258
   9   2.0000      -0.672009       -18.2863
  10   2.0000      -0.618274       -16.8241
  11   2.0000      -0.607791       -16.5388
  12   2.0000      -0.549735       -14.9590
  13   2.0000      -0.486839       -13.2476
  14   2.0000      -0.447477       -12.1765
  15   2.0000      -0.412006       -11.2113
  16   2.0000      -0.389612       -10.6019
  17   2.0000      -0.386899       -10.5280
  18   2.0000      -0.368281       -10.0214
  19   2.0000      -0.358742        -9.7619
  20   2.0000      -0.341523        -9.2933
  21   2.0000      -0.338043        -9.1986
  22   2.0000      -0.335920        -9.1409
  23   2.0000      -0.317415        -8.6373
  24   2.0000      -0.314844        -8.5673
  25   2.0000      -0.296138        -8.0583
  26   2.0000      -0.293344        -7.9823
  27   2.0000      -0.242907        -6.6098
  28   2.0000      -0.194286        -5.2868
  29   0.0000       0.030053         0.8178
  30   0.0000       0.060183         1.6377
  31   0.0000       0.066828         1.8185
  32   0.0000       0.073563         2.0017
  33   0.0000       0.077538         2.1099

MULLIKEN ATOMIC CHARGES
-----------------------
   0 C :   -0.234186
   1 C :   -0.019177
   2 C :   -0.234315
   3 O :   -0.330806
   4 C :   -0.008641
   5 C :   -0.258170
   6 C :   -0.258461
   7 H :    0.098795
   8 H :    0.101049
   9 H :    0.091490
  10 H :    0.068271
  11 H :    0.101065
  12 H :    0.091559
  13 H :    0.098809
  14 H :    0.071697
  15 H :    0.100116
  16 H :    0.111307
  17 H :    0.099044
  18 H :    0.098955
  19 H :    0.100096
  20 H :    0.111504
Sum of atomic charges:    0.0000000

LOEWDIN ATOMIC CHARGES
----------------------
   0 C :   -0.342307
   1 C :   -0.049919
   2 C :   -0.342403
   3 O :   -0.166844
   4 C :   -0.051660
   5 C :   -0.352241
   6 C :   -0.352198
   7 H :    0.118091
   8 H :    0.122453
   9 H :    0.119077
  10 H :    0.098507
  11 H :    0.122469
  12 H :    0.119082
  13 H :    0.118077
  14 H :    0.111828
  15 H :    0.123958
  16 H :    0.122720
  17 H :    0.117340
  18 H :    0.117296
  19 H :    0.123940
  20 H :    0.122735

  Mayer bond orders larger than 0.100000
B(  0-C ,  1-C ) :   1.1212 B(  0-C ,  7-H ) :   0.9457 B(  0-C ,  8-H ) :   0.9444
B(  0-C ,  9-H ) :   0.9438 B(  1-C ,  2-C ) :   1.1208 B(  1-C ,  3-O ) :   0.9636
B(  1-C , 10-H ) :   0.8910 B(  2-C , 11-H ) :   0.9445 B(  2-C , 12-H ) :   0.9437
B(  2-C , 13-H ) :   0.9457 B(  3-O ,  4-C ) :   1.0411 B(  4-C ,  5-C ) :   1.1061
B(  4-C ,  6-C ) :   1.1049 B(  4-C , 14-H ) :   0.9143 B(  5-C , 15-H ) :   0.9412
B(  5-C , 16-H ) :   0.9415 B(  5-C , 17-H ) :   0.9403 B(  6-C , 18-H ) :   0.9406
B(  6-C , 19-H ) :   0.9412 B(  6-C , 20-H ) :   0.9415

Dispersion correction           -0.016379785
FINAL SINGLE POINT ENERGY      -311.520016690306

DIPOLE MOMENT
-------------

Method             : SCF
Type of density    : Electron Density
Multiplicity       :   1
Irrep              :   0
Energy             :  -311.5979481443141026 Eh
Relativity type    :
Basis              : AO
                                X                 Y                 Z
Electronic contribution:     -0.374751405       2.804960503      -0.303715029
Nuclear contribution   :      0.206675080      -3.233190139       0.349509305
                        -----------------------------------------
Total Dipole Moment    :     -0.168076325      -0.428229636       0.045794276
                        -----------------------------------------
Magnitude (a.u.)       :      0.462306595
Magnitude (Debye)      :      1.175089978

Rotational constants in cm-1:             0.124885             0.061314             0.047270
Rotational constants in MHz :          3743.960125          1838.136416          1417.128838

                             ****ORCA TERMINATED NORMALLY****
TOTAL RUN TIME: 0 days 0 hours 0 minutes 7 seconds 713 msec
