                         Program Version 6.0.0  -   RELEASE  -
|  1> ! r2scan-3c def2/J RI DEFGRID2 scfconv6 printgap
|  2> %output
|  3>     printlevel normal
|  4> end
|  5> * xyz 0 1
|  6> C 4.1510015074 0.0671906002 -0.4617405163
|  7> N 2.7260077502 -0.18312151 -0.4874758733
|  8> C 2.2903249903 -1.0961733294 -1.5188858142
|  9> C 1.9290971091 0.3692036773 0.4384268631
| 10> O 2.3743166193 1.0561891987 1.3659261049
| 11> C 0.4581832794 0.1454963535 0.315719228
| 12> C -0.2510865133 0.5671772229 -0.8017442377
| 13> C -1.6271597453 0.4332970993 -0.8630244483
| 14> C -2.3174133585 -0.1344810046 0.2036047872
| 15> C -1.6076127938 -0.5476190207 1.3338013319
| 16> C -0.2400414882 -0.3960211933 1.3921782991
| 17> O -3.6632218018 -0.3243624646 0.2480810945
| 18> C -4.4461444458 0.0791871734 -0.8613496566
| 19> H 4.3589276201 0.7890277097 0.325402916
| 20> H 4.4710521514 0.4686460858 -1.4234262126
| 21> H 4.6942285763 -0.856494728 -0.2572797908
| 22> H 1.2700957473 -1.4197659177 -1.3359500087
| 23> H 2.9462933232 -1.9675553959 -1.5175398493
| 24> H 2.3494434523 -0.6178390298 -2.498539283
| 25> H 0.2714655395 1.0208831905 -1.629886476
| 26> H -2.1474144436 0.7770468699 -1.7417895155
| 27> H -2.1573906975 -0.9765744444 2.1560559693
| 28> H 0.3045654059 -0.6991959917 2.2735775211
| 29> H -4.3635038325 1.1554763978 -1.0313312759
| 30> H -5.4699045824 -0.1711526058 -0.5932836068
| 31> H -4.1587505191 -0.4644144052 -1.7646008729
| 32> *
| 33>
| 34>                          ****END OF INPUT****

CARTESIAN COORDINATES (ANGSTROEM)
---------------------------------
  C      4.151002    0.067191   -0.461741
  N      2.726008   -0.183122   -0.487476
  C      2.290325   -1.096173   -1.518886
  C      1.929097    0.369204    0.438427
  O      2.374317    1.056189    1.365926
  C      0.458183    0.145496    0.315719
  C     -0.251087    0.567177   -0.801744
  C     -1.627160    0.433297   -0.863024
  C     -2.317413   -0.134481    0.203605
  C     -1.607613   -0.547619    1.333801
  C     -0.240041   -0.396021    1.392178
  O     -3.663222   -0.324362    0.248081
  C     -4.446144    0.079187   -0.861350
  H      4.358928    0.789028    0.325403
  H      4.471052    0.468646   -1.423426
  H      4.694229   -0.856495   -0.257280
  H      1.270096   -1.419766   -1.335950
  H      2.946293   -1.967555   -1.517540
  H      2.349443   -0.617839   -2.498539
  H      0.271466    1.020883   -1.629886
  H     -2.147414    0.777047   -1.741790
  H     -2.157391   -0.976574    2.156056
  H      0.304565   -0.699196    2.273578
  H     -4.363504    1.155476   -1.031331
  H     -5.469905   -0.171153   -0.593284
  H     -4.158751   -0.464414   -1.764601

 Total Charge           Charge          ....    0
 Multiplicity           Mult            ....    1
 Number of Electrons    NEL             ....   96
 Basis Dimension        Dim             ....  327

ORBITAL ENERGIES
----------------

  NO   OCC          E(Eh)            E(eV)
   0   2.0000     -18.991941      -516.7970
   1   2.0000     -18.898544      -514.2555
   2   2.0000     -14.194374      -386.2486
   3   2.0000     -10.118884      -275.3488
   4   2.0000     -10.101135      -274.8659
   5   2.0000     -10.092100      -274.6200
   6   2.0000     -10.067684      -273.9556
   7   2.0000     -10.057433      -273.6767
   8   2.0000     -10.044724      -273.3308
   9   2.0000     -10.040426      -273.2139
  10   2.0000     -10.040004      -273.2024
  11   2.0000     -10.039892      -273.1993
  12   2.0000     -10.034535      -273.0536
  13   2.0000      -1.039934       -28.2980
  14   2.0000      -0.988833       -26.9075
  15   2.0000      -0.903052       -24.5733
  16   2.0000      -0.830634       -22.6027
  17   2.0000      -0.741489       -20.1769
  18   2.0000      -0.725119       -19.7315
  19   2.0000      -0.696234       -18.9455
  20   2.0000      -0.684039       -18.6137
  21   2.0000      -0.658554       -17.9202
  22   2.0000      -0.589997       -16.0546
  23   2.0000      -0.574854       -15.6426
  24   2.0000      -0.524702       -14.2779
  25   2.0000      -0.508570       -13.8389
  26   2.0000      -0.484845       -13.1933
  27   2.0000      -0.464312       -12.6346
  28   2.0000      -0.446919       -12.1613
  29   2.0000      -0.444100       -12.0846
  30   2.0000      -0.438795       -11.9402
  31   2.0000      -0.420487       -11.4420
  32   2.0000      -0.402995       -10.9661
  33   2.0000      -0.397250       -10.8097
  34   2.0000      -0.391419       -10.6511
  35   2.0000      -0.377293       -10.2667
  36   2.0000      -0.369043       -10.0422
  37   2.0000      -0.363954        -9.9037
  38   2.0000      -0.351364        -9.5611
  39   2.0000      -0.344649        -9.3784
  40   2.0000      -0.336933        -9.1684
  41   2.0000      -0.326615        -8.8876
  42   2.0000      -0.300812        -8.1855
  43   2.0000      -0.298127        -8.1124
  44   2.0000      -0.244523        -6.6538
  45   2.0000      -0.219585        -5.9752
  46   2.0000      -0.213535        -5.8106
  47   2.0000      -0.197098        -5.3633
  48   0.0000      -0.039819        -1.0835
  49   0.0000      -0.033929        -0.9232
  50   0.0000       0.019378         0.5273
  51   0.0000       0.056700         1.5429
  52   0.0000       0.069199         1.8830

MULLIKEN ATOMIC CHARGES
-----------------------
   0 C :   -0.412566
   1 N :    0.080976
   2 C :   -0.404556
   3 C :    0.221328
   4 O :   -0.451048
   5 C :    0.043499
   6 C :   -0.202108
   7 C :   -0.286683
   8 C :    0.367987
   9 C :   -0.316852
  10 C :   -0.160369
  11 O :   -0.185753
  12 C :   -0.332555
  13 H :    0.203490
  14 H :    0.138283
  15 H :    0.146340
  16 H :    0.175150
  17 H :    0.142192
  18 H :    0.159795
  19 H :    0.145415
  20 H :    0.147076
  21 H :    0.157169
  22 H :    0.159810
  23 H :    0.155025
  24 H :    0.156317
  25 H :    0.152635
Sum of atomic charges:   -0.0000000

LOEWDIN ATOMIC CHARGES
----------------------
   0 C :   -0.111035
   1 N :   -0.835596
   2 C :   -0.107049
   3 C :    0.348759
   4 O :   -0.482549
   5 C :   -0.054012
   6 C :   -0.133287
   7 C :   -0.171140
   8 C :    0.193708
   9 C :   -0.125900
  10 C :   -0.110562
  11 O :   -0.679674
  12 C :   -0.054083
  13 H :    0.210401
  14 H :    0.172588
  15 H :    0.172593
  16 H :    0.196210
  17 H :    0.174886
  18 H :    0.169202
  19 H :    0.174777
  20 H :    0.175471
  21 H :    0.182331
  22 H :    0.182215
  23 H :    0.165810
  24 H :    0.181152
  25 H :    0.164783

  Mayer bond orders larger than 0.100000
B(  0-C ,  1-N ) :   0.9250 B(  0-C , 13-H ) :   0.9550 B(  0-C , 14-H ) :   0.9515
B(  0-C , 15-H ) :   0.9579 B(  1-N ,  2-C ) :   0.9164 B(  1-N ,  3-C ) :   1.2326
B(  2-C , 16-H ) :   0.9559 B(  2-C , 17-H ) :   0.9527 B(  2-C , 18-H ) :   0.9599
B(  3-C ,  4-O ) :   1.8741 B(  3-C ,  5-C ) :   0.8828 B(  4-O ,  5-C ) :  -0.1095
B(  5-C ,  6-C ) :   1.4331 B(  5-C , 10-C ) :   1.3979 B(  6-C ,  7-C ) :   1.3845
B(  6-C , 19-H ) :   0.9460 B(  7-C ,  8-C ) :   1.3579 B(  7-C , 20-H ) :   0.9235
B(  8-C ,  9-C ) :   1.3821 B(  8-C , 11-O ) :   1.0528 B(  9-C , 10-C ) :   1.3601
B(  9-C , 21-H ) :   0.9563 B( 10-C , 22-H ) :   0.9494 B( 11-O , 12-C ) :   0.8542
B( 12-C , 23-H ) :   0.9628 B( 12-C , 24-H ) :   0.9677 B( 12-C , 25-H ) :   0.9634

Dispersion correction           -0.009582764
FINAL SINGLE POINT ENERGY      -593.940969962285

DIPOLE MOMENT
-------------

Method             : SCF
Type of density    : Electron Density
Multiplicity       :   1
Irrep              :   0
Energy             :  -593.9499927284281284 Eh
Relativity type    :
Basis              : AO
                                X                 Y                 Z
Electronic contribution:     -2.733126723       2.019234800       6.811668912
Nuclear contribution   :      2.218483019      -2.768937475      -8.458491029
                        -----------------------------------------
Total Dipole Moment    :     -0.514643704      -0.749702675      -1.646822117
                        -----------------------------------------
Magnitude (a.u.)       :      1.881205817
Magnitude (Debye)      :      4.781645185

Rotational constants in cm-1:             0.072746             0.012926             0.011862
Rotational constants in MHz :          2180.877166           387.498707           355.628791

                             ****ORCA TERMINATED NORMALLY****
TOTAL RUN TIME: 0 days 0 hours 1 minutes 0 seconds 349 msec
