                         Program Version 6.0.0  -   RELEASE  -
|  1> ! r2scan-3c def2/J RI DEFGRID2 scfconv6 printgap
|  2> %output
|  3>     printlevel normal
|  4> end
|  5> %cpcm
|  6>     smd true
|  7>     smdsolvent "water"
|  8> end
|  9> * xyz 0 1
| 10> C 4.1510015074 0.0671906002 -0.4617405163
| 11> N 2.7260077502 -0.18312151 -0.4874758733
| 12> C 2.2903249903 -1.0961733294 -1.5188858142
| 13> C 1.9290971091 0.3692036773 0.4384268631
| 14> O 2.3743166193 1.0561891987 1.3659261049
| 15> C 0.4581832794 0.1454963535 0.315719228
| 16> C -0.2510865133 0.5671772229 -0.8017442377
| 17> C -1.6271597453 0.4332970993 -0.8630244483
| 18> C -2.3174133585 -0.1344810046 0.2036047872
| 19> C -1.6076127938 -0.5476190207 1.3338013319
| 20> C -0.2400414882 -0.3960211933 1.3921782991
| 21> O -3.6632218018 -0.3243624646 0.2480810945
| 22> C -4.4461444458 0.0791871734 -0.8613496566
| 23> H 4.3589276201 0.7890277097 0.325402916
| 24> H 4.4710521514 0.4686460858 -1.4234262126
| 25> H 4.6942285763 -0.856494728 -0.2572797908
| 26> H 1.2700957473 -1.4197659177 -1.3359500087
| 27> H 2.9462933232 -1.9675553959 -1.5175398493
| 28> H 2.3494434523 -0.6178390298 -2.498539283
| 29> H 0.2714655395 1.0208831905 -1.629886476
| 30> H -2.1474144436 0.7770468699 -1.7417895155
| 31> H -2.1573906975 -0.9765744444 2.1560559693
| 32> H 0.3045654059 -0.6991959917 2.2735775211
| 33> H -4.3635038325 1.1554763978 -1.0313312759
| 34> H -5.4699045824 -0.1711526058 -0.5932836068
| 35> H -4.1587505191 -0.4644144052 -1.7646008729
| 36> *
| 37>
| 38>                          ****END OF INPUT****

CARTESIAN COORDINATES (ANGSTROEM)
---------------------------------
  C      4.151002    0.067191   -0.461741
  N      2.726008   -0.183122   -0.487476
  C      2.290325   -1.096173   -1.518886
  C      1.929097    0.369204    0.438427
  O      2.374317    1.056189    1.365926
  C      0.458183    0.145496    0.315719
  C     -0.251087    0.567177   -0.801744
  C     -1.627160    0.433297   -0.863024
  C     -2.317413   -0.134481    0.203605
  C     -1.607613   -0.547619    1.333801
  C     -0.240041   -0.396021    1.392178
  O     -3.663222   -0.324362    0.248081
  C     -4.446144    0.079187   -0.861350
  H      4.358928    0.789028    0.325403
  H      4.471052    0.468646   -1.423426
  H      4.694229   -0.856495   -0.257280
  H      1.270096   -1.419766   -1.335950
  H      2.946293   -1.967555   -1.517540
  H      2.349443   -0.617839   -2.498539
  H      0.271466    1.020883   -1.629886
  H     -2.147414    0.777047   -1.741790
  H     -2.157391   -0.976574    2.156056
  H      0.304565   -0.699196    2.273578
  H     -4.363504    1.155476   -1.031331
  H     -5.469905   -0.171153   -0.593284
  H     -4.158751   -0.464414   -1.764601

 Total Charge           Charge          ....    0
 Multiplicity           Mult            ....    1
 Number of Electrons    NEL             ....   96
 Basis Dimension        Dim             ....  327

ORBITAL ENERGIES
----------------

  NO   OCC          E(Eh)            E(eV)
   0   2.0000     -18.991384      -516.7818
   1   2.0000     -18.920174      -514.8441
   2   2.0000     -14.199001      -386.3745
   3   2.0000     -10.132346      -275.7151
   4   2.0000     -10.102073      -274.8914
   5   2.0000     -10.073908      -274.1250
   6   2.0000     -10.053482      -273.5692
   7   2.0000     -10.050252      -273.4813
   8   2.0000     -10.043857      -273.3072
   9   2.0000     -10.043128      -273.2874
  10   2.0000     -10.042003      -273.2568
  11   2.0000     -10.037392      -273.1313
  12   2.0000     -10.035247      -273.0730
  13   2.0000      -1.038593       -28.2616
  14   2.0000      -1.007406       -27.4129
  15   2.0000      -0.908451       -24.7202
  16   2.0000      -0.832509       -22.6537
  17   2.0000      -0.741313       -20.1721
  18   2.0000      -0.725286       -19.7360
  19   2.0000      -0.689091       -18.7511
  20   2.0000      -0.677823       -18.4445
  21   2.0000      -0.653366       -17.7790
  22   2.0000      -0.589798       -16.0492
  23   2.0000      -0.571882       -15.5617
  24   2.0000      -0.522347       -14.2138
  25   2.0000      -0.502845       -13.6831
  26   2.0000      -0.483861       -13.1665
  27   2.0000      -0.463184       -12.6039
  28   2.0000      -0.445036       -12.1101
  29   2.0000      -0.436546       -11.8790
  30   2.0000      -0.434533       -11.8243
  31   2.0000      -0.416931       -11.3453
  32   2.0000      -0.404704       -11.0126
  33   2.0000      -0.394934       -10.7467
  34   2.0000      -0.386232       -10.5099
  35   2.0000      -0.370486       -10.0814
  36   2.0000      -0.364504        -9.9187
  37   2.0000      -0.362381        -9.8609
  38   2.0000      -0.351363        -9.5611
  39   2.0000      -0.344686        -9.3794
  40   2.0000      -0.343088        -9.3359
  41   2.0000      -0.327457        -8.9105
  42   2.0000      -0.298569        -8.1245
  43   2.0000      -0.297822        -8.1041
  44   2.0000      -0.247841        -6.7441
  45   2.0000      -0.236928        -6.4471
  46   2.0000      -0.221149        -6.0178
  47   2.0000      -0.206204        -5.6111
  48   0.0000      -0.043054        -1.1716
  49   0.0000      -0.038135        -1.0377
  50   0.0000       0.010167         0.2767
  51   0.0000       0.065365         1.7787
  52   0.0000       0.075807         2.0628

MULLIKEN ATOMIC CHARGES
-----------------------
   0 C :   -0.433674
   1 N :    0.091383
   2 C :   -0.417651
   3 C :    0.262512
   4 O :   -0.570395
   5 C :    0.007867
   6 C :   -0.206332
   7 C :   -0.296039
   8 C :    0.360164
   9 C :   -0.362287
  10 C :   -0.205100
  11 O :   -0.224518
  12 C :   -0.340683
  13 H :    0.187946
  14 H :    0.170541
  15 H :    0.177343
  16 H :    0.180801
  17 H :    0.168514
  18 H :    0.185275
  19 H :    0.184879
  20 H :    0.186912
  21 H :    0.185393
  22 H :    0.185580
  23 H :    0.173651
  24 H :    0.174301
  25 H :    0.173615
Sum of atomic charges:   -0.0000000

LOEWDIN ATOMIC CHARGES
----------------------
   0 C :   -0.108243
   1 N :   -0.816477
   2 C :   -0.098518
   3 C :    0.347933
   4 O :   -0.577679
   5 C :   -0.068864
   6 C :   -0.128099
   7 C :   -0.164303
   8 C :    0.186568
   9 C :   -0.137362
  10 C :   -0.126316
  11 O :   -0.701971
  12 C :   -0.049395
  13 H :    0.202870
  14 H :    0.186584
  15 H :    0.185581
  16 H :    0.198537
  17 H :    0.187001
  18 H :    0.182588
  19 H :    0.189074
  20 H :    0.191719
  21 H :    0.191182
  22 H :    0.188562
  23 H :    0.175554
  24 H :    0.187963
  25 H :    0.175510

  Mayer bond orders larger than 0.100000
B(  0-C ,  1-N ) :   0.9132 B(  0-C , 13-H ) :   0.9574 B(  0-C , 14-H ) :   0.9434
B(  0-C , 15-H ) :   0.9478 B(  1-N ,  2-C ) :   0.9149 B(  1-N ,  3-C ) :   1.3014
B(  2-C , 16-H ) :   0.9507 B(  2-C , 17-H ) :   0.9448 B(  2-C , 18-H ) :   0.9482
B(  3-C ,  4-O ) :   1.7877 B(  3-C ,  5-C ) :   0.8906 B(  4-O ,  5-C ) :  -0.1150
B(  5-C ,  6-C ) :   1.4091 B(  5-C , 10-C ) :   1.3405 B(  6-C ,  7-C ) :   1.3792
B(  6-C , 19-H ) :   0.9509 B(  7-C ,  8-C ) :   1.3381 B(  7-C , 20-H ) :   0.9325
B(  8-C ,  9-C ) :   1.3327 B(  8-C , 11-O ) :   1.0392 B(  9-C , 10-C ) :   1.3741
B(  9-C , 21-H ) :   0.9618 B( 10-C , 22-H ) :   0.9534 B( 11-O , 12-C ) :   0.8461
B( 12-C , 23-H ) :   0.9549 B( 12-C , 24-H ) :   0.9599 B( 12-C , 25-H ) :   0.9553

Dispersion correction           -0.009582764
FINAL SINGLE POINT ENERGY      -593.955811818467

DIPOLE MOMENT
-------------

Method             : SCF
Type of density    : Electron Density
Multiplicity       :   1
Irrep              :   0
Energy             :  -593.9648345846103439 Eh
Relativity type    :
Basis              : AO
                                X                 Y                 Z
Electronic contribution:     -2.846228383       1.633778415       5.823706158
Nuclear contribution   :      2.218483019      -2.768937475      -8.458491029
                        -----------------------------------------
Total Dipole Moment    :     -0.627745363      -1.135159060      -2.634784871
                        -----------------------------------------
Magnitude (a.u.)       :      2.936791046
Magnitude (Debye)      :      7.464729608

Rotational constants in cm-1:             0.072746             0.012926             0.011862
Rotational constants in MHz :          2180.877166           387.498707           355.628791

                             ****ORCA TERMINATED NORMALLY****
TOTAL RUN TIME: 0 days 0 hours 1 minutes 9 seconds 209 msec
