                         Program Version 6.0.0  -   RELEASE  -
|  1> ! r2scan-3c def2/J RI DEFGRID2 scfconv6 printgap
|  2> %output
|  3>     printlevel normal
|  4> end
|  5> * xyz 0 1
|  6> C 1.8329643277 0.580872169 0.3565332451
|  7> C 0.9824234967 -0.2555433805 -0.5862370282
|  8> O -0.0891758306 -0.9060429484 0.1313076984
|  9> C -1.2231374795 -0.2715743034 0.263840795
| 10> O -1.502932941 0.8177900503 -0.1691873124
| 11> H 2.6663068586 1.004903708 -0.1939241867
| 12> H 1.2405593275 1.3899269322 0.7778112772
| 13> H 2.2145369377 -0.0366625643 1.1649180404
| 14> H 1.5577746478 -1.072374172 -1.0220976952
| 15> H 0.5456445701 0.3678020782 -1.3714168645
| 16> H -1.9261440372 -0.8932706072 0.8392056308
| 17> *
| 18>
| 19>                          ****END OF INPUT****

CARTESIAN COORDINATES (ANGSTROEM)
---------------------------------
  C      1.832964    0.580872    0.356533
  C      0.982423   -0.255543   -0.586237
  O     -0.089176   -0.906043    0.131308
  C     -1.223137   -0.271574    0.263841
  O     -1.502933    0.817790   -0.169187
  H      2.666307    1.004904   -0.193924
  H      1.240559    1.389927    0.777811
  H      2.214537   -0.036663    1.164918
  H      1.557775   -1.072374   -1.022098
  H      0.545645    0.367802   -1.371417
  H     -1.926144   -0.893271    0.839206

 Total Charge           Charge          ....    0
 Multiplicity           Mult            ....    1
 Number of Electrons    NEL             ....   40
 Basis Dimension        Dim             ....  135

ORBITAL ENERGIES
----------------

  NO   OCC          E(Eh)            E(eV)
   0   2.0000     -19.010274      -517.2958
   1   2.0000     -18.940212      -515.3894
   2   2.0000     -10.156540      -276.3735
   3   2.0000     -10.100045      -274.8362
   4   2.0000     -10.035801      -273.0880
   5   2.0000      -1.084676       -29.5155
   6   2.0000      -0.989377       -26.9223
   7   2.0000      -0.753234       -20.4965
   8   2.0000      -0.648233       -17.6393
   9   2.0000      -0.548008       -14.9121
  10   2.0000      -0.505388       -13.7523
  11   2.0000      -0.454704       -12.3731
  12   2.0000      -0.435352       -11.8465
  13   2.0000      -0.418689       -11.3931
  14   2.0000      -0.382066       -10.3965
  15   2.0000      -0.361165        -9.8278
  16   2.0000      -0.349784        -9.5181
  17   2.0000      -0.316976        -8.6254
  18   2.0000      -0.282473        -7.6865
  19   2.0000      -0.249101        -6.7784
  20   0.0000      -0.023889        -0.6501
  21   0.0000       0.080229         2.1831
  22   0.0000       0.087505         2.3811
  23   0.0000       0.116656         3.1744
  24   0.0000       0.123244         3.3536

MULLIKEN ATOMIC CHARGES
-----------------------
   0 C :   -0.455799
   1 C :   -0.123791
   2 O :   -0.162047
   3 C :    0.249871
   4 O :   -0.415582
   5 H :    0.148601
   6 H :    0.167940
   7 H :    0.153462
   8 H :    0.149749
   9 H :    0.167769
  10 H :    0.119829
Sum of atomic charges:    0.0000000

LOEWDIN ATOMIC CHARGES
----------------------
   0 C :   -0.387669
   1 C :    0.021332
   2 O :   -0.578057
   3 C :    0.331959
   4 O :   -0.426428
   5 H :    0.160442
   6 H :    0.164681
   7 H :    0.158464
   8 H :    0.179352
   9 H :    0.188486
  10 H :    0.187438

  Mayer bond orders larger than 0.100000
B(  0-C ,  1-C ) :   0.9473 B(  0-C ,  5-H ) :   0.9652 B(  0-C ,  6-H ) :   0.9685
B(  0-C ,  7-H ) :   0.9730 B(  1-C ,  2-O ) :   0.8132 B(  1-C ,  8-H ) :   0.9617
B(  1-C ,  9-H ) :   0.9604 B(  2-O ,  3-C ) :   1.1420 B(  3-C ,  4-O ) :   1.8509
B(  3-C , 10-H ) :   0.9883

Dispersion correction           -0.002091695
FINAL SINGLE POINT ENERGY      -268.325992615693

DIPOLE MOMENT
-------------

Method             : SCF
Type of density    : Electron Density
Multiplicity       :   1
Irrep              :   0
Energy             :  -268.3320023458144306 Eh
Relativity type    :
Basis              : AO
                                X                 Y                 Z
Electronic contribution:     -5.112560609      -1.189186755      -0.131851608
Nuclear contribution   :      5.885615395       0.712006882       0.181908796
                        -----------------------------------------
Total Dipole Moment    :      0.773054786      -0.477179873       0.050057189
                        -----------------------------------------
Magnitude (a.u.)       :      0.909846171
Magnitude (Debye)      :      2.312645179

Rotational constants in cm-1:             0.354734             0.121080             0.104738
Rotational constants in MHz :         10634.658560          3629.887330          3139.952897

                             ****ORCA TERMINATED NORMALLY****
TOTAL RUN TIME: 0 days 0 hours 0 minutes 14 seconds 718 msec
