                         Program Version 6.0.0  -   RELEASE  -
|  1> ! r2scan-3c def2/J RI DEFGRID2 scfconv6 printgap
|  2> %output
|  3>     printlevel normal
|  4> end
|  5> %cpcm
|  6>     smd true
|  7>     smdsolvent "water"
|  8> end
|  9> * xyz 0 1
| 10> C 1.8329643277 0.580872169 0.3565332451
| 11> C 0.9824234967 -0.2555433805 -0.5862370282
| 12> O -0.0891758306 -0.9060429484 0.1313076984
| 13> C -1.2231374795 -0.2715743034 0.263840795
| 14> O -1.502932941 0.8177900503 -0.1691873124
| 15> H 2.6663068586 1.004903708 -0.1939241867
| 16> H 1.2405593275 1.3899269322 0.7778112772
| 17> H 2.2145369377 -0.0366625643 1.1649180404
| 18> H 1.5577746478 -1.072374172 -1.0220976952
| 19> H 0.5456445701 0.3678020782 -1.3714168645
| 20> H -1.9261440372 -0.8932706072 0.8392056308
| 21> *
| 22>
| 23>                          ****END OF INPUT****

CARTESIAN COORDINATES (ANGSTROEM)
---------------------------------
  C      1.832964    0.580872    0.356533
  C      0.982423   -0.255543   -0.586237
  O     -0.089176   -0.906043    0.131308
  C     -1.223137   -0.271574    0.263841
  O     -1.502933    0.817790   -0.169187
  H      2.666307    1.004904   -0.193924
  H      1.240559    1.389927    0.777811
  H      2.214537   -0.036663    1.164918
  H      1.557775   -1.072374   -1.022098
  H      0.545645    0.367802   -1.371417
  H     -1.926144   -0.893271    0.839206

 Total Charge           Charge          ....    0
 Multiplicity           Mult            ....    1
 Number of Electrons    NEL             ....   40
 Basis Dimension        Dim             ....  135

ORBITAL ENERGIES
----------------

  NO   OCC          E(Eh)            E(eV)
   0   2.0000     -19.010388      -517.2990
   1   2.0000     -18.951100      -515.6856
   2   2.0000     -10.162037      -276.5231
   3   2.0000     -10.086914      -274.4789
   4   2.0000     -10.019855      -272.6541
   5   2.0000      -1.086871       -29.5753
   6   2.0000      -0.998828       -27.1795
   7   2.0000      -0.742060       -20.1925
   8   2.0000      -0.639005       -17.3882
   9   2.0000      -0.539278       -14.6745
  10   2.0000      -0.503583       -13.7032
  11   2.0000      -0.459215       -12.4959
  12   2.0000      -0.438062       -11.9203
  13   2.0000      -0.411777       -11.2050
  14   2.0000      -0.373777       -10.1710
  15   2.0000      -0.355050        -9.6614
  16   2.0000      -0.341515        -9.2931
  17   2.0000      -0.308694        -8.4000
  18   2.0000      -0.284880        -7.7520
  19   2.0000      -0.261213        -7.1080
  20   0.0000      -0.028076        -0.7640
  21   0.0000       0.091767         2.4971
  22   0.0000       0.096043         2.6135
  23   0.0000       0.129622         3.5272
  24   0.0000       0.135191         3.6787

MULLIKEN ATOMIC CHARGES
-----------------------
   0 C :   -0.483711
   1 C :   -0.126531
   2 O :   -0.179656
   3 C :    0.274767
   4 O :   -0.497046
   5 H :    0.171265
   6 H :    0.166353
   7 H :    0.166257
   8 H :    0.175757
   9 H :    0.172219
  10 H :    0.160325
Sum of atomic charges:    0.0000000

LOEWDIN ATOMIC CHARGES
----------------------
   0 C :   -0.390673
   1 C :    0.026788
   2 O :   -0.577483
   3 C :    0.346770
   4 O :   -0.486602
   5 H :    0.168768
   6 H :    0.162712
   7 H :    0.162711
   8 H :    0.190648
   9 H :    0.190273
  10 H :    0.206088

  Mayer bond orders larger than 0.100000
B(  0-C ,  1-C ) :   0.9436 B(  0-C ,  5-H ) :   0.9603 B(  0-C ,  6-H ) :   0.9668
B(  0-C ,  7-H ) :   0.9695 B(  1-C ,  2-O ) :   0.7964 B(  1-C ,  8-H ) :   0.9524
B(  1-C ,  9-H ) :   0.9575 B(  2-O ,  3-C ) :   1.1757 B(  3-C ,  4-O ) :   1.7926
B(  3-C , 10-H ) :   0.9737

Dispersion correction           -0.002091695
FINAL SINGLE POINT ENERGY      -268.330080036725

DIPOLE MOMENT
-------------

Method             : SCF
Type of density    : Electron Density
Multiplicity       :   1
Irrep              :   0
Energy             :  -268.3360897668466691 Eh
Relativity type    :
Basis              : AO
                                X                 Y                 Z
Electronic contribution:     -4.896576597      -1.427071742      -0.104588808
Nuclear contribution   :      5.885615395       0.712006882       0.181908796
                        -----------------------------------------
Total Dipole Moment    :      0.989038798      -0.715064860       0.077319988
                        -----------------------------------------
Magnitude (a.u.)       :      1.222903871
Magnitude (Debye)      :      3.108374614

Rotational constants in cm-1:             0.354734             0.121080             0.104738
Rotational constants in MHz :         10634.658560          3629.887330          3139.952897

                             ****ORCA TERMINATED NORMALLY****
TOTAL RUN TIME: 0 days 0 hours 0 minutes 18 seconds 126 msec
