                         Program Version 6.0.0  -   RELEASE  -
|  1> ! pbe def2-sv(p) def2/J RI DEFGRID1 loosescf d4 GCP(DFT/SV(P)) printgap
|  2> %output
|  3>     printlevel normal
|  4> end
|  5> * xyz 0 1
|  6> C -2.1698618227 1.0857466266 0.5505938109
|  7> C -2.0857626314 -0.2926708883 -0.0936872058
|  8> C -0.8275592571 -0.4361979123 -0.9559632341
|  9> C 0.4143041068 -0.4154015839 -0.1036672914
| 10> O 0.6100108026 -1.1202578131 0.8642392762
| 11> O 1.2930792534 0.4825625495 -0.5371983978
| 12> C 2.5295553332 0.6021734672 0.1710621168
| 13> H -1.3194922257 1.2494602992 1.2099891734
| 14> H -2.1708785125 1.8636145647 -0.2091643723
| 15> H -3.0794355432 1.1741004302 1.138540724
| 16> H -2.9624984329 -0.4587631038 -0.719963225
| 17> H -2.0658601001 -1.0603154328 0.6821887227
| 18> H -0.7596212526 0.366174181 -1.689543874
| 19> H -0.8507262139 -1.3970684557 -1.4731350942
| 20> H 3.0004971301 1.5034869676 -0.2083226462
| 21> H 3.1515858728 -0.2726737949 -0.0207732661
| 22> H 2.3408074704 0.6761602976 1.2427903593
| 23> *
| 24>
| 25>                          ****END OF INPUT****

CARTESIAN COORDINATES (ANGSTROEM)
---------------------------------
  C     -2.169862    1.085747    0.550594
  C     -2.085763   -0.292671   -0.093687
  C     -0.827559   -0.436198   -0.955963
  C      0.414304   -0.415402   -0.103667
  O      0.610011   -1.120258    0.864239
  O      1.293079    0.482563   -0.537198
  C      2.529555    0.602173    0.171062
  H     -1.319492    1.249460    1.209989
  H     -2.170879    1.863615   -0.209164
  H     -3.079436    1.174100    1.138541
  H     -2.962498   -0.458763   -0.719963
  H     -2.065860   -1.060315    0.682189
  H     -0.759621    0.366174   -1.689544
  H     -0.850726   -1.397068   -1.473135
  H      3.000497    1.503487   -0.208323
  H      3.151586   -0.272674   -0.020773
  H      2.340807    0.676160    1.242790

 Total Charge           Charge          ....    0
 Multiplicity           Mult            ....    1
 Number of Electrons    NEL             ....   56
 Basis Dimension        Dim             ....  118

ORBITAL ENERGIES
----------------

  NO   OCC          E(Eh)            E(eV)
   0   2.0000     -18.800194      -511.5793
   1   2.0000     -18.731899      -509.7209
   2   2.0000     -10.004473      -272.2356
   3   2.0000      -9.941777      -270.5295
   4   2.0000      -9.896564      -269.2992
   5   2.0000      -9.890960      -269.1467
   6   2.0000      -9.877073      -268.7688
   7   2.0000      -1.005380       -27.3578
   8   2.0000      -0.908699       -24.7270
   9   2.0000      -0.725181       -19.7332
  10   2.0000      -0.671568       -18.2743
  11   2.0000      -0.620348       -16.8805
  12   2.0000      -0.539897       -14.6913
  13   2.0000      -0.499951       -13.6044
  14   2.0000      -0.450519       -12.2592
  15   2.0000      -0.439072       -11.9477
  16   2.0000      -0.420135       -11.4324
  17   2.0000      -0.403014       -10.9666
  18   2.0000      -0.389377       -10.5955
  19   2.0000      -0.361697        -9.8423
  20   2.0000      -0.354957        -9.6589
  21   2.0000      -0.343349        -9.3430
  22   2.0000      -0.311725        -8.4825
  23   2.0000      -0.298663        -8.1270
  24   2.0000      -0.297517        -8.0958
  25   2.0000      -0.293781        -7.9942
  26   2.0000      -0.258113        -7.0236
  27   2.0000      -0.218305        -5.9404
  28   0.0000      -0.020709        -0.5635
  29   0.0000       0.040189         1.0936
  30   0.0000       0.060550         1.6476
  31   0.0000       0.079382         2.1601
  32   0.0000       0.081241         2.2107

MULLIKEN ATOMIC CHARGES
-----------------------
   0 C :   -0.288729
   1 C :   -0.199404
   2 C :   -0.125267
   3 C :    0.083488
   4 O :   -0.212124
   5 O :   -0.236400
   6 C :   -0.112978
   7 H :    0.115457
   8 H :    0.098921
   9 H :    0.107861
  10 H :    0.091336
  11 H :    0.108475
  12 H :    0.093466
  13 H :    0.114059
  14 H :    0.121440
  15 H :    0.118469
  16 H :    0.121930
Sum of atomic charges:   -0.0000000

LOEWDIN ATOMIC CHARGES
----------------------
   0 C :   -0.342245
   1 C :   -0.227373
   2 C :   -0.246982
   3 C :    0.034312
   4 O :   -0.171763
   5 O :   -0.073171
   6 C :   -0.204690
   7 H :    0.120267
   8 H :    0.117297
   9 H :    0.121703
  10 H :    0.118002
  11 H :    0.124887
  12 H :    0.126900
  13 H :    0.142579
  14 H :    0.120511
  15 H :    0.119497
  16 H :    0.120269

  Mayer bond orders larger than 0.100000
B(  0-C ,  1-C ) :   1.1547 B(  0-C ,  7-H ) :   0.9497 B(  0-C ,  8-H ) :   0.9537
B(  0-C ,  9-H ) :   0.9522 B(  1-C ,  2-C ) :   1.1118 B(  1-C , 10-H ) :   0.9281
B(  1-C , 11-H ) :   0.9194 B(  2-C ,  3-C ) :   1.0201 B(  2-C , 12-H ) :   0.9108
B(  2-C , 13-H ) :   0.8928 B(  3-C ,  4-O ) :   2.0492 B(  3-C ,  5-O ) :   1.2202
B(  5-O ,  6-C ) :   0.9398 B(  6-C , 14-H ) :   0.9597 B(  6-C , 15-H ) :   0.9558
B(  6-C , 16-H ) :   0.9466

Dispersion correction           -0.012344427
FINAL SINGLE POINT ENERGY      -346.240420871564

DIPOLE MOMENT
-------------

Method             : SCF
Type of density    : Electron Density
Multiplicity       :   1
Irrep              :   0
Energy             :  -346.3050088330031713 Eh
Relativity type    :
Basis              : AO
                                X                 Y                 Z
Electronic contribution:      4.539022704      -2.923842959      -0.382077361
Nuclear contribution   :     -4.395826203       3.409391786      -0.039614266
                        -----------------------------------------
Total Dipole Moment    :      0.143196501       0.485548827      -0.421691627
                        -----------------------------------------
Magnitude (a.u.)       :      0.658852586
Magnitude (Debye)      :      1.674670184

Rotational constants in cm-1:             0.164174             0.051718             0.048961
Rotational constants in MHz :          4921.819820          1550.474167          1467.812035

                             ****ORCA TERMINATED NORMALLY****
TOTAL RUN TIME: 0 days 0 hours 0 minutes 10 seconds 517 msec
