                         Program Version 6.0.0  -   RELEASE  -
|  1> ! r2scan-3c def2/J RI DEFGRID2 scfconv6 printgap
|  2> %output
|  3>     printlevel normal
|  4> end
|  5> * xyz 0 1
|  6> C -2.1644090198 -0.4011711946 -0.9360680809
|  7> C -2.078529296 0.5593892465 0.244284324
|  8> C -0.8165358087 0.3416272945 1.0746121368
|  9> O 0.347479267 0.7273459881 0.3294036448
| 10> C 1.2170843534 -0.2011106001 -0.0509793104
| 11> O 1.1096460166 -1.3804397104 0.215554603
| 12> C 2.3445297795 0.4017449787 -0.8358265494
| 13> H -2.1487181805 -1.4327670639 -0.5907298864
| 14> H -3.0816294016 -0.2339523621 -1.4935568906
| 15> H -1.3221912134 -0.2579965475 -1.610249845
| 16> H -2.936595434 0.415927629 0.9008250427
| 17> H -2.0849170756 1.5891349099 -0.1154039678
| 18> H -0.8247018376 0.9757228095 1.9638786817
| 19> H -0.7137373592 -0.7084628495 1.3652635014
| 20> H 3.0334772411 -0.3782532256 -1.1419573199
| 21> H 2.855412299 1.135084058 -0.2178392555
| 22> H 1.9429839322 0.915252814 -1.7050673264
| 23> *
| 24>
| 25>                          ****END OF INPUT****

CARTESIAN COORDINATES (ANGSTROEM)
---------------------------------
  C     -2.164409   -0.401171   -0.936068
  C     -2.078529    0.559389    0.244284
  C     -0.816536    0.341627    1.074612
  O      0.347479    0.727346    0.329404
  C      1.217084   -0.201111   -0.050979
  O      1.109646   -1.380440    0.215555
  C      2.344530    0.401745   -0.835827
  H     -2.148718   -1.432767   -0.590730
  H     -3.081629   -0.233952   -1.493557
  H     -1.322191   -0.257997   -1.610250
  H     -2.936595    0.415928    0.900825
  H     -2.084917    1.589135   -0.115404
  H     -0.824702    0.975723    1.963879
  H     -0.713737   -0.708463    1.365264
  H      3.033477   -0.378253   -1.141957
  H      2.855412    1.135084   -0.217839
  H      1.942984    0.915253   -1.705067

 Total Charge           Charge          ....    0
 Multiplicity           Mult            ....    1
 Number of Electrons    NEL             ....   56
 Basis Dimension        Dim             ....  193

ORBITAL ENERGIES
----------------

  NO   OCC          E(Eh)            E(eV)
   0   2.0000     -18.996271      -516.9148
   1   2.0000     -18.928064      -515.0588
   2   2.0000     -10.156134      -276.3625
   3   2.0000     -10.086718      -274.4735
   4   2.0000     -10.039046      -273.1763
   5   2.0000     -10.037333      -273.1297
   6   2.0000     -10.020697      -272.6770
   7   2.0000      -1.071251       -29.1502
   8   2.0000      -0.975894       -26.5554
   9   2.0000      -0.767443       -20.8832
  10   2.0000      -0.721268       -19.6267
  11   2.0000      -0.661771       -18.0077
  12   2.0000      -0.580669       -15.8008
  13   2.0000      -0.526608       -14.3297
  14   2.0000      -0.466357       -12.6902
  15   2.0000      -0.457914       -12.4605
  16   2.0000      -0.437568       -11.9068
  17   2.0000      -0.413857       -11.2616
  18   2.0000      -0.412675       -11.2294
  19   2.0000      -0.380933       -10.3657
  20   2.0000      -0.374981       -10.2037
  21   2.0000      -0.357847        -9.7375
  22   2.0000      -0.331074        -9.0090
  23   2.0000      -0.326811        -8.8930
  24   2.0000      -0.322191        -8.7673
  25   2.0000      -0.302643        -8.2353
  26   2.0000      -0.267340        -7.2747
  27   2.0000      -0.236820        -6.4442
  28   0.0000      -0.013378        -0.3640
  29   0.0000       0.075121         2.0441
  30   0.0000       0.095954         2.6110
  31   0.0000       0.112243         3.0543
  32   0.0000       0.119826         3.2606

MULLIKEN ATOMIC CHARGES
-----------------------
   0 C :   -0.460217
   1 C :   -0.244531
   2 C :   -0.190865
   3 O :   -0.170569
   4 C :    0.439713
   5 O :   -0.438349
   6 C :   -0.516606
   7 H :    0.154375
   8 H :    0.148279
   9 H :    0.146851
  10 H :    0.140882
  11 H :    0.147539
  12 H :    0.146252
  13 H :    0.186116
  14 H :    0.177507
  15 H :    0.167465
  16 H :    0.166157
Sum of atomic charges:    0.0000000

LOEWDIN ATOMIC CHARGES
----------------------
   0 C :   -0.416120
   1 C :   -0.286480
   2 C :    0.033876
   3 O :   -0.599376
   4 C :    0.352750
   5 O :   -0.439971
   6 C :   -0.335483
   7 H :    0.156881
   8 H :    0.151209
   9 H :    0.155632
  10 H :    0.159773
  11 H :    0.160039
  12 H :    0.178748
  13 H :    0.197970
  14 H :    0.174276
  15 H :    0.178650
  16 H :    0.177626

  Mayer bond orders larger than 0.100000
B(  0-C ,  1-C ) :   0.8945 B(  0-C ,  7-H ) :   0.9735 B(  0-C ,  8-H ) :   0.9724
B(  0-C ,  9-H ) :   0.9765 B(  1-C ,  2-C ) :   0.9521 B(  1-C , 10-H ) :   0.9664
B(  1-C , 11-H ) :   0.9804 B(  2-C ,  3-O ) :   0.7851 B(  2-C , 12-H ) :   0.9579
B(  2-C , 13-H ) :   0.9700 B(  3-O ,  4-C ) :   1.0516 B(  4-C ,  5-O ) :   1.8362
B(  4-C ,  6-C ) :   0.9609 B(  6-C , 14-H ) :   0.9910 B(  6-C , 15-H ) :   0.9505
B(  6-C , 16-H ) :   0.9505

Dispersion correction           -0.004111878
FINAL SINGLE POINT ENERGY      -346.936583068369

DIPOLE MOMENT
-------------

Method             : SCF
Type of density    : Electron Density
Multiplicity       :   1
Irrep              :   0
Energy             :  -346.9429780300567359 Eh
Relativity type    :
Basis              : AO
                                X                 Y                 Z
Electronic contribution:      4.649046222      -1.093754360       2.395111251
Nuclear contribution   :     -4.932498133       1.885124206      -2.473219940
                        -----------------------------------------
Total Dipole Moment    :     -0.283451911       0.791369846      -0.078108688
                        -----------------------------------------
Magnitude (a.u.)       :      0.844222830
Magnitude (Debye)      :      2.145843901

Rotational constants in cm-1:             0.157574             0.052277             0.050261
Rotational constants in MHz :          4723.944228          1567.222053          1506.799382

                             ****ORCA TERMINATED NORMALLY****
TOTAL RUN TIME: 0 days 0 hours 0 minutes 22 seconds 243 msec
