                         Program Version 6.0.0  -   RELEASE  -
|  1> ! r2scan-3c def2/J RI DEFGRID2 scfconv6 printgap
|  2> %output
|  3>     printlevel normal
|  4> end
|  5> %cpcm
|  6>     smd true
|  7>     smdsolvent "water"
|  8> end
|  9> * xyz 0 1
| 10> C -2.1644090198 -0.4011711946 -0.9360680809
| 11> C -2.078529296 0.5593892465 0.244284324
| 12> C -0.8165358087 0.3416272945 1.0746121368
| 13> O 0.347479267 0.7273459881 0.3294036448
| 14> C 1.2170843534 -0.2011106001 -0.0509793104
| 15> O 1.1096460166 -1.3804397104 0.215554603
| 16> C 2.3445297795 0.4017449787 -0.8358265494
| 17> H -2.1487181805 -1.4327670639 -0.5907298864
| 18> H -3.0816294016 -0.2339523621 -1.4935568906
| 19> H -1.3221912134 -0.2579965475 -1.610249845
| 20> H -2.936595434 0.415927629 0.9008250427
| 21> H -2.0849170756 1.5891349099 -0.1154039678
| 22> H -0.8247018376 0.9757228095 1.9638786817
| 23> H -0.7137373592 -0.7084628495 1.3652635014
| 24> H 3.0334772411 -0.3782532256 -1.1419573199
| 25> H 2.855412299 1.135084058 -0.2178392555
| 26> H 1.9429839322 0.915252814 -1.7050673264
| 27> *
| 28>
| 29>                          ****END OF INPUT****

CARTESIAN COORDINATES (ANGSTROEM)
---------------------------------
  C     -2.164409   -0.401171   -0.936068
  C     -2.078529    0.559389    0.244284
  C     -0.816536    0.341627    1.074612
  O      0.347479    0.727346    0.329404
  C      1.217084   -0.201111   -0.050979
  O      1.109646   -1.380440    0.215555
  C      2.344530    0.401745   -0.835827
  H     -2.148718   -1.432767   -0.590730
  H     -3.081629   -0.233952   -1.493557
  H     -1.322191   -0.257997   -1.610250
  H     -2.936595    0.415928    0.900825
  H     -2.084917    1.589135   -0.115404
  H     -0.824702    0.975723    1.963879
  H     -0.713737   -0.708463    1.365264
  H      3.033477   -0.378253   -1.141957
  H      2.855412    1.135084   -0.217839
  H      1.942984    0.915253   -1.705067

 Total Charge           Charge          ....    0
 Multiplicity           Mult            ....    1
 Number of Electrons    NEL             ....   56
 Basis Dimension        Dim             ....  193

ORBITAL ENERGIES
----------------

  NO   OCC          E(Eh)            E(eV)
   0   2.0000     -19.001593      -517.0596
   1   2.0000     -18.943167      -515.4698
   2   2.0000     -10.165885      -276.6278
   3   2.0000     -10.079358      -274.2733
   4   2.0000     -10.030122      -272.9335
   5   2.0000     -10.026135      -272.8250
   6   2.0000     -10.011724      -272.4329
   7   2.0000      -1.078107       -29.3368
   8   2.0000      -0.989152       -26.9162
   9   2.0000      -0.760819       -20.7029
  10   2.0000      -0.715041       -19.4573
  11   2.0000      -0.655168       -17.8280
  12   2.0000      -0.573892       -15.6164
  13   2.0000      -0.523978       -14.2582
  14   2.0000      -0.466919       -12.7055
  15   2.0000      -0.461268       -12.5518
  16   2.0000      -0.444747       -12.1022
  17   2.0000      -0.407402       -11.0860
  18   2.0000      -0.404247       -11.0001
  19   2.0000      -0.380503       -10.3540
  20   2.0000      -0.366972        -9.9858
  21   2.0000      -0.352549        -9.5933
  22   2.0000      -0.329618        -8.9694
  23   2.0000      -0.326668        -8.8891
  24   2.0000      -0.312362        -8.4998
  25   2.0000      -0.298488        -8.1223
  26   2.0000      -0.271430        -7.3860
  27   2.0000      -0.252816        -6.8795
  28   0.0000      -0.020513        -0.5582
  29   0.0000       0.079228         2.1559
  30   0.0000       0.104714         2.8494
  31   0.0000       0.122573         3.3354
  32   0.0000       0.128935         3.5085

MULLIKEN ATOMIC CHARGES
-----------------------
   0 C :   -0.516249
   1 C :   -0.244525
   2 C :   -0.190299
   3 O :   -0.188236
   4 C :    0.483718
   5 O :   -0.527014
   6 C :   -0.555870
   7 H :    0.161835
   8 H :    0.163085
   9 H :    0.159989
  10 H :    0.161821
  11 H :    0.159913
  12 H :    0.171717
  13 H :    0.181927
  14 H :    0.185173
  15 H :    0.196775
  16 H :    0.196241
Sum of atomic charges:    0.0000000

LOEWDIN ATOMIC CHARGES
----------------------
   0 C :   -0.426143
   1 C :   -0.284309
   2 C :    0.038724
   3 O :   -0.601364
   4 C :    0.364003
   5 O :   -0.502609
   6 C :   -0.334348
   7 H :    0.156352
   8 H :    0.155945
   9 H :    0.157296
  10 H :    0.167866
  11 H :    0.163867
  12 H :    0.189513
  13 H :    0.196950
  14 H :    0.177900
  15 H :    0.190460
  16 H :    0.189899

  Mayer bond orders larger than 0.100000
B(  0-C ,  1-C ) :   0.8695 B(  0-C ,  7-H ) :   0.9752 B(  0-C ,  8-H ) :   0.9681
B(  0-C ,  9-H ) :   0.9743 B(  1-C ,  2-C ) :   0.9484 B(  1-C , 10-H ) :   0.9636
B(  1-C , 11-H ) :   0.9814 B(  2-C ,  3-O ) :   0.7730 B(  2-C , 12-H ) :   0.9497
B(  2-C , 13-H ) :   0.9658 B(  3-O ,  4-C ) :   1.0794 B(  4-C ,  5-O ) :   1.7651
B(  4-C ,  6-C ) :   0.9587 B(  6-C , 14-H ) :   0.9837 B(  6-C , 15-H ) :   0.9384
B(  6-C , 16-H ) :   0.9389

Dispersion correction           -0.004111878
FINAL SINGLE POINT ENERGY      -346.942108355993

DIPOLE MOMENT
-------------

Method             : SCF
Type of density    : Electron Density
Multiplicity       :   1
Irrep              :   0
Energy             :  -346.9485033176812863 Eh
Relativity type    :
Basis              : AO
                                X                 Y                 Z
Electronic contribution:      4.562186413      -0.727712069       2.386993098
Nuclear contribution   :     -4.932498133       1.885124206      -2.473219940
                        -----------------------------------------
Total Dipole Moment    :     -0.370311720       1.157412138      -0.086226842
                        -----------------------------------------
Magnitude (a.u.)       :      1.218264624
Magnitude (Debye)      :      3.096582586

Rotational constants in cm-1:             0.157574             0.052277             0.050261
Rotational constants in MHz :          4723.944228          1567.222053          1506.799382

                             ****ORCA TERMINATED NORMALLY****
TOTAL RUN TIME: 0 days 0 hours 0 minutes 28 seconds 953 msec
