                         Program Version 6.0.0  -   RELEASE  -
|  1> ! pbe def2-sv(p) def2/J RI DEFGRID1 loosescf d4 GCP(DFT/SV(P)) printgap
|  2> %output
|  3>     printlevel normal
|  4> end
|  5> * xyz 0 1
|  6> C -3.2493954448 0.8797625108 0.2668080072
|  7> C -3.0120398588 -0.3075531014 0.9374457039
|  8> C -1.8631784088 -1.0351195239 0.6760483475
|  9> C -0.946615414 -0.5846183012 -0.2629587379
| 10> C -1.1903184789 0.6086295533 -0.9323415126
| 11> C -2.3355829622 1.3375517786 -0.6684755347
| 12> C 0.323875163 -1.3529310333 -0.5412554702
| 13> N 1.4793614072 -0.5699413534 -0.1736170666
| 14> C 1.8652707015 -0.2597539977 1.0982815667
| 15> C 2.9551341297 0.5520737112 0.975362847
| 16> N 3.2414359197 0.7512335942 -0.3404673336
| 17> C 2.3354885734 0.070765373 -0.995464668
| 18> H -4.1431459321 1.4487249001 0.4725129576
| 19> H -3.7201195165 -0.6669939915 1.6685970108
| 20> H -1.6812100896 -1.9599128369 1.2037536015
| 21> H -0.4752814839 0.9691490916 -1.6579026676
| 22> H -2.5154260247 2.2635651809 -1.1931234541
| 23> H 0.3312162794 -2.2867437347 0.0269476776
| 24> H 0.4013836006 -1.5836286475 -1.6067771211
| 25> H 1.3477829038 -0.6316434568 1.9574511897
| 26> H 3.5528556976 1.0037244078 1.7414151705
| 27> H 2.2802986315 0.0110906298 -2.0640784266
| 28> *
| 29>
| 30>                          ****END OF INPUT****

CARTESIAN COORDINATES (ANGSTROEM)
---------------------------------
  C     -3.249395    0.879763    0.266808
  C     -3.012040   -0.307553    0.937446
  C     -1.863178   -1.035120    0.676048
  C     -0.946615   -0.584618   -0.262959
  C     -1.190318    0.608630   -0.932342
  C     -2.335583    1.337552   -0.668476
  C      0.323875   -1.352931   -0.541255
  N      1.479361   -0.569941   -0.173617
  C      1.865271   -0.259754    1.098282
  C      2.955134    0.552074    0.975363
  N      3.241436    0.751234   -0.340467
  C      2.335489    0.070765   -0.995465
  H     -4.143146    1.448725    0.472513
  H     -3.720120   -0.666994    1.668597
  H     -1.681210   -1.959913    1.203754
  H     -0.475281    0.969149   -1.657903
  H     -2.515426    2.263565   -1.193123
  H      0.331216   -2.286744    0.026948
  H      0.401384   -1.583629   -1.606777
  H      1.347783   -0.631643    1.957451
  H      3.552856    1.003724    1.741415
  H      2.280299    0.011091   -2.064078

 Total Charge           Charge          ....    0
 Multiplicity           Mult            ....    1
 Number of Electrons    NEL             ....   84
 Basis Dimension        Dim             ....  188

ORBITAL ENERGIES
----------------

  NO   OCC          E(Eh)            E(eV)
   0   2.0000     -14.056740      -382.5033
   1   2.0000     -13.956536      -379.7766
   2   2.0000      -9.948963      -270.7250
   3   2.0000      -9.926218      -270.1061
   4   2.0000      -9.915610      -269.8175
   5   2.0000      -9.907131      -269.5867
   6   2.0000      -9.904709      -269.5208
   7   2.0000      -9.903985      -269.5011
   8   2.0000      -9.903703      -269.4934
   9   2.0000      -9.903614      -269.4910
  10   2.0000      -9.903124      -269.4777
  11   2.0000      -9.891432      -269.1596
  12   2.0000      -0.936033       -25.4707
  13   2.0000      -0.812102       -22.0984
  14   2.0000      -0.784398       -21.3445
  15   2.0000      -0.705878       -19.2079
  16   2.0000      -0.682626       -18.5752
  17   2.0000      -0.667926       -18.1752
  18   2.0000      -0.635445       -17.2913
  19   2.0000      -0.558433       -15.1957
  20   2.0000      -0.546046       -14.8587
  21   2.0000      -0.536392       -14.5960
  22   2.0000      -0.513207       -13.9651
  23   2.0000      -0.492095       -13.3906
  24   2.0000      -0.474020       -12.8987
  25   2.0000      -0.435832       -11.8596
  26   2.0000      -0.421375       -11.4662
  27   2.0000      -0.401851       -10.9349
  28   2.0000      -0.395088       -10.7509
  29   2.0000      -0.386952       -10.5295
  30   2.0000      -0.385393       -10.4871
  31   2.0000      -0.368604       -10.0302
  32   2.0000      -0.360530        -9.8105
  33   2.0000      -0.353868        -9.6292
  34   2.0000      -0.338603        -9.2139
  35   2.0000      -0.316551        -8.6138
  36   2.0000      -0.311046        -8.4640
  37   2.0000      -0.246206        -6.6996
  38   2.0000      -0.242043        -6.5863
  39   2.0000      -0.230316        -6.2672
  40   2.0000      -0.208485        -5.6732
  41   2.0000      -0.199238        -5.4216
  42   0.0000      -0.051537        -1.4024
  43   0.0000      -0.045976        -1.2511
  44   0.0000      -0.003069        -0.0835
  45   0.0000       0.028542         0.7767
  46   0.0000       0.040456         1.1009

MULLIKEN ATOMIC CHARGES
-----------------------
   0 C :   -0.043914
   1 C :   -0.048408
   2 C :   -0.114195
   3 C :    0.043806
   4 C :   -0.096964
   5 C :   -0.046875
   6 C :    0.020858
   7 N :   -0.128961
   8 C :   -0.033953
   9 C :   -0.080202
  10 N :   -0.126522
  11 C :   -0.019037
  12 H :    0.059111
  13 H :    0.056664
  14 H :    0.042232
  15 H :    0.052686
  16 H :    0.059082
  17 H :    0.099349
  18 H :    0.109241
  19 H :    0.063491
  20 H :    0.061340
  21 H :    0.071173
Sum of atomic charges:    0.0000000

LOEWDIN ATOMIC CHARGES
----------------------
   0 C :   -0.119399
   1 C :   -0.117757
   2 C :   -0.123020
   3 C :   -0.057014
   4 C :   -0.112095
   5 C :   -0.114400
   6 C :   -0.124384
   7 N :    0.058048
   8 C :   -0.151528
   9 C :   -0.144068
  10 N :   -0.118569
  11 C :   -0.118080
  12 H :    0.126236
  13 H :    0.126135
  14 H :    0.122358
  15 H :    0.125789
  16 H :    0.127275
  17 H :    0.127618
  18 H :    0.135318
  19 H :    0.122951
  20 H :    0.115433
  21 H :    0.113154

  Mayer bond orders larger than 0.100000
B(  0-C ,  1-C ) :   1.3908 B(  0-C ,  5-C ) :   1.3704 B(  0-C , 12-H ) :   0.9651
B(  1-C ,  2-C ) :   1.3672 B(  1-C , 13-H ) :   0.9632 B(  2-C ,  3-C ) :   1.3980
B(  2-C , 14-H ) :   0.9605 B(  3-C ,  4-C ) :   1.3796 B(  3-C ,  6-C ) :   1.0551
B(  4-C ,  5-C ) :   1.3913 B(  4-C , 15-H ) :   0.9580 B(  5-C , 16-H ) :   0.9645
B(  6-C ,  7-N ) :   0.9983 B(  6-C , 17-H ) :   0.9095 B(  6-C , 18-H ) :   0.9031
B(  7-N ,  8-C ) :   1.1916 B(  7-N , 11-C ) :   1.2075 B(  8-C ,  9-C ) :   1.4794
B(  8-C , 19-H ) :   0.9649 B(  9-C , 10-N ) :   1.4106 B(  9-C , 20-H ) :   0.9778
B( 10-N , 11-C ) :   1.6349 B( 11-C , 21-H ) :   0.9526

Dispersion correction           -0.025951943
FINAL SINGLE POINT ENERGY      -495.510351707707

DIPOLE MOMENT
-------------

Method             : SCF
Type of density    : Electron Density
Multiplicity       :   1
Irrep              :   0
Energy             :  -495.5721424975289437 Eh
Relativity type    :
Basis              : AO
                                X                 Y                 Z
Electronic contribution:      2.970906046       0.600264051      -0.455999680
Nuclear contribution   :     -4.309980070      -1.343092169       0.512042420
                        -----------------------------------------
Total Dipole Moment    :     -1.339074024      -0.742828118       0.056042740
                        -----------------------------------------
Magnitude (a.u.)       :      1.532336008
Magnitude (Debye)      :      3.894888601

Rotational constants in cm-1:             0.079173             0.018562             0.017715
Rotational constants in MHz :          2373.541958           556.473079           531.085215

                             ****ORCA TERMINATED NORMALLY****
TOTAL RUN TIME: 0 days 0 hours 0 minutes 14 seconds 33 msec
