                         Program Version 6.0.0  -   RELEASE  -
|  1> ! pbe def2-sv(p) def2/J RI DEFGRID1 loosescf d4 GCP(DFT/SV(P)) printgap
|  2> %output
|  3>     printlevel normal
|  4> end
|  5> * xyz 0 1
|  6> C -2.5944123946 0.9587535147 -0.4674045289
|  7> C -2.1786497025 -0.0476721489 0.599167419
|  8> C -0.8691825558 -0.7381763675 0.2466006101
|  9> O 0.1857513956 0.2339114963 0.295129543
| 10> C 1.3928180314 -0.1418599399 -0.1043830252
| 11> O 1.6412517012 -1.2649188373 -0.4963676557
| 12> C 2.3824107605 0.9810656684 -0.0231340501
| 13> H -3.5192719198 1.4508129201 -0.1805346213
| 14> H -1.8224031397 1.7137009255 -0.5909954605
| 15> H -2.74799381 0.4607586789 -1.4218734131
| 16> H -2.9447350481 -0.8149798093 0.709637969
| 17> H -2.0548546778 0.4592605092 1.5565471964
| 18> H -0.6324972551 -1.5382676649 0.9558806342
| 19> H -0.8984835411 -1.1715717753 -0.7588475757
| 20> H 2.0107479551 1.7547698014 0.6397310533
| 21> H 2.5170667961 1.3932616358 -1.0209571695
| 22> H 3.3395465372 0.597281976 0.3165633368
| 23> *
| 24>
| 25>                          ****END OF INPUT****

CARTESIAN COORDINATES (ANGSTROEM)
---------------------------------
  C     -2.594412    0.958754   -0.467405
  C     -2.178650   -0.047672    0.599167
  C     -0.869183   -0.738176    0.246601
  O      0.185751    0.233911    0.295130
  C      1.392818   -0.141860   -0.104383
  O      1.641252   -1.264919   -0.496368
  C      2.382411    0.981066   -0.023134
  H     -3.519272    1.450813   -0.180535
  H     -1.822403    1.713701   -0.590995
  H     -2.747994    0.460759   -1.421873
  H     -2.944735   -0.814980    0.709638
  H     -2.054855    0.459261    1.556547
  H     -0.632497   -1.538268    0.955881
  H     -0.898484   -1.171572   -0.758848
  H      2.010748    1.754770    0.639731
  H      2.517067    1.393262   -1.020957
  H      3.339547    0.597282    0.316563

 Total Charge           Charge          ....    0
 Multiplicity           Mult            ....    1
 Number of Electrons    NEL             ....   56
 Basis Dimension        Dim             ....  118

ORBITAL ENERGIES
----------------

  NO   OCC          E(Eh)            E(eV)
   0   2.0000     -18.798101      -511.5223
   1   2.0000     -18.730480      -509.6823
   2   2.0000     -10.004357      -272.2324
   3   2.0000      -9.942521      -270.5498
   4   2.0000      -9.896287      -269.2917
   5   2.0000      -9.891285      -269.1555
   6   2.0000      -9.880316      -268.8571
   7   2.0000      -1.004565       -27.3356
   8   2.0000      -0.906106       -24.6564
   9   2.0000      -0.725564       -19.7436
  10   2.0000      -0.676926       -18.4201
  11   2.0000      -0.621121       -16.9016
  12   2.0000      -0.548458       -14.9243
  13   2.0000      -0.504324       -13.7233
  14   2.0000      -0.444863       -12.1054
  15   2.0000      -0.433952       -11.8084
  16   2.0000      -0.411745       -11.2042
  17   2.0000      -0.400974       -10.9110
  18   2.0000      -0.390108       -10.6154
  19   2.0000      -0.369938       -10.0665
  20   2.0000      -0.358514        -9.7557
  21   2.0000      -0.339186        -9.2297
  22   2.0000      -0.321235        -8.7412
  23   2.0000      -0.311428        -8.4744
  24   2.0000      -0.304813        -8.2944
  25   2.0000      -0.291895        -7.9429
  26   2.0000      -0.255274        -6.9464
  27   2.0000      -0.215518        -5.8645
  28   0.0000      -0.017935        -0.4880
  29   0.0000       0.036983         1.0063
  30   0.0000       0.056507         1.5376
  31   0.0000       0.077573         2.1109
  32   0.0000       0.079593         2.1658

MULLIKEN ATOMIC CHARGES
-----------------------
   0 C :   -0.290289
   1 C :   -0.175319
   2 C :   -0.006297
   3 O :   -0.241501
   4 C :    0.081524
   5 O :   -0.219563
   6 C :   -0.247538
   7 H :    0.108413
   8 H :    0.111135
   9 H :    0.099849
  10 H :    0.095316
  11 H :    0.098023
  12 H :    0.104363
  13 H :    0.098807
  14 H :    0.117347
  15 H :    0.135865
  16 H :    0.129864
Sum of atomic charges:    0.0000000

LOEWDIN ATOMIC CHARGES
----------------------
   0 C :   -0.343391
   1 C :   -0.245236
   2 C :   -0.102394
   3 O :   -0.069915
   4 C :    0.027526
   5 O :   -0.175461
   6 C :   -0.360101
   7 H :    0.121399
   8 H :    0.120848
   9 H :    0.118402
  10 H :    0.125345
  11 H :    0.123353
  12 H :    0.115872
  13 H :    0.115077
  14 H :    0.134679
  15 H :    0.149862
  16 H :    0.144136

  Mayer bond orders larger than 0.100000
B(  0-C ,  1-C ) :   1.1478 B(  0-C ,  7-H ) :   0.9541 B(  0-C ,  8-H ) :   0.9543
B(  0-C ,  9-H ) :   0.9552 B(  1-C ,  2-C ) :   1.1066 B(  1-C , 10-H ) :   0.9201
B(  1-C , 11-H ) :   0.9211 B(  2-C ,  3-O ) :   0.9125 B(  2-C , 12-H ) :   0.9314
B(  2-C , 13-H ) :   0.9244 B(  3-O ,  4-C ) :   1.2044 B(  4-C ,  5-O ) :   2.0458
B(  4-C ,  6-C ) :   1.0895 B(  6-C , 14-H ) :   0.9376 B(  6-C , 15-H ) :   0.9250
B(  6-C , 16-H ) :   0.9361

Dispersion correction           -0.011675992
FINAL SINGLE POINT ENERGY      -346.244530182648

DIPOLE MOMENT
-------------

Method             : SCF
Type of density    : Electron Density
Multiplicity       :   1
Irrep              :   0
Energy             :  -346.3094309737251706 Eh
Relativity type    :
Basis              : AO
                                X                 Y                 Z
Electronic contribution:      5.835096513      -3.436497506       0.048258666
Nuclear contribution   :     -6.308241318       4.023549442       0.189483243
                        -----------------------------------------
Total Dipole Moment    :     -0.473144805       0.587051936       0.237741909
                        -----------------------------------------
Magnitude (a.u.)       :      0.790580291
Magnitude (Debye)      :      2.009495403

Rotational constants in cm-1:             0.188175             0.046159             0.040749
Rotational constants in MHz :          5641.352270          1383.801745          1221.610874

                             ****ORCA TERMINATED NORMALLY****
TOTAL RUN TIME: 0 days 0 hours 0 minutes 8 seconds 486 msec
