                         Program Version 6.0.0  -   RELEASE  -
|  1> ! pbe def2-sv(p) def2/J RI DEFGRID1 loosescf d4 GCP(DFT/SV(P)) printgap
|  2> %output
|  3>     printlevel normal
|  4> end
|  5> * xyz 0 1
|  6> C -1.6185942237 0.665850788 -0.9651496373
|  7> C -1.380134114 0.3586563061 0.5086647989
|  8> C -0.0234187439 -0.2981549488 0.820834006
|  9> C 1.2011179691 0.5776595718 0.4923294147
| 10> C 1.720690635 0.4431856516 -0.9356352345
| 11> O 0.1234927553 -1.5454126497 0.165956664
| 12> H -2.6698072856 0.8880036773 -1.1332019688
| 13> H -1.0367101056 1.5263967673 -1.2819831817
| 14> H -1.3417357238 -0.1898021846 -1.5762841644
| 15> H -1.4568363988 1.2737430225 1.0979568045
| 16> H -2.1622489669 -0.3214823542 0.8581880118
| 17> H -0.008774111 -0.4695409059 1.9129841165
| 18> H 0.9473860041 1.6166131881 0.706156578
| 19> H 2.0071742977 0.2841697244 1.1681011675
| 20> H 1.9067369903 -0.6033092494 -1.1606659252
| 21> H 1.0128492153 0.8289297198 -1.6609934651
| 22> H 2.6529215653 0.9940850573 -1.035085089
| 23> H -0.6155596447 -2.1170340131 0.4113469113
| 24> *
| 25>
| 26>                          ****END OF INPUT****

CARTESIAN COORDINATES (ANGSTROEM)
---------------------------------
  C     -1.618594    0.665851   -0.965150
  C     -1.380134    0.358656    0.508665
  C     -0.023419   -0.298155    0.820834
  C      1.201118    0.577660    0.492329
  C      1.720691    0.443186   -0.935635
  O      0.123493   -1.545413    0.165957
  H     -2.669807    0.888004   -1.133202
  H     -1.036710    1.526397   -1.281983
  H     -1.341736   -0.189802   -1.576284
  H     -1.456836    1.273743    1.097957
  H     -2.162249   -0.321482    0.858188
  H     -0.008774   -0.469541    1.912984
  H      0.947386    1.616613    0.706157
  H      2.007174    0.284170    1.168101
  H      1.906737   -0.603309   -1.160666
  H      1.012849    0.828930   -1.660993
  H      2.652922    0.994085   -1.035085
  H     -0.615560   -2.117034    0.411347

 Total Charge           Charge          ....    0
 Multiplicity           Mult            ....    1
 Number of Electrons    NEL             ....   50
 Basis Dimension        Dim             ....  108

ORBITAL ENERGIES
----------------

  NO   OCC          E(Eh)            E(eV)
   0   2.0000     -18.741445      -509.9807
   1   2.0000      -9.933491      -270.3040
   2   2.0000      -9.883673      -268.9484
   3   2.0000      -9.879373      -268.8314
   4   2.0000      -9.870775      -268.5975
   5   2.0000      -9.861615      -268.3482
   6   2.0000      -0.918738       -25.0001
   7   2.0000      -0.709550       -19.3078
   8   2.0000      -0.669149       -18.2085
   9   2.0000      -0.603171       -16.4131
  10   2.0000      -0.542183       -14.7536
  11   2.0000      -0.506705       -13.7881
  12   2.0000      -0.440077       -11.9751
  13   2.0000      -0.423516       -11.5245
  14   2.0000      -0.404210       -10.9991
  15   2.0000      -0.372559       -10.1378
  16   2.0000      -0.358708        -9.7609
  17   2.0000      -0.329550        -8.9675
  18   2.0000      -0.326414        -8.8822
  19   2.0000      -0.320239        -8.7141
  20   2.0000      -0.301119        -8.1939
  21   2.0000      -0.287366        -7.8196
  22   2.0000      -0.282882        -7.6976
  23   2.0000      -0.259114        -7.0509
  24   2.0000      -0.211013        -5.7420
  25   0.0000       0.018123         0.4931
  26   0.0000       0.058847         1.6013
  27   0.0000       0.068098         1.8530
  28   0.0000       0.077978         2.1219
  29   0.0000       0.081741         2.2243

MULLIKEN ATOMIC CHARGES
-----------------------
   0 C :   -0.280018
   1 C :   -0.196049
   2 C :    0.050988
   3 C :   -0.177151
   4 C :   -0.279650
   5 O :   -0.420339
   6 H :    0.099098
   7 H :    0.113366
   8 H :    0.106391
   9 H :    0.082858
  10 H :    0.070594
  11 H :    0.053965
  12 H :    0.083762
  13 H :    0.084878
  14 H :    0.116868
  15 H :    0.099317
  16 H :    0.095291
  17 H :    0.295831
Sum of atomic charges:   -0.0000000

LOEWDIN ATOMIC CHARGES
----------------------
   0 C :   -0.346809
   1 C :   -0.248213
   2 C :   -0.051761
   3 C :   -0.235528
   4 C :   -0.345286
   5 O :   -0.326873
   6 H :    0.118644
   7 H :    0.118664
   8 H :    0.119335
   9 H :    0.118264
  10 H :    0.107751
  11 H :    0.094143
  12 H :    0.117520
  13 H :    0.119849
  14 H :    0.125234
  15 H :    0.115281
  16 H :    0.116604
  17 H :    0.283180

  Mayer bond orders larger than 0.100000
B(  0-C ,  1-C ) :   1.1541 B(  0-C ,  6-H ) :   0.9486 B(  0-C ,  7-H ) :   0.9458
B(  0-C ,  8-H ) :   0.9430 B(  1-C ,  2-C ) :   1.0817 B(  1-C ,  9-H ) :   0.9122
B(  1-C , 10-H ) :   0.9209 B(  2-C ,  3-C ) :   1.0637 B(  2-C ,  5-O ) :   1.0531
B(  2-C , 11-H ) :   0.9081 B(  3-C ,  4-C ) :   1.1666 B(  3-C , 12-H ) :   0.9284
B(  3-C , 13-H ) :   0.9196 B(  4-C , 14-H ) :   0.9437 B(  4-C , 15-H ) :   0.9459
B(  4-C , 16-H ) :   0.9502 B(  5-O , 17-H ) :   0.8495

Dispersion correction           -0.013386452
FINAL SINGLE POINT ENERGY      -272.301358346578

DIPOLE MOMENT
-------------

Method             : SCF
Type of density    : Electron Density
Multiplicity       :   1
Irrep              :   0
Energy             :  -272.3710835377539183 Eh
Relativity type    :
Basis              : AO
                                X                 Y                 Z
Electronic contribution:      0.254079016      -3.438125597       1.923614414
Nuclear contribution   :     -0.715491128       3.458377123      -1.586298661
                        -----------------------------------------
Total Dipole Moment    :     -0.461412112       0.020251526       0.337315752
                        -----------------------------------------
Magnitude (a.u.)       :      0.571920605
Magnitude (Debye)      :      1.453706650

Rotational constants in cm-1:             0.138899             0.091804             0.076185
Rotational constants in MHz :          4164.084843          2752.221073          2283.972976

                             ****ORCA TERMINATED NORMALLY****
TOTAL RUN TIME: 0 days 0 hours 0 minutes 8 seconds 144 msec
