                         Program Version 6.0.0  -   RELEASE  -
|  1> ! r2scan-3c def2/J RI DEFGRID2 scfconv6 printgap
|  2> %output
|  3>     printlevel normal
|  4> end
|  5> %cpcm
|  6>     smd true
|  7>     smdsolvent "water"
|  8> end
|  9> * xyz 0 1
| 10> C 1.8061137704 0.5504192437 -1.116302094
| 11> C 1.0686327438 -0.1828165108 0.0037015961
| 12> H 0.6676237217 -1.1289257841 -0.3897396224
| 13> C -0.0725813339 0.6583399578 0.5976944851
| 14> C -1.4933792928 0.2889585957 0.1487962911
| 15> C -1.6742260079 0.4026367806 -1.3634357932
| 16> C -1.9066467918 -1.0985500878 0.6373041606
| 17> O 1.9532508644 -0.4853476663 1.0774039884
| 18> H 2.2791403984 1.4450362255 -0.7168022332
| 19> H 2.5741083895 -0.0858642133 -1.5521364993
| 20> H 1.110488492 0.8379753273 -1.8977189546
| 21> H -0.0114371044 0.5434439219 1.6823663402
| 22> H 0.109887977 1.7103356177 0.3711699641
| 23> H -2.1613724788 1.0184821488 0.6221603399
| 24> H -1.0676275935 -0.3346558437 -1.8830355643
| 25> H -1.3927162101 1.3945379142 -1.7086262937
| 26> H -2.7151952091 0.231653435 -1.6279711764
| 27> H -2.9535452269 -1.2806537045 0.4062561305
| 28> H -1.3154575492 -1.8758560745 0.1598627232
| 29> H -1.7709615822 -1.179355395 1.7130725418
| 30> H 2.7173031087 -0.968138064 0.7345201533
| 31> *
| 32>
| 33>                          ****END OF INPUT****

CARTESIAN COORDINATES (ANGSTROEM)
---------------------------------
  C      1.806114    0.550419   -1.116302
  C      1.068633   -0.182817    0.003702
  H      0.667624   -1.128926   -0.389740
  C     -0.072581    0.658340    0.597694
  C     -1.493379    0.288959    0.148796
  C     -1.674226    0.402637   -1.363436
  C     -1.906647   -1.098550    0.637304
  O      1.953251   -0.485348    1.077404
  H      2.279140    1.445036   -0.716802
  H      2.574108   -0.085864   -1.552136
  H      1.110488    0.837975   -1.897719
  H     -0.011437    0.543444    1.682366
  H      0.109888    1.710336    0.371170
  H     -2.161372    1.018482    0.622160
  H     -1.067628   -0.334656   -1.883036
  H     -1.392716    1.394538   -1.708626
  H     -2.715195    0.231653   -1.627971
  H     -2.953545   -1.280654    0.406256
  H     -1.315458   -1.875856    0.159863
  H     -1.770962   -1.179355    1.713073
  H      2.717303   -0.968138    0.734520

 Total Charge           Charge          ....    0
 Multiplicity           Mult            ....    1
 Number of Electrons    NEL             ....   58
 Basis Dimension        Dim             ....  208

ORBITAL ENERGIES
----------------

  NO   OCC          E(Eh)            E(eV)
   0   2.0000     -18.946756      -515.5674
   1   2.0000     -10.073945      -274.1260
   2   2.0000     -10.026777      -272.8425
   3   2.0000     -10.013437      -272.4795
   4   2.0000     -10.008977      -272.3581
   5   2.0000     -10.006035      -272.2781
   6   2.0000     -10.005657      -272.2678
   7   2.0000      -0.982854       -26.7448
   8   2.0000      -0.770778       -20.9739
   9   2.0000      -0.710321       -19.3288
  10   2.0000      -0.646147       -17.5826
  11   2.0000      -0.640200       -17.4207
  12   2.0000      -0.566908       -15.4264
  13   2.0000      -0.505211       -13.7475
  14   2.0000      -0.474587       -12.9142
  15   2.0000      -0.424548       -11.5526
  16   2.0000      -0.413216       -11.2442
  17   2.0000      -0.388651       -10.5757
  18   2.0000      -0.387341       -10.5401
  19   2.0000      -0.372299       -10.1308
  20   2.0000      -0.350006        -9.5242
  21   2.0000      -0.336341        -9.1523
  22   2.0000      -0.332481        -9.0473
  23   2.0000      -0.317254        -8.6329
  24   2.0000      -0.305735        -8.3195
  25   2.0000      -0.286932        -7.8078
  26   2.0000      -0.284745        -7.7483
  27   2.0000      -0.267483        -7.2786
  28   2.0000      -0.235987        -6.4215
  29   0.0000       0.078958         2.1486
  30   0.0000       0.091426         2.4878
  31   0.0000       0.120225         3.2715
  32   0.0000       0.125199         3.4068
  33   0.0000       0.135328         3.6825

MULLIKEN ATOMIC CHARGES
-----------------------
   0 C :   -0.564838
   1 C :    0.076202
   2 H :    0.148402
   3 C :   -0.311515
   4 C :   -0.019742
   5 C :   -0.552583
   6 C :   -0.535826
   7 O :   -0.526569
   8 H :    0.168317
   9 H :    0.160215
  10 H :    0.169786
  11 H :    0.164429
  12 H :    0.164415
  13 H :    0.154206
  14 H :    0.168966
  15 H :    0.163218
  16 H :    0.156569
  17 H :    0.158302
  18 H :    0.159386
  19 H :    0.160469
  20 H :    0.338195
Sum of atomic charges:    0.0000000

LOEWDIN ATOMIC CHARGES
----------------------
   0 C :   -0.405230
   1 C :    0.050881
   2 H :    0.167638
   3 C :   -0.271335
   4 C :   -0.238486
   5 C :   -0.425564
   6 C :   -0.426444
   7 O :   -0.660308
   8 H :    0.161669
   9 H :    0.158031
  10 H :    0.165287
  11 H :    0.178050
  12 H :    0.166077
  13 H :    0.158874
  14 H :    0.156297
  15 H :    0.156718
  16 H :    0.155618
  17 H :    0.156304
  18 H :    0.154357
  19 H :    0.156485
  20 H :    0.285079

  Mayer bond orders larger than 0.100000
B(  0-C ,  1-C ) :   0.9075 B(  0-C ,  8-H ) :   0.9848 B(  0-C ,  9-H ) :   0.9683
B(  0-C , 10-H ) :   0.9619 B(  1-C ,  2-H ) :   0.9589 B(  1-C ,  3-C ) :   0.8554
B(  1-C ,  7-O ) :   0.8395 B(  3-C ,  4-C ) :   0.8927 B(  3-C , 11-H ) :   0.9800
B(  3-C , 12-H ) :   0.9689 B(  4-C ,  5-C ) :   0.8844 B(  4-C ,  6-C ) :   0.9154
B(  4-C , 13-H ) :   0.9709 B(  5-C , 14-H ) :   0.9756 B(  5-C , 15-H ) :   0.9709
B(  5-C , 16-H ) :   0.9675 B(  6-C , 17-H ) :   0.9705 B(  6-C , 18-H ) :   0.9735
B(  6-C , 19-H ) :   0.9749 B(  7-O , 20-H ) :   0.8779

Dispersion correction           -0.005699012
FINAL SINGLE POINT ENERGY      -312.205143480401

DIPOLE MOMENT
-------------

Method             : SCF
Type of density    : Electron Density
Multiplicity       :   1
Irrep              :   0
Energy             :  -312.2106832041804410 Eh
Relativity type    :
Basis              : AO
                                X                 Y                 Z
Electronic contribution:      3.696195768      -0.452722737       2.998433925
Nuclear contribution   :     -3.657770639       0.300529261      -3.817930424
                        -----------------------------------------
Total Dipole Moment    :      0.038425128      -0.152193477      -0.819496499
                        -----------------------------------------
Magnitude (a.u.)       :      0.834394305
Magnitude (Debye)      :      2.120861776

Rotational constants in cm-1:             0.124766             0.056171             0.044993
Rotational constants in MHz :          3740.401307          1683.963382          1348.858073

                             ****ORCA TERMINATED NORMALLY****
TOTAL RUN TIME: 0 days 0 hours 0 minutes 36 seconds 56 msec
