                         Program Version 6.0.0  -   RELEASE  -
|  1> ! pbe def2-sv(p) def2/J RI DEFGRID1 loosescf d4 GCP(DFT/SV(P)) printgap
|  2> %output
|  3>     printlevel normal
|  4> end
|  5> * xyz 0 1
|  6> C -0.0693472654 -2.5251345018 -0.0278121258
|  7> C 0.0139167903 -1.1956385858 -0.0083213973
|  8> C -1.2442512394 -0.410842636 -0.1222654045
|  9> C -1.9998059592 -0.1289879312 1.0093537948
| 10> C -3.1813061753 0.583659878 0.9016929585
| 11> C -3.6197240593 1.0194447893 -0.3375172621
| 12> C -2.8723590143 0.7399363508 -1.4697132323
| 13> C -1.6902751796 0.0286284843 -1.3634171451
| 14> C 1.2643323162 -0.4334731223 0.1169352292
| 15> C 2.5022896282 -1.0574718716 0.283097059
| 16> C 3.6619108677 -0.3157720044 0.3987990666
| 17> C 3.6168310015 1.0681772477 0.352261781
| 18> C 2.396961101 1.7028850386 0.1914917749
| 19> C 1.235544523 0.9622777323 0.0768897084
| 20> H 0.7857874725 -3.1728880704 0.0426852935
| 21> H -1.0253100358 -3.0118791963 -0.1225511522
| 22> H -1.6548235338 -0.4702081776 1.9746444724
| 23> H -3.7613477455 0.7983823887 1.786973587
| 24> H -4.5419446706 1.5746419035 -0.4210506139
| 25> H -3.2112635744 1.0766547008 -2.4382388002
| 26> H -1.1041923678 -0.1899375301 -2.2444785541
| 27> H 2.5649914333 -2.1330691054 0.3258779292
| 28> H 4.6082159034 -0.8202580709 0.5270933681
| 29> H 4.5243586519 1.6457319032 0.4420800027
| 30> H 2.3485463452 2.7812106435 0.1556404535
| 31> H 0.2915977425 1.4724857699 -0.046251029
| 32> *
| 33>
| 34>                          ****END OF INPUT****

CARTESIAN COORDINATES (ANGSTROEM)
---------------------------------
  C     -0.069347   -2.525135   -0.027812
  C      0.013917   -1.195639   -0.008321
  C     -1.244251   -0.410843   -0.122265
  C     -1.999806   -0.128988    1.009354
  C     -3.181306    0.583660    0.901693
  C     -3.619724    1.019445   -0.337517
  C     -2.872359    0.739936   -1.469713
  C     -1.690275    0.028628   -1.363417
  C      1.264332   -0.433473    0.116935
  C      2.502290   -1.057472    0.283097
  C      3.661911   -0.315772    0.398799
  C      3.616831    1.068177    0.352262
  C      2.396961    1.702885    0.191492
  C      1.235545    0.962278    0.076890
  H      0.785787   -3.172888    0.042685
  H     -1.025310   -3.011879   -0.122551
  H     -1.654824   -0.470208    1.974644
  H     -3.761348    0.798382    1.786974
  H     -4.541945    1.574642   -0.421051
  H     -3.211264    1.076655   -2.438239
  H     -1.104192   -0.189938   -2.244479
  H      2.564991   -2.133069    0.325878
  H      4.608216   -0.820258    0.527093
  H      4.524359    1.645732    0.442080
  H      2.348546    2.781211    0.155640
  H      0.291598    1.472486   -0.046251

 Total Charge           Charge          ....    0
 Multiplicity           Mult            ....    1
 Number of Electrons    NEL             ....   96
 Basis Dimension        Dim             ....  220

ORBITAL ENERGIES
----------------

  NO   OCC          E(Eh)            E(eV)
   0   2.0000      -9.907404      -269.5942
   1   2.0000      -9.904460      -269.5141
   2   2.0000      -9.903286      -269.4821
   3   2.0000      -9.893604      -269.2187
   4   2.0000      -9.893531      -269.2167
   5   2.0000      -9.893368      -269.2122
   6   2.0000      -9.893260      -269.2093
   7   2.0000      -9.892945      -269.2007
   8   2.0000      -9.892715      -269.1945
   9   2.0000      -9.892642      -269.1925
  10   2.0000      -9.892371      -269.1851
  11   2.0000      -9.892178      -269.1799
  12   2.0000      -9.890426      -269.1322
  13   2.0000      -9.883778      -268.9513
  14   2.0000      -0.789771       -21.4908
  15   2.0000      -0.774526       -21.0759
  16   2.0000      -0.727000       -19.7827
  17   2.0000      -0.673594       -18.3294
  18   2.0000      -0.671149       -18.2629
  19   2.0000      -0.667792       -18.1716
  20   2.0000      -0.644673       -17.5424
  21   2.0000      -0.567463       -15.4414
  22   2.0000      -0.544642       -14.8205
  23   2.0000      -0.543357       -14.7855
  24   2.0000      -0.532555       -14.4916
  25   2.0000      -0.497170       -13.5287
  26   2.0000      -0.476620       -12.9695
  27   2.0000      -0.449451       -12.2302
  28   2.0000      -0.419760       -11.4222
  29   2.0000      -0.409411       -11.1406
  30   2.0000      -0.407227       -11.0812
  31   2.0000      -0.395543       -10.7633
  32   2.0000      -0.393173       -10.6988
  33   2.0000      -0.375740       -10.2244
  34   2.0000      -0.375546       -10.2191
  35   2.0000      -0.367320        -9.9953
  36   2.0000      -0.340233        -9.2582
  37   2.0000      -0.339462        -9.2372
  38   2.0000      -0.329246        -8.9592
  39   2.0000      -0.313305        -8.5255
  40   2.0000      -0.304312        -8.2807
  41   2.0000      -0.301063        -8.1923
  42   2.0000      -0.285370        -7.7653
  43   2.0000      -0.268134        -7.2963
  44   2.0000      -0.233872        -6.3640
  45   2.0000      -0.228954        -6.2301
  46   2.0000      -0.225777        -6.1437
  47   2.0000      -0.204119        -5.5544
  48   0.0000      -0.066838        -1.8187
  49   0.0000      -0.039547        -1.0761
  50   0.0000      -0.035652        -0.9701
  51   0.0000      -0.028950        -0.7878
  52   0.0000       0.018263         0.4970

MULLIKEN ATOMIC CHARGES
-----------------------
   0 C :   -0.229923
   1 C :    0.029352
   2 C :   -0.006170
   3 C :   -0.066348
   4 C :   -0.051753
   5 C :   -0.044271
   6 C :   -0.053271
   7 C :   -0.069271
   8 C :    0.165814
   9 C :   -0.143569
  10 C :   -0.043621
  11 C :   -0.043609
  12 C :   -0.040324
  13 C :   -0.127427
  14 H :    0.095355
  15 H :    0.100788
  16 H :    0.046267
  17 H :    0.053536
  18 H :    0.053689
  19 H :    0.053719
  20 H :    0.047545
  21 H :    0.040312
  22 H :    0.050577
  23 H :    0.053286
  24 H :    0.050515
  25 H :    0.078801
Sum of atomic charges:   -0.0000000

LOEWDIN ATOMIC CHARGES
----------------------
   0 C :   -0.231000
   1 C :   -0.028353
   2 C :   -0.029293
   3 C :   -0.112986
   4 C :   -0.121034
   5 C :   -0.125872
   6 C :   -0.121674
   7 C :   -0.113913
   8 C :   -0.031388
   9 C :   -0.107584
  10 C :   -0.120717
  11 C :   -0.121925
  12 C :   -0.120611
  13 C :   -0.114268
  14 H :    0.119545
  15 H :    0.127610
  16 H :    0.126514
  17 H :    0.124210
  18 H :    0.123520
  19 H :    0.124251
  20 H :    0.126607
  21 H :    0.123361
  22 H :    0.123664
  23 H :    0.123612
  24 H :    0.124150
  25 H :    0.133573

  Mayer bond orders larger than 0.100000
B(  0-C ,  1-C ) :   1.9868 B(  0-C , 14-H ) :   0.8895 B(  0-C , 15-H ) :   0.9053
B(  1-C ,  2-C ) :   0.9446 B(  1-C ,  8-C ) :   1.0752 B(  2-C ,  3-C ) :   1.3960
B(  2-C ,  7-C ) :   1.3880 B(  3-C ,  4-C ) :   1.3569 B(  3-C , 16-H ) :   0.9668
B(  4-C ,  5-C ) :   1.3795 B(  4-C , 17-H ) :   0.9638 B(  5-C ,  6-C ) :   1.3772
B(  5-C , 18-H ) :   0.9651 B(  6-C ,  7-C ) :   1.3594 B(  6-C , 19-H ) :   0.9641
B(  7-C , 20-H ) :   0.9666 B(  8-C ,  9-C ) :   1.3429 B(  8-C , 13-C ) :   1.3691
B(  9-C , 10-C ) :   1.3975 B(  9-C , 21-H ) :   0.9530 B( 10-C , 11-C ) :   1.3590
B( 10-C , 22-H ) :   0.9609 B( 11-C , 12-C ) :   1.3778 B( 11-C , 23-H ) :   0.9655
B( 12-C , 13-C ) :   1.3646 B( 12-C , 24-H ) :   0.9626 B( 13-C , 25-H ) :   0.9353

Dispersion correction           -0.033769182
FINAL SINGLE POINT ENERGY      -539.510018103544

DIPOLE MOMENT
-------------

Method             : SCF
Type of density    : Electron Density
Multiplicity       :   1
Irrep              :   0
Energy             :  -539.5705033705439746 Eh
Relativity type    :
Basis              : AO
                                X                 Y                 Z
Electronic contribution:      0.186542874       0.510107309       0.020920614
Nuclear contribution   :     -0.164540393      -0.421363034      -0.016488381
                        -----------------------------------------
Total Dipole Moment    :      0.022002481       0.088744275       0.004432233
                        -----------------------------------------
Magnitude (a.u.)       :      0.091538517
Magnitude (Debye)      :      0.232672420

Rotational constants in cm-1:             0.052132             0.014272             0.012664
Rotational constants in MHz :          1562.872763           427.865176           379.663592

                             ****ORCA TERMINATED NORMALLY****
TOTAL RUN TIME: 0 days 0 hours 0 minutes 19 seconds 432 msec
