                         Program Version 6.0.0  -   RELEASE  -
|  1> ! pbe def2-sv(p) def2/J RI DEFGRID1 loosescf d4 GCP(DFT/SV(P)) printgap
|  2> %output
|  3>     printlevel normal
|  4> end
|  5> * xyz 0 1
|  6> C 2.3532542282 -0.1490424051 -0.6984309382
|  7> C 1.5279121363 -0.6609632997 0.4771946697
|  8> C 0.324559862 0.2219594134 0.8043113029
|  9> C -0.7800980046 0.2434618829 -0.2576176876
| 10> H -0.3381043134 0.4752732204 -1.2392797839
| 11> C -1.5327393164 -1.0825211913 -0.3435659074
| 12> O -1.6534167535 1.3055824823 0.1070430847
| 13> H 3.2445812831 -0.7589114576 -0.8240946476
| 14> H 2.6614485503 0.8794372917 -0.5253253827
| 15> H 1.7849279511 -0.1861490305 -1.6239546191
| 16> H 1.1969743859 -1.6805081236 0.274395151
| 17> H 2.1652225439 -0.6949704524 1.3631737573
| 18> H -0.1245563655 -0.1047211906 1.7445534608
| 19> H 0.6576893372 1.2529542981 0.9434174785
| 20> H -0.8531913292 -1.8840958025 -0.6147545097
| 21> H -1.986706582 -1.3116088172 0.6178589029
| 22> H -2.315630772 -1.028200849 -1.0970743188
| 23> H -2.4036107736 1.3233036624 -0.5023198026
| 24> *
| 25>
| 26>                          ****END OF INPUT****

CARTESIAN COORDINATES (ANGSTROEM)
---------------------------------
  C      2.353254   -0.149042   -0.698431
  C      1.527912   -0.660963    0.477195
  C      0.324560    0.221959    0.804311
  C     -0.780098    0.243462   -0.257618
  H     -0.338104    0.475273   -1.239280
  C     -1.532739   -1.082521   -0.343566
  O     -1.653417    1.305582    0.107043
  H      3.244581   -0.758911   -0.824095
  H      2.661449    0.879437   -0.525325
  H      1.784928   -0.186149   -1.623955
  H      1.196974   -1.680508    0.274395
  H      2.165223   -0.694970    1.363174
  H     -0.124556   -0.104721    1.744553
  H      0.657689    1.252954    0.943417
  H     -0.853191   -1.884096   -0.614755
  H     -1.986707   -1.311609    0.617859
  H     -2.315631   -1.028201   -1.097074
  H     -2.403611    1.323304   -0.502320

 Total Charge           Charge          ....    0
 Multiplicity           Mult            ....    1
 Number of Electrons    NEL             ....   50
 Basis Dimension        Dim             ....  108

ORBITAL ENERGIES
----------------

  NO   OCC          E(Eh)            E(eV)
   0   2.0000     -18.734837      -509.8008
   1   2.0000      -9.933882      -270.3147
   2   2.0000      -9.883934      -268.9555
   3   2.0000      -9.876111      -268.7427
   4   2.0000      -9.875576      -268.7281
   5   2.0000      -9.872501      -268.6444
   6   2.0000      -0.911842       -24.8125
   7   2.0000      -0.717606       -19.5271
   8   2.0000      -0.664137       -18.0721
   9   2.0000      -0.610211       -16.6047
  10   2.0000      -0.552490       -15.0340
  11   2.0000      -0.492833       -13.4107
  12   2.0000      -0.454446       -12.3661
  13   2.0000      -0.420120       -11.4321
  14   2.0000      -0.397522       -10.8171
  15   2.0000      -0.372999       -10.1498
  16   2.0000      -0.369635       -10.0583
  17   2.0000      -0.348345        -9.4790
  18   2.0000      -0.329649        -8.9702
  19   2.0000      -0.315713        -8.5910
  20   2.0000      -0.297183        -8.0868
  21   2.0000      -0.291179        -7.9234
  22   2.0000      -0.285772        -7.7762
  23   2.0000      -0.260088        -7.0774
  24   2.0000      -0.208846        -5.6830
  25   0.0000       0.027512         0.7486
  26   0.0000       0.044757         1.2179
  27   0.0000       0.066485         1.8091
  28   0.0000       0.074873         2.0374
  29   0.0000       0.089657         2.4397

MULLIKEN ATOMIC CHARGES
-----------------------
   0 C :   -0.290609
   1 C :   -0.186331
   2 C :   -0.131918
   3 C :    0.004533
   4 H :    0.062558
   5 C :   -0.273608
   6 O :   -0.427977
   7 H :    0.101855
   8 H :    0.100566
   9 H :    0.107436
  10 H :    0.088535
  11 H :    0.087436
  12 H :    0.081038
  13 H :    0.089203
  14 H :    0.102896
  15 H :    0.102772
  16 H :    0.091228
  17 H :    0.290387
Sum of atomic charges:    0.0000000

LOEWDIN ATOMIC CHARGES
----------------------
   0 C :   -0.343532
   1 C :   -0.234694
   2 C :   -0.227920
   3 C :   -0.057542
   4 H :    0.094155
   5 C :   -0.353791
   6 O :   -0.336944
   7 H :    0.119306
   8 H :    0.118663
   9 H :    0.114280
  10 H :    0.112721
  11 H :    0.119253
  12 H :    0.117742
  13 H :    0.120686
  14 H :    0.122275
  15 H :    0.122279
  16 H :    0.113801
  17 H :    0.279262

  Mayer bond orders larger than 0.100000
B(  0-C ,  1-C ) :   1.1491 B(  0-C ,  7-H ) :   0.9506 B(  0-C ,  8-H ) :   0.9548
B(  0-C ,  9-H ) :   0.9502 B(  1-C ,  2-C ) :   1.1106 B(  1-C , 10-H ) :   0.9223
B(  1-C , 11-H ) :   0.9231 B(  2-C ,  3-C ) :   1.0791 B(  2-C , 12-H ) :   0.9132
B(  2-C , 13-H ) :   0.9146 B(  3-C ,  4-H ) :   0.9096 B(  3-C ,  5-C ) :   1.1030
B(  3-C ,  6-O ) :   1.0567 B(  5-C , 14-H ) :   0.9316 B(  5-C , 15-H ) :   0.9418
B(  5-C , 16-H ) :   0.9450 B(  6-O , 17-H ) :   0.8539

Dispersion correction           -0.012700418
FINAL SINGLE POINT ENERGY      -272.304247499679

DIPOLE MOMENT
-------------

Method             : SCF
Type of density    : Electron Density
Multiplicity       :   1
Irrep              :   0
Energy             :  -272.3738406645421719 Eh
Relativity type    :
Basis              : AO
                                X                 Y                 Z
Electronic contribution:     -3.553034071       3.124598961       0.954782569
Nuclear contribution   :      3.436389373      -3.468901989      -1.390087405
                        -----------------------------------------
Total Dipole Moment    :     -0.116644697      -0.344303029      -0.435304837
                        -----------------------------------------
Magnitude (a.u.)       :      0.567133901
Magnitude (Debye)      :      1.441539816

Rotational constants in cm-1:             0.190513             0.065830             0.059619
Rotational constants in MHz :          5711.431597          1973.537651          1787.324420

                             ****ORCA TERMINATED NORMALLY****
TOTAL RUN TIME: 0 days 0 hours 0 minutes 7 seconds 902 msec
