                         Program Version 6.0.0  -   RELEASE  -
|  1> ! pbe def2-sv(p) def2/J RI DEFGRID1 loosescf d4 GCP(DFT/SV(P)) printgap
|  2> %output
|  3>     printlevel normal
|  4> end
|  5> * xyz 0 1
|  6> C -2.6562343327 -1.2163563113 -0.279307093
|  7> C -2.4615668084 0.2081740412 0.2263513968
|  8> C -1.1347413564 0.8570029929 -0.1771886114
|  9> C 0.1035974912 0.3062010149 0.5402401408
| 10> C 0.6135069934 -1.0304697539 -0.0381004708
| 11> C 2.131406711 -0.886493481 -0.1484543807
| 12> C 2.3080864104 0.5856311664 -0.497572882
| 13> C 1.3057431589 1.2733485719 0.4271174611
| 14> H -2.5244615672 -1.2598706814 -1.358113787
| 15> H -1.9496740701 -1.8976498636 0.1839579253
| 16> H -3.6618063481 -1.5590779935 -0.0448895757
| 17> H -3.2707948024 0.8271441848 -0.169800281
| 18> H -2.5460052312 0.2191184008 1.3155966759
| 19> H -1.0000303351 0.7709768761 -1.2577356898
| 20> H -1.2141899434 1.9213940383 0.0593354882
| 21> H -0.1539700853 0.1777865729 1.5956444335
| 22> H 0.3365197702 -1.8805613023 0.5837024299
| 23> H 0.1946729649 -1.1856474633 -1.0326273789
| 24> H 2.6021140891 -1.0963955102 0.8135398731
| 25> H 2.5580837719 -1.5557055896 -0.8943970544
| 26> H 3.3265286664 0.9398148709 -0.345009652
| 27> H 2.0354525183 0.7538147402 -1.5404541527
| 28> H 1.7585515441 1.4177653407 1.409029554
| 29> H 1.0088731403 2.2507025531 0.0496081625
| 30> *
| 31>
| 32>                          ****END OF INPUT****

CARTESIAN COORDINATES (ANGSTROEM)
---------------------------------
  C     -2.656234   -1.216356   -0.279307
  C     -2.461567    0.208174    0.226351
  C     -1.134741    0.857003   -0.177189
  C      0.103597    0.306201    0.540240
  C      0.613507   -1.030470   -0.038100
  C      2.131407   -0.886493   -0.148454
  C      2.308086    0.585631   -0.497573
  C      1.305743    1.273349    0.427117
  H     -2.524462   -1.259871   -1.358114
  H     -1.949674   -1.897650    0.183958
  H     -3.661806   -1.559078   -0.044890
  H     -3.270795    0.827144   -0.169800
  H     -2.546005    0.219118    1.315597
  H     -1.000030    0.770977   -1.257736
  H     -1.214190    1.921394    0.059335
  H     -0.153970    0.177787    1.595644
  H      0.336520   -1.880561    0.583702
  H      0.194673   -1.185647   -1.032627
  H      2.602114   -1.096396    0.813540
  H      2.558084   -1.555706   -0.894397
  H      3.326529    0.939815   -0.345010
  H      2.035453    0.753815   -1.540454
  H      1.758552    1.417765    1.409030
  H      1.008873    2.250703    0.049608

 Total Charge           Charge          ....    0
 Multiplicity           Mult            ....    1
 Number of Electrons    NEL             ....   64
 Basis Dimension        Dim             ....  144

ORBITAL ENERGIES
----------------

  NO   OCC          E(Eh)            E(eV)
   0   2.0000      -9.884114      -268.9604
   1   2.0000      -9.878720      -268.8136
   2   2.0000      -9.876319      -268.7483
   3   2.0000      -9.875316      -268.7210
   4   2.0000      -9.874961      -268.7113
   5   2.0000      -9.873803      -268.6798
   6   2.0000      -9.873068      -268.6598
   7   2.0000      -9.867733      -268.5147
   8   2.0000      -0.758495       -20.6397
   9   2.0000      -0.703095       -19.1322
  10   2.0000      -0.643402       -17.5079
  11   2.0000      -0.629265       -17.1232
  12   2.0000      -0.585618       -15.9355
  13   2.0000      -0.514691       -14.0055
  14   2.0000      -0.503290       -13.6952
  15   2.0000      -0.482893       -13.1402
  16   2.0000      -0.434045       -11.8110
  17   2.0000      -0.421256       -11.4630
  18   2.0000      -0.391891       -10.6639
  19   2.0000      -0.386767       -10.5245
  20   2.0000      -0.368007       -10.0140
  21   2.0000      -0.363026        -9.8784
  22   2.0000      -0.335371        -9.1259
  23   2.0000      -0.317419        -8.6374
  24   2.0000      -0.308085        -8.3834
  25   2.0000      -0.290805        -7.9132
  26   2.0000      -0.288854        -7.8601
  27   2.0000      -0.287093        -7.8122
  28   2.0000      -0.280511        -7.6331
  29   2.0000      -0.267927        -7.2907
  30   2.0000      -0.263974        -7.1831
  31   2.0000      -0.257476        -7.0063
  32   0.0000       0.032024         0.8714
  33   0.0000       0.042873         1.1666
  34   0.0000       0.050184         1.3656
  35   0.0000       0.070361         1.9146
  36   0.0000       0.088659         2.4125

MULLIKEN ATOMIC CHARGES
-----------------------
   0 C :   -0.284287
   1 C :   -0.166902
   2 C :   -0.140758
   3 C :   -0.182950
   4 C :   -0.131332
   5 C :   -0.153005
   6 C :   -0.165946
   7 C :   -0.100175
   8 H :    0.095081
   9 H :    0.112134
  10 H :    0.100087
  11 H :    0.081558
  12 H :    0.080231
  13 H :    0.074507
  14 H :    0.078480
  15 H :    0.056776
  16 H :    0.090267
  17 H :    0.076505
  18 H :    0.077497
  19 H :    0.085569
  20 H :    0.086824
  21 H :    0.079655
  22 H :    0.072363
  23 H :    0.077819
Sum of atomic charges:   -0.0000000

LOEWDIN ATOMIC CHARGES
----------------------
   0 C :   -0.344448
   1 C :   -0.231620
   2 C :   -0.218453
   3 C :   -0.144223
   4 C :   -0.223902
   5 C :   -0.227114
   6 C :   -0.228205
   7 C :   -0.219930
   8 H :    0.115579
   9 H :    0.117809
  10 H :    0.117811
  11 H :    0.114538
  12 H :    0.113250
  13 H :    0.110616
  14 H :    0.114046
  15 H :    0.113929
  16 H :    0.116156
  17 H :    0.115481
  18 H :    0.114202
  19 H :    0.114821
  20 H :    0.115017
  21 H :    0.114071
  22 H :    0.116263
  23 H :    0.114306

  Mayer bond orders larger than 0.100000
B(  0-C ,  1-C ) :   1.1706 B(  0-C ,  8-H ) :   0.9522 B(  0-C ,  9-H ) :   0.9416
B(  0-C , 10-H ) :   0.9505 B(  1-C ,  2-C ) :   1.1300 B(  1-C , 11-H ) :   0.9249
B(  1-C , 12-H ) :   0.9224 B(  2-C ,  3-C ) :   1.0862 B(  2-C , 13-H ) :   0.9151
B(  2-C , 14-H ) :   0.9161 B(  3-C ,  4-C ) :   1.1184 B(  3-C ,  7-C ) :   1.1092
B(  3-C , 15-H ) :   0.8936 B(  4-C ,  5-C ) :   1.1401 B(  4-C , 16-H ) :   0.9124
B(  4-C , 17-H ) :   0.9081 B(  5-C ,  6-C ) :   1.1174 B(  5-C , 18-H ) :   0.9197
B(  5-C , 19-H ) :   0.9268 B(  6-C ,  7-C ) :   1.1459 B(  6-C , 20-H ) :   0.9269
B(  6-C , 21-H ) :   0.9217 B(  7-C , 22-H ) :   0.9127 B(  7-C , 23-H ) :   0.9188

Dispersion correction           -0.021160769
FINAL SINGLE POINT ENERGY      -313.690612426039

DIPOLE MOMENT
-------------

Method             : SCF
Type of density    : Electron Density
Multiplicity       :   1
Irrep              :   0
Energy             :  -313.7715778265679205 Eh
Relativity type    :
Basis              : AO
                                X                 Y                 Z
Electronic contribution:      2.347039256       1.090577127       0.629491048
Nuclear contribution   :     -2.345535112      -1.084883132      -0.593494162
                        -----------------------------------------
Total Dipole Moment    :      0.001504145       0.005693994       0.035996886
                        -----------------------------------------
Magnitude (a.u.)       :      0.036475469
Magnitude (Debye)      :      0.092713274

Rotational constants in cm-1:             0.133953             0.039994             0.033743
Rotational constants in MHz :          4015.796066          1198.987788          1011.594148

                             ****ORCA TERMINATED NORMALLY****
TOTAL RUN TIME: 0 days 0 hours 0 minutes 10 seconds 793 msec
