                         Program Version 6.0.0  -   RELEASE  -
|  1> ! pbe def2-sv(p) def2/J RI DEFGRID1 loosescf d4 GCP(DFT/SV(P)) printgap
|  2> %output
|  3>     printlevel normal
|  4> end
|  5> * xyz 0 1
|  6> C -2.2535457986 0.3071809911 1.1434514909
|  7> C -1.830034615 0.514146915 -0.3135818521
|  8> C -0.5285975321 -0.2028560066 -0.56537751
|  9> O -0.4282907526 -1.2871407492 -1.1038607766
| 10> O 0.5016171508 0.4843741528 -0.0975036233
| 11> C 1.8213125741 -0.078668117 -0.1924871817
| 12> C 2.6043044578 0.295696128 1.0531400869
| 13> H -3.2014121281 0.8053144422 1.3230121492
| 14> H -2.3698777748 -0.7529403959 1.3561532104
| 15> H -1.5052782595 0.7203070919 1.8144700932
| 16> H -1.6877674492 1.5764405182 -0.5077642071
| 17> H -2.5826627062 0.1064566839 -0.9872825265
| 18> H 1.7291562735 -1.1632498989 -0.3079308671
| 19> H 2.2885451055 0.334754768 -1.0912136395
| 20> H 3.6165730123 -0.085038383 0.9671324507
| 21> H 2.634730715 1.375991434 1.1596460297
| 22> H 2.1372300007 -0.1314557882 1.9360380225
| 23> *
| 24>
| 25>                          ****END OF INPUT****

CARTESIAN COORDINATES (ANGSTROEM)
---------------------------------
  C     -2.253546    0.307181    1.143451
  C     -1.830035    0.514147   -0.313582
  C     -0.528598   -0.202856   -0.565378
  O     -0.428291   -1.287141   -1.103861
  O      0.501617    0.484374   -0.097504
  C      1.821313   -0.078668   -0.192487
  C      2.604304    0.295696    1.053140
  H     -3.201412    0.805314    1.323012
  H     -2.369878   -0.752940    1.356153
  H     -1.505278    0.720307    1.814470
  H     -1.687767    1.576441   -0.507764
  H     -2.582663    0.106457   -0.987283
  H      1.729156   -1.163250   -0.307931
  H      2.288545    0.334755   -1.091214
  H      3.616573   -0.085038    0.967132
  H      2.634731    1.375991    1.159646
  H      2.137230   -0.131456    1.936038

 Total Charge           Charge          ....    0
 Multiplicity           Mult            ....    1
 Number of Electrons    NEL             ....   56
 Basis Dimension        Dim             ....  118

ORBITAL ENERGIES
----------------

  NO   OCC          E(Eh)            E(eV)
   0   2.0000     -18.797054      -511.4938
   1   2.0000     -18.728371      -509.6249
   2   2.0000     -10.003310      -272.2039
   3   2.0000      -9.945736      -270.6372
   4   2.0000      -9.898072      -269.3402
   5   2.0000      -9.889763      -269.1141
   6   2.0000      -9.887903      -269.0635
   7   2.0000      -1.003441       -27.3050
   8   2.0000      -0.905842       -24.6492
   9   2.0000      -0.722733       -19.6666
  10   2.0000      -0.689180       -18.7535
  11   2.0000      -0.602700       -16.4003
  12   2.0000      -0.561338       -15.2748
  13   2.0000      -0.504830       -13.7371
  14   2.0000      -0.443516       -12.0687
  15   2.0000      -0.443320       -12.0633
  16   2.0000      -0.415927       -11.3179
  17   2.0000      -0.388855       -10.5813
  18   2.0000      -0.381365       -10.3775
  19   2.0000      -0.368157       -10.0181
  20   2.0000      -0.358382        -9.7521
  21   2.0000      -0.336543        -9.1578
  22   2.0000      -0.328898        -8.9498
  23   2.0000      -0.314128        -8.5479
  24   2.0000      -0.312528        -8.5043
  25   2.0000      -0.290971        -7.9177
  26   2.0000      -0.253591        -6.9006
  27   2.0000      -0.213191        -5.8012
  28   0.0000      -0.017665        -0.4807
  29   0.0000       0.038339         1.0433
  30   0.0000       0.058754         1.5988
  31   0.0000       0.077204         2.1008
  32   0.0000       0.089092         2.4243

MULLIKEN ATOMIC CHARGES
-----------------------
   0 C :   -0.304999
   1 C :   -0.131731
   2 C :    0.094637
   3 O :   -0.209507
   4 O :   -0.246057
   5 C :   -0.026920
   6 C :   -0.282952
   7 H :    0.115769
   8 H :    0.115491
   9 H :    0.112757
  10 H :    0.102570
  11 H :    0.104004
  12 H :    0.114673
  13 H :    0.103522
  14 H :    0.111481
  15 H :    0.114007
  16 H :    0.113256
Sum of atomic charges:   -0.0000000

LOEWDIN ATOMIC CHARGES
----------------------
   0 C :   -0.331717
   1 C :   -0.248859
   2 C :    0.034568
   3 O :   -0.172359
   4 O :   -0.071296
   5 C :   -0.111646
   6 C :   -0.351315
   7 H :    0.123811
   8 H :    0.124743
   9 H :    0.121792
  10 H :    0.132038
  11 H :    0.133871
  12 H :    0.119527
  13 H :    0.116015
  14 H :    0.129973
  15 H :    0.125425
  16 H :    0.125428

  Mayer bond orders larger than 0.100000
B(  0-C ,  1-C ) :   1.1390 B(  0-C ,  7-H ) :   0.9523 B(  0-C ,  8-H ) :   0.9537
B(  0-C ,  9-H ) :   0.9537 B(  1-C ,  2-C ) :   1.0252 B(  1-C , 10-H ) :   0.9068
B(  1-C , 11-H ) :   0.9132 B(  2-C ,  3-O ) :   2.0666 B(  2-C ,  4-O ) :   1.1945
B(  4-O ,  5-C ) :   0.9135 B(  5-C ,  6-C ) :   1.1598 B(  5-C , 12-H ) :   0.9124
B(  5-C , 13-H ) :   0.9368 B(  6-C , 14-H ) :   0.9448 B(  6-C , 15-H ) :   0.9488
B(  6-C , 16-H ) :   0.9522

Dispersion correction           -0.011743229
FINAL SINGLE POINT ENERGY      -346.243442394408

DIPOLE MOMENT
-------------

Method             : SCF
Type of density    : Electron Density
Multiplicity       :   1
Irrep              :   0
Energy             :  -346.3080042124610145 Eh
Relativity type    :
Basis              : AO
                                X                 Y                 Z
Electronic contribution:     -0.706451208      -1.998464320      -4.828632445
Nuclear contribution   :      0.994828363       2.602376460       5.294335673
                        -----------------------------------------
Total Dipole Moment    :      0.288377155       0.603912140       0.465703228
                        -----------------------------------------
Magnitude (a.u.)       :      0.815322484
Magnitude (Debye)      :      2.072385059

Rotational constants in cm-1:             0.149954             0.053092             0.043813
Rotational constants in MHz :          4495.505542          1591.672056          1313.492140

                             ****ORCA TERMINATED NORMALLY****
TOTAL RUN TIME: 0 days 0 hours 0 minutes 9 seconds 223 msec
