                         Program Version 6.0.0  -   RELEASE  -
|  1> ! pbe def2-sv(p) def2/J RI DEFGRID1 loosescf d4 GCP(DFT/SV(P)) printgap
|  2> %output
|  3>     printlevel normal
|  4> end
|  5> * xyz 0 1
|  6> C -1.8504630373 -0.759581111 -0.1228000616
|  7> C -1.3271835759 0.6047318045 0.3116322836
|  8> C 0.0733858238 0.8667373948 -0.245954671
|  9> C 1.0909238035 -0.0510294922 0.339139902
| 10> O 2.002425549 -0.5697091683 -0.2604981766
| 11> H -1.1881887946 -1.5512122756 0.2227234712
| 12> H -2.8421062164 -0.9354848688 0.2856208771
| 13> H -1.9099636237 -0.8176970311 -1.2070951775
| 14> H -1.2979130052 0.6561971734 1.4014075893
| 15> H -2.002241326 1.3830049247 -0.0451504739
| 16> H 0.0900651192 0.7872109274 -1.3338976256
| 17> H 0.3867433646 1.8786869889 0.0272155729
| 18> H 0.9695368581 -0.2323736672 1.4236048789
| 19> *
| 20>
| 21>                          ****END OF INPUT****

CARTESIAN COORDINATES (ANGSTROEM)
---------------------------------
  C     -1.850463   -0.759581   -0.122800
  C     -1.327184    0.604732    0.311632
  C      0.073386    0.866737   -0.245955
  C      1.090924   -0.051029    0.339140
  O      2.002426   -0.569709   -0.260498
  H     -1.188189   -1.551212    0.222723
  H     -2.842106   -0.935485    0.285621
  H     -1.909964   -0.817697   -1.207095
  H     -1.297913    0.656197    1.401408
  H     -2.002241    1.383005   -0.045150
  H      0.090065    0.787211   -1.333898
  H      0.386743    1.878687    0.027216
  H      0.969537   -0.232374    1.423605

 Total Charge           Charge          ....    0
 Multiplicity           Mult            ....    1
 Number of Electrons    NEL             ....   40
 Basis Dimension        Dim             ....   86

ORBITAL ENERGIES
----------------

  NO   OCC          E(Eh)            E(eV)
   0   2.0000     -18.747766      -510.1526
   1   2.0000      -9.971487      -271.3380
   2   2.0000      -9.902504      -269.4608
   3   2.0000      -9.898179      -269.3431
   4   2.0000      -9.884133      -268.9609
   5   2.0000      -0.942311       -25.6416
   6   2.0000      -0.732962       -19.9449
   7   2.0000      -0.644303       -17.5324
   8   2.0000      -0.552263       -15.0278
   9   2.0000      -0.513078       -13.9616
  10   2.0000      -0.425362       -11.5747
  11   2.0000      -0.418402       -11.3853
  12   2.0000      -0.406453       -11.0601
  13   2.0000      -0.368315       -10.0223
  14   2.0000      -0.356484        -9.7004
  15   2.0000      -0.343332        -9.3425
  16   2.0000      -0.315447        -8.5838
  17   2.0000      -0.308052        -8.3825
  18   2.0000      -0.304066        -8.2741
  19   2.0000      -0.201684        -5.4881
  20   0.0000      -0.060228        -1.6389
  21   0.0000       0.037022         1.0074
  22   0.0000       0.059141         1.6093
  23   0.0000       0.072551         1.9742
  24   0.0000       0.094907         2.5826

MULLIKEN ATOMIC CHARGES
-----------------------
   0 C :   -0.288158
   1 C :   -0.220204
   2 C :   -0.131695
   3 C :   -0.003445
   4 O :   -0.161328
   5 H :    0.115537
   6 H :    0.111537
   7 H :    0.107785
   8 H :    0.097928
   9 H :    0.099869
  10 H :    0.101197
  11 H :    0.121359
  12 H :    0.049617
Sum of atomic charges:    0.0000000

LOEWDIN ATOMIC CHARGES
----------------------
   0 C :   -0.342024
   1 C :   -0.231958
   2 C :   -0.266168
   3 C :   -0.000387
   4 O :   -0.119327
   5 H :    0.120755
   6 H :    0.122915
   7 H :    0.122106
   8 H :    0.117846
   9 H :    0.122368
  10 H :    0.131108
  11 H :    0.145773
  12 H :    0.076993

  Mayer bond orders larger than 0.100000
B(  0-C ,  1-C ) :   1.1494 B(  0-C ,  5-H ) :   0.9502 B(  0-C ,  6-H ) :   0.9528
B(  0-C ,  7-H ) :   0.9541 B(  1-C ,  2-C ) :   1.0858 B(  1-C ,  8-H ) :   0.9261
B(  1-C ,  9-H ) :   0.9266 B(  2-C ,  3-C ) :   0.9950 B(  2-C , 10-H ) :   0.9071
B(  2-C , 11-H ) :   0.8890 B(  3-C ,  4-O ) :   2.1795 B(  3-C , 12-H ) :   0.9020

Dispersion correction           -0.008155428
FINAL SINGLE POINT ENERGY      -231.917992145918

DIPOLE MOMENT
-------------

Method             : SCF
Type of density    : Electron Density
Multiplicity       :   1
Irrep              :   0
Energy             :  -231.9629764806424816 Eh
Relativity type    :
Basis              : AO
                                X                 Y                 Z
Electronic contribution:      6.431809765      -0.586969546      -0.425956697
Nuclear contribution   :     -7.282407785       1.087626611       0.722674990
                        -----------------------------------------
Total Dipole Moment    :     -0.850598020       0.500657064       0.296718293
                        -----------------------------------------
Magnitude (a.u.)       :      1.030638750
Magnitude (Debye)      :      2.619675515

Rotational constants in cm-1:             0.355685             0.097401             0.085347
Rotational constants in MHz :         10663.182326          2920.019086          2558.633618

                             ****ORCA TERMINATED NORMALLY****
TOTAL RUN TIME: 0 days 0 hours 0 minutes 5 seconds 385 msec
