                         Program Version 6.0.0  -   RELEASE  -
|  1> ! r2scan-3c def2/J RI DEFGRID2 scfconv6 printgap
|  2> %output
|  3>     printlevel normal
|  4> end
|  5> * xyz 0 1
|  6> C 2.5405869293 0.9068379143 -0.5846240594
|  7> C 1.4214159373 0.6412035466 0.416838102
|  8> C 0.3690065622 -0.3490011914 -0.1269700998
|  9> H 0.6879992845 -0.6583197633 -1.1289806095
| 10> C 0.3173083481 -1.6061685323 0.7406848742
| 11> C -1.0078660919 0.3265901905 -0.2973519577
| 12> C -1.9296089627 -0.4913142552 -1.2019908128
| 13> C -1.7043986997 0.6072118491 1.0331833286
| 14> H 2.138959223 1.3346116922 -1.5007499589
| 15> H 3.2657571599 1.603862571 -0.1706171626
| 16> H 3.0574259626 -0.0171667372 -0.8341382596
| 17> H 0.947009215 1.5915849405 0.6674464582
| 18> H 1.8578085294 0.2465253372 1.3360065863
| 19> H 1.2902340173 -2.0930790228 0.7373454648
| 20> H 0.0635126365 -1.3604195575 1.768472203
| 21> H -0.4138929442 -2.3145599984 0.3602449839
| 22> H -0.8262080729 1.2864662228 -0.7968099878
| 23> H -2.8552723932 0.0509843223 -1.3812424123
| 24> H -2.1812528824 -1.4439528933 -0.7427426712
| 25> H -1.455144198 -0.6852587542 -2.1614838514
| 26> H -1.0395670321 1.120788764 1.7230838543
| 27> H -2.0365348711 -0.318493223 1.4954664633
| 28> H -2.5776261285 1.2350517424 0.8697843593
| 29> *
| 30>
| 31>                          ****END OF INPUT****

CARTESIAN COORDINATES (ANGSTROEM)
---------------------------------
  C      2.540587    0.906838   -0.584624
  C      1.421416    0.641204    0.416838
  C      0.369007   -0.349001   -0.126970
  H      0.687999   -0.658320   -1.128981
  C      0.317308   -1.606169    0.740685
  C     -1.007866    0.326590   -0.297352
  C     -1.929609   -0.491314   -1.201991
  C     -1.704399    0.607212    1.033183
  H      2.138959    1.334612   -1.500750
  H      3.265757    1.603863   -0.170617
  H      3.057426   -0.017167   -0.834138
  H      0.947009    1.591585    0.667446
  H      1.857809    0.246525    1.336007
  H      1.290234   -2.093079    0.737345
  H      0.063513   -1.360420    1.768472
  H     -0.413893   -2.314560    0.360245
  H     -0.826208    1.286466   -0.796810
  H     -2.855272    0.050984   -1.381242
  H     -2.181253   -1.443953   -0.742743
  H     -1.455144   -0.685259   -2.161484
  H     -1.039567    1.120789    1.723084
  H     -2.036535   -0.318493    1.495466
  H     -2.577626    1.235052    0.869784

 Total Charge           Charge          ....    0
 Multiplicity           Mult            ....    1
 Number of Electrons    NEL             ....   58
 Basis Dimension        Dim             ....  213

ORBITAL ENERGIES
----------------

  NO   OCC          E(Eh)            E(eV)
   0   2.0000     -10.028972      -272.9022
   1   2.0000     -10.026098      -272.8240
   2   2.0000     -10.019065      -272.6326
   3   2.0000     -10.014505      -272.5085
   4   2.0000     -10.012112      -272.4434
   5   2.0000     -10.012088      -272.4428
   6   2.0000     -10.011788      -272.4346
   7   2.0000      -0.787832       -21.4380
   8   2.0000      -0.728397       -19.8207
   9   2.0000      -0.682680       -18.5767
  10   2.0000      -0.647355       -17.6154
  11   2.0000      -0.604706       -16.4549
  12   2.0000      -0.558802       -15.2058
  13   2.0000      -0.502866       -13.6837
  14   2.0000      -0.438787       -11.9400
  15   2.0000      -0.421959       -11.4821
  16   2.0000      -0.407173       -11.0797
  17   2.0000      -0.394812       -10.7434
  18   2.0000      -0.374453       -10.1894
  19   2.0000      -0.365779        -9.9534
  20   2.0000      -0.351367        -9.5612
  21   2.0000      -0.342870        -9.3300
  22   2.0000      -0.331764        -9.0278
  23   2.0000      -0.324926        -8.8417
  24   2.0000      -0.310843        -8.4585
  25   2.0000      -0.299672        -8.1545
  26   2.0000      -0.279279        -7.5996
  27   2.0000      -0.275006        -7.4833
  28   2.0000      -0.268138        -7.2964
  29   0.0000       0.079139         2.1535
  30   0.0000       0.100162         2.7255
  31   0.0000       0.111258         3.0275
  32   0.0000       0.117982         3.2105
  33   0.0000       0.127325         3.4647

MULLIKEN ATOMIC CHARGES
-----------------------
   0 C :   -0.488774
   1 C :   -0.296304
   2 C :    0.024703
   3 H :    0.155924
   4 C :   -0.554295
   5 C :   -0.088597
   6 C :   -0.510000
   7 C :   -0.497413
   8 H :    0.145851
   9 H :    0.143416
  10 H :    0.145736
  11 H :    0.148742
  12 H :    0.151665
  13 H :    0.148598
  14 H :    0.162932
  15 H :    0.151187
  16 H :    0.155239
  17 H :    0.147209
  18 H :    0.151959
  19 H :    0.145806
  20 H :    0.151556
  21 H :    0.156925
  22 H :    0.147935
Sum of atomic charges:   -0.0000000

LOEWDIN ATOMIC CHARGES
----------------------
   0 C :   -0.421066
   1 C :   -0.309044
   2 C :   -0.235523
   3 H :    0.159650
   4 C :   -0.414214
   5 C :   -0.242131
   6 C :   -0.416748
   7 C :   -0.416416
   8 H :    0.148826
   9 H :    0.148270
  10 H :    0.148933
  11 H :    0.155787
  12 H :    0.155311
  13 H :    0.153940
  14 H :    0.154636
  15 H :    0.152521
  16 H :    0.156687
  17 H :    0.153268
  18 H :    0.151740
  19 H :    0.152862
  20 H :    0.154993
  21 H :    0.154087
  22 H :    0.153630

  Mayer bond orders larger than 0.100000
B(  0-C ,  1-C ) :   0.9005 B(  0-C ,  8-H ) :   0.9827 B(  0-C ,  9-H ) :   0.9737
B(  0-C , 10-H ) :   0.9831 B(  1-C ,  2-C ) :   0.8125 B(  1-C , 11-H ) :   0.9794
B(  1-C , 12-H ) :   0.9811 B(  2-C ,  3-H ) :   0.9919 B(  2-C ,  4-C ) :   0.8624
B(  2-C ,  5-C ) :   0.8628 B(  4-C , 13-H ) :   0.9705 B(  4-C , 14-H ) :   0.9803
B(  4-C , 15-H ) :   0.9835 B(  5-C ,  6-C ) :   0.9167 B(  5-C ,  7-C ) :   0.8877
B(  5-C , 16-H ) :   0.9788 B(  6-C , 17-H ) :   0.9752 B(  6-C , 18-H ) :   0.9861
B(  6-C , 19-H ) :   0.9790 B(  7-C , 20-H ) :   0.9720 B(  7-C , 21-H ) :   0.9821
B(  7-C , 22-H ) :   0.9723

Dispersion correction           -0.006484515
FINAL SINGLE POINT ENERGY      -276.283111966463

DIPOLE MOMENT
-------------

Method             : SCF
Type of density    : Electron Density
Multiplicity       :   1
Irrep              :   0
Energy             :  -276.2877773829455350 Eh
Relativity type    :
Basis              : AO
                                X                 Y                 Z
Electronic contribution:      0.088275177       0.432873217      -0.246654174
Nuclear contribution   :     -0.072043757      -0.395317172       0.226177081
                        -----------------------------------------
Total Dipole Moment    :      0.016231420       0.037556045      -0.020477092
                        -----------------------------------------
Magnitude (a.u.)       :      0.045751796
Magnitude (Debye)      :      0.116291823

Rotational constants in cm-1:             0.116653             0.051373             0.049584
Rotational constants in MHz :          3497.168424          1540.112598          1486.498370

                             ****ORCA TERMINATED NORMALLY****
TOTAL RUN TIME: 0 days 0 hours 0 minutes 23 seconds 253 msec
