                         Program Version 6.0.0  -   RELEASE  -
|  1> ! r2scan-3c def2/J RI DEFGRID2 scfconv6 printgap
|  2> %output
|  3>     printlevel normal
|  4> end
|  5> %cpcm
|  6>     smd true
|  7>     smdsolvent "water"
|  8> end
|  9> * xyz 0 1
| 10> C 2.5405869293 0.9068379143 -0.5846240594
| 11> C 1.4214159373 0.6412035466 0.416838102
| 12> C 0.3690065622 -0.3490011914 -0.1269700998
| 13> H 0.6879992845 -0.6583197633 -1.1289806095
| 14> C 0.3173083481 -1.6061685323 0.7406848742
| 15> C -1.0078660919 0.3265901905 -0.2973519577
| 16> C -1.9296089627 -0.4913142552 -1.2019908128
| 17> C -1.7043986997 0.6072118491 1.0331833286
| 18> H 2.138959223 1.3346116922 -1.5007499589
| 19> H 3.2657571599 1.603862571 -0.1706171626
| 20> H 3.0574259626 -0.0171667372 -0.8341382596
| 21> H 0.947009215 1.5915849405 0.6674464582
| 22> H 1.8578085294 0.2465253372 1.3360065863
| 23> H 1.2902340173 -2.0930790228 0.7373454648
| 24> H 0.0635126365 -1.3604195575 1.768472203
| 25> H -0.4138929442 -2.3145599984 0.3602449839
| 26> H -0.8262080729 1.2864662228 -0.7968099878
| 27> H -2.8552723932 0.0509843223 -1.3812424123
| 28> H -2.1812528824 -1.4439528933 -0.7427426712
| 29> H -1.455144198 -0.6852587542 -2.1614838514
| 30> H -1.0395670321 1.120788764 1.7230838543
| 31> H -2.0365348711 -0.318493223 1.4954664633
| 32> H -2.5776261285 1.2350517424 0.8697843593
| 33> *
| 34>
| 35>                          ****END OF INPUT****

CARTESIAN COORDINATES (ANGSTROEM)
---------------------------------
  C      2.540587    0.906838   -0.584624
  C      1.421416    0.641204    0.416838
  C      0.369007   -0.349001   -0.126970
  H      0.687999   -0.658320   -1.128981
  C      0.317308   -1.606169    0.740685
  C     -1.007866    0.326590   -0.297352
  C     -1.929609   -0.491314   -1.201991
  C     -1.704399    0.607212    1.033183
  H      2.138959    1.334612   -1.500750
  H      3.265757    1.603863   -0.170617
  H      3.057426   -0.017167   -0.834138
  H      0.947009    1.591585    0.667446
  H      1.857809    0.246525    1.336007
  H      1.290234   -2.093079    0.737345
  H      0.063513   -1.360420    1.768472
  H     -0.413893   -2.314560    0.360245
  H     -0.826208    1.286466   -0.796810
  H     -2.855272    0.050984   -1.381242
  H     -2.181253   -1.443953   -0.742743
  H     -1.455144   -0.685259   -2.161484
  H     -1.039567    1.120789    1.723084
  H     -2.036535   -0.318493    1.495466
  H     -2.577626    1.235052    0.869784

 Total Charge           Charge          ....    0
 Multiplicity           Mult            ....    1
 Number of Electrons    NEL             ....   58
 Basis Dimension        Dim             ....  213

ORBITAL ENERGIES
----------------

  NO   OCC          E(Eh)            E(eV)
   0   2.0000     -10.021234      -272.6917
   1   2.0000     -10.018294      -272.6116
   2   2.0000     -10.011257      -272.4202
   3   2.0000     -10.007097      -272.3069
   4   2.0000     -10.004349      -272.2322
   5   2.0000     -10.004193      -272.2279
   6   2.0000     -10.004040      -272.2238
   7   2.0000      -0.780097       -21.2275
   8   2.0000      -0.721023       -19.6200
   9   2.0000      -0.675434       -18.3795
  10   2.0000      -0.640262       -17.4224
  11   2.0000      -0.597479       -16.2582
  12   2.0000      -0.551555       -15.0086
  13   2.0000      -0.495354       -13.4793
  14   2.0000      -0.430990       -11.7278
  15   2.0000      -0.414374       -11.2757
  16   2.0000      -0.399740       -10.8775
  17   2.0000      -0.387476       -10.5438
  18   2.0000      -0.367169        -9.9912
  19   2.0000      -0.358262        -9.7488
  20   2.0000      -0.343678        -9.3520
  21   2.0000      -0.335406        -9.1269
  22   2.0000      -0.324407        -8.8276
  23   2.0000      -0.317604        -8.6425
  24   2.0000      -0.303449        -8.2573
  25   2.0000      -0.291706        -7.9377
  26   2.0000      -0.271637        -7.3916
  27   2.0000      -0.267148        -7.2695
  28   2.0000      -0.260539        -7.0896
  29   0.0000       0.087436         2.3793
  30   0.0000       0.107669         2.9298
  31   0.0000       0.118827         3.2334
  32   0.0000       0.125168         3.4060
  33   0.0000       0.134344         3.6557

MULLIKEN ATOMIC CHARGES
-----------------------
   0 C :   -0.526307
   1 C :   -0.306537
   2 C :    0.026510
   3 H :    0.161455
   4 C :   -0.587086
   5 C :   -0.067693
   6 C :   -0.556367
   7 C :   -0.537987
   8 H :    0.155800
   9 H :    0.152430
  10 H :    0.155895
  11 H :    0.157956
  12 H :    0.156872
  13 H :    0.158193
  14 H :    0.169778
  15 H :    0.161786
  16 H :    0.161465
  17 H :    0.157464
  18 H :    0.165349
  19 H :    0.156194
  20 H :    0.160672
  21 H :    0.165630
  22 H :    0.158528
Sum of atomic charges:   -0.0000000

LOEWDIN ATOMIC CHARGES
----------------------
   0 C :   -0.429502
   1 C :   -0.310934
   2 C :   -0.234525
   3 H :    0.161150
   4 C :   -0.421804
   5 C :   -0.240196
   6 C :   -0.425923
   7 C :   -0.424281
   8 H :    0.151113
   9 H :    0.149973
  10 H :    0.151232
  11 H :    0.158173
  12 H :    0.156298
  13 H :    0.155761
  14 H :    0.156327
  15 H :    0.154933
  16 H :    0.158674
  17 H :    0.155108
  18 H :    0.154868
  19 H :    0.154951
  20 H :    0.157013
  21 H :    0.155975
  22 H :    0.155615

  Mayer bond orders larger than 0.100000
B(  0-C ,  1-C ) :   0.8930 B(  0-C ,  8-H ) :   0.9802 B(  0-C ,  9-H ) :   0.9720
B(  0-C , 10-H ) :   0.9802 B(  1-C ,  2-C ) :   0.8088 B(  1-C , 11-H ) :   0.9796
B(  1-C , 12-H ) :   0.9818 B(  2-C ,  3-H ) :   0.9926 B(  2-C ,  4-C ) :   0.8608
B(  2-C ,  5-C ) :   0.8628 B(  4-C , 13-H ) :   0.9687 B(  4-C , 14-H ) :   0.9774
B(  4-C , 15-H ) :   0.9806 B(  5-C ,  6-C ) :   0.9059 B(  5-C ,  7-C ) :   0.8804
B(  5-C , 16-H ) :   0.9795 B(  6-C , 17-H ) :   0.9734 B(  6-C , 18-H ) :   0.9833
B(  6-C , 19-H ) :   0.9770 B(  7-C , 20-H ) :   0.9703 B(  7-C , 21-H ) :   0.9799
B(  7-C , 22-H ) :   0.9709

Dispersion correction           -0.006484515
FINAL SINGLE POINT ENERGY      -276.279147725173

DIPOLE MOMENT
-------------

Method             : SCF
Type of density    : Electron Density
Multiplicity       :   1
Irrep              :   0
Energy             :  -276.2838131416554575 Eh
Relativity type    :
Basis              : AO
                                X                 Y                 Z
Electronic contribution:      0.089701898       0.441915705      -0.253602755
Nuclear contribution   :     -0.072043757      -0.395317172       0.226177081
                        -----------------------------------------
Total Dipole Moment    :      0.017658141       0.046598533      -0.027425674
                        -----------------------------------------
Magnitude (a.u.)       :      0.056880584
Magnitude (Debye)      :      0.144578955

Rotational constants in cm-1:             0.116653             0.051373             0.049584
Rotational constants in MHz :          3497.168424          1540.112598          1486.498370

                             ****ORCA TERMINATED NORMALLY****
TOTAL RUN TIME: 0 days 0 hours 0 minutes 28 seconds 176 msec
