                         Program Version 6.0.0  -   RELEASE  -
|  1> ! r2scan-3c def2/J RI DEFGRID2 scfconv6 printgap
|  2> %output
|  3>     printlevel normal
|  4> end
|  5> * xyz 0 1
|  6> C -2.3894099162 -0.0951862819 1.50391e-05
|  7> C -0.9114068437 -0.4635760698 -3.7513e-05
|  8> C -0.0227396466 0.7774502197 1.58747e-05
|  9> C 1.4332745666 0.4646226202 -1.4109e-05
| 10> O 1.9227707759 -0.6394613204 2.17565e-05
| 11> H -2.6377245188 0.4894977462 -0.8825059245
| 12> H -3.0020791752 -0.992573051 3.17878e-05
| 13> H -2.6376690378 0.4894866586 0.8825609396
| 14> H -0.6774456242 -1.0678732781 -0.8787185378
| 15> H -0.677380298 -1.0678083313 0.8786583086
| 16> H -0.2249732938 1.3996583277 -0.8760657837
| 17> H -0.2249383262 1.3996849967 0.8760978497
| 18> H 2.0861923956 1.3579207398 -0.0001572264
| 19> *
| 20>
| 21>                          ****END OF INPUT****

CARTESIAN COORDINATES (ANGSTROEM)
---------------------------------
  C     -2.389410   -0.095186    0.000015
  C     -0.911407   -0.463576   -0.000038
  C     -0.022740    0.777450    0.000016
  C      1.433275    0.464623   -0.000014
  O      1.922771   -0.639461    0.000022
  H     -2.637725    0.489498   -0.882506
  H     -3.002079   -0.992573    0.000032
  H     -2.637669    0.489487    0.882561
  H     -0.677446   -1.067873   -0.878719
  H     -0.677380   -1.067808    0.878658
  H     -0.224973    1.399658   -0.876066
  H     -0.224938    1.399685    0.876098
  H      2.086192    1.357921   -0.000157

 Total Charge           Charge          ....    0
 Multiplicity           Mult            ....    1
 Number of Electrons    NEL             ....   40
 Basis Dimension        Dim             ....  140

ORBITAL ENERGIES
----------------

  NO   OCC          E(Eh)            E(eV)
   0   2.0000     -18.951548      -515.6978
   1   2.0000     -10.119821      -275.3743
   2   2.0000     -10.045946      -273.3641
   3   2.0000     -10.033733      -273.0317
   4   2.0000     -10.023654      -272.7575
   5   2.0000      -1.014274       -27.5998
   6   2.0000      -0.772620       -21.0240
   7   2.0000      -0.691317       -18.8117
   8   2.0000      -0.587975       -15.9996
   9   2.0000      -0.525243       -14.2926
  10   2.0000      -0.453093       -12.3293
  11   2.0000      -0.450388       -12.2557
  12   2.0000      -0.415026       -11.2934
  13   2.0000      -0.388715       -10.5775
  14   2.0000      -0.377593       -10.2748
  15   2.0000      -0.339869        -9.2483
  16   2.0000      -0.332464        -9.0468
  17   2.0000      -0.316948        -8.6246
  18   2.0000      -0.309418        -8.4197
  19   2.0000      -0.222772        -6.0619
  20   0.0000      -0.056213        -1.5296
  21   0.0000       0.085210         2.3187
  22   0.0000       0.100812         2.7432
  23   0.0000       0.125671         3.4197
  24   0.0000       0.138615         3.7719

MULLIKEN ATOMIC CHARGES
-----------------------
   0 C :   -0.450407
   1 C :   -0.257696
   2 C :   -0.211310
   3 C :    0.119109
   4 O :   -0.347358
   5 H :    0.138460
   6 H :    0.150894
   7 H :    0.138460
   8 H :    0.151578
   9 H :    0.151577
  10 H :    0.154229
  11 H :    0.154234
  12 H :    0.108231
Sum of atomic charges:   -0.0000000

LOEWDIN ATOMIC CHARGES
----------------------
   0 C :   -0.422143
   1 C :   -0.303261
   2 C :   -0.302475
   3 C :    0.202188
   4 O :   -0.456544
   5 H :    0.149464
   6 H :    0.152821
   7 H :    0.149465
   8 H :    0.162103
   9 H :    0.162101
  10 H :    0.177847
  11 H :    0.177851
  12 H :    0.150583

  Mayer bond orders larger than 0.100000
B(  0-C ,  1-C ) :   0.8909 B(  0-C ,  5-H ) :   0.9807 B(  0-C ,  6-H ) :   0.9751
B(  0-C ,  7-H ) :   0.9807 B(  1-C ,  2-C ) :   0.9259 B(  1-C ,  8-H ) :   0.9683
B(  1-C ,  9-H ) :   0.9683 B(  2-C ,  3-C ) :   0.9280 B(  2-C , 10-H ) :   0.9377
B(  2-C , 11-H ) :   0.9377 B(  3-C ,  4-O ) :   1.9290 B(  3-C , 12-H ) :   0.9744

Dispersion correction           -0.002630028
FINAL SINGLE POINT ENERGY      -232.392961947384

DIPOLE MOMENT
-------------

Method             : SCF
Type of density    : Electron Density
Multiplicity       :   1
Irrep              :   0
Energy             :  -232.3962871883113337 Eh
Relativity type    :
Basis              : AO
                                X                 Y                 Z
Electronic contribution:      6.800387628      -1.044419657       0.000063863
Nuclear contribution   :     -7.473056295       1.874337018      -0.000092168
                        -----------------------------------------
Total Dipole Moment    :     -0.672668666       0.829917361      -0.000028305
                        -----------------------------------------
Magnitude (a.u.)       :      1.068291141
Magnitude (Debye)      :      2.715380285

Rotational constants in cm-1:             0.505597             0.086193             0.076775
Rotational constants in MHz :         15157.426090          2584.011534          2301.643009

                             ****ORCA TERMINATED NORMALLY****
TOTAL RUN TIME: 0 days 0 hours 0 minutes 16 seconds 845 msec
