                         Program Version 6.0.0  -   RELEASE  -
|  1> ! r2scan-3c def2/J RI DEFGRID2 scfconv6 printgap
|  2> %output
|  3>     printlevel normal
|  4> end
|  5> %cpcm
|  6>     smd true
|  7>     smdsolvent "water"
|  8> end
|  9> * xyz 0 1
| 10> C -2.3894099162 -0.0951862819 1.50391e-05
| 11> C -0.9114068437 -0.4635760698 -3.7513e-05
| 12> C -0.0227396466 0.7774502197 1.58747e-05
| 13> C 1.4332745666 0.4646226202 -1.4109e-05
| 14> O 1.9227707759 -0.6394613204 2.17565e-05
| 15> H -2.6377245188 0.4894977462 -0.8825059245
| 16> H -3.0020791752 -0.992573051 3.17878e-05
| 17> H -2.6376690378 0.4894866586 0.8825609396
| 18> H -0.6774456242 -1.0678732781 -0.8787185378
| 19> H -0.677380298 -1.0678083313 0.8786583086
| 20> H -0.2249732938 1.3996583277 -0.8760657837
| 21> H -0.2249383262 1.3996849967 0.8760978497
| 22> H 2.0861923956 1.3579207398 -0.0001572264
| 23> *
| 24>
| 25>                          ****END OF INPUT****

CARTESIAN COORDINATES (ANGSTROEM)
---------------------------------
  C     -2.389410   -0.095186    0.000015
  C     -0.911407   -0.463576   -0.000038
  C     -0.022740    0.777450    0.000016
  C      1.433275    0.464623   -0.000014
  O      1.922771   -0.639461    0.000022
  H     -2.637725    0.489498   -0.882506
  H     -3.002079   -0.992573    0.000032
  H     -2.637669    0.489487    0.882561
  H     -0.677446   -1.067873   -0.878719
  H     -0.677380   -1.067808    0.878658
  H     -0.224973    1.399658   -0.876066
  H     -0.224938    1.399685    0.876098
  H      2.086192    1.357921   -0.000157

 Total Charge           Charge          ....    0
 Multiplicity           Mult            ....    1
 Number of Electrons    NEL             ....   40
 Basis Dimension        Dim             ....  140

ORBITAL ENERGIES
----------------

  NO   OCC          E(Eh)            E(eV)
   0   2.0000     -18.956831      -515.8416
   1   2.0000     -10.121507      -275.4202
   2   2.0000     -10.031083      -272.9596
   3   2.0000     -10.022982      -272.7392
   4   2.0000     -10.010320      -272.3947
   5   2.0000      -1.022552       -27.8250
   6   2.0000      -0.760445       -20.6928
   7   2.0000      -0.679564       -18.4919
   8   2.0000      -0.578377       -15.7384
   9   2.0000      -0.517947       -14.0941
  10   2.0000      -0.447517       -12.1775
  11   2.0000      -0.440048       -11.9743
  12   2.0000      -0.419619       -11.4184
  13   2.0000      -0.381584       -10.3834
  14   2.0000      -0.368754       -10.0343
  15   2.0000      -0.337482        -9.1834
  16   2.0000      -0.323332        -8.7983
  17   2.0000      -0.305163        -8.3039
  18   2.0000      -0.296956        -8.0806
  19   2.0000      -0.228533        -6.2187
  20   0.0000      -0.054998        -1.4966
  21   0.0000       0.095622         2.6020
  22   0.0000       0.116092         3.1590
  23   0.0000       0.136033         3.7016
  24   0.0000       0.152950         4.1620

MULLIKEN ATOMIC CHARGES
-----------------------
   0 C :   -0.500692
   1 C :   -0.274487
   2 C :   -0.220683
   3 C :    0.158177
   4 O :   -0.448959
   5 H :    0.154163
   6 H :    0.158372
   7 H :    0.154163
   8 H :    0.154729
   9 H :    0.154721
  10 H :    0.185567
  11 H :    0.185576
  12 H :    0.139354
Sum of atomic charges:   -0.0000000

LOEWDIN ATOMIC CHARGES
----------------------
   0 C :   -0.427977
   1 C :   -0.308265
   2 C :   -0.294770
   3 C :    0.228753
   4 O :   -0.532497
   5 H :    0.154047
   6 H :    0.153879
   7 H :    0.154048
   8 H :    0.160041
   9 H :    0.160037
  10 H :    0.192430
  11 H :    0.192436
  12 H :    0.167838

  Mayer bond orders larger than 0.100000
B(  0-C ,  1-C ) :   0.8946 B(  0-C ,  5-H ) :   0.9784 B(  0-C ,  6-H ) :   0.9729
B(  0-C ,  7-H ) :   0.9784 B(  1-C ,  2-C ) :   0.8991 B(  1-C ,  8-H ) :   0.9692
B(  1-C ,  9-H ) :   0.9692 B(  2-C ,  3-C ) :   0.9586 B(  2-C , 10-H ) :   0.9248
B(  2-C , 11-H ) :   0.9248 B(  3-C ,  4-O ) :   1.8686 B(  3-C , 12-H ) :   0.9595

Dispersion correction           -0.002630028
FINAL SINGLE POINT ENERGY      -232.398296405042

DIPOLE MOMENT
-------------

Method             : SCF
Type of density    : Electron Density
Multiplicity       :   1
Irrep              :   0
Energy             :  -232.4016216459692998 Eh
Relativity type    :
Basis              : AO
                                X                 Y                 Z
Electronic contribution:      6.585204484      -0.585658079       0.000049152
Nuclear contribution   :     -7.473056295       1.874337018      -0.000092168
                        -----------------------------------------
Total Dipole Moment    :     -0.887851811       1.288678939      -0.000043016
                        -----------------------------------------
Magnitude (a.u.)       :      1.564919885
Magnitude (Debye)      :      3.977710235

Rotational constants in cm-1:             0.505597             0.086193             0.076775
Rotational constants in MHz :         15157.426090          2584.011534          2301.643009

                             ****ORCA TERMINATED NORMALLY****
TOTAL RUN TIME: 0 days 0 hours 0 minutes 17 seconds 532 msec
