                         Program Version 6.0.0  -   RELEASE  -
|  1> ! pbe def2-sv(p) def2/J RI DEFGRID1 loosescf d4 GCP(DFT/SV(P)) printgap
|  2> %output
|  3>     printlevel normal
|  4> end
|  5> * xyz 0 1
|  6> C -2.6694039614 1.0704848469 -0.109433032
|  7> C -2.1654345975 -0.2244825015 0.5168532886
|  8> C -0.8808406165 -0.7080472722 -0.1407937147
|  9> O 0.1640310765 0.2314528778 0.1515845907
| 10> C 1.4149727165 -0.1320144214 -0.098104585
| 11> O 1.7113490368 -1.2126044275 -0.5672882789
| 12> C 2.3894687418 0.9442399648 0.2750206543
| 13> H -2.8981448153 0.9204760431 -1.1616693673
| 14> H -3.5695323295 1.4077909017 0.3962761428
| 15> H -1.911589055 1.8447081611 -0.0263768923
| 16> H -2.9140482186 -1.0094879348 0.410059266
| 17> H -1.974917459 -0.0705892253 1.5795258766
| 18> H -0.5780852381 -1.6916244066 0.23391423
| 19> H -0.9906699944 -0.7746330563 -1.2283727747
| 20> H 3.3963681602 0.6262206301 0.0265534823
| 21> H 2.3095328809 1.1417626696 1.3406747089
| 22> H 2.1372569535 1.8570050694 -0.2573400178
| 23> *
| 24>
| 25>                          ****END OF INPUT****

CARTESIAN COORDINATES (ANGSTROEM)
---------------------------------
  C     -2.669404    1.070485   -0.109433
  C     -2.165435   -0.224483    0.516853
  C     -0.880841   -0.708047   -0.140794
  O      0.164031    0.231453    0.151585
  C      1.414973   -0.132014   -0.098105
  O      1.711349   -1.212604   -0.567288
  C      2.389469    0.944240    0.275021
  H     -2.898145    0.920476   -1.161669
  H     -3.569532    1.407791    0.396276
  H     -1.911589    1.844708   -0.026377
  H     -2.914048   -1.009488    0.410059
  H     -1.974917   -0.070589    1.579526
  H     -0.578085   -1.691624    0.233914
  H     -0.990670   -0.774633   -1.228373
  H      3.396368    0.626221    0.026553
  H      2.309533    1.141763    1.340675
  H      2.137257    1.857005   -0.257340

 Total Charge           Charge          ....    0
 Multiplicity           Mult            ....    1
 Number of Electrons    NEL             ....   56
 Basis Dimension        Dim             ....  118

ORBITAL ENERGIES
----------------

  NO   OCC          E(Eh)            E(eV)
   0   2.0000     -18.796936      -511.4906
   1   2.0000     -18.731823      -509.7188
   2   2.0000     -10.004815      -272.2449
   3   2.0000      -9.942404      -270.5466
   4   2.0000      -9.896212      -269.2896
   5   2.0000      -9.891518      -269.1619
   6   2.0000      -9.879969      -268.8476
   7   2.0000      -1.004154       -27.3244
   8   2.0000      -0.906804       -24.6754
   9   2.0000      -0.725658       -19.7462
  10   2.0000      -0.677121       -18.4254
  11   2.0000      -0.620345       -16.8804
  12   2.0000      -0.549389       -14.9496
  13   2.0000      -0.502907       -13.6848
  14   2.0000      -0.446077       -12.1384
  15   2.0000      -0.433812       -11.8046
  16   2.0000      -0.411948       -11.2097
  17   2.0000      -0.400811       -10.9066
  18   2.0000      -0.386331       -10.5126
  19   2.0000      -0.373706       -10.1691
  20   2.0000      -0.359282        -9.7766
  21   2.0000      -0.337102        -9.1730
  22   2.0000      -0.324398        -8.8273
  23   2.0000      -0.311644        -8.4803
  24   2.0000      -0.305004        -8.2996
  25   2.0000      -0.290190        -7.8965
  26   2.0000      -0.255266        -6.9461
  27   2.0000      -0.215764        -5.8712
  28   0.0000      -0.017644        -0.4801
  29   0.0000       0.036846         1.0026
  30   0.0000       0.056654         1.5416
  31   0.0000       0.075921         2.0659
  32   0.0000       0.079917         2.1746

MULLIKEN ATOMIC CHARGES
-----------------------
   0 C :   -0.289895
   1 C :   -0.177499
   2 C :   -0.004204
   3 O :   -0.246623
   4 C :    0.080218
   5 O :   -0.214248
   6 C :   -0.242398
   7 H :    0.099022
   8 H :    0.107779
   9 H :    0.112114
  10 H :    0.095370
  11 H :    0.097359
  12 H :    0.107920
  13 H :    0.095811
  14 H :    0.123705
  15 H :    0.128226
  16 H :    0.127342
Sum of atomic charges:    0.0000000

LOEWDIN ATOMIC CHARGES
----------------------
   0 C :   -0.343642
   1 C :   -0.245118
   2 C :   -0.102148
   3 O :   -0.074304
   4 C :    0.027783
   5 O :   -0.170760
   6 C :   -0.358944
   7 H :    0.118030
   8 H :    0.120984
   9 H :    0.121282
  10 H :    0.125217
  11 H :    0.123113
  12 H :    0.116799
  13 H :    0.113864
  14 H :    0.139428
  15 H :    0.144779
  16 H :    0.143637

  Mayer bond orders larger than 0.100000
B(  0-C ,  1-C ) :   1.1461 B(  0-C ,  7-H ) :   0.9552 B(  0-C ,  8-H ) :   0.9539
B(  0-C ,  9-H ) :   0.9540 B(  1-C ,  2-C ) :   1.1092 B(  1-C , 10-H ) :   0.9205
B(  1-C , 11-H ) :   0.9228 B(  2-C ,  3-O ) :   0.9145 B(  2-C , 12-H ) :   0.9237
B(  2-C , 13-H ) :   0.9306 B(  3-O ,  4-C ) :   1.1853 B(  4-C ,  5-O ) :   2.0602
B(  4-C ,  6-C ) :   1.0887 B(  6-C , 14-H ) :   0.9423 B(  6-C , 15-H ) :   0.9282
B(  6-C , 16-H ) :   0.9303

Dispersion correction           -0.011641548
FINAL SINGLE POINT ENERGY      -346.244336845869

DIPOLE MOMENT
-------------

Method             : SCF
Type of density    : Electron Density
Multiplicity       :   1
Irrep              :   0
Energy             :  -346.3092639190904265 Eh
Relativity type    :
Basis              : AO
                                X                 Y                 Z
Electronic contribution:      6.017720383      -3.415533139      -0.921189482
Nuclear contribution   :     -6.533576409       3.974192035       1.225879774
                        -----------------------------------------
Total Dipole Moment    :     -0.515856026       0.558658896       0.304690293
                        -----------------------------------------
Magnitude (a.u.)       :      0.819172372
Magnitude (Debye)      :      2.082170697

Rotational constants in cm-1:             0.195716             0.045673             0.039495
Rotational constants in MHz :          5867.431625          1369.234419          1184.037486

                             ****ORCA TERMINATED NORMALLY****
TOTAL RUN TIME: 0 days 0 hours 0 minutes 7 seconds 738 msec
