                         Program Version 6.0.0  -   RELEASE  -
|  1> ! r2scan-3c def2/J RI DEFGRID2 scfconv6 printgap
|  2> %output
|  3>     printlevel normal
|  4> end
|  5> * xyz 0 1
|  6> C 2.1161056454 -1.0201207069 -0.4150325653
|  7> C 1.7540147991 0.3774623165 0.0735684589
|  8> C 0.3731446989 0.4671194839 0.7250086164
|  9> C -0.8024288409 0.2106794172 -0.238938255
| 10> H -0.4761106421 0.4006839411 -1.26772963
| 11> C -1.3489490804 -1.2115859386 -0.1261303998
| 12> O -1.8427226077 1.1582177527 -0.0378976796
| 13> H 3.1436757949 -1.0362042879 -0.7705297606
| 14> H 1.4708750668 -1.3246434547 -1.2346929094
| 15> H 2.0218943649 -1.7427142607 0.3923066399
| 16> H 2.4958393643 0.695979498 0.8095358575
| 17> H 1.7996759969 1.0771379569 -0.7639248681
| 18> H 0.3213443737 -0.2312899807 1.5628671843
| 19> H 0.2552862536 1.478920001 1.1208202089
| 20> H -1.6997904206 -1.3984704958 0.8872217882
| 21> H -2.1821255186 -1.3421074307 -0.8130573971
| 22> H -0.5785884749 -1.9364232754 -0.3657601048
| 23> H -2.2493264261 0.9931202029 0.8243564636
| 24> *
| 25>
| 26>                          ****END OF INPUT****

CARTESIAN COORDINATES (ANGSTROEM)
---------------------------------
  C      2.116106   -1.020121   -0.415033
  C      1.754015    0.377462    0.073568
  C      0.373145    0.467119    0.725009
  C     -0.802429    0.210679   -0.238938
  H     -0.476111    0.400684   -1.267730
  C     -1.348949   -1.211586   -0.126130
  O     -1.842723    1.158218   -0.037898
  H      3.143676   -1.036204   -0.770530
  H      1.470875   -1.324643   -1.234693
  H      2.021894   -1.742714    0.392307
  H      2.495839    0.695979    0.809536
  H      1.799676    1.077138   -0.763925
  H      0.321344   -0.231290    1.562867
  H      0.255286    1.478920    1.120820
  H     -1.699790   -1.398470    0.887222
  H     -2.182126   -1.342107   -0.813057
  H     -0.578588   -1.936423   -0.365760
  H     -2.249326    0.993120    0.824356

 Total Charge           Charge          ....    0
 Multiplicity           Mult            ....    1
 Number of Electrons    NEL             ....   50
 Basis Dimension        Dim             ....  179

ORBITAL ENERGIES
----------------

  NO   OCC          E(Eh)            E(eV)
   0   2.0000     -18.941111      -515.4138
   1   2.0000     -10.079117      -274.2667
   2   2.0000     -10.027957      -272.8746
   3   2.0000     -10.021840      -272.7081
   4   2.0000     -10.019448      -272.6430
   5   2.0000     -10.019051      -272.6322
   6   2.0000      -0.979649       -26.6576
   7   2.0000      -0.764893       -20.8138
   8   2.0000      -0.708885       -19.2897
   9   2.0000      -0.653346       -17.7784
  10   2.0000      -0.581522       -15.8240
  11   2.0000      -0.546954       -14.8834
  12   2.0000      -0.453601       -12.3431
  13   2.0000      -0.431704       -11.7473
  14   2.0000      -0.424549       -11.5526
  15   2.0000      -0.395401       -10.7594
  16   2.0000      -0.384143       -10.4531
  17   2.0000      -0.366894        -9.9837
  18   2.0000      -0.350560        -9.5392
  19   2.0000      -0.342531        -9.3207
  20   2.0000      -0.312093        -8.4925
  21   2.0000      -0.302130        -8.2214
  22   2.0000      -0.294759        -8.0208
  23   2.0000      -0.282053        -7.6751
  24   2.0000      -0.229767        -6.2523
  25   0.0000       0.066381         1.8063
  26   0.0000       0.087752         2.3879
  27   0.0000       0.109482         2.9792
  28   0.0000       0.115146         3.1333
  29   0.0000       0.127840         3.4787

MULLIKEN ATOMIC CHARGES
-----------------------
   0 C :   -0.493806
   1 C :   -0.276585
   2 C :   -0.228052
   3 C :   -0.004135
   4 H :    0.141356
   5 C :   -0.497949
   6 O :   -0.414967
   7 H :    0.147393
   8 H :    0.149716
   9 H :    0.148872
  10 H :    0.139653
  11 H :    0.146900
  12 H :    0.135834
  13 H :    0.162722
  14 H :    0.144119
  15 H :    0.161661
  16 H :    0.150272
  17 H :    0.286995
Sum of atomic charges:   -0.0000000

LOEWDIN ATOMIC CHARGES
----------------------
   0 C :   -0.428302
   1 C :   -0.310798
   2 C :   -0.292103
   3 C :    0.044632
   4 H :    0.179240
   5 C :   -0.400192
   6 O :   -0.613174
   7 H :    0.151377
   8 H :    0.148496
   9 H :    0.149949
  10 H :    0.152141
  11 H :    0.152838
  12 H :    0.155845
  13 H :    0.172224
  14 H :    0.152252
  15 H :    0.160774
  16 H :    0.158863
  17 H :    0.265939

  Mayer bond orders larger than 0.100000
B(  0-C ,  1-C ) :   0.8788 B(  0-C ,  7-H ) :   0.9675 B(  0-C ,  8-H ) :   0.9796
B(  0-C ,  9-H ) :   0.9803 B(  1-C ,  2-C ) :   0.8946 B(  1-C , 10-H ) :   0.9687
B(  1-C , 11-H ) :   0.9938 B(  2-C ,  3-C ) :   0.8517 B(  2-C , 12-H ) :   0.9648
B(  2-C , 13-H ) :   0.9682 B(  3-C ,  4-H ) :   0.9556 B(  3-C ,  5-C ) :   0.9458
B(  3-C ,  6-O ) :   0.9368 B(  5-C , 14-H ) :   0.9810 B(  5-C , 15-H ) :   0.9734
B(  5-C , 16-H ) :   0.9597 B(  6-O , 17-H ) :   0.8995

Dispersion correction           -0.004357100
FINAL SINGLE POINT ENERGY      -272.898580284509

DIPOLE MOMENT
-------------

Method             : SCF
Type of density    : Electron Density
Multiplicity       :   1
Irrep              :   0
Energy             :  -272.9038653755904420 Eh
Relativity type    :
Basis              : AO
                                X                 Y                 Z
Electronic contribution:     -3.778116450       3.650947265       0.029796460
Nuclear contribution   :      4.028005921      -4.078844796       0.357265828
                        -----------------------------------------
Total Dipole Moment    :      0.249889471      -0.427897530       0.387062288
                        -----------------------------------------
Magnitude (a.u.)       :      0.628775206
Magnitude (Debye)      :      1.598219561

Rotational constants in cm-1:             0.191761             0.070112             0.057327
Rotational constants in MHz :          5748.848549          2101.907529          1718.624717

                             ****ORCA TERMINATED NORMALLY****
TOTAL RUN TIME: 0 days 0 hours 0 minutes 22 seconds 380 msec
