                         Program Version 6.0.0  -   RELEASE  -
|  1> ! r2scan-3c def2/J RI DEFGRID2 scfconv6 printgap
|  2> %output
|  3>     printlevel normal
|  4> end
|  5> %cpcm
|  6>     smd true
|  7>     smdsolvent "water"
|  8> end
|  9> * xyz 0 1
| 10> C 2.1161056454 -1.0201207069 -0.4150325653
| 11> C 1.7540147991 0.3774623165 0.0735684589
| 12> C 0.3731446989 0.4671194839 0.7250086164
| 13> C -0.8024288409 0.2106794172 -0.238938255
| 14> H -0.4761106421 0.4006839411 -1.26772963
| 15> C -1.3489490804 -1.2115859386 -0.1261303998
| 16> O -1.8427226077 1.1582177527 -0.0378976796
| 17> H 3.1436757949 -1.0362042879 -0.7705297606
| 18> H 1.4708750668 -1.3246434547 -1.2346929094
| 19> H 2.0218943649 -1.7427142607 0.3923066399
| 20> H 2.4958393643 0.695979498 0.8095358575
| 21> H 1.7996759969 1.0771379569 -0.7639248681
| 22> H 0.3213443737 -0.2312899807 1.5628671843
| 23> H 0.2552862536 1.478920001 1.1208202089
| 24> H -1.6997904206 -1.3984704958 0.8872217882
| 25> H -2.1821255186 -1.3421074307 -0.8130573971
| 26> H -0.5785884749 -1.9364232754 -0.3657601048
| 27> H -2.2493264261 0.9931202029 0.8243564636
| 28> *
| 29>
| 30>                          ****END OF INPUT****

CARTESIAN COORDINATES (ANGSTROEM)
---------------------------------
  C      2.116106   -1.020121   -0.415033
  C      1.754015    0.377462    0.073568
  C      0.373145    0.467119    0.725009
  C     -0.802429    0.210679   -0.238938
  H     -0.476111    0.400684   -1.267730
  C     -1.348949   -1.211586   -0.126130
  O     -1.842723    1.158218   -0.037898
  H      3.143676   -1.036204   -0.770530
  H      1.470875   -1.324643   -1.234693
  H      2.021894   -1.742714    0.392307
  H      2.495839    0.695979    0.809536
  H      1.799676    1.077138   -0.763925
  H      0.321344   -0.231290    1.562867
  H      0.255286    1.478920    1.120820
  H     -1.699790   -1.398470    0.887222
  H     -2.182126   -1.342107   -0.813057
  H     -0.578588   -1.936423   -0.365760
  H     -2.249326    0.993120    0.824356

 Total Charge           Charge          ....    0
 Multiplicity           Mult            ....    1
 Number of Electrons    NEL             ....   50
 Basis Dimension        Dim             ....  179

ORBITAL ENERGIES
----------------

  NO   OCC          E(Eh)            E(eV)
   0   2.0000     -18.946102      -515.5496
   1   2.0000     -10.074010      -274.1277
   2   2.0000     -10.017878      -272.6003
   3   2.0000     -10.013277      -272.4751
   4   2.0000     -10.009151      -272.3628
   5   2.0000     -10.007359      -272.3141
   6   2.0000      -0.983298       -26.7569
   7   2.0000      -0.756031       -20.5726
   8   2.0000      -0.700442       -19.0600
   9   2.0000      -0.643936       -17.5224
  10   2.0000      -0.575215       -15.6524
  11   2.0000      -0.538960       -14.6659
  12   2.0000      -0.448195       -12.1960
  13   2.0000      -0.426437       -11.6040
  14   2.0000      -0.416475       -11.3329
  15   2.0000      -0.387182       -10.5358
  16   2.0000      -0.377085       -10.2610
  17   2.0000      -0.358632        -9.7589
  18   2.0000      -0.342106        -9.3092
  19   2.0000      -0.335872        -9.1395
  20   2.0000      -0.302676        -8.2362
  21   2.0000      -0.294437        -8.0120
  22   2.0000      -0.286745        -7.8027
  23   2.0000      -0.279651        -7.6097
  24   2.0000      -0.234275        -6.3749
  25   0.0000       0.080889         2.2011
  26   0.0000       0.097976         2.6661
  27   0.0000       0.120962         3.2915
  28   0.0000       0.123322         3.3558
  29   0.0000       0.138577         3.7709

MULLIKEN ATOMIC CHARGES
-----------------------
   0 C :   -0.527898
   1 C :   -0.276287
   2 C :   -0.251886
   3 C :    0.023789
   4 H :    0.152381
   5 C :   -0.537865
   6 O :   -0.510340
   7 H :    0.155212
   8 H :    0.162844
   9 H :    0.158980
  10 H :    0.147888
  11 H :    0.150917
  12 H :    0.152994
  13 H :    0.159796
  14 H :    0.168721
  15 H :    0.160791
  16 H :    0.165580
  17 H :    0.344383
Sum of atomic charges:   -0.0000000

LOEWDIN ATOMIC CHARGES
----------------------
   0 C :   -0.435074
   1 C :   -0.312482
   2 C :   -0.290762
   3 C :    0.044987
   4 H :    0.182610
   5 C :   -0.403842
   6 O :   -0.653455
   7 H :    0.152539
   8 H :    0.152696
   9 H :    0.152961
  10 H :    0.154205
  11 H :    0.153943
  12 H :    0.161940
  13 H :    0.170658
  14 H :    0.160635
  15 H :    0.159565
  16 H :    0.164488
  17 H :    0.284389

  Mayer bond orders larger than 0.100000
B(  0-C ,  1-C ) :   0.8756 B(  0-C ,  7-H ) :   0.9661 B(  0-C ,  8-H ) :   0.9764
B(  0-C ,  9-H ) :   0.9771 B(  1-C ,  2-C ) :   0.8892 B(  1-C , 10-H ) :   0.9687
B(  1-C , 11-H ) :   0.9915 B(  2-C ,  3-C ) :   0.8535 B(  2-C , 12-H ) :   0.9660
B(  2-C , 13-H ) :   0.9700 B(  3-C ,  4-H ) :   0.9584 B(  3-C ,  5-C ) :   0.9339
B(  3-C ,  6-O ) :   0.9190 B(  5-C , 14-H ) :   0.9775 B(  5-C , 15-H ) :   0.9712
B(  5-C , 16-H ) :   0.9566 B(  6-O , 17-H ) :   0.8720

Dispersion correction           -0.004357100
FINAL SINGLE POINT ENERGY      -272.905039984783

DIPOLE MOMENT
-------------

Method             : SCF
Type of density    : Electron Density
Multiplicity       :   1
Irrep              :   0
Energy             :  -272.9103250758643640 Eh
Relativity type    :
Basis              : AO
                                X                 Y                 Z
Electronic contribution:     -3.711478765       3.450519541       0.211346481
Nuclear contribution   :      4.028005921      -4.078844796       0.357265828
                        -----------------------------------------
Total Dipole Moment    :      0.316527156      -0.628325255       0.568612309
                        -----------------------------------------
Magnitude (a.u.)       :      0.904600478
Magnitude (Debye)      :      2.299311685

Rotational constants in cm-1:             0.191761             0.070112             0.057327
Rotational constants in MHz :          5748.848549          2101.907529          1718.624717

                             ****ORCA TERMINATED NORMALLY****
TOTAL RUN TIME: 0 days 0 hours 0 minutes 27 seconds 131 msec
