                         Program Version 6.0.0  -   RELEASE  -
|  1> ! pbe def2-sv(p) def2/J RI DEFGRID1 loosescf d4 GCP(DFT/SV(P)) printgap
|  2> %output
|  3>     printlevel normal
|  4> end
|  5> * xyz 0 1
|  6> C -3.1483862574 1.0957855571 -0.5152773761
|  7> C -2.465707869 -0.2687488476 -0.5123712003
|  8> C -1.5030767227 -0.4566712685 0.6718634227
|  9> C -0.047337265 -0.2552382988 0.3439011082
| 10> C 0.9088294877 -1.0721497979 0.938196196
| 11> C 2.2564993144 -0.9040930718 0.6752496304
| 12> C 2.675216397 0.0874840232 -0.1952368947
| 13> C 1.734566922 0.9067913036 -0.7946416927
| 14> C 0.3874630636 0.7382122865 -0.5252903865
| 15> H -3.790597662 1.195740356 -1.3876289646
| 16> H -3.7621300652 1.2124564521 0.3755451973
| 17> H -2.4207761327 1.903285228 -0.5314163192
| 18> H -1.922756131 -0.4131972274 -1.4484941104
| 19> H -3.2401385362 -1.0368967544 -0.4657655878
| 20> H -1.6197749295 -1.4624535313 1.0800425533
| 21> H -1.777841253 0.2430707299 1.4666988187
| 22> H 0.5926446985 -1.8517921367 1.6169839787
| 23> H 2.9811811607 -1.5506554318 1.1481889009
| 24> H 3.7260999229 0.2199791605 -0.4051826031
| 25> H 2.0508998789 1.6837009948 -1.4754024736
| 26> H -0.3272619737 1.3896049816 -1.0031001013
| 27> *
| 28>
| 29>                          ****END OF INPUT****

CARTESIAN COORDINATES (ANGSTROEM)
---------------------------------
  C     -3.148386    1.095786   -0.515277
  C     -2.465708   -0.268749   -0.512371
  C     -1.503077   -0.456671    0.671863
  C     -0.047337   -0.255238    0.343901
  C      0.908829   -1.072150    0.938196
  C      2.256499   -0.904093    0.675250
  C      2.675216    0.087484   -0.195237
  C      1.734567    0.906791   -0.794642
  C      0.387463    0.738212   -0.525290
  H     -3.790598    1.195740   -1.387629
  H     -3.762130    1.212456    0.375545
  H     -2.420776    1.903285   -0.531416
  H     -1.922756   -0.413197   -1.448494
  H     -3.240139   -1.036897   -0.465766
  H     -1.619775   -1.462454    1.080043
  H     -1.777841    0.243071    1.466699
  H      0.592645   -1.851792    1.616984
  H      2.981181   -1.550655    1.148189
  H      3.726100    0.219979   -0.405183
  H      2.050900    1.683701   -1.475402
  H     -0.327262    1.389605   -1.003100

 Total Charge           Charge          ....    0
 Multiplicity           Mult            ....    1
 Number of Electrons    NEL             ....   66
 Basis Dimension        Dim             ....  150

ORBITAL ENERGIES
----------------

  NO   OCC          E(Eh)            E(eV)
   0   2.0000      -9.898753      -269.3588
   1   2.0000      -9.888129      -269.0697
   2   2.0000      -9.887065      -269.0407
   3   2.0000      -9.886718      -269.0313
   4   2.0000      -9.886297      -269.0198
   5   2.0000      -9.885784      -269.0059
   6   2.0000      -9.885384      -268.9950
   7   2.0000      -9.884790      -268.9788
   8   2.0000      -9.876173      -268.7443
   9   2.0000      -0.775012       -21.0892
  10   2.0000      -0.718017       -19.5382
  11   2.0000      -0.669426       -18.2160
  12   2.0000      -0.663948       -18.0669
  13   2.0000      -0.607098       -16.5200
  14   2.0000      -0.542618       -14.7654
  15   2.0000      -0.534570       -14.5464
  16   2.0000      -0.508500       -13.8370
  17   2.0000      -0.461071       -12.5464
  18   2.0000      -0.418269       -11.3817
  19   2.0000      -0.404225       -10.9995
  20   2.0000      -0.395506       -10.7623
  21   2.0000      -0.380525       -10.3546
  22   2.0000      -0.369463       -10.0536
  23   2.0000      -0.366501        -9.9730
  24   2.0000      -0.349694        -9.5156
  25   2.0000      -0.325622        -8.8606
  26   2.0000      -0.315536        -8.5862
  27   2.0000      -0.301213        -8.1964
  28   2.0000      -0.298454        -8.1213
  29   2.0000      -0.284296        -7.7361
  30   2.0000      -0.280088        -7.6216
  31   2.0000      -0.224860        -6.1188
  32   2.0000      -0.215515        -5.8645
  33   0.0000      -0.031193        -0.8488
  34   0.0000      -0.028459        -0.7744
  35   0.0000       0.038742         1.0542
  36   0.0000       0.054050         1.4708
  37   0.0000       0.062399         1.6980

MULLIKEN ATOMIC CHARGES
-----------------------
   0 C :   -0.300879
   1 C :   -0.186793
   2 C :   -0.096195
   3 C :    0.055028
   4 C :   -0.121000
   5 C :   -0.046326
   6 C :   -0.050190
   7 C :   -0.046282
   8 C :   -0.125197
   9 H :    0.104215
  10 H :    0.102153
  11 H :    0.112630
  12 H :    0.101721
  13 H :    0.087110
  14 H :    0.079790
  15 H :    0.102695
  16 H :    0.036467
  17 H :    0.049162
  18 H :    0.050274
  19 H :    0.047923
  20 H :    0.043693
Sum of atomic charges:   -0.0000000

LOEWDIN ATOMIC CHARGES
----------------------
   0 C :   -0.342773
   1 C :   -0.233638
   2 C :   -0.211712
   3 C :   -0.037472
   4 C :   -0.125425
   5 C :   -0.121837
   6 C :   -0.130378
   7 C :   -0.120925
   8 C :   -0.127236
   9 H :    0.119647
  10 H :    0.117764
  11 H :    0.114889
  12 H :    0.119040
  13 H :    0.118844
  14 H :    0.122224
  15 H :    0.130984
  16 H :    0.119785
  17 H :    0.122272
  18 H :    0.121975
  19 H :    0.122091
  20 H :    0.121881

  Mayer bond orders larger than 0.100000
B(  0-C ,  1-C ) :   1.1510 B(  0-C ,  9-H ) :   0.9501 B(  0-C , 10-H ) :   0.9513
B(  0-C , 11-H ) :   0.9503 B(  1-C ,  2-C ) :   1.0872 B(  1-C , 12-H ) :   0.9339
B(  1-C , 13-H ) :   0.9289 B(  2-C ,  3-C ) :   1.0752 B(  2-C , 14-H ) :   0.9086
B(  2-C , 15-H ) :   0.9009 B(  3-C ,  4-C ) :   1.3941 B(  3-C ,  8-C ) :   1.3914
B(  4-C ,  5-C ) :   1.3754 B(  4-C , 16-H ) :   0.9591 B(  5-C ,  6-C ) :   1.3794
B(  5-C , 17-H ) :   0.9628 B(  6-C ,  7-C ) :   1.3795 B(  6-C , 18-H ) :   0.9656
B(  7-C ,  8-C ) :   1.3790 B(  7-C , 19-H ) :   0.9626 B(  8-C , 20-H ) :   0.9506

Dispersion correction           -0.020574229
FINAL SINGLE POINT ENERGY      -349.363011784110

DIPOLE MOMENT
-------------

Method             : SCF
Type of density    : Electron Density
Multiplicity       :   1
Irrep              :   0
Energy             :  -349.4237232320922431 Eh
Relativity type    :
Basis              : AO
                                X                 Y                 Z
Electronic contribution:      8.738127377      -1.453565226       0.989297237
Nuclear contribution   :     -8.922391778       1.438062627      -0.965871790
                        -----------------------------------------
Total Dipole Moment    :     -0.184264401      -0.015502598       0.023425447
                        -----------------------------------------
Magnitude (a.u.)       :      0.186393271
Magnitude (Debye)      :      0.473774044

Rotational constants in cm-1:             0.132220             0.032602             0.027203
Rotational constants in MHz :          3963.853019           977.373313           815.511185

                             ****ORCA TERMINATED NORMALLY****
TOTAL RUN TIME: 0 days 0 hours 0 minutes 10 seconds 422 msec
