                         Program Version 6.0.0  -   RELEASE  -
|  1> ! r2scan-3c def2/J RI DEFGRID2 scfconv6 printgap
|  2> %output
|  3>     printlevel normal
|  4> end
|  5> * xyz 0 1
|  6> C 2.1033062732 -0.7694447266 -0.7427560002
|  7> C 1.4754285625 -0.4545284674 0.6120789113
|  8> C 0.2019713514 0.406060755 0.5457751619
|  9> H -0.1820836964 0.5190670446 1.5677069626
| 10> C -0.9225384473 -0.181074971 -0.3312123719
| 11> C -1.2790623293 -1.6091906471 0.0738593982
| 12> C -2.1610569155 0.7102928555 -0.2308494074
| 13> O 0.5103506058 1.7330648016 0.15020033
| 14> H 2.3662815027 0.1414635657 -1.2754855972
| 15> H 1.4313972528 -1.3557148576 -1.3636896151
| 16> H 3.0151708508 -1.3428903368 -0.5951687691
| 17> H 1.2430652866 -1.3817817042 1.1348950746
| 18> H 2.1988070035 0.0949635131 1.2194448233
| 19> H -0.5821001646 -0.1778467408 -1.3725771753
| 20> H -1.5154192832 -1.651667285 1.1347996251
| 21> H -2.1513733507 -1.9405538193 -0.4845189668
| 22> H -0.4653167047 -2.2991056248 -0.1286129268
| 23> H -1.8976632897 1.7486489209 -0.416969797
| 24> H -2.5910156611 0.6426997058 0.7662865374
| 25> H -2.9119236051 0.4031481333 -0.9544381233
| 26> H 0.8759034411 1.7057329632 -0.7447778323
| 27> *
| 28>
| 29>                          ****END OF INPUT****

CARTESIAN COORDINATES (ANGSTROEM)
---------------------------------
  C      2.103306   -0.769445   -0.742756
  C      1.475429   -0.454528    0.612079
  C      0.201971    0.406061    0.545775
  H     -0.182084    0.519067    1.567707
  C     -0.922538   -0.181075   -0.331212
  C     -1.279062   -1.609191    0.073859
  C     -2.161057    0.710293   -0.230849
  O      0.510351    1.733065    0.150200
  H      2.366282    0.141464   -1.275486
  H      1.431397   -1.355715   -1.363690
  H      3.015171   -1.342890   -0.595169
  H      1.243065   -1.381782    1.134895
  H      2.198807    0.094964    1.219445
  H     -0.582100   -0.177847   -1.372577
  H     -1.515419   -1.651667    1.134800
  H     -2.151373   -1.940554   -0.484519
  H     -0.465317   -2.299106   -0.128613
  H     -1.897663    1.748649   -0.416970
  H     -2.591016    0.642700    0.766287
  H     -2.911924    0.403148   -0.954438
  H      0.875903    1.705733   -0.744778

 Total Charge           Charge          ....    0
 Multiplicity           Mult            ....    1
 Number of Electrons    NEL             ....   58
 Basis Dimension        Dim             ....  208

ORBITAL ENERGIES
----------------

  NO   OCC          E(Eh)            E(eV)
   0   2.0000     -18.943421      -515.4767
   1   2.0000     -10.075851      -274.1779
   2   2.0000     -10.033521      -273.0260
   3   2.0000     -10.026072      -272.8233
   4   2.0000     -10.024691      -272.7857
   5   2.0000     -10.019575      -272.6465
   6   2.0000     -10.009843      -272.3817
   7   2.0000      -0.982781       -26.7428
   8   2.0000      -0.772950       -21.0330
   9   2.0000      -0.731074       -19.8935
  10   2.0000      -0.648881       -17.6569
  11   2.0000      -0.644038       -17.5252
  12   2.0000      -0.571499       -15.5513
  13   2.0000      -0.534635       -14.5482
  14   2.0000      -0.455869       -12.4048
  15   2.0000      -0.440096       -11.9756
  16   2.0000      -0.426289       -11.5999
  17   2.0000      -0.404995       -11.0205
  18   2.0000      -0.386482       -10.5167
  19   2.0000      -0.367180        -9.9915
  20   2.0000      -0.357695        -9.7334
  21   2.0000      -0.353035        -9.6066
  22   2.0000      -0.334746        -9.1089
  23   2.0000      -0.324276        -8.8240
  24   2.0000      -0.312429        -8.5016
  25   2.0000      -0.302470        -8.2306
  26   2.0000      -0.296310        -8.0630
  27   2.0000      -0.274429        -7.4676
  28   2.0000      -0.230276        -6.2661
  29   0.0000       0.058070         1.5802
  30   0.0000       0.085734         2.3329
  31   0.0000       0.107463         2.9242
  32   0.0000       0.115353         3.1389
  33   0.0000       0.123772         3.3680

MULLIKEN ATOMIC CHARGES
-----------------------
   0 C :   -0.511886
   1 C :   -0.250502
   2 C :   -0.047519
   3 H :    0.153705
   4 C :   -0.019938
   5 C :   -0.516273
   6 C :   -0.516078
   7 O :   -0.418947
   8 H :    0.138314
   9 H :    0.155988
  10 H :    0.154902
  11 H :    0.149521
  12 H :    0.158373
  13 H :    0.151493
  14 H :    0.161287
  15 H :    0.147976
  16 H :    0.151512
  17 H :    0.173769
  18 H :    0.145878
  19 H :    0.146691
  20 H :    0.291733
Sum of atomic charges:   -0.0000000

LOEWDIN ATOMIC CHARGES
----------------------
   0 C :   -0.424228
   1 C :   -0.293381
   2 C :    0.053615
   3 H :    0.186076
   4 C :   -0.227023
   5 C :   -0.412414
   6 C :   -0.409945
   7 O :   -0.613188
   8 H :    0.146149
   9 H :    0.151618
  10 H :    0.155352
  11 H :    0.158926
  12 H :    0.165366
  13 H :    0.157983
  14 H :    0.156725
  15 H :    0.156067
  16 H :    0.152794
  17 H :    0.167981
  18 H :    0.154819
  19 H :    0.150630
  20 H :    0.266079

  Mayer bond orders larger than 0.100000
B(  0-C ,  1-C ) :   0.8627 B(  0-C ,  8-H ) :   0.9835 B(  0-C ,  9-H ) :   0.9779
B(  0-C , 10-H ) :   0.9693 B(  1-C ,  2-C ) :   0.9007 B(  1-C , 11-H ) :   0.9755
B(  1-C , 12-H ) :   0.9757 B(  2-C ,  3-H ) :   0.9839 B(  2-C ,  4-C ) :   0.9027
B(  2-C ,  7-O ) :   0.9185 B(  4-C ,  5-C ) :   0.8789 B(  4-C ,  6-C ) :   0.9074
B(  4-C , 13-H ) :   0.9480 B(  5-C , 14-H ) :   0.9913 B(  5-C , 15-H ) :   0.9668
B(  5-C , 16-H ) :   0.9670 B(  6-C , 17-H ) :   0.9699 B(  6-C , 18-H ) :   0.9854
B(  6-C , 19-H ) :   0.9774 B(  7-O , 20-H ) :   0.8932

Dispersion correction           -0.005783119
FINAL SINGLE POINT ENERGY      -312.202901964487

DIPOLE MOMENT
-------------

Method             : SCF
Type of density    : Electron Density
Multiplicity       :   1
Irrep              :   0
Energy             :  -312.2084216537330690 Eh
Relativity type    :
Basis              : AO
                                X                 Y                 Z
Electronic contribution:      1.210045918       4.038688750       1.095966618
Nuclear contribution   :     -1.086578394      -4.565499007      -1.417311597
                        -----------------------------------------
Total Dipole Moment    :      0.123467523      -0.526810257      -0.321344979
                        -----------------------------------------
Magnitude (a.u.)       :      0.629313810
Magnitude (Debye)      :      1.599588585

Rotational constants in cm-1:             0.110299             0.066762             0.049194
Rotational constants in MHz :          3306.694222          2001.461219          1474.803936

                             ****ORCA TERMINATED NORMALLY****
TOTAL RUN TIME: 0 days 0 hours 0 minutes 27 seconds 969 msec
