                         Program Version 6.0.0  -   RELEASE  -
|  1> ! r2scan-3c def2/J RI DEFGRID2 scfconv6 printgap
|  2> %output
|  3>     printlevel normal
|  4> end
|  5> %cpcm
|  6>     smd true
|  7>     smdsolvent "water"
|  8> end
|  9> * xyz 0 1
| 10> C 2.1033062732 -0.7694447266 -0.7427560002
| 11> C 1.4754285625 -0.4545284674 0.6120789113
| 12> C 0.2019713514 0.406060755 0.5457751619
| 13> H -0.1820836964 0.5190670446 1.5677069626
| 14> C -0.9225384473 -0.181074971 -0.3312123719
| 15> C -1.2790623293 -1.6091906471 0.0738593982
| 16> C -2.1610569155 0.7102928555 -0.2308494074
| 17> O 0.5103506058 1.7330648016 0.15020033
| 18> H 2.3662815027 0.1414635657 -1.2754855972
| 19> H 1.4313972528 -1.3557148576 -1.3636896151
| 20> H 3.0151708508 -1.3428903368 -0.5951687691
| 21> H 1.2430652866 -1.3817817042 1.1348950746
| 22> H 2.1988070035 0.0949635131 1.2194448233
| 23> H -0.5821001646 -0.1778467408 -1.3725771753
| 24> H -1.5154192832 -1.651667285 1.1347996251
| 25> H -2.1513733507 -1.9405538193 -0.4845189668
| 26> H -0.4653167047 -2.2991056248 -0.1286129268
| 27> H -1.8976632897 1.7486489209 -0.416969797
| 28> H -2.5910156611 0.6426997058 0.7662865374
| 29> H -2.9119236051 0.4031481333 -0.9544381233
| 30> H 0.8759034411 1.7057329632 -0.7447778323
| 31> *
| 32>
| 33>                          ****END OF INPUT****

CARTESIAN COORDINATES (ANGSTROEM)
---------------------------------
  C      2.103306   -0.769445   -0.742756
  C      1.475429   -0.454528    0.612079
  C      0.201971    0.406061    0.545775
  H     -0.182084    0.519067    1.567707
  C     -0.922538   -0.181075   -0.331212
  C     -1.279062   -1.609191    0.073859
  C     -2.161057    0.710293   -0.230849
  O      0.510351    1.733065    0.150200
  H      2.366282    0.141464   -1.275486
  H      1.431397   -1.355715   -1.363690
  H      3.015171   -1.342890   -0.595169
  H      1.243065   -1.381782    1.134895
  H      2.198807    0.094964    1.219445
  H     -0.582100   -0.177847   -1.372577
  H     -1.515419   -1.651667    1.134800
  H     -2.151373   -1.940554   -0.484519
  H     -0.465317   -2.299106   -0.128613
  H     -1.897663    1.748649   -0.416970
  H     -2.591016    0.642700    0.766287
  H     -2.911924    0.403148   -0.954438
  H      0.875903    1.705733   -0.744778

 Total Charge           Charge          ....    0
 Multiplicity           Mult            ....    1
 Number of Electrons    NEL             ....   58
 Basis Dimension        Dim             ....  208

ORBITAL ENERGIES
----------------

  NO   OCC          E(Eh)            E(eV)
   0   2.0000     -18.946532      -515.5613
   1   2.0000     -10.070237      -274.0251
   2   2.0000     -10.024613      -272.7836
   3   2.0000     -10.016677      -272.5676
   4   2.0000     -10.010063      -272.3877
   5   2.0000     -10.008215      -272.3374
   6   2.0000     -10.005134      -272.2535
   7   2.0000      -0.984701       -26.7951
   8   2.0000      -0.764707       -20.8087
   9   2.0000      -0.720876       -19.6160
  10   2.0000      -0.641210       -17.4482
  11   2.0000      -0.635806       -17.3012
  12   2.0000      -0.562773       -15.3138
  13   2.0000      -0.528185       -14.3727
  14   2.0000      -0.449318       -12.2266
  15   2.0000      -0.433449       -11.7948
  16   2.0000      -0.416784       -11.3413
  17   2.0000      -0.398542       -10.8449
  18   2.0000      -0.378387       -10.2964
  19   2.0000      -0.359563        -9.7842
  20   2.0000      -0.350335        -9.5331
  21   2.0000      -0.344250        -9.3675
  22   2.0000      -0.326661        -8.8889
  23   2.0000      -0.316048        -8.6001
  24   2.0000      -0.303536        -8.2596
  25   2.0000      -0.295272        -8.0348
  26   2.0000      -0.289808        -7.8861
  27   2.0000      -0.269973        -7.3463
  28   2.0000      -0.232068        -6.3149
  29   0.0000       0.074694         2.0325
  30   0.0000       0.098434         2.6785
  31   0.0000       0.117124         3.1871
  32   0.0000       0.123776         3.3681
  33   0.0000       0.131938         3.5902

MULLIKEN ATOMIC CHARGES
-----------------------
   0 C :   -0.536709
   1 C :   -0.277367
   2 C :   -0.032088
   3 H :    0.162784
   4 C :    0.002785
   5 C :   -0.557234
   6 C :   -0.566436
   7 O :   -0.507756
   8 H :    0.158734
   9 H :    0.165963
  10 H :    0.162976
  11 H :    0.162775
  12 H :    0.157753
  13 H :    0.170344
  14 H :    0.172187
  15 H :    0.158273
  16 H :    0.165906
  17 H :    0.164516
  18 H :    0.161603
  19 H :    0.161638
  20 H :    0.349352
Sum of atomic charges:   -0.0000000

LOEWDIN ATOMIC CHARGES
----------------------
   0 C :   -0.429543
   1 C :   -0.293632
   2 C :    0.052890
   3 H :    0.188541
   4 C :   -0.222096
   5 C :   -0.418090
   6 C :   -0.419518
   7 O :   -0.650839
   8 H :    0.153680
   9 H :    0.155646
  10 H :    0.156264
  11 H :    0.164012
  12 H :    0.163571
  13 H :    0.165103
  14 H :    0.159481
  15 H :    0.158163
  16 H :    0.157625
  17 H :    0.161872
  18 H :    0.157565
  19 H :    0.155207
  20 H :    0.284098

  Mayer bond orders larger than 0.100000
B(  0-C ,  1-C ) :   0.8677 B(  0-C ,  8-H ) :   0.9767 B(  0-C ,  9-H ) :   0.9738
B(  0-C , 10-H ) :   0.9688 B(  1-C ,  2-C ) :   0.9034 B(  1-C , 11-H ) :   0.9742
B(  1-C , 12-H ) :   0.9785 B(  2-C ,  3-H ) :   0.9831 B(  2-C ,  4-C ) :   0.9001
B(  2-C ,  7-O ) :   0.8985 B(  4-C ,  5-C ) :   0.8726 B(  4-C ,  6-C ) :   0.8831
B(  4-C , 13-H ) :   0.9494 B(  5-C , 14-H ) :   0.9873 B(  5-C , 15-H ) :   0.9657
B(  5-C , 16-H ) :   0.9639 B(  6-C , 17-H ) :   0.9744 B(  6-C , 18-H ) :   0.9855
B(  6-C , 19-H ) :   0.9734 B(  7-O , 20-H ) :   0.8658

Dispersion correction           -0.005783119
FINAL SINGLE POINT ENERGY      -312.208345708151

DIPOLE MOMENT
-------------

Method             : SCF
Type of density    : Electron Density
Multiplicity       :   1
Irrep              :   0
Energy             :  -312.2138653973971145 Eh
Relativity type    :
Basis              : AO
                                X                 Y                 Z
Electronic contribution:      1.247462897       3.791907303       0.914035419
Nuclear contribution   :     -1.086578394      -4.565499007      -1.417311597
                        -----------------------------------------
Total Dipole Moment    :      0.160884502      -0.773591705      -0.503276178
                        -----------------------------------------
Magnitude (a.u.)       :      0.936811005
Magnitude (Debye)      :      2.381184339

Rotational constants in cm-1:             0.110299             0.066762             0.049194
Rotational constants in MHz :          3306.694222          2001.461219          1474.803936

                             ****ORCA TERMINATED NORMALLY****
TOTAL RUN TIME: 0 days 0 hours 0 minutes 33 seconds 283 msec
