                         Program Version 6.0.0  -   RELEASE  -
|  1> ! r2scan-3c def2/J RI DEFGRID2 scfconv6 printgap
|  2> %output
|  3>     printlevel normal
|  4> end
|  5> * xyz 0 1
|  6> C 3.2739013297 -0.9683127905 0.0530903868
|  7> C 2.0183946581 -0.2524831584 0.4529981523
|  8> C 1.5242043273 -0.3470089548 1.6774397935
|  9> C 1.3837346267 0.5641978098 -0.6501998162
| 10> H 2.1952468602 0.9452165975 -1.2791410525
| 11> C 0.4782958586 -0.3138781969 -1.5289947462
| 12> C -0.6967837501 -0.8579368835 -0.7256762671
| 13> C -1.4113750432 0.2472198447 -0.0054190562
| 14> C -0.8134158142 1.4195768656 0.262962242
| 15> C 0.5737403501 1.760566519 -0.1386697351
| 16> C -2.7781511775 0.0174763113 0.4145400098
| 17> O -3.4225488366 -0.9978872439 0.2156709198
| 18> H 3.6294468306 -1.6102787702 0.8540631017
| 19> H 3.1011196464 -1.5767812517 -0.8326793607
| 20> H 4.0541647127 -0.2472401067 -0.1877077736
| 21> H 0.6261268387 0.1592175683 1.9862648354
| 22> H 2.0031665416 -0.9518529826 2.429635498
| 23> H 0.1000132613 0.291708075 -2.3544134845
| 24> H 1.047858685 -1.1420689379 -1.9508996512
| 25> H -1.4076030798 -1.3783256205 -1.3710758441
| 26> H -0.3422373131 -1.5826929485 0.0133423366
| 27> H -1.3661039486 2.1930735363 0.780728681
| 28> H 0.5059236802 2.5152203322 -0.9290819723
| 29> H 1.0902241869 2.2350518951 0.6987382771
| 30> H -3.2429967963 0.8627451543 0.9581906326
| 31> *
| 32>
| 33>                          ****END OF INPUT****

CARTESIAN COORDINATES (ANGSTROEM)
---------------------------------
  C      3.273901   -0.968313    0.053090
  C      2.018395   -0.252483    0.452998
  C      1.524204   -0.347009    1.677440
  C      1.383735    0.564198   -0.650200
  H      2.195247    0.945217   -1.279141
  C      0.478296   -0.313878   -1.528995
  C     -0.696784   -0.857937   -0.725676
  C     -1.411375    0.247220   -0.005419
  C     -0.813416    1.419577    0.262962
  C      0.573740    1.760567   -0.138670
  C     -2.778151    0.017476    0.414540
  O     -3.422549   -0.997887    0.215671
  H      3.629447   -1.610279    0.854063
  H      3.101120   -1.576781   -0.832679
  H      4.054165   -0.247240   -0.187708
  H      0.626127    0.159218    1.986265
  H      2.003167   -0.951853    2.429635
  H      0.100013    0.291708   -2.354413
  H      1.047859   -1.142069   -1.950900
  H     -1.407603   -1.378326   -1.371076
  H     -0.342237   -1.582693    0.013342
  H     -1.366104    2.193074    0.780729
  H      0.505924    2.515220   -0.929082
  H      1.090224    2.235052    0.698738
  H     -3.242997    0.862745    0.958191

 Total Charge           Charge          ....    0
 Multiplicity           Mult            ....    1
 Number of Electrons    NEL             ....   82
 Basis Dimension        Dim             ....  284

ORBITAL ENERGIES
----------------

  NO   OCC          E(Eh)            E(eV)
   0   2.0000     -18.936628      -515.2918
   1   2.0000     -10.106644      -275.0158
   2   2.0000     -10.061113      -273.7768
   3   2.0000     -10.051457      -273.5141
   4   2.0000     -10.050062      -273.4761
   5   2.0000     -10.046739      -273.3857
   6   2.0000     -10.046386      -273.3760
   7   2.0000     -10.039489      -273.1884
   8   2.0000     -10.032722      -273.0042
   9   2.0000     -10.031336      -272.9665
  10   2.0000     -10.017750      -272.5968
  11   2.0000      -0.996724       -27.1223
  12   2.0000      -0.834416       -22.7056
  13   2.0000      -0.779742       -21.2179
  14   2.0000      -0.728920       -19.8349
  15   2.0000      -0.726023       -19.7561
  16   2.0000      -0.660729       -17.9794
  17   2.0000      -0.628864       -17.1123
  18   2.0000      -0.595355       -16.2004
  19   2.0000      -0.559896       -15.2355
  20   2.0000      -0.514987       -14.0135
  21   2.0000      -0.473838       -12.8938
  22   2.0000      -0.472432       -12.8555
  23   2.0000      -0.447729       -12.1833
  24   2.0000      -0.429524       -11.6879
  25   2.0000      -0.417684       -11.3658
  26   2.0000      -0.410209       -11.1624
  27   2.0000      -0.395630       -10.7656
  28   2.0000      -0.385595       -10.4926
  29   2.0000      -0.378822       -10.3083
  30   2.0000      -0.374218       -10.1830
  31   2.0000      -0.367782       -10.0079
  32   2.0000      -0.357144        -9.7184
  33   2.0000      -0.342519        -9.3204
  34   2.0000      -0.333546        -9.0763
  35   2.0000      -0.305151        -8.3036
  36   2.0000      -0.300666        -8.1815
  37   2.0000      -0.293249        -7.9797
  38   2.0000      -0.244872        -6.6633
  39   2.0000      -0.231932        -6.3112
  40   2.0000      -0.215572        -5.8660
  41   0.0000      -0.085244        -2.3196
  42   0.0000      -0.016863        -0.4589
  43   0.0000       0.027049         0.7360
  44   0.0000       0.064602         1.7579
  45   0.0000       0.081997         2.2313

MULLIKEN ATOMIC CHARGES
-----------------------
   0 C :   -0.519201
   1 C :   -0.004254
   2 C :   -0.334528
   3 C :    0.030951
   4 H :    0.164826
   5 C :   -0.345312
   6 C :   -0.298038
   7 C :    0.142260
   8 C :   -0.184270
   9 C :   -0.409504
  10 C :    0.003456
  11 O :   -0.349889
  12 H :    0.153055
  13 H :    0.152577
  14 H :    0.162565
  15 H :    0.148214
  16 H :    0.143424
  17 H :    0.167671
  18 H :    0.165974
  19 H :    0.183232
  20 H :    0.198856
  21 H :    0.165186
  22 H :    0.175969
  23 H :    0.187038
  24 H :    0.099740
Sum of atomic charges:    0.0000000

LOEWDIN ATOMIC CHARGES
----------------------
   0 C :   -0.389857
   1 C :   -0.122303
   2 C :   -0.313953
   3 C :   -0.202175
   4 H :    0.169417
   5 C :   -0.266224
   6 C :   -0.262898
   7 C :   -0.118147
   8 C :   -0.131923
   9 C :   -0.276315
  10 C :    0.200144
  11 O :   -0.469906
  12 H :    0.160255
  13 H :    0.160827
  14 H :    0.162517
  15 H :    0.168136
  16 H :    0.158623
  17 H :    0.164316
  18 H :    0.160698
  19 H :    0.181081
  20 H :    0.183069
  21 H :    0.171306
  22 H :    0.179020
  23 H :    0.179178
  24 H :    0.155114

  Mayer bond orders larger than 0.100000
B(  0-C ,  1-C ) :   0.8835 B(  0-C , 12-H ) :   0.9902 B(  0-C , 13-H ) :   0.9681
B(  0-C , 14-H ) :   0.9736 B(  1-C ,  2-C ) :   1.8601 B(  1-C ,  3-C ) :   0.9116
B(  2-C , 15-H ) :   0.9668 B(  2-C , 16-H ) :   0.9691 B(  3-C ,  4-H ) :   0.9753
B(  3-C ,  5-C ) :   0.8308 B(  3-C ,  9-C ) :   0.9352 B(  5-C ,  6-C ) :   0.8708
B(  5-C , 17-H ) :   0.9986 B(  5-C , 18-H ) :   0.9872 B(  6-C ,  7-C ) :   0.8510
B(  6-C , 19-H ) :   0.9661 B(  6-C , 20-H ) :   0.9780 B(  7-C ,  8-C ) :   1.7271
B(  7-C , 10-C ) :   0.9233 B(  7-C , 11-O ) :  -0.1039 B(  7-C , 24-H ) :  -0.1385
B(  8-C ,  9-C ) :   0.9076 B(  8-C , 11-O ) :   0.1072 B(  8-C , 21-H ) :   0.9156
B(  9-C , 22-H ) :   0.9459 B(  9-C , 23-H ) :   0.9886 B( 10-C , 11-O ) :   1.9162
B( 10-C , 24-H ) :   1.0483

Dispersion correction           -0.009412854
FINAL SINGLE POINT ENERGY      -464.556355466281

DIPOLE MOMENT
-------------

Method             : SCF
Type of density    : Electron Density
Multiplicity       :   1
Irrep              :   0
Energy             :  -464.5564725356326790 Eh
Relativity type    :
Basis              : AO
                                X                 Y                 Z
Electronic contribution:     -9.856557251       0.261363088       0.875466505
Nuclear contribution   :     11.201974480       0.654113555      -1.107626905
                        -----------------------------------------
Total Dipole Moment    :      1.345417229       0.915476643      -0.232160400
                        -----------------------------------------
Magnitude (a.u.)       :      1.643819776
Magnitude (Debye)      :      4.178257819

Rotational constants in cm-1:             0.069599             0.023219             0.022346
Rotational constants in MHz :          2086.522099           696.102112           669.913923

                             ****ORCA TERMINATED NORMALLY****
TOTAL RUN TIME: 0 days 0 hours 0 minutes 55 seconds 847 msec
