                         Program Version 6.0.0  -   RELEASE  -
|  1> ! r2scan-3c def2/J RI DEFGRID2 scfconv6 printgap
|  2> %output
|  3>     printlevel normal
|  4> end
|  5> * xyz 0 1
|  6> C 2.221695491 -1.1554081369 0.5210947942
|  7> C 1.5158749881 -0.2585811734 -0.4899925881
|  8> C 0.3019741693 0.491071735 0.0951555341
|  9> H 0.3819549416 0.5027682475 1.1940432469
| 10> C -1.0502903434 -0.1399337434 -0.2842803465
| 11> C -1.1484876805 -1.6041362081 0.1324424753
| 12> C -2.1902972922 0.6553330925 0.3525955685
| 13> O 0.264857111 1.8315377695 -0.3785171896
| 14> H 3.0733103643 -1.6433777991 0.0533826639
| 15> H 1.5525783871 -1.921847883 0.9003136083
| 16> H 2.5831084734 -0.5700903058 1.3636922517
| 17> H 2.2279914694 0.4857450502 -0.8546464423
| 18> H 1.2009003156 -0.8430860676 -1.3555641618
| 19> H -1.1421555234 -0.0632238849 -1.3732801659
| 20> H -0.4179735271 -2.2182403209 -0.3852979314
| 21> H -0.9953382642 -1.7016333167 1.2050227427
| 22> H -2.1390462412 -1.9830824298 -0.1068047124
| 23> H -2.1441885236 0.5767517684 1.4368900455
| 24> H -3.1504679523 0.2724096244 0.0167281597
| 25> H -2.1150326983 1.7033010241 0.0757580539
| 26> H 1.0453251302 2.3023819868 -0.0586533698
| 27> *
| 28>
| 29>                          ****END OF INPUT****

CARTESIAN COORDINATES (ANGSTROEM)
---------------------------------
  C      2.221695   -1.155408    0.521095
  C      1.515875   -0.258581   -0.489993
  C      0.301974    0.491072    0.095156
  H      0.381955    0.502768    1.194043
  C     -1.050290   -0.139934   -0.284280
  C     -1.148488   -1.604136    0.132442
  C     -2.190297    0.655333    0.352596
  O      0.264857    1.831538   -0.378517
  H      3.073310   -1.643378    0.053383
  H      1.552578   -1.921848    0.900314
  H      2.583108   -0.570090    1.363692
  H      2.227991    0.485745   -0.854646
  H      1.200900   -0.843086   -1.355564
  H     -1.142156   -0.063224   -1.373280
  H     -0.417974   -2.218240   -0.385298
  H     -0.995338   -1.701633    1.205023
  H     -2.139046   -1.983082   -0.106805
  H     -2.144189    0.576752    1.436890
  H     -3.150468    0.272410    0.016728
  H     -2.115033    1.703301    0.075758
  H      1.045325    2.302382   -0.058653

 Total Charge           Charge          ....    0
 Multiplicity           Mult            ....    1
 Number of Electrons    NEL             ....   58
 Basis Dimension        Dim             ....  208

ORBITAL ENERGIES
----------------

  NO   OCC          E(Eh)            E(eV)
   0   2.0000     -18.942979      -515.4647
   1   2.0000     -10.076620      -274.1988
   2   2.0000     -10.030526      -272.9445
   3   2.0000     -10.025282      -272.8018
   4   2.0000     -10.020424      -272.6696
   5   2.0000     -10.017157      -272.5807
   6   2.0000     -10.005835      -272.2726
   7   2.0000      -0.981375       -26.7046
   8   2.0000      -0.772152       -21.0113
   9   2.0000      -0.730182       -19.8693
  10   2.0000      -0.646767       -17.5994
  11   2.0000      -0.636802       -17.3283
  12   2.0000      -0.568880       -15.4800
  13   2.0000      -0.524217       -14.2647
  14   2.0000      -0.479033       -13.0351
  15   2.0000      -0.435487       -11.8502
  16   2.0000      -0.421333       -11.4650
  17   2.0000      -0.387920       -10.5558
  18   2.0000      -0.385165       -10.4809
  19   2.0000      -0.371530       -10.1099
  20   2.0000      -0.354079        -9.6350
  21   2.0000      -0.345026        -9.3886
  22   2.0000      -0.339582        -9.2405
  23   2.0000      -0.322028        -8.7628
  24   2.0000      -0.305956        -8.3255
  25   2.0000      -0.300373        -8.1736
  26   2.0000      -0.293079        -7.9751
  27   2.0000      -0.269833        -7.3425
  28   2.0000      -0.231168        -6.2904
  29   0.0000       0.062551         1.7021
  30   0.0000       0.086324         2.3490
  31   0.0000       0.104569         2.8455
  32   0.0000       0.112835         3.0704
  33   0.0000       0.125592         3.4175

MULLIKEN ATOMIC CHARGES
-----------------------
   0 C :   -0.492973
   1 C :   -0.272688
   2 C :    0.043369
   3 H :    0.137785
   4 C :   -0.035856
   5 C :   -0.532922
   6 C :   -0.528447
   7 O :   -0.440331
   8 H :    0.147872
   9 H :    0.156270
  10 H :    0.143738
  11 H :    0.149167
  12 H :    0.151796
  13 H :    0.160762
  14 H :    0.153894
  15 H :    0.161421
  16 H :    0.148558
  17 H :    0.142187
  18 H :    0.144898
  19 H :    0.178045
  20 H :    0.283456
Sum of atomic charges:   -0.0000000

LOEWDIN ATOMIC CHARGES
----------------------
   0 C :   -0.423427
   1 C :   -0.291928
   2 C :    0.064731
   3 H :    0.164348
   4 C :   -0.210071
   5 C :   -0.413434
   6 C :   -0.408763
   7 O :   -0.628051
   8 H :    0.151384
   9 H :    0.152386
  10 H :    0.148657
  11 H :    0.162523
  12 H :    0.159936
  13 H :    0.166340
  14 H :    0.153735
  15 H :    0.154812
  16 H :    0.156166
  17 H :    0.152661
  18 H :    0.150870
  19 H :    0.170756
  20 H :    0.266371

  Mayer bond orders larger than 0.100000
B(  0-C ,  1-C ) :   0.8826 B(  0-C ,  8-H ) :   0.9727 B(  0-C ,  9-H ) :   0.9712
B(  0-C , 10-H ) :   0.9862 B(  1-C ,  2-C ) :   0.8366 B(  1-C , 11-H ) :   0.9865
B(  1-C , 12-H ) :   0.9684 B(  2-C ,  3-H ) :   0.9834 B(  2-C ,  4-C ) :   0.9155
B(  2-C ,  7-O ) :   0.8549 B(  4-C ,  5-C ) :   0.8613 B(  4-C ,  6-C ) :   0.9157
B(  4-C , 13-H ) :   0.9684 B(  5-C , 14-H ) :   0.9659 B(  5-C , 15-H ) :   0.9881
B(  5-C , 16-H ) :   0.9674 B(  6-C , 17-H ) :   0.9832 B(  6-C , 18-H ) :   0.9771
B(  6-C , 19-H ) :   0.9690 B(  7-O , 20-H ) :   0.9020

Dispersion correction           -0.005677863
FINAL SINGLE POINT ENERGY      -312.199495310774

DIPOLE MOMENT
-------------

Method             : SCF
Type of density    : Electron Density
Multiplicity       :   1
Irrep              :   0
Energy             :  -312.2050757869933477 Eh
Relativity type    :
Basis              : AO
                                X                 Y                 Z
Electronic contribution:      0.479973295       4.549116165      -1.720539425
Nuclear contribution   :     -0.032689261      -4.758601252       1.975393637
                        -----------------------------------------
Total Dipole Moment    :      0.447284033      -0.209485087       0.254854213
                        -----------------------------------------
Magnitude (a.u.)       :      0.555785640
Magnitude (Debye)      :      1.412694829

Rotational constants in cm-1:             0.108542             0.065922             0.045635
Rotational constants in MHz :          3254.012391          1976.290279          1368.096489

                             ****ORCA TERMINATED NORMALLY****
TOTAL RUN TIME: 0 days 0 hours 0 minutes 27 seconds 866 msec
