                         Program Version 6.0.0  -   RELEASE  -
|  1> ! r2scan-3c def2/J RI DEFGRID2 scfconv6 printgap
|  2> %output
|  3>     printlevel normal
|  4> end
|  5> %cpcm
|  6>     smd true
|  7>     smdsolvent "water"
|  8> end
|  9> * xyz 0 1
| 10> C 2.221695491 -1.1554081369 0.5210947942
| 11> C 1.5158749881 -0.2585811734 -0.4899925881
| 12> C 0.3019741693 0.491071735 0.0951555341
| 13> H 0.3819549416 0.5027682475 1.1940432469
| 14> C -1.0502903434 -0.1399337434 -0.2842803465
| 15> C -1.1484876805 -1.6041362081 0.1324424753
| 16> C -2.1902972922 0.6553330925 0.3525955685
| 17> O 0.264857111 1.8315377695 -0.3785171896
| 18> H 3.0733103643 -1.6433777991 0.0533826639
| 19> H 1.5525783871 -1.921847883 0.9003136083
| 20> H 2.5831084734 -0.5700903058 1.3636922517
| 21> H 2.2279914694 0.4857450502 -0.8546464423
| 22> H 1.2009003156 -0.8430860676 -1.3555641618
| 23> H -1.1421555234 -0.0632238849 -1.3732801659
| 24> H -0.4179735271 -2.2182403209 -0.3852979314
| 25> H -0.9953382642 -1.7016333167 1.2050227427
| 26> H -2.1390462412 -1.9830824298 -0.1068047124
| 27> H -2.1441885236 0.5767517684 1.4368900455
| 28> H -3.1504679523 0.2724096244 0.0167281597
| 29> H -2.1150326983 1.7033010241 0.0757580539
| 30> H 1.0453251302 2.3023819868 -0.0586533698
| 31> *
| 32>
| 33>                          ****END OF INPUT****

CARTESIAN COORDINATES (ANGSTROEM)
---------------------------------
  C      2.221695   -1.155408    0.521095
  C      1.515875   -0.258581   -0.489993
  C      0.301974    0.491072    0.095156
  H      0.381955    0.502768    1.194043
  C     -1.050290   -0.139934   -0.284280
  C     -1.148488   -1.604136    0.132442
  C     -2.190297    0.655333    0.352596
  O      0.264857    1.831538   -0.378517
  H      3.073310   -1.643378    0.053383
  H      1.552578   -1.921848    0.900314
  H      2.583108   -0.570090    1.363692
  H      2.227991    0.485745   -0.854646
  H      1.200900   -0.843086   -1.355564
  H     -1.142156   -0.063224   -1.373280
  H     -0.417974   -2.218240   -0.385298
  H     -0.995338   -1.701633    1.205023
  H     -2.139046   -1.983082   -0.106805
  H     -2.144189    0.576752    1.436890
  H     -3.150468    0.272410    0.016728
  H     -2.115033    1.703301    0.075758
  H      1.045325    2.302382   -0.058653

 Total Charge           Charge          ....    0
 Multiplicity           Mult            ....    1
 Number of Electrons    NEL             ....   58
 Basis Dimension        Dim             ....  208

ORBITAL ENERGIES
----------------

  NO   OCC          E(Eh)            E(eV)
   0   2.0000     -18.945432      -515.5314
   1   2.0000     -10.071009      -274.0461
   2   2.0000     -10.026256      -272.8283
   3   2.0000     -10.015787      -272.5434
   4   2.0000     -10.009215      -272.3646
   5   2.0000     -10.008423      -272.3430
   6   2.0000     -10.004921      -272.2477
   7   2.0000      -0.982690       -26.7404
   8   2.0000      -0.766683       -20.8625
   9   2.0000      -0.721876       -19.6433
  10   2.0000      -0.641873       -17.4662
  11   2.0000      -0.631199       -17.1758
  12   2.0000      -0.561553       -15.2806
  13   2.0000      -0.519269       -14.1300
  14   2.0000      -0.475449       -12.9376
  15   2.0000      -0.428265       -11.6537
  16   2.0000      -0.415127       -11.2962
  17   2.0000      -0.384491       -10.4625
  18   2.0000      -0.378161       -10.2903
  19   2.0000      -0.365407        -9.9432
  20   2.0000      -0.349105        -9.4996
  21   2.0000      -0.339902        -9.2492
  22   2.0000      -0.333617        -9.0782
  23   2.0000      -0.313620        -8.5340
  24   2.0000      -0.301468        -8.2034
  25   2.0000      -0.297640        -8.0992
  26   2.0000      -0.288399        -7.8477
  27   2.0000      -0.265482        -7.2241
  28   2.0000      -0.233803        -6.3621
  29   0.0000       0.079485         2.1629
  30   0.0000       0.095862         2.6085
  31   0.0000       0.112630         3.0648
  32   0.0000       0.122354         3.3294
  33   0.0000       0.130324         3.5463

MULLIKEN ATOMIC CHARGES
-----------------------
   0 C :   -0.534096
   1 C :   -0.282784
   2 C :    0.052063
   3 H :    0.151935
   4 C :   -0.019015
   5 C :   -0.571600
   6 C :   -0.566402
   7 O :   -0.526117
   8 H :    0.157404
   9 H :    0.164071
  10 H :    0.158561
  11 H :    0.160687
  12 H :    0.161362
  13 H :    0.165326
  14 H :    0.167568
  15 H :    0.174630
  16 H :    0.159471
  17 H :    0.161511
  18 H :    0.161344
  19 H :    0.165527
  20 H :    0.338553
Sum of atomic charges:   -0.0000000

LOEWDIN ATOMIC CHARGES
----------------------
   0 C :   -0.428386
   1 C :   -0.292473
   2 C :    0.066344
   3 H :    0.171966
   4 C :   -0.211072
   5 C :   -0.418116
   6 C :   -0.418648
   7 O :   -0.663103
   8 H :    0.153842
   9 H :    0.154266
  10 H :    0.153012
  11 H :    0.166953
  12 H :    0.162004
  13 H :    0.166025
  14 H :    0.158713
  15 H :    0.159020
  16 H :    0.158353
  17 H :    0.157665
  18 H :    0.155518
  19 H :    0.163333
  20 H :    0.284782

  Mayer bond orders larger than 0.100000
B(  0-C ,  1-C ) :   0.8819 B(  0-C ,  8-H ) :   0.9703 B(  0-C ,  9-H ) :   0.9699
B(  0-C , 10-H ) :   0.9833 B(  1-C ,  2-C ) :   0.8466 B(  1-C , 11-H ) :   0.9822
B(  1-C , 12-H ) :   0.9671 B(  2-C ,  3-H ) :   0.9757 B(  2-C ,  4-C ) :   0.9119
B(  2-C ,  7-O ) :   0.8359 B(  4-C ,  5-C ) :   0.8650 B(  4-C ,  6-C ) :   0.8963
B(  4-C , 13-H ) :   0.9652 B(  5-C , 14-H ) :   0.9623 B(  5-C , 15-H ) :   0.9858
B(  5-C , 16-H ) :   0.9652 B(  6-C , 17-H ) :   0.9814 B(  6-C , 18-H ) :   0.9741
B(  6-C , 19-H ) :   0.9722 B(  7-O , 20-H ) :   0.8760

Dispersion correction           -0.005677863
FINAL SINGLE POINT ENERGY      -312.204702051773

DIPOLE MOMENT
-------------

Method             : SCF
Type of density    : Electron Density
Multiplicity       :   1
Irrep              :   0
Energy             :  -312.2102825279917511 Eh
Relativity type    :
Basis              : AO
                                X                 Y                 Z
Electronic contribution:      0.678776897       4.397420838      -1.552297604
Nuclear contribution   :     -0.032689261      -4.758601252       1.975393637
                        -----------------------------------------
Total Dipole Moment    :      0.646087636      -0.361180414       0.423096034
                        -----------------------------------------
Magnitude (a.u.)       :      0.852578899
Magnitude (Debye)      :      2.167083339

Rotational constants in cm-1:             0.108542             0.065922             0.045635
Rotational constants in MHz :          3254.012391          1976.290279          1368.096489

                             ****ORCA TERMINATED NORMALLY****
TOTAL RUN TIME: 0 days 0 hours 0 minutes 29 seconds 992 msec
