                         Program Version 6.0.0  -   RELEASE  -
|  1> ! r2scan-3c def2/J RI DEFGRID2 scfconv6 printgap
|  2> %output
|  3>     printlevel normal
|  4> end
|  5> * xyz 0 1
|  6> C -2.1198500506 1.3401770914 0.0087597791
|  7> C -1.9040417372 -0.1279028999 0.3765089583
|  8> C -0.5546954719 -0.6228716676 -0.0793285513
|  9> O -0.3825966085 -1.5858218585 -0.800660364
| 10> O 0.4332152131 0.1142263917 0.4025587699
| 11> C 1.7837675956 -0.2200404482 0.0420318074
| 12> C 2.6214358411 1.0447649493 0.0802011158
| 13> H -2.0758714176 1.4722824319 -1.0695153618
| 14> H -3.0952192124 1.6645698458 0.3586962497
| 15> H -1.3550353292 1.958860721 0.4690184955
| 16> H -2.6641777396 -0.7614115952 -0.0801187574
| 17> H -1.948683266 -0.2417322801 1.4607952108
| 18> H 2.1478021539 -0.9595620301 0.7620680079
| 19> H 1.775421081 -0.6767188215 -0.9529504253
| 20> H 3.6503271725 0.7999947222 -0.1619632882
| 21> H 2.2471399195 1.7659894296 -0.6406941278
| 22> H 2.5809673355 1.4858780004 1.071649241
| 23> *
| 24>
| 25>                          ****END OF INPUT****

CARTESIAN COORDINATES (ANGSTROEM)
---------------------------------
  C     -2.119850    1.340177    0.008760
  C     -1.904042   -0.127903    0.376509
  C     -0.554695   -0.622872   -0.079329
  O     -0.382597   -1.585822   -0.800660
  O      0.433215    0.114226    0.402559
  C      1.783768   -0.220040    0.042032
  C      2.621436    1.044765    0.080201
  H     -2.075871    1.472282   -1.069515
  H     -3.095219    1.664570    0.358696
  H     -1.355035    1.958861    0.469018
  H     -2.664178   -0.761412   -0.080119
  H     -1.948683   -0.241732    1.460795
  H      2.147802   -0.959562    0.762068
  H      1.775421   -0.676719   -0.952950
  H      3.650327    0.799995   -0.161963
  H      2.247140    1.765989   -0.640694
  H      2.580967    1.485878    1.071649

 Total Charge           Charge          ....    0
 Multiplicity           Mult            ....    1
 Number of Electrons    NEL             ....   56
 Basis Dimension        Dim             ....  193

ORBITAL ENERGIES
----------------

  NO   OCC          E(Eh)            E(eV)
   0   2.0000     -18.996817      -516.9297
   1   2.0000     -18.925627      -514.9925
   2   2.0000     -10.150732      -276.2155
   3   2.0000     -10.091520      -274.6042
   4   2.0000     -10.043640      -273.3013
   5   2.0000     -10.032705      -273.0038
   6   2.0000     -10.029542      -272.9177
   7   2.0000      -1.071946       -29.1691
   8   2.0000      -0.973001       -26.4767
   9   2.0000      -0.767352       -20.8807
  10   2.0000      -0.732514       -19.9327
  11   2.0000      -0.637523       -17.3479
  12   2.0000      -0.598280       -16.2800
  13   2.0000      -0.533630       -14.5208
  14   2.0000      -0.464961       -12.6522
  15   2.0000      -0.461854       -12.5677
  16   2.0000      -0.438492       -11.9320
  17   2.0000      -0.416732       -11.3399
  18   2.0000      -0.394175       -10.7260
  19   2.0000      -0.381423       -10.3791
  20   2.0000      -0.373154       -10.1540
  21   2.0000      -0.349527        -9.5111
  22   2.0000      -0.346907        -9.4398
  23   2.0000      -0.329757        -8.9731
  24   2.0000      -0.320466        -8.7203
  25   2.0000      -0.309985        -8.4351
  26   2.0000      -0.270790        -7.3686
  27   2.0000      -0.230810        -6.2807
  28   0.0000      -0.013366        -0.3637
  29   0.0000       0.074801         2.0354
  30   0.0000       0.094193         2.5631
  31   0.0000       0.117025         3.1844
  32   0.0000       0.122685         3.3384

MULLIKEN ATOMIC CHARGES
-----------------------
   0 C :   -0.466927
   1 C :   -0.300716
   2 C :    0.398144
   3 O :   -0.430151
   4 O :   -0.170159
   5 C :   -0.148238
   6 C :   -0.442737
   7 H :    0.150502
   8 H :    0.149969
   9 H :    0.162094
  10 H :    0.168557
  11 H :    0.156443
  12 H :    0.145528
  13 H :    0.176086
  14 H :    0.147151
  15 H :    0.152044
  16 H :    0.152410
Sum of atomic charges:    0.0000000

LOEWDIN ATOMIC CHARGES
----------------------
   0 C :   -0.396568
   1 C :   -0.236058
   2 C :    0.357209
   3 O :   -0.433056
   4 O :   -0.601663
   5 C :    0.033890
   6 C :   -0.387426
   7 H :    0.156147
   8 H :    0.151971
   9 H :    0.162321
  10 H :    0.175171
  11 H :    0.176312
  12 H :    0.174807
  13 H :    0.190205
  14 H :    0.159594
  15 H :    0.158562
  16 H :    0.158581

  Mayer bond orders larger than 0.100000
B(  0-C ,  1-C ) :   0.8919 B(  0-C ,  7-H ) :   0.9749 B(  0-C ,  8-H ) :   0.9717
B(  0-C ,  9-H ) :   0.9734 B(  1-C ,  2-C ) :   0.9842 B(  1-C , 10-H ) :   0.9869
B(  1-C , 11-H ) :   0.9494 B(  2-C ,  3-O ) :   1.8414 B(  2-C ,  4-O ) :   1.0567
B(  4-O ,  5-C ) :   0.7921 B(  5-C ,  6-C ) :   0.9459 B(  5-C , 12-H ) :   0.9481
B(  5-C , 13-H ) :   0.9643 B(  6-C , 14-H ) :   0.9676 B(  6-C , 15-H ) :   0.9737
B(  6-C , 16-H ) :   0.9690

Dispersion correction           -0.003944626
FINAL SINGLE POINT ENERGY      -346.935128819305

DIPOLE MOMENT
-------------

Method             : SCF
Type of density    : Electron Density
Multiplicity       :   1
Irrep              :   0
Energy             :  -346.9416023571547498 Eh
Relativity type    :
Basis              : AO
                                X                 Y                 Z
Electronic contribution:     -0.929553131      -5.321318137      -0.681913946
Nuclear contribution   :      1.185346714       6.083915165       1.135833324
                        -----------------------------------------
Total Dipole Moment    :      0.255793583       0.762597029       0.453919378
                        -----------------------------------------
Magnitude (a.u.)       :      0.923594818
Magnitude (Debye)      :      2.347591460

Rotational constants in cm-1:             0.142480             0.055560             0.043160
Rotational constants in MHz :          4271.440242          1665.656325          1293.899702

                             ****ORCA TERMINATED NORMALLY****
TOTAL RUN TIME: 0 days 0 hours 0 minutes 20 seconds 950 msec
