                         Program Version 6.0.0  -   RELEASE  -
|  1> ! r2scan-3c def2/J RI DEFGRID2 scfconv6 printgap
|  2> %output
|  3>     printlevel normal
|  4> end
|  5> %cpcm
|  6>     smd true
|  7>     smdsolvent "water"
|  8> end
|  9> * xyz 0 1
| 10> C -2.1198500506 1.3401770914 0.0087597791
| 11> C -1.9040417372 -0.1279028999 0.3765089583
| 12> C -0.5546954719 -0.6228716676 -0.0793285513
| 13> O -0.3825966085 -1.5858218585 -0.800660364
| 14> O 0.4332152131 0.1142263917 0.4025587699
| 15> C 1.7837675956 -0.2200404482 0.0420318074
| 16> C 2.6214358411 1.0447649493 0.0802011158
| 17> H -2.0758714176 1.4722824319 -1.0695153618
| 18> H -3.0952192124 1.6645698458 0.3586962497
| 19> H -1.3550353292 1.958860721 0.4690184955
| 20> H -2.6641777396 -0.7614115952 -0.0801187574
| 21> H -1.948683266 -0.2417322801 1.4607952108
| 22> H 2.1478021539 -0.9595620301 0.7620680079
| 23> H 1.775421081 -0.6767188215 -0.9529504253
| 24> H 3.6503271725 0.7999947222 -0.1619632882
| 25> H 2.2471399195 1.7659894296 -0.6406941278
| 26> H 2.5809673355 1.4858780004 1.071649241
| 27> *
| 28>
| 29>                          ****END OF INPUT****

CARTESIAN COORDINATES (ANGSTROEM)
---------------------------------
  C     -2.119850    1.340177    0.008760
  C     -1.904042   -0.127903    0.376509
  C     -0.554695   -0.622872   -0.079329
  O     -0.382597   -1.585822   -0.800660
  O      0.433215    0.114226    0.402559
  C      1.783768   -0.220040    0.042032
  C      2.621436    1.044765    0.080201
  H     -2.075871    1.472282   -1.069515
  H     -3.095219    1.664570    0.358696
  H     -1.355035    1.958861    0.469018
  H     -2.664178   -0.761412   -0.080119
  H     -1.948683   -0.241732    1.460795
  H      2.147802   -0.959562    0.762068
  H      1.775421   -0.676719   -0.952950
  H      3.650327    0.799995   -0.161963
  H      2.247140    1.765989   -0.640694
  H      2.580967    1.485878    1.071649

 Total Charge           Charge          ....    0
 Multiplicity           Mult            ....    1
 Number of Electrons    NEL             ....   56
 Basis Dimension        Dim             ....  193

ORBITAL ENERGIES
----------------

  NO   OCC          E(Eh)            E(eV)
   0   2.0000     -19.002233      -517.0770
   1   2.0000     -18.942500      -515.4516
   2   2.0000     -10.161968      -276.5212
   3   2.0000     -10.083475      -274.3853
   4   2.0000     -10.037761      -273.1414
   5   2.0000     -10.019862      -272.6543
   6   2.0000     -10.018639      -272.6210
   7   2.0000      -1.079247       -29.3678
   8   2.0000      -0.987640       -26.8751
   9   2.0000      -0.762526       -20.7494
  10   2.0000      -0.723603       -19.6902
  11   2.0000      -0.631059       -17.1720
  12   2.0000      -0.591317       -16.0906
  13   2.0000      -0.531584       -14.4651
  14   2.0000      -0.465769       -12.6742
  15   2.0000      -0.459255       -12.4970
  16   2.0000      -0.449566       -12.2333
  17   2.0000      -0.413604       -11.2547
  18   2.0000      -0.391866       -10.6632
  19   2.0000      -0.375573       -10.2199
  20   2.0000      -0.361342        -9.8326
  21   2.0000      -0.344607        -9.3772
  22   2.0000      -0.339883        -9.2487
  23   2.0000      -0.324195        -8.8218
  24   2.0000      -0.316602        -8.6152
  25   2.0000      -0.309549        -8.4232
  26   2.0000      -0.276839        -7.5332
  27   2.0000      -0.247516        -6.7353
  28   0.0000      -0.021952        -0.5973
  29   0.0000       0.078743         2.1427
  30   0.0000       0.103559         2.8180
  31   0.0000       0.123688         3.3657
  32   0.0000       0.133337         3.6283

MULLIKEN ATOMIC CHARGES
-----------------------
   0 C :   -0.494702
   1 C :   -0.313337
   2 C :    0.442150
   3 O :   -0.520343
   4 O :   -0.185333
   5 C :   -0.144517
   6 C :   -0.487491
   7 H :    0.164345
   8 H :    0.168258
   9 H :    0.165950
  10 H :    0.174400
  11 H :    0.186607
  12 H :    0.171230
  13 H :    0.174573
  14 H :    0.168334
  15 H :    0.165043
  16 H :    0.164832
Sum of atomic charges:   -0.0000000

LOEWDIN ATOMIC CHARGES
----------------------
   0 C :   -0.397870
   1 C :   -0.233488
   2 C :    0.367383
   3 O :   -0.497244
   4 O :   -0.601259
   5 C :    0.037507
   6 C :   -0.390294
   7 H :    0.160131
   8 H :    0.158933
   9 H :    0.163019
  10 H :    0.178323
  11 H :    0.188376
  12 H :    0.184037
  13 H :    0.190408
  14 H :    0.168044
  15 H :    0.161798
  16 H :    0.162195

  Mayer bond orders larger than 0.100000
B(  0-C ,  1-C ) :   0.8826 B(  0-C ,  7-H ) :   0.9717 B(  0-C ,  8-H ) :   0.9670
B(  0-C ,  9-H ) :   0.9715 B(  1-C ,  2-C ) :   0.9825 B(  1-C , 10-H ) :   0.9829
B(  1-C , 11-H ) :   0.9381 B(  2-C ,  3-O ) :   1.7684 B(  2-C ,  4-O ) :   1.0895
B(  4-O ,  5-C ) :   0.7790 B(  5-C ,  6-C ) :   0.9442 B(  5-C , 12-H ) :   0.9391
B(  5-C , 13-H ) :   0.9597 B(  6-C , 14-H ) :   0.9614 B(  6-C , 15-H ) :   0.9718
B(  6-C , 16-H ) :   0.9661

Dispersion correction           -0.003944626
FINAL SINGLE POINT ENERGY      -346.940602682443

DIPOLE MOMENT
-------------

Method             : SCF
Type of density    : Electron Density
Multiplicity       :   1
Irrep              :   0
Energy             :  -346.9470762202928427 Eh
Relativity type    :
Basis              : AO
                                X                 Y                 Z
Electronic contribution:     -0.872338026      -5.046916543      -0.484118086
Nuclear contribution   :      1.185346714       6.083915165       1.135833324
                        -----------------------------------------
Total Dipole Moment    :      0.313008688       1.036998622       0.651715238
                        -----------------------------------------
Magnitude (a.u.)       :      1.264149253
Magnitude (Debye)      :      3.213212042

Rotational constants in cm-1:             0.142480             0.055560             0.043160
Rotational constants in MHz :          4271.440242          1665.656325          1293.899702

                             ****ORCA TERMINATED NORMALLY****
TOTAL RUN TIME: 0 days 0 hours 0 minutes 26 seconds 116 msec
