                         Program Version 6.0.0  -   RELEASE  -
|  1> ! r2scan-3c def2/J RI DEFGRID2 scfconv6 printgap
|  2> %output
|  3>     printlevel normal
|  4> end
|  5> * xyz 0 1
|  6> C -2.3235261479 0.4291438857 0.4917106561
|  7> C -0.9831153626 0.692952308 -0.18762014
|  8> C 0.062180339 -0.3916784801 0.1003532975
|  9> C 1.461152354 0.0156656661 -0.3765504176
| 10> C 2.1411964521 1.0289598486 0.5340490916
| 11> O -0.247758885 -1.6092566593 -0.5627365474
| 12> H -2.1903654395 0.3208024241 1.5661659401
| 13> H -3.0009893447 1.259947774 0.3121650627
| 14> H -2.7931380303 -0.4729968076 0.1063392925
| 15> H -1.1206974837 0.7558727565 -1.2691690397
| 16> H -0.5903519306 1.647942216 0.1609578287
| 17> H 0.1004520759 -0.5766783488 1.1872319602
| 18> H 2.0605695995 -0.8957915426 -0.4225359092
| 19> H 1.3838549645 0.409508759 -1.3913724815
| 20> H 1.5887114554 1.9643579023 0.5637578164
| 21> H 2.2162158983 0.64037633 1.5469409656
| 22> H 3.1435160348 1.2375111338 0.1701145951
| 23> H -1.1297500938 -1.8984557519 -0.2943068183
| 24> *
| 25>
| 26>                          ****END OF INPUT****

CARTESIAN COORDINATES (ANGSTROEM)
---------------------------------
  C     -2.323526    0.429144    0.491711
  C     -0.983115    0.692952   -0.187620
  C      0.062180   -0.391678    0.100353
  C      1.461152    0.015666   -0.376550
  C      2.141196    1.028960    0.534049
  O     -0.247759   -1.609257   -0.562737
  H     -2.190365    0.320802    1.566166
  H     -3.000989    1.259948    0.312165
  H     -2.793138   -0.472997    0.106339
  H     -1.120697    0.755873   -1.269169
  H     -0.590352    1.647942    0.160958
  H      0.100452   -0.576678    1.187232
  H      2.060570   -0.895792   -0.422536
  H      1.383855    0.409509   -1.391372
  H      1.588711    1.964358    0.563758
  H      2.216216    0.640376    1.546941
  H      3.143516    1.237511    0.170115
  H     -1.129750   -1.898456   -0.294307

 Total Charge           Charge          ....    0
 Multiplicity           Mult            ....    1
 Number of Electrons    NEL             ....   50
 Basis Dimension        Dim             ....  179

ORBITAL ENERGIES
----------------

  NO   OCC          E(Eh)            E(eV)
   0   2.0000     -18.943069      -515.4671
   1   2.0000     -10.076640      -274.1993
   2   2.0000     -10.026378      -272.8316
   3   2.0000     -10.025073      -272.7961
   4   2.0000     -10.021266      -272.6925
   5   2.0000     -10.018730      -272.6235
   6   2.0000      -0.980810       -26.6892
   7   2.0000      -0.760780       -20.7019
   8   2.0000      -0.722864       -19.6701
   9   2.0000      -0.642516       -17.4837
  10   2.0000      -0.582360       -15.8468
  11   2.0000      -0.535717       -14.5776
  12   2.0000      -0.476007       -12.9528
  13   2.0000      -0.433914       -11.8074
  14   2.0000      -0.420673       -11.4471
  15   2.0000      -0.405235       -11.0270
  16   2.0000      -0.377552       -10.2737
  17   2.0000      -0.354549        -9.6478
  18   2.0000      -0.341383        -9.2895
  19   2.0000      -0.328193        -8.9306
  20   2.0000      -0.323037        -8.7903
  21   2.0000      -0.312281        -8.4976
  22   2.0000      -0.302472        -8.2307
  23   2.0000      -0.276838        -7.5331
  24   2.0000      -0.232069        -6.3149
  25   0.0000       0.060048         1.6340
  26   0.0000       0.090994         2.4761
  27   0.0000       0.109981         2.9927
  28   0.0000       0.125550         3.4164
  29   0.0000       0.131538         3.5793

MULLIKEN ATOMIC CHARGES
-----------------------
   0 C :   -0.500991
   1 C :   -0.267983
   2 C :    0.057280
   3 C :   -0.224411
   4 C :   -0.500724
   5 O :   -0.430624
   6 H :    0.151952
   7 H :    0.153003
   8 H :    0.132609
   9 H :    0.159946
  10 H :    0.134196
  11 H :    0.123147
  12 H :    0.160237
  13 H :    0.133268
  14 H :    0.140207
  15 H :    0.145934
  16 H :    0.149309
  17 H :    0.283644
Sum of atomic charges:    0.0000000

LOEWDIN ATOMIC CHARGES
----------------------
   0 C :   -0.424229
   1 C :   -0.296324
   2 C :    0.055090
   3 C :   -0.277136
   4 C :   -0.421857
   5 O :   -0.617869
   6 H :    0.152411
   7 H :    0.154502
   8 H :    0.144225
   9 H :    0.164612
  10 H :    0.158744
  11 H :    0.160315
  12 H :    0.169206
  13 H :    0.159701
  14 H :    0.147469
  15 H :    0.151020
  16 H :    0.153071
  17 H :    0.267047

  Mayer bond orders larger than 0.100000
B(  0-C ,  1-C ) :   0.8875 B(  0-C ,  6-H ) :   0.9877 B(  0-C ,  7-H ) :   0.9715
B(  0-C ,  8-H ) :   0.9790 B(  1-C ,  2-C ) :   0.8859 B(  1-C ,  9-H ) :   0.9723
B(  1-C , 10-H ) :   0.9685 B(  2-C ,  3-C ) :   0.9202 B(  2-C ,  5-O ) :   0.8378
B(  2-C , 11-H ) :   0.9720 B(  3-C ,  4-C ) :   0.8905 B(  3-C , 12-H ) :   0.9743
B(  3-C , 13-H ) :   0.9607 B(  4-C , 14-H ) :   0.9798 B(  4-C , 15-H ) :   0.9859
B(  4-C , 16-H ) :   0.9694 B(  5-O , 17-H ) :   0.9002

Dispersion correction           -0.004241471
FINAL SINGLE POINT ENERGY      -272.902135359949

DIPOLE MOMENT
-------------

Method             : SCF
Type of density    : Electron Density
Multiplicity       :   1
Irrep              :   0
Energy             :  -272.9075075945821141 Eh
Relativity type    :
Basis              : AO
                                X                 Y                 Z
Electronic contribution:     -0.021166262      -3.751859197      -1.749078135
Nuclear contribution   :     -0.315121185       4.096904865       2.089653937
                        -----------------------------------------
Total Dipole Moment    :     -0.336287447       0.345045668       0.340575802
                        -----------------------------------------
Magnitude (a.u.)       :      0.590031895
Magnitude (Debye)      :      1.499741890

Rotational constants in cm-1:             0.165184             0.075268             0.057019
Rotational constants in MHz :          4952.101846          2256.488314          1709.371846

                             ****ORCA TERMINATED NORMALLY****
TOTAL RUN TIME: 0 days 0 hours 0 minutes 23 seconds 583 msec
