                         Program Version 6.0.0  -   RELEASE  -
|  1> ! r2scan-3c def2/J RI DEFGRID2 scfconv6 printgap
|  2> %output
|  3>     printlevel normal
|  4> end
|  5> %cpcm
|  6>     smd true
|  7>     smdsolvent "water"
|  8> end
|  9> * xyz 0 1
| 10> C -2.3235261479 0.4291438857 0.4917106561
| 11> C -0.9831153626 0.692952308 -0.18762014
| 12> C 0.062180339 -0.3916784801 0.1003532975
| 13> C 1.461152354 0.0156656661 -0.3765504176
| 14> C 2.1411964521 1.0289598486 0.5340490916
| 15> O -0.247758885 -1.6092566593 -0.5627365474
| 16> H -2.1903654395 0.3208024241 1.5661659401
| 17> H -3.0009893447 1.259947774 0.3121650627
| 18> H -2.7931380303 -0.4729968076 0.1063392925
| 19> H -1.1206974837 0.7558727565 -1.2691690397
| 20> H -0.5903519306 1.647942216 0.1609578287
| 21> H 0.1004520759 -0.5766783488 1.1872319602
| 22> H 2.0605695995 -0.8957915426 -0.4225359092
| 23> H 1.3838549645 0.409508759 -1.3913724815
| 24> H 1.5887114554 1.9643579023 0.5637578164
| 25> H 2.2162158983 0.64037633 1.5469409656
| 26> H 3.1435160348 1.2375111338 0.1701145951
| 27> H -1.1297500938 -1.8984557519 -0.2943068183
| 28> *
| 29>
| 30>                          ****END OF INPUT****

CARTESIAN COORDINATES (ANGSTROEM)
---------------------------------
  C     -2.323526    0.429144    0.491711
  C     -0.983115    0.692952   -0.187620
  C      0.062180   -0.391678    0.100353
  C      1.461152    0.015666   -0.376550
  C      2.141196    1.028960    0.534049
  O     -0.247759   -1.609257   -0.562737
  H     -2.190365    0.320802    1.566166
  H     -3.000989    1.259948    0.312165
  H     -2.793138   -0.472997    0.106339
  H     -1.120697    0.755873   -1.269169
  H     -0.590352    1.647942    0.160958
  H      0.100452   -0.576678    1.187232
  H      2.060570   -0.895792   -0.422536
  H      1.383855    0.409509   -1.391372
  H      1.588711    1.964358    0.563758
  H      2.216216    0.640376    1.546941
  H      3.143516    1.237511    0.170115
  H     -1.129750   -1.898456   -0.294307

 Total Charge           Charge          ....    0
 Multiplicity           Mult            ....    1
 Number of Electrons    NEL             ....   50
 Basis Dimension        Dim             ....  179

ORBITAL ENERGIES
----------------

  NO   OCC          E(Eh)            E(eV)
   0   2.0000     -18.948228      -515.6075
   1   2.0000     -10.072157      -274.0773
   2   2.0000     -10.017611      -272.5931
   3   2.0000     -10.016881      -272.5732
   4   2.0000     -10.010591      -272.4020
   5   2.0000     -10.010589      -272.4020
   6   2.0000      -0.984839       -26.7988
   7   2.0000      -0.754321       -20.5261
   8   2.0000      -0.713767       -19.4226
   9   2.0000      -0.635369       -17.2893
  10   2.0000      -0.574280       -15.6270
  11   2.0000      -0.531051       -14.4506
  12   2.0000      -0.473531       -12.8854
  13   2.0000      -0.427163       -11.6237
  14   2.0000      -0.414116       -11.2687
  15   2.0000      -0.395919       -10.7735
  16   2.0000      -0.370642       -10.0857
  17   2.0000      -0.345646        -9.4055
  18   2.0000      -0.336892        -9.1673
  19   2.0000      -0.324260        -8.8236
  20   2.0000      -0.316670        -8.6170
  21   2.0000      -0.302105        -8.2207
  22   2.0000      -0.298198        -8.1144
  23   2.0000      -0.273861        -7.4521
  24   2.0000      -0.236685        -6.4405
  25   0.0000       0.076073         2.0701
  26   0.0000       0.099611         2.7106
  27   0.0000       0.119292         3.2461
  28   0.0000       0.134786         3.6677
  29   0.0000       0.138695         3.7741

MULLIKEN ATOMIC CHARGES
-----------------------
   0 C :   -0.531498
   1 C :   -0.287078
   2 C :    0.069165
   3 C :   -0.235039
   4 C :   -0.539777
   5 O :   -0.521720
   6 H :    0.160804
   7 H :    0.161478
   8 H :    0.155237
   9 H :    0.161486
  10 H :    0.151730
  11 H :    0.137827
  12 H :    0.156200
  13 H :    0.144542
  14 H :    0.157995
  15 H :    0.158280
  16 H :    0.159935
  17 H :    0.340434
Sum of atomic charges:    0.0000000

LOEWDIN ATOMIC CHARGES
----------------------
   0 C :   -0.429807
   1 C :   -0.295855
   2 C :    0.054670
   3 C :   -0.283106
   4 C :   -0.426958
   5 O :   -0.656100
   6 H :    0.155617
   7 H :    0.155711
   8 H :    0.152303
   9 H :    0.164146
  10 H :    0.165064
  11 H :    0.168135
  12 H :    0.166064
  13 H :    0.161384
  14 H :    0.153385
  15 H :    0.154698
  16 H :    0.155600
  17 H :    0.285050

  Mayer bond orders larger than 0.100000
B(  0-C ,  1-C ) :   0.8875 B(  0-C ,  6-H ) :   0.9839 B(  0-C ,  7-H ) :   0.9702
B(  0-C ,  8-H ) :   0.9733 B(  1-C ,  2-C ) :   0.9015 B(  1-C ,  9-H ) :   0.9721
B(  1-C , 10-H ) :   0.9664 B(  2-C ,  3-C ) :   0.9079 B(  2-C ,  5-O ) :   0.8243
B(  2-C , 11-H ) :   0.9662 B(  3-C ,  4-C ) :   0.8942 B(  3-C , 12-H ) :   0.9745
B(  3-C , 13-H ) :   0.9584 B(  4-C , 14-H ) :   0.9761 B(  4-C , 15-H ) :   0.9828
B(  4-C , 16-H ) :   0.9665 B(  5-O , 17-H ) :   0.8749

Dispersion correction           -0.004241471
FINAL SINGLE POINT ENERGY      -272.908385283547

DIPOLE MOMENT
-------------

Method             : SCF
Type of density    : Electron Density
Multiplicity       :   1
Irrep              :   0
Energy             :  -272.9137575181807733 Eh
Relativity type    :
Basis              : AO
                                X                 Y                 Z
Electronic contribution:     -0.178076644      -3.611267626      -1.556500437
Nuclear contribution   :     -0.315121185       4.096904865       2.089653937
                        -----------------------------------------
Total Dipole Moment    :     -0.493197830       0.485637239       0.533153500
                        -----------------------------------------
Magnitude (a.u.)       :      0.873693471
Magnitude (Debye)      :      2.220752318

Rotational constants in cm-1:             0.165184             0.075268             0.057019
Rotational constants in MHz :          4952.101846          2256.488314          1709.371846

                             ****ORCA TERMINATED NORMALLY****
TOTAL RUN TIME: 0 days 0 hours 0 minutes 27 seconds 599 msec
