                         Program Version 6.0.0  -   RELEASE  -
|  1> ! pbe def2-sv(p) def2/J RI DEFGRID1 loosescf d4 GCP(DFT/SV(P)) printgap
|  2> %output
|  3>     printlevel normal
|  4> end
|  5> * xyz 0 1
|  6> C -2.3114868189 0.3836741295 0.4677875067
|  7> C -0.9668151782 0.6958916432 -0.1780356855
|  8> C 0.0708415953 -0.3912598437 0.1115251396
|  9> C 1.4771807974 0.0054065238 -0.3620803359
| 10> C 2.1297402879 1.0674574826 0.5143029703
| 11> O -0.3715815692 -1.5690214399 -0.5477559278
| 12> H -2.6698299137 -0.5836308382 0.1249655365
| 13> H -2.2158661159 0.3541953435 1.5510112268
| 14> H -3.0435834299 1.1421626974 0.2036805106
| 15> H -1.0884224712 0.7618263666 -1.2606173661
| 16> H -0.5956946392 1.6517025871 0.1901206209
| 17> H 0.0992329633 -0.5754044217 1.1985924939
| 18> H 2.1056861457 -0.8890349304 -0.3547728475
| 19> H 1.413491334 0.355429559 -1.3941936262
| 20> H 2.1654533934 0.7359203648 1.5495928317
| 21> H 3.1458484027 1.2534927592 0.1765568378
| 22> H 1.5813443425 2.0042976747 0.4721713263
| 23> H 0.2405083458 -2.2919279616 -0.3580078789
| 24> *
| 25>
| 26>                          ****END OF INPUT****

CARTESIAN COORDINATES (ANGSTROEM)
---------------------------------
  C     -2.311487    0.383674    0.467788
  C     -0.966815    0.695892   -0.178036
  C      0.070842   -0.391260    0.111525
  C      1.477181    0.005407   -0.362080
  C      2.129740    1.067457    0.514303
  O     -0.371582   -1.569021   -0.547756
  H     -2.669830   -0.583631    0.124966
  H     -2.215866    0.354195    1.551011
  H     -3.043583    1.142163    0.203681
  H     -1.088422    0.761826   -1.260617
  H     -0.595695    1.651703    0.190121
  H      0.099233   -0.575404    1.198592
  H      2.105686   -0.889035   -0.354773
  H      1.413491    0.355430   -1.394194
  H      2.165453    0.735920    1.549593
  H      3.145848    1.253493    0.176557
  H      1.581344    2.004298    0.472171
  H      0.240508   -2.291928   -0.358008

 Total Charge           Charge          ....    0
 Multiplicity           Mult            ....    1
 Number of Electrons    NEL             ....   50
 Basis Dimension        Dim             ....  108

ORBITAL ENERGIES
----------------

  NO   OCC          E(Eh)            E(eV)
   0   2.0000     -18.736813      -509.8546
   1   2.0000      -9.932430      -270.2752
   2   2.0000      -9.883083      -268.9324
   3   2.0000      -9.878676      -268.8124
   4   2.0000      -9.877387      -268.7774
   5   2.0000      -9.864640      -268.4305
   6   2.0000      -0.914228       -24.8774
   7   2.0000      -0.713301       -19.4099
   8   2.0000      -0.674382       -18.3509
   9   2.0000      -0.596710       -16.2373
  10   2.0000      -0.542737       -14.7686
  11   2.0000      -0.508801       -13.8452
  12   2.0000      -0.465152       -12.6574
  13   2.0000      -0.406826       -11.0703
  14   2.0000      -0.393638       -10.7114
  15   2.0000      -0.376138       -10.2352
  16   2.0000      -0.359216        -9.7748
  17   2.0000      -0.346590        -9.4312
  18   2.0000      -0.330821        -9.0021
  19   2.0000      -0.307273        -8.3613
  20   2.0000      -0.300035        -8.1644
  21   2.0000      -0.297092        -8.0843
  22   2.0000      -0.286263        -7.7896
  23   2.0000      -0.260980        -7.1016
  24   2.0000      -0.209525        -5.7015
  25   0.0000       0.027655         0.7525
  26   0.0000       0.051976         1.4143
  27   0.0000       0.063116         1.7175
  28   0.0000       0.069429         1.8893
  29   0.0000       0.087054         2.3689

MULLIKEN ATOMIC CHARGES
-----------------------
   0 C :   -0.260556
   1 C :   -0.174190
   2 C :    0.014271
   3 C :   -0.142578
   4 C :   -0.295073
   5 O :   -0.425786
   6 H :    0.112219
   7 H :    0.089177
   8 H :    0.098599
   9 H :    0.086423
  10 H :    0.087626
  11 H :    0.048379
  12 H :    0.066635
  13 H :    0.084992
  14 H :    0.098769
  15 H :    0.105281
  16 H :    0.112010
  17 H :    0.293802
Sum of atomic charges:   -0.0000000

LOEWDIN ATOMIC CHARGES
----------------------
   0 C :   -0.341342
   1 C :   -0.235882
   2 C :   -0.052423
   3 C :   -0.245416
   4 C :   -0.342471
   5 O :   -0.332174
   6 H :    0.123269
   7 H :    0.114158
   8 H :    0.117123
   9 H :    0.121460
  10 H :    0.116948
  11 H :    0.091282
  12 H :    0.108434
  13 H :    0.119095
  14 H :    0.117126
  15 H :    0.122157
  16 H :    0.118168
  17 H :    0.280488

  Mayer bond orders larger than 0.100000
B(  0-C ,  1-C ) :   1.1584 B(  0-C ,  6-H ) :   0.9491 B(  0-C ,  7-H ) :   0.9535
B(  0-C ,  8-H ) :   0.9535 B(  1-C ,  2-C ) :   1.0771 B(  1-C ,  9-H ) :   0.9100
B(  1-C , 10-H ) :   0.9209 B(  2-C ,  3-C ) :   1.0657 B(  2-C ,  5-O ) :   1.0459
B(  2-C , 11-H ) :   0.9081 B(  3-C ,  4-C ) :   1.1363 B(  3-C , 12-H ) :   0.9203
B(  3-C , 13-H ) :   0.9137 B(  4-C , 14-H ) :   0.9525 B(  4-C , 15-H ) :   0.9476
B(  4-C , 16-H ) :   0.9494 B(  5-O , 17-H ) :   0.8514

Dispersion correction           -0.012559629
FINAL SINGLE POINT ENERGY      -272.305423610303

DIPOLE MOMENT
-------------

Method             : SCF
Type of density    : Electron Density
Multiplicity       :   1
Irrep              :   0
Energy             :  -272.3753055285431515 Eh
Relativity type    :
Basis              : AO
                                X                 Y                 Z
Electronic contribution:     -0.544310900      -3.690370412      -1.690798541
Nuclear contribution   :      1.062273718       3.653405667       1.961170013
                        -----------------------------------------
Total Dipole Moment    :      0.517962818      -0.036964745       0.270371472
                        -----------------------------------------
Magnitude (a.u.)       :      0.585450772
Magnitude (Debye)      :      1.488097600

Rotational constants in cm-1:             0.167884             0.075571             0.057364
Rotational constants in MHz :          5033.043420          2265.576119          1719.728030

                             ****ORCA TERMINATED NORMALLY****
TOTAL RUN TIME: 0 days 0 hours 0 minutes 7 seconds 973 msec
