                         Program Version 6.0.0  -   RELEASE  -
|  1> ! pbe def2-sv(p) def2/J RI DEFGRID1 loosescf d4 GCP(DFT/SV(P)) printgap
|  2> %output
|  3>     printlevel normal
|  4> end
|  5> * xyz 0 1
|  6> C 2.0921447982 -1.3458250221 -0.1968053091
|  7> C 1.6577103007 0.106731134 -0.3276830346
|  8> C 0.326584307 0.4376162795 0.3594928268
|  9> H 0.3971471603 0.1396779736 1.4178283938
| 10> C -0.876115219 -0.3058581375 -0.286747461
| 11> C -1.2814371681 -1.5134367534 0.5580011546
| 12> C -2.0903675548 0.6019265066 -0.4893309804
| 13> O 0.2187315199 1.8518430923 0.2938743752
| 14> H 1.4074204896 -2.0089995448 -0.7179799511
| 15> H 2.1358467495 -1.6383002483 0.849840103
| 16> H 3.0813114226 -1.4716224557 -0.6293375618
| 17> H 2.4146963594 0.7562704739 0.117492648
| 18> H 1.5723822117 0.383134722 -1.3804963531
| 19> H -0.5608121206 -0.6558450061 -1.2750038799
| 20> H -1.6543623774 -1.1882995961 1.527333392
| 21> H -2.0706680936 -2.0699900011 0.0581437389
| 22> H -0.4408063566 -2.1809473893 0.7213182882
| 23> H -1.8235958543 1.4748895423 -1.0797244836
| 24> H -2.4978878359 0.9264016217 0.466226769
| 25> H -2.8673748189 0.055029351 -1.0177729547
| 26> H -0.5219310868 2.1407504223 0.8421951184
| 27> *
| 28>
| 29>                          ****END OF INPUT****

CARTESIAN COORDINATES (ANGSTROEM)
---------------------------------
  C      2.092145   -1.345825   -0.196805
  C      1.657710    0.106731   -0.327683
  C      0.326584    0.437616    0.359493
  H      0.397147    0.139678    1.417828
  C     -0.876115   -0.305858   -0.286747
  C     -1.281437   -1.513437    0.558001
  C     -2.090368    0.601927   -0.489331
  O      0.218732    1.851843    0.293874
  H      1.407420   -2.009000   -0.717980
  H      2.135847   -1.638300    0.849840
  H      3.081311   -1.471622   -0.629338
  H      2.414696    0.756270    0.117493
  H      1.572382    0.383135   -1.380496
  H     -0.560812   -0.655845   -1.275004
  H     -1.654362   -1.188300    1.527333
  H     -2.070668   -2.069990    0.058144
  H     -0.440806   -2.180947    0.721318
  H     -1.823596    1.474890   -1.079724
  H     -2.497888    0.926402    0.466227
  H     -2.867375    0.055029   -1.017773
  H     -0.521931    2.140750    0.842195

 Total Charge           Charge          ....    0
 Multiplicity           Mult            ....    1
 Number of Electrons    NEL             ....   58
 Basis Dimension        Dim             ....  126

ORBITAL ENERGIES
----------------

  NO   OCC          E(Eh)            E(eV)
   0   2.0000     -18.737252      -509.8666
   1   2.0000      -9.931262      -270.2434
   2   2.0000      -9.892190      -269.1802
   3   2.0000      -9.877615      -268.7836
   4   2.0000      -9.874558      -268.7004
   5   2.0000      -9.874354      -268.6948
   6   2.0000      -9.874131      -268.6888
   7   2.0000      -0.915159       -24.9027
   8   2.0000      -0.724855       -19.7243
   9   2.0000      -0.686013       -18.6674
  10   2.0000      -0.610942       -16.6246
  11   2.0000      -0.600934       -16.3523
  12   2.0000      -0.529727       -14.4146
  13   2.0000      -0.496483       -13.5100
  14   2.0000      -0.458988       -12.4897
  15   2.0000      -0.414237       -11.2720
  16   2.0000      -0.412527       -11.2254
  17   2.0000      -0.378366       -10.2959
  18   2.0000      -0.366683        -9.9780
  19   2.0000      -0.354099        -9.6355
  20   2.0000      -0.342783        -9.3276
  21   2.0000      -0.326828        -8.8934
  22   2.0000      -0.320203        -8.7132
  23   2.0000      -0.312511        -8.5039
  24   2.0000      -0.296752        -8.0750
  25   2.0000      -0.288284        -7.8446
  26   2.0000      -0.280129        -7.6227
  27   2.0000      -0.256128        -6.9696
  28   2.0000      -0.210695        -5.7333
  29   0.0000       0.023537         0.6405
  30   0.0000       0.043744         1.1903
  31   0.0000       0.060953         1.6586
  32   0.0000       0.070911         1.9296
  33   0.0000       0.093299         2.5388

MULLIKEN ATOMIC CHARGES
-----------------------
   0 C :   -0.286924
   1 C :   -0.169177
   2 C :    0.057320
   3 H :    0.050825
   4 C :   -0.170591
   5 C :   -0.257200
   6 C :   -0.272945
   7 O :   -0.412860
   8 H :    0.112361
   9 H :    0.101077
  10 H :    0.105759
  11 H :    0.089653
  12 H :    0.089274
  13 H :    0.072969
  14 H :    0.092470
  15 H :    0.097695
  16 H :    0.106586
  17 H :    0.114296
  18 H :    0.084543
  19 H :    0.099253
  20 H :    0.295615
Sum of atomic charges:   -0.0000000

LOEWDIN ATOMIC CHARGES
----------------------
   0 C :   -0.342362
   1 C :   -0.233135
   2 C :   -0.043800
   3 H :    0.093605
   4 C :   -0.170843
   5 C :   -0.331053
   6 C :   -0.338600
   7 O :   -0.323770
   8 H :    0.117121
   9 H :    0.116987
  10 H :    0.122834
  11 H :    0.119482
  12 H :    0.117598
  13 H :    0.116103
  14 H :    0.114294
  15 H :    0.118085
  16 H :    0.117248
  17 H :    0.120603
  18 H :    0.108799
  19 H :    0.120380
  20 H :    0.280423

  Mayer bond orders larger than 0.100000
B(  0-C ,  1-C ) :   1.1453 B(  0-C ,  8-H ) :   0.9426 B(  0-C ,  9-H ) :   0.9491
B(  0-C , 10-H ) :   0.9480 B(  1-C ,  2-C ) :   1.0936 B(  1-C , 11-H ) :   0.9186
B(  1-C , 12-H ) :   0.9163 B(  2-C ,  3-H ) :   0.9157 B(  2-C ,  4-C ) :   0.9565
B(  2-C ,  7-O ) :   1.1104 B(  4-C ,  5-C ) :   1.1016 B(  4-C ,  6-C ) :   1.1341
B(  4-C , 13-H ) :   0.8937 B(  5-C , 14-H ) :   0.9457 B(  5-C , 15-H ) :   0.9489
B(  5-C , 16-H ) :   0.9431 B(  6-C , 17-H ) :   0.9378 B(  6-C , 18-H ) :   0.9447
B(  6-C , 19-H ) :   0.9463 B(  7-O , 20-H ) :   0.8425

Dispersion correction           -0.016742562
FINAL SINGLE POINT ENERGY      -311.513739044206

DIPOLE MOMENT
-------------

Method             : SCF
Type of density    : Electron Density
Multiplicity       :   1
Irrep              :   0
Energy             :  -311.5935870220797028 Eh
Relativity type    :
Basis              : AO
                                X                 Y                 Z
Electronic contribution:      1.006202864       4.714518394       0.347813903
Nuclear contribution   :     -1.337046338      -4.980293632      -0.089395677
                        -----------------------------------------
Total Dipole Moment    :     -0.330843474      -0.265775238       0.258418227
                        -----------------------------------------
Magnitude (a.u.)       :      0.496864027
Magnitude (Debye)      :      1.262927990

Rotational constants in cm-1:             0.104394             0.067560             0.046824
Rotational constants in MHz :          3129.647019          2025.408920          1403.750664

                             ****ORCA TERMINATED NORMALLY****
TOTAL RUN TIME: 0 days 0 hours 0 minutes 9 seconds 121 msec
