                         Program Version 6.0.0  -   RELEASE  -
|  1> ! pbe def2-sv(p) def2/J RI DEFGRID1 loosescf d4 GCP(DFT/SV(P)) printgap
|  2> %output
|  3>     printlevel normal
|  4> end
|  5> * xyz 0 1
|  6> C -2.2153995853 0.6040849463 -1.0114932032
|  7> C -1.9190992866 -0.6560989308 -0.2040723634
|  8> C -1.1708964208 -0.4373825844 1.1167161915
|  9> C 0.3459372638 -0.1860401686 1.0728625274
| 10> C 1.1204963799 -1.1810079281 0.1884062029
| 11> C 1.4867989247 -0.3993589299 -1.0703740007
| 12> C 1.799957089 0.9914784619 -0.5270595222
| 13> C 0.7445682162 1.2153977856 0.5609003063
| 14> H -2.9136279221 0.3703134355 -1.8131056425
| 15> H -2.6677805255 1.3660769725 -0.3798141115
| 16> H -1.3169797989 1.0131174475 -1.4637553818
| 17> H -2.8758153093 -1.1223732037 0.0474794557
| 18> H -1.3747918885 -1.3643222085 -0.8292885874
| 19> H -1.6384718193 0.3930136105 1.65214976
| 20> H -1.3238875179 -1.3355762872 1.7220987837
| 21> H 0.6885706584 -0.29363323 2.107330729
| 22> H 2.0358659249 -1.4861551576 0.6983776744
| 23> H 0.5444403852 -2.0798134539 -0.0242158685
| 24> H 2.3296002077 -0.8394470374 -1.6025083838
| 25> H 0.6373168659 -0.3539152348 -1.751899023
| 26> H 2.7982243721 0.9923887758 -0.0857717258
| 27> H 1.768978718 1.7606898636 -1.297935545
| 28> H 1.1369735173 1.8328452524 1.3688755594
| 29> H -0.1209732034 1.7298506557 0.1518152163
| 30> *
| 31>
| 32>                          ****END OF INPUT****

CARTESIAN COORDINATES (ANGSTROEM)
---------------------------------
  C     -2.215400    0.604085   -1.011493
  C     -1.919099   -0.656099   -0.204072
  C     -1.170896   -0.437383    1.116716
  C      0.345937   -0.186040    1.072863
  C      1.120496   -1.181008    0.188406
  C      1.486799   -0.399359   -1.070374
  C      1.799957    0.991478   -0.527060
  C      0.744568    1.215398    0.560900
  H     -2.913628    0.370313   -1.813106
  H     -2.667781    1.366077   -0.379814
  H     -1.316980    1.013117   -1.463755
  H     -2.875815   -1.122373    0.047479
  H     -1.374792   -1.364322   -0.829289
  H     -1.638472    0.393014    1.652150
  H     -1.323888   -1.335576    1.722099
  H      0.688571   -0.293633    2.107331
  H      2.035866   -1.486155    0.698378
  H      0.544440   -2.079813   -0.024216
  H      2.329600   -0.839447   -1.602508
  H      0.637317   -0.353915   -1.751899
  H      2.798224    0.992389   -0.085772
  H      1.768979    1.760690   -1.297936
  H      1.136974    1.832845    1.368876
  H     -0.120973    1.729851    0.151815

 Total Charge           Charge          ....    0
 Multiplicity           Mult            ....    1
 Number of Electrons    NEL             ....   64
 Basis Dimension        Dim             ....  144

ORBITAL ENERGIES
----------------

  NO   OCC          E(Eh)            E(eV)
   0   2.0000      -9.883244      -268.9368
   1   2.0000      -9.879930      -268.8466
   2   2.0000      -9.877091      -268.7693
   3   2.0000      -9.875449      -268.7246
   4   2.0000      -9.875301      -268.7206
   5   2.0000      -9.873683      -268.6766
   6   2.0000      -9.871272      -268.6110
   7   2.0000      -9.870793      -268.5979
   8   2.0000      -0.757355       -20.6087
   9   2.0000      -0.700552       -19.0630
  10   2.0000      -0.645961       -17.5775
  11   2.0000      -0.630007       -17.1434
  12   2.0000      -0.586055       -15.9474
  13   2.0000      -0.523434       -14.2434
  14   2.0000      -0.501762       -13.6536
  15   2.0000      -0.469216       -12.7680
  16   2.0000      -0.438902       -11.9431
  17   2.0000      -0.424210       -11.5434
  18   2.0000      -0.392544       -10.6817
  19   2.0000      -0.386468       -10.5163
  20   2.0000      -0.363727        -9.8975
  21   2.0000      -0.357684        -9.7331
  22   2.0000      -0.349884        -9.5208
  23   2.0000      -0.309963        -8.4345
  24   2.0000      -0.307119        -8.3571
  25   2.0000      -0.299586        -8.1521
  26   2.0000      -0.289722        -7.8837
  27   2.0000      -0.288779        -7.8581
  28   2.0000      -0.278134        -7.5684
  29   2.0000      -0.266565        -7.2536
  30   2.0000      -0.261839        -7.1250
  31   2.0000      -0.253369        -6.8945
  32   0.0000       0.027399         0.7456
  33   0.0000       0.044145         1.2013
  34   0.0000       0.055999         1.5238
  35   0.0000       0.068077         1.8525
  36   0.0000       0.086963         2.3664

MULLIKEN ATOMIC CHARGES
-----------------------
   0 C :   -0.294684
   1 C :   -0.184828
   2 C :   -0.137826
   3 C :   -0.159027
   4 C :   -0.128918
   5 C :   -0.177389
   6 C :   -0.166034
   7 C :   -0.122980
   8 H :    0.099685
   9 H :    0.097974
  10 H :    0.120079
  11 H :    0.082533
  12 H :    0.092545
  13 H :    0.078255
  14 H :    0.076327
  15 H :    0.060350
  16 H :    0.072254
  17 H :    0.089227
  18 H :    0.086469
  19 H :    0.091688
  20 H :    0.078134
  21 H :    0.084150
  22 H :    0.076471
  23 H :    0.085544
Sum of atomic charges:   -0.0000000

LOEWDIN ATOMIC CHARGES
----------------------
   0 C :   -0.345967
   1 C :   -0.236702
   2 C :   -0.217971
   3 C :   -0.144595
   4 C :   -0.222373
   5 C :   -0.229790
   6 C :   -0.227177
   7 C :   -0.226790
   8 H :    0.118813
   9 H :    0.116386
  10 H :    0.115181
  11 H :    0.117488
  12 H :    0.114759
  13 H :    0.113180
  14 H :    0.114847
  15 H :    0.116017
  16 H :    0.116638
  17 H :    0.113949
  18 H :    0.115425
  19 H :    0.114009
  20 H :    0.114728
  21 H :    0.115126
  22 H :    0.117272
  23 H :    0.117550

  Mayer bond orders larger than 0.100000
B(  0-C ,  1-C ) :   1.1638 B(  0-C ,  8-H ) :   0.9476 B(  0-C ,  9-H ) :   0.9496
B(  0-C , 10-H ) :   0.9374 B(  1-C ,  2-C ) :   1.1296 B(  1-C , 11-H ) :   0.9236
B(  1-C , 12-H ) :   0.9143 B(  2-C ,  3-C ) :   1.1026 B(  2-C , 13-H ) :   0.9186
B(  2-C , 14-H ) :   0.9146 B(  3-C ,  4-C ) :   1.1133 B(  3-C ,  7-C ) :   1.1064
B(  3-C , 15-H ) :   0.8936 B(  4-C ,  5-C ) :   1.1247 B(  4-C , 16-H ) :   0.9099
B(  4-C , 17-H ) :   0.9208 B(  5-C ,  6-C ) :   1.1283 B(  5-C , 18-H ) :   0.9256
B(  5-C , 19-H ) :   0.9152 B(  6-C ,  7-C ) :   1.1557 B(  6-C , 20-H ) :   0.9196
B(  6-C , 21-H ) :   0.9269 B(  7-C , 22-H ) :   0.9146 B(  7-C , 23-H ) :   0.9106

Dispersion correction           -0.022268540
FINAL SINGLE POINT ENERGY      -313.688065701634

DIPOLE MOMENT
-------------

Method             : SCF
Type of density    : Electron Density
Multiplicity       :   1
Irrep              :   0
Energy             :  -313.7685100209005213 Eh
Relativity type    :
Basis              : AO
                                X                 Y                 Z
Electronic contribution:      2.136979374      -0.576595675       1.425670196
Nuclear contribution   :     -2.150604926       0.547005530      -1.407401318
                        -----------------------------------------
Total Dipole Moment    :     -0.013625552      -0.029590145       0.018268879
                        -----------------------------------------
Magnitude (a.u.)       :      0.037349488
Magnitude (Debye)      :      0.094934855

Rotational constants in cm-1:             0.096564             0.049557             0.046260
Rotational constants in MHz :          2894.912407          1485.685314          1386.853033

                             ****ORCA TERMINATED NORMALLY****
TOTAL RUN TIME: 0 days 0 hours 0 minutes 11 seconds 26 msec
