                         Program Version 6.0.0  -   RELEASE  -
|  1> ! r2scan-3c def2/J RI DEFGRID2 scfconv6 printgap
|  2> %output
|  3>     printlevel normal
|  4> end
|  5> * xyz 0 1
|  6> C 1.6098269941 -0.9528543982 -0.2583379977
|  7> C 1.1415383564 0.295509483 0.4812233203
|  8> C 0.0427524637 1.0381047823 -0.2778219536
|  9> C -1.292126481 0.3578123645 -0.3378718565
| 10> C -1.7088237583 -0.6587508797 0.3940462913
| 11> H 2.3732674292 -1.472619738 0.3157248555
| 12> H 2.0313544036 -0.6835187176 -1.2244598591
| 13> H 0.7796965439 -1.6336051699 -0.4278869034
| 14> H 0.7851323682 0.0282589102 1.4770125622
| 15> H 1.9906885155 0.9706858871 0.6092344963
| 16> H 0.3799452459 1.2213164405 -1.3021353346
| 17> H -0.1114427744 2.0196915248 0.1830780651
| 18> H -1.9700600364 0.7969899517 -1.0606159987
| 19> H -2.7013400428 -1.0611082069 0.280017077
| 20> H -1.0926030986 -1.1372511333 1.1352812294
| 21> *
| 22>
| 23>                          ****END OF INPUT****

CARTESIAN COORDINATES (ANGSTROEM)
---------------------------------
  C      1.609827   -0.952854   -0.258338
  C      1.141538    0.295509    0.481223
  C      0.042752    1.038105   -0.277822
  C     -1.292126    0.357812   -0.337872
  C     -1.708824   -0.658751    0.394046
  H      2.373267   -1.472620    0.315725
  H      2.031354   -0.683519   -1.224460
  H      0.779697   -1.633605   -0.427887
  H      0.785132    0.028259    1.477013
  H      1.990689    0.970686    0.609234
  H      0.379945    1.221316   -1.302135
  H     -0.111443    2.019692    0.183078
  H     -1.970060    0.796990   -1.060616
  H     -2.701340   -1.061108    0.280017
  H     -1.092603   -1.137251    1.135281

 Total Charge           Charge          ....    0
 Multiplicity           Mult            ....    1
 Number of Electrons    NEL             ....   40
 Basis Dimension        Dim             ....  145

ORBITAL ENERGIES
----------------

  NO   OCC          E(Eh)            E(eV)
   0   2.0000     -10.032973      -273.0111
   1   2.0000     -10.031589      -272.9734
   2   2.0000     -10.026451      -272.8336
   3   2.0000     -10.015805      -272.5439
   4   2.0000     -10.012992      -272.4674
   5   2.0000      -0.776241       -21.1226
   6   2.0000      -0.715254       -19.4631
   7   2.0000      -0.649542       -17.6749
   8   2.0000      -0.571505       -15.5515
   9   2.0000      -0.502352       -13.6697
  10   2.0000      -0.450718       -12.2647
  11   2.0000      -0.419257       -11.4086
  12   2.0000      -0.398298       -10.8382
  13   2.0000      -0.381702       -10.3866
  14   2.0000      -0.353724        -9.6253
  15   2.0000      -0.333149        -9.0654
  16   2.0000      -0.314182        -8.5493
  17   2.0000      -0.299553        -8.1513
  18   2.0000      -0.290005        -7.8914
  19   2.0000      -0.233836        -6.3630
  20   0.0000      -0.010364        -0.2820
  21   0.0000       0.090225         2.4552
  22   0.0000       0.114217         3.1080
  23   0.0000       0.133269         3.6264
  24   0.0000       0.140590         3.8256

MULLIKEN ATOMIC CHARGES
-----------------------
   0 C :   -0.467411
   1 C :   -0.253363
   2 C :   -0.229385
   3 C :   -0.143834
   4 C :   -0.338043
   5 H :    0.145226
   6 H :    0.138342
   7 H :    0.156836
   8 H :    0.134568
   9 H :    0.139936
  10 H :    0.139029
  11 H :    0.150835
  12 H :    0.147836
  13 H :    0.142195
  14 H :    0.137233
Sum of atomic charges:    0.0000000

LOEWDIN ATOMIC CHARGES
----------------------
   0 C :   -0.424054
   1 C :   -0.315957
   2 C :   -0.303429
   3 C :   -0.192399
   4 C :   -0.326993
   5 H :    0.150373
   6 H :    0.149208
   7 H :    0.156771
   8 H :    0.152360
   9 H :    0.153686
  10 H :    0.161759
  11 H :    0.167699
  12 H :    0.159181
  13 H :    0.157352
  14 H :    0.154444

  Mayer bond orders larger than 0.100000
B(  0-C ,  1-C ) :   0.9209 B(  0-C ,  5-H ) :   0.9727 B(  0-C ,  6-H ) :   0.9804
B(  0-C ,  7-H ) :   0.9767 B(  1-C ,  2-C ) :   0.9113 B(  1-C ,  8-H ) :   0.9645
B(  1-C ,  9-H ) :   0.9662 B(  2-C ,  3-C ) :   0.9363 B(  2-C , 10-H ) :   0.9920
B(  2-C , 11-H ) :   0.9398 B(  3-C ,  4-C ) :   1.9398 B(  3-C , 12-H ) :   0.9374
B(  4-C , 13-H ) :   0.9612 B(  4-C , 14-H ) :   0.9725

Dispersion correction           -0.003450357
FINAL SINGLE POINT ENERGY      -196.456487428344

DIPOLE MOMENT
-------------

Method             : SCF
Type of density    : Electron Density
Multiplicity       :   1
Irrep              :   0
Energy             :  -196.4590055895892817 Eh
Relativity type    :
Basis              : AO
                                X                 Y                 Z
Electronic contribution:     -2.193413122       1.039615617      -0.025166081
Nuclear contribution   :      2.312253539      -0.892351397      -0.013837851
                        -----------------------------------------
Total Dipole Moment    :      0.118840418       0.147264220      -0.039003932
                        -----------------------------------------
Magnitude (a.u.)       :      0.193212583
Magnitude (Debye)      :      0.491107356

Rotational constants in cm-1:             0.270318             0.115731             0.095112
Rotational constants in MHz :          8103.943215          3469.523357          2851.390536

                             ****ORCA TERMINATED NORMALLY****
TOTAL RUN TIME: 0 days 0 hours 0 minutes 12 seconds 722 msec
