                         Program Version 6.0.0  -   RELEASE  -
|  1> ! r2scan-3c def2/J RI DEFGRID2 scfconv6 printgap
|  2> %output
|  3>     printlevel normal
|  4> end
|  5> %cpcm
|  6>     smd true
|  7>     smdsolvent "water"
|  8> end
|  9> * xyz 0 1
| 10> C 1.6098269941 -0.9528543982 -0.2583379977
| 11> C 1.1415383564 0.295509483 0.4812233203
| 12> C 0.0427524637 1.0381047823 -0.2778219536
| 13> C -1.292126481 0.3578123645 -0.3378718565
| 14> C -1.7088237583 -0.6587508797 0.3940462913
| 15> H 2.3732674292 -1.472619738 0.3157248555
| 16> H 2.0313544036 -0.6835187176 -1.2244598591
| 17> H 0.7796965439 -1.6336051699 -0.4278869034
| 18> H 0.7851323682 0.0282589102 1.4770125622
| 19> H 1.9906885155 0.9706858871 0.6092344963
| 20> H 0.3799452459 1.2213164405 -1.3021353346
| 21> H -0.1114427744 2.0196915248 0.1830780651
| 22> H -1.9700600364 0.7969899517 -1.0606159987
| 23> H -2.7013400428 -1.0611082069 0.280017077
| 24> H -1.0926030986 -1.1372511333 1.1352812294
| 25> *
| 26>
| 27>                          ****END OF INPUT****

CARTESIAN COORDINATES (ANGSTROEM)
---------------------------------
  C      1.609827   -0.952854   -0.258338
  C      1.141538    0.295509    0.481223
  C      0.042752    1.038105   -0.277822
  C     -1.292126    0.357812   -0.337872
  C     -1.708824   -0.658751    0.394046
  H      2.373267   -1.472620    0.315725
  H      2.031354   -0.683519   -1.224460
  H      0.779697   -1.633605   -0.427887
  H      0.785132    0.028259    1.477013
  H      1.990689    0.970686    0.609234
  H      0.379945    1.221316   -1.302135
  H     -0.111443    2.019692    0.183078
  H     -1.970060    0.796990   -1.060616
  H     -2.701340   -1.061108    0.280017
  H     -1.092603   -1.137251    1.135281

 Total Charge           Charge          ....    0
 Multiplicity           Mult            ....    1
 Number of Electrons    NEL             ....   40
 Basis Dimension        Dim             ....  145

ORBITAL ENERGIES
----------------

  NO   OCC          E(Eh)            E(eV)
   0   2.0000     -10.030213      -272.9360
   1   2.0000     -10.023261      -272.7468
   2   2.0000     -10.018112      -272.6067
   3   2.0000     -10.011948      -272.4390
   4   2.0000     -10.006752      -272.2976
   5   2.0000      -0.770665       -20.9709
   6   2.0000      -0.710701       -19.3392
   7   2.0000      -0.643807       -17.5189
   8   2.0000      -0.565205       -15.3800
   9   2.0000      -0.496623       -13.5138
  10   2.0000      -0.444774       -12.1029
  11   2.0000      -0.412223       -11.2172
  12   2.0000      -0.392464       -10.6795
  13   2.0000      -0.375895       -10.2286
  14   2.0000      -0.347318        -9.4510
  15   2.0000      -0.327263        -8.9053
  16   2.0000      -0.307473        -8.3668
  17   2.0000      -0.291516        -7.9326
  18   2.0000      -0.283401        -7.7117
  19   2.0000      -0.233761        -6.3610
  20   0.0000      -0.009718        -0.2644
  21   0.0000       0.096219         2.6182
  22   0.0000       0.123109         3.3500
  23   0.0000       0.137860         3.7513
  24   0.0000       0.146247         3.9796

MULLIKEN ATOMIC CHARGES
-----------------------
   0 C :   -0.505996
   1 C :   -0.250180
   2 C :   -0.246826
   3 C :   -0.176959
   4 C :   -0.407980
   5 H :    0.155996
   6 H :    0.152743
   7 H :    0.156407
   8 H :    0.143869
   9 H :    0.150924
  10 H :    0.157601
  11 H :    0.167165
  12 H :    0.173011
  13 H :    0.166437
  14 H :    0.163789
Sum of atomic charges:   -0.0000000

LOEWDIN ATOMIC CHARGES
----------------------
   0 C :   -0.431874
   1 C :   -0.317508
   2 C :   -0.306046
   3 C :   -0.199089
   4 C :   -0.350022
   5 H :    0.153251
   6 H :    0.152424
   7 H :    0.154705
   8 H :    0.155144
   9 H :    0.157071
  10 H :    0.168012
  11 H :    0.173485
  12 H :    0.166320
  13 H :    0.162597
  14 H :    0.161530

  Mayer bond orders larger than 0.100000
B(  0-C ,  1-C ) :   0.9082 B(  0-C ,  5-H ) :   0.9697 B(  0-C ,  6-H ) :   0.9782
B(  0-C ,  7-H ) :   0.9782 B(  1-C ,  2-C ) :   0.9032 B(  1-C ,  8-H ) :   0.9635
B(  1-C ,  9-H ) :   0.9651 B(  2-C ,  3-C ) :   0.9189 B(  2-C , 10-H ) :   0.9900
B(  2-C , 11-H ) :   0.9379 B(  3-C ,  4-C ) :   1.9040 B(  3-C , 12-H ) :   0.9385
B(  4-C , 13-H ) :   0.9618 B(  4-C , 14-H ) :   0.9695

Dispersion correction           -0.003450357
FINAL SINGLE POINT ENERGY      -196.454891347374

DIPOLE MOMENT
-------------

Method             : SCF
Type of density    : Electron Density
Multiplicity       :   1
Irrep              :   0
Energy             :  -196.4574095086190937 Eh
Relativity type    :
Basis              : AO
                                X                 Y                 Z
Electronic contribution:     -2.132819742       1.119278310      -0.042410327
Nuclear contribution   :      2.312253539      -0.892351397      -0.013837851
                        -----------------------------------------
Total Dipole Moment    :      0.179433797       0.226926913      -0.056248178
                        -----------------------------------------
Magnitude (a.u.)       :      0.294713707
Magnitude (Debye)      :      0.749102711

Rotational constants in cm-1:             0.270318             0.115731             0.095112
Rotational constants in MHz :          8103.943215          3469.523357          2851.390536

                             ****ORCA TERMINATED NORMALLY****
TOTAL RUN TIME: 0 days 0 hours 0 minutes 15 seconds 409 msec
