                         Program Version 6.0.0  -   RELEASE  -
|  1> ! r2scan-3c def2/J RI DEFGRID2 scfconv6 printgap
|  2> %output
|  3>     printlevel normal
|  4> end
|  5> * xyz 0 1
|  6> C -2.6450183483 0.668798502 0.0892245811
|  7> C -1.2759488727 0.1390891627 0.4987714381
|  8> C -0.5674342114 -0.5431148578 -0.6694363271
|  9> C 0.815662774 -1.0784562692 -0.2712513557
| 10> C 1.7188326796 -0.0134609938 0.0609309589
| 11> N 2.4425142076 0.8386853646 0.3130303545
| 12> H -3.2778512958 -0.1423920683 -0.2633846967
| 13> H -3.1358206414 1.1464510389 0.9330899224
| 14> H -2.547219279 1.4005586803 -0.7094010833
| 15> H -0.6588303357 0.9643375071 0.8631215952
| 16> H -1.3942302838 -0.5733412238 1.3186763641
| 17> H -0.4583391865 0.1663154296 -1.4925619109
| 18> H -1.1722285284 -1.379961018 -1.0224997486
| 19> H 0.7300141146 -1.737212758 0.5966366109
| 20> H 1.2554236315 -1.6430789255 -1.0970046787
| 21> *
| 22>
| 23>                          ****END OF INPUT****

CARTESIAN COORDINATES (ANGSTROEM)
---------------------------------
  C     -2.645018    0.668799    0.089225
  C     -1.275949    0.139089    0.498771
  C     -0.567434   -0.543115   -0.669436
  C      0.815663   -1.078456   -0.271251
  C      1.718833   -0.013461    0.060931
  N      2.442514    0.838685    0.313030
  H     -3.277851   -0.142392   -0.263385
  H     -3.135821    1.146451    0.933090
  H     -2.547219    1.400559   -0.709401
  H     -0.658830    0.964338    0.863122
  H     -1.394230   -0.573341    1.318676
  H     -0.458339    0.166315   -1.492562
  H     -1.172229   -1.379961   -1.022500
  H      0.730014   -1.737213    0.596637
  H      1.255424   -1.643079   -1.097005

 Total Charge           Charge          ....    0
 Multiplicity           Mult            ....    1
 Number of Electrons    NEL             ....   46
 Basis Dimension        Dim             ....  164

ORBITAL ENERGIES
----------------

  NO   OCC          E(Eh)            E(eV)
   0   2.0000     -14.149126      -385.0173
   1   2.0000     -10.083088      -274.3748
   2   2.0000     -10.064479      -273.8684
   3   2.0000     -10.055220      -273.6165
   4   2.0000     -10.040041      -273.2034
   5   2.0000     -10.027455      -272.8609
   6   2.0000      -0.874734       -23.8027
   7   2.0000      -0.797487       -21.7007
   8   2.0000      -0.733752       -19.9664
   9   2.0000      -0.641399       -17.4534
  10   2.0000      -0.570872       -15.5342
  11   2.0000      -0.495594       -13.4858
  12   2.0000      -0.450680       -12.2636
  13   2.0000      -0.435151       -11.8411
  14   2.0000      -0.421578       -11.4717
  15   2.0000      -0.380700       -10.3594
  16   2.0000      -0.360164        -9.8006
  17   2.0000      -0.335158        -9.1201
  18   2.0000      -0.326527        -8.8853
  19   2.0000      -0.321087        -8.7372
  20   2.0000      -0.313502        -8.5308
  21   2.0000      -0.299846        -8.1592
  22   2.0000      -0.295137        -8.0311
  23   0.0000       0.006715         0.1827
  24   0.0000       0.013571         0.3693
  25   0.0000       0.063220         1.7203
  26   0.0000       0.095289         2.5929
  27   0.0000       0.118852         3.2341

MULLIKEN ATOMIC CHARGES
-----------------------
   0 C :   -0.463340
   1 C :   -0.249101
   2 C :   -0.267727
   3 C :   -0.316361
   4 C :    0.138299
   5 N :   -0.238110
   6 H :    0.140355
   7 H :    0.151974
   8 H :    0.145231
   9 H :    0.162302
  10 H :    0.137280
  11 H :    0.151149
  12 H :    0.153431
  13 H :    0.179237
  14 H :    0.175381
Sum of atomic charges:   -0.0000000

LOEWDIN ATOMIC CHARGES
----------------------
   0 C :   -0.419873
   1 C :   -0.309982
   2 C :   -0.283777
   3 C :   -0.259208
   4 C :    0.125386
   5 N :   -0.321699
   6 H :    0.149956
   7 H :    0.153960
   8 H :    0.152008
   9 H :    0.163765
  10 H :    0.152371
  11 H :    0.165051
  12 H :    0.159086
  13 H :    0.186399
  14 H :    0.186556

  Mayer bond orders larger than 0.100000
B(  0-C ,  1-C ) :   0.9100 B(  0-C ,  6-H ) :   0.9836 B(  0-C ,  7-H ) :   0.9728
B(  0-C ,  8-H ) :   0.9797 B(  1-C ,  2-C ) :   0.9258 B(  1-C ,  9-H ) :   0.9585
B(  1-C , 10-H ) :   0.9698 B(  2-C ,  3-C ) :   0.8703 B(  2-C , 11-H ) :   0.9708
B(  2-C , 12-H ) :   0.9728 B(  3-C ,  4-C ) :   0.9785 B(  3-C , 13-H ) :   0.9900
B(  3-C , 14-H ) :   0.9516 B(  4-C ,  5-N ) :   2.8951

Dispersion correction           -0.003489437
FINAL SINGLE POINT ENERGY      -250.613018439920

DIPOLE MOMENT
-------------

Method             : SCF
Type of density    : Electron Density
Multiplicity       :   1
Irrep              :   0
Energy             :  -250.6157004411100502 Eh
Relativity type    :
Basis              : AO
                                X                 Y                 Z
Electronic contribution:      8.821224050       0.611239552       0.477568787
Nuclear contribution   :     -9.986606133      -1.682518462      -0.817607984
                        -----------------------------------------
Total Dipole Moment    :     -1.165382083      -1.071278910      -0.340039197
                        -----------------------------------------
Magnitude (a.u.)       :      1.619067806
Magnitude (Debye)      :      4.115343310

Rotational constants in cm-1:             0.261767             0.060046             0.052617
Rotational constants in MHz :          7847.564539          1800.128719          1577.411315

                             ****ORCA TERMINATED NORMALLY****
TOTAL RUN TIME: 0 days 0 hours 0 minutes 14 seconds 859 msec
