                         Program Version 6.0.0  -   RELEASE  -
|  1> ! r2scan-3c def2/J RI DEFGRID2 scfconv6 printgap
|  2> %output
|  3>     printlevel normal
|  4> end
|  5> %cpcm
|  6>     smd true
|  7>     smdsolvent "water"
|  8> end
|  9> * xyz 0 1
| 10> C -2.6450183483 0.668798502 0.0892245811
| 11> C -1.2759488727 0.1390891627 0.4987714381
| 12> C -0.5674342114 -0.5431148578 -0.6694363271
| 13> C 0.815662774 -1.0784562692 -0.2712513557
| 14> C 1.7188326796 -0.0134609938 0.0609309589
| 15> N 2.4425142076 0.8386853646 0.3130303545
| 16> H -3.2778512958 -0.1423920683 -0.2633846967
| 17> H -3.1358206414 1.1464510389 0.9330899224
| 18> H -2.547219279 1.4005586803 -0.7094010833
| 19> H -0.6588303357 0.9643375071 0.8631215952
| 20> H -1.3942302838 -0.5733412238 1.3186763641
| 21> H -0.4583391865 0.1663154296 -1.4925619109
| 22> H -1.1722285284 -1.379961018 -1.0224997486
| 23> H 0.7300141146 -1.737212758 0.5966366109
| 24> H 1.2554236315 -1.6430789255 -1.0970046787
| 25> *
| 26>
| 27>                          ****END OF INPUT****

CARTESIAN COORDINATES (ANGSTROEM)
---------------------------------
  C     -2.645018    0.668799    0.089225
  C     -1.275949    0.139089    0.498771
  C     -0.567434   -0.543115   -0.669436
  C      0.815663   -1.078456   -0.271251
  C      1.718833   -0.013461    0.060931
  N      2.442514    0.838685    0.313030
  H     -3.277851   -0.142392   -0.263385
  H     -3.135821    1.146451    0.933090
  H     -2.547219    1.400559   -0.709401
  H     -0.658830    0.964338    0.863122
  H     -1.394230   -0.573341    1.318676
  H     -0.458339    0.166315   -1.492562
  H     -1.172229   -1.379961   -1.022500
  H      0.730014   -1.737213    0.596637
  H      1.255424   -1.643079   -1.097005

 Total Charge           Charge          ....    0
 Multiplicity           Mult            ....    1
 Number of Electrons    NEL             ....   46
 Basis Dimension        Dim             ....  164

ORBITAL ENERGIES
----------------

  NO   OCC          E(Eh)            E(eV)
   0   2.0000     -14.154767      -385.1708
   1   2.0000     -10.074499      -274.1411
   2   2.0000     -10.063420      -273.8396
   3   2.0000     -10.034081      -273.0412
   4   2.0000     -10.021544      -272.7001
   5   2.0000     -10.009748      -272.3791
   6   2.0000      -0.882303       -24.0087
   7   2.0000      -0.780382       -21.2353
   8   2.0000      -0.717212       -19.5163
   9   2.0000      -0.624030       -16.9807
  10   2.0000      -0.552381       -15.0310
  11   2.0000      -0.478176       -13.0118
  12   2.0000      -0.431851       -11.7513
  13   2.0000      -0.418845       -11.3973
  14   2.0000      -0.403834       -10.9889
  15   2.0000      -0.365135        -9.9358
  16   2.0000      -0.347290        -9.4502
  17   2.0000      -0.334194        -9.0939
  18   2.0000      -0.325863        -8.8672
  19   2.0000      -0.313251        -8.5240
  20   2.0000      -0.298635        -8.1263
  21   2.0000      -0.294351        -8.0097
  22   2.0000      -0.288036        -7.8379
  23   0.0000       0.005712         0.1554
  24   0.0000       0.011547         0.3142
  25   0.0000       0.070186         1.9099
  26   0.0000       0.112877         3.0715
  27   0.0000       0.136709         3.7200

MULLIKEN ATOMIC CHARGES
-----------------------
   0 C :   -0.508541
   1 C :   -0.254355
   2 C :   -0.284612
   3 C :   -0.313004
   4 C :    0.180428
   5 N :   -0.355199
   6 H :    0.154856
   7 H :    0.158751
   8 H :    0.154898
   9 H :    0.153866
  10 H :    0.153902
  11 H :    0.163020
  12 H :    0.174067
  13 H :    0.213903
  14 H :    0.208019
Sum of atomic charges:   -0.0000000

LOEWDIN ATOMIC CHARGES
----------------------
   0 C :   -0.428992
   1 C :   -0.310916
   2 C :   -0.279639
   3 C :   -0.253201
   4 C :    0.154042
   5 N :   -0.399502
   6 H :    0.153837
   7 H :    0.154332
   8 H :    0.153410
   9 H :    0.158839
  10 H :    0.157227
  11 H :    0.167664
  12 H :    0.167890
  13 H :    0.202346
  14 H :    0.202662

  Mayer bond orders larger than 0.100000
B(  0-C ,  1-C ) :   0.9012 B(  0-C ,  6-H ) :   0.9813 B(  0-C ,  7-H ) :   0.9714
B(  0-C ,  8-H ) :   0.9785 B(  1-C ,  2-C ) :   0.9192 B(  1-C ,  9-H ) :   0.9609
B(  1-C , 10-H ) :   0.9694 B(  2-C ,  3-C ) :   0.8451 B(  2-C , 11-H ) :   0.9749
B(  2-C , 12-H ) :   0.9657 B(  3-C ,  4-C ) :   0.9860 B(  3-C , 13-H ) :   0.9762
B(  3-C , 14-H ) :   0.9367 B(  4-C ,  5-N ) :   2.8753

Dispersion correction           -0.003489437
FINAL SINGLE POINT ENERGY      -250.618836037742

DIPOLE MOMENT
-------------

Method             : SCF
Type of density    : Electron Density
Multiplicity       :   1
Irrep              :   0
Energy             :  -250.6215180389323223 Eh
Relativity type    :
Basis              : AO
                                X                 Y                 Z
Electronic contribution:      8.533202355       0.165553102       0.340408047
Nuclear contribution   :     -9.986606133      -1.682518462      -0.817607984
                        -----------------------------------------
Total Dipole Moment    :     -1.453403778      -1.516965360      -0.477199937
                        -----------------------------------------
Magnitude (a.u.)       :      2.154364459
Magnitude (Debye)      :      5.475959274

Rotational constants in cm-1:             0.261767             0.060046             0.052617
Rotational constants in MHz :          7847.564539          1800.128719          1577.411315

                             ****ORCA TERMINATED NORMALLY****
TOTAL RUN TIME: 0 days 0 hours 0 minutes 21 seconds 483 msec
