                         Program Version 6.0.0  -   RELEASE  -
|  1> ! r2scan-3c def2/J RI DEFGRID2 scfconv6 printgap
|  2> %output
|  3>     printlevel normal
|  4> end
|  5> * xyz 0 1
|  6> C 2.2418697354 -0.2186800345 -0.0945804661
|  7> O 0.8886602456 -0.2984035841 0.2904086037
|  8> C 0.0886041863 0.7312114114 -0.2617764939
|  9> C -1.3469401406 0.5599438719 0.2544148193
| 10> N -1.979097728 -0.6883745561 -0.1301655756
| 11> H 2.3455447845 -0.3025547105 -1.1824666101
| 12> H 2.7466372775 -1.0509936227 0.3892619619
| 13> H 2.6860979677 0.7274413764 0.2338625922
| 14> H 0.4820935703 1.7140640514 0.0351376193
| 15> H 0.1110261312 0.6668212057 -1.3613907769
| 16> H -1.3298071943 0.6013903066 1.345541231
| 17> H -1.9534563067 1.387111494 -0.1209591172
| 18> H -1.415264481 -1.4575754042 0.2174598199
| 19> H -1.996548116 -0.7628761941 -1.142625399
| 20> *
| 21>
| 22>                          ****END OF INPUT****

CARTESIAN COORDINATES (ANGSTROEM)
---------------------------------
  C      2.241870   -0.218680   -0.094580
  O      0.888660   -0.298404    0.290409
  C      0.088604    0.731211   -0.261776
  C     -1.346940    0.559944    0.254415
  N     -1.979098   -0.688375   -0.130166
  H      2.345545   -0.302555   -1.182467
  H      2.746637   -1.050994    0.389262
  H      2.686098    0.727441    0.233863
  H      0.482094    1.714064    0.035138
  H      0.111026    0.666821   -1.361391
  H     -1.329807    0.601390    1.345541
  H     -1.953456    1.387111   -0.120959
  H     -1.415264   -1.457575    0.217460
  H     -1.996548   -0.762876   -1.142625

 Total Charge           Charge          ....    0
 Multiplicity           Mult            ....    1
 Number of Electrons    NEL             ....   42
 Basis Dimension        Dim             ....  150

ORBITAL ENERGIES
----------------

  NO   OCC          E(Eh)            E(eV)
   0   2.0000     -18.954771      -515.7855
   1   2.0000     -14.131650      -384.5417
   2   2.0000     -10.074471      -274.1403
   3   2.0000     -10.073088      -274.1027
   4   2.0000     -10.051518      -273.5157
   5   2.0000      -1.000295       -27.2194
   6   2.0000      -0.844776       -22.9875
   7   2.0000      -0.703779       -19.1508
   8   2.0000      -0.633219       -17.2308
   9   2.0000      -0.567174       -15.4336
  10   2.0000      -0.474467       -12.9109
  11   2.0000      -0.447681       -12.1820
  12   2.0000      -0.435663       -11.8550
  13   2.0000      -0.429541       -11.6884
  14   2.0000      -0.391421       -10.6511
  15   2.0000      -0.361914        -9.8482
  16   2.0000      -0.341052        -9.2805
  17   2.0000      -0.327183        -8.9031
  18   2.0000      -0.291147        -7.9225
  19   2.0000      -0.225812        -6.1446
  20   2.0000      -0.204233        -5.5574
  21   0.0000       0.065168         1.7733
  22   0.0000       0.094568         2.5733
  23   0.0000       0.111049         3.0218
  24   0.0000       0.118997         3.2381
  25   0.0000       0.135266         3.6808

MULLIKEN ATOMIC CHARGES
-----------------------
   0 C :   -0.283365
   1 O :   -0.239622
   2 C :   -0.127898
   3 C :   -0.250128
   4 N :   -0.541835
   5 H :    0.130246
   6 H :    0.147082
   7 H :    0.131854
   8 H :    0.118440
   9 H :    0.118673
  10 H :    0.153934
  11 H :    0.141862
  12 H :    0.264887
  13 H :    0.235870
Sum of atomic charges:    0.0000000

LOEWDIN ATOMIC CHARGES
----------------------
   0 C :   -0.072784
   1 O :   -0.801622
   2 C :    0.010863
   3 C :   -0.063727
   4 N :   -0.709240
   5 H :    0.154439
   6 H :    0.174185
   7 H :    0.155054
   8 H :    0.162183
   9 H :    0.158959
  10 H :    0.180350
  11 H :    0.175226
  12 H :    0.242882
  13 H :    0.233234

  Mayer bond orders larger than 0.100000
B(  0-C ,  1-O ) :   0.8950 B(  0-C ,  5-H ) :   0.9663 B(  0-C ,  6-H ) :   0.9729
B(  0-C ,  7-H ) :   0.9686 B(  1-O ,  2-C ) :   0.9049 B(  2-C ,  3-C ) :   0.9346
B(  2-C ,  8-H ) :   0.9462 B(  2-C ,  9-H ) :   0.9469 B(  3-C ,  4-N ) :   0.9853
B(  3-C , 10-H ) :   0.9865 B(  3-C , 11-H ) :   0.9836 B(  4-N , 12-H ) :   0.9063
B(  4-N , 13-H ) :   0.9175

Dispersion correction           -0.002738448
FINAL SINGLE POINT ENERGY      -249.619645310071

DIPOLE MOMENT
-------------

Method             : SCF
Type of density    : Electron Density
Multiplicity       :   1
Irrep              :   0
Energy             :  -249.6296431829663618 Eh
Relativity type    :
Basis              : AO
                                X                 Y                 Z
Electronic contribution:     -0.919529942      -1.105674310       1.020573731
Nuclear contribution   :      1.574998029       1.420445290      -1.484506038
                        -----------------------------------------
Total Dipole Moment    :      0.655468087       0.314770979      -0.463932307
                        -----------------------------------------
Magnitude (a.u.)       :      0.862526735
Magnitude (Debye)      :      2.192368729

Rotational constants in cm-1:             0.432359             0.087768             0.079860
Rotational constants in MHz :         12961.793866          2631.220705          2394.133140

                             ****ORCA TERMINATED NORMALLY****
TOTAL RUN TIME: 0 days 0 hours 0 minutes 15 seconds 864 msec
