                         Program Version 6.0.0  -   RELEASE  -
|  1> ! r2scan-3c def2/J RI DEFGRID2 scfconv6 printgap
|  2> %output
|  3>     printlevel normal
|  4> end
|  5> %cpcm
|  6>     smd true
|  7>     smdsolvent "water"
|  8> end
|  9> * xyz 0 1
| 10> C 2.2418697354 -0.2186800345 -0.0945804661
| 11> O 0.8886602456 -0.2984035841 0.2904086037
| 12> C 0.0886041863 0.7312114114 -0.2617764939
| 13> C -1.3469401406 0.5599438719 0.2544148193
| 14> N -1.979097728 -0.6883745561 -0.1301655756
| 15> H 2.3455447845 -0.3025547105 -1.1824666101
| 16> H 2.7466372775 -1.0509936227 0.3892619619
| 17> H 2.6860979677 0.7274413764 0.2338625922
| 18> H 0.4820935703 1.7140640514 0.0351376193
| 19> H 0.1110261312 0.6668212057 -1.3613907769
| 20> H -1.3298071943 0.6013903066 1.345541231
| 21> H -1.9534563067 1.387111494 -0.1209591172
| 22> H -1.415264481 -1.4575754042 0.2174598199
| 23> H -1.996548116 -0.7628761941 -1.142625399
| 24> *
| 25>
| 26>                          ****END OF INPUT****

CARTESIAN COORDINATES (ANGSTROEM)
---------------------------------
  C      2.241870   -0.218680   -0.094580
  O      0.888660   -0.298404    0.290409
  C      0.088604    0.731211   -0.261776
  C     -1.346940    0.559944    0.254415
  N     -1.979098   -0.688375   -0.130166
  H      2.345545   -0.302555   -1.182467
  H      2.746637   -1.050994    0.389262
  H      2.686098    0.727441    0.233863
  H      0.482094    1.714064    0.035138
  H      0.111026    0.666821   -1.361391
  H     -1.329807    0.601390    1.345541
  H     -1.953456    1.387111   -0.120959
  H     -1.415264   -1.457575    0.217460
  H     -1.996548   -0.762876   -1.142625

 Total Charge           Charge          ....    0
 Multiplicity           Mult            ....    1
 Number of Electrons    NEL             ....   42
 Basis Dimension        Dim             ....  150

ORBITAL ENERGIES
----------------

  NO   OCC          E(Eh)            E(eV)
   0   2.0000     -18.956135      -515.8227
   1   2.0000     -14.132300      -384.5594
   2   2.0000     -10.066200      -273.9152
   3   2.0000     -10.062616      -273.8177
   4   2.0000     -10.046206      -273.3712
   5   2.0000      -1.000347       -27.2208
   6   2.0000      -0.843587       -22.9552
   7   2.0000      -0.698080       -18.9957
   8   2.0000      -0.625960       -17.0332
   9   2.0000      -0.561397       -15.2764
  10   2.0000      -0.469992       -12.7891
  11   2.0000      -0.442054       -12.0289
  12   2.0000      -0.431550       -11.7431
  13   2.0000      -0.425586       -11.5808
  14   2.0000      -0.385067       -10.4782
  15   2.0000      -0.354428        -9.6445
  16   2.0000      -0.335561        -9.1311
  17   2.0000      -0.321025        -8.7355
  18   2.0000      -0.291045        -7.9197
  19   2.0000      -0.225323        -6.1313
  20   2.0000      -0.209355        -5.6968
  21   0.0000       0.069506         1.8914
  22   0.0000       0.103197         2.8081
  23   0.0000       0.125059         3.4030
  24   0.0000       0.130162         3.5419
  25   0.0000       0.142574         3.8796

MULLIKEN ATOMIC CHARGES
-----------------------
   0 C :   -0.304035
   1 O :   -0.304370
   2 C :   -0.140400
   3 C :   -0.256011
   4 N :   -0.632280
   5 H :    0.150025
   6 H :    0.161438
   7 H :    0.150419
   8 H :    0.139745
   9 H :    0.142990
  10 H :    0.160953
  11 H :    0.157284
  12 H :    0.289393
  13 H :    0.284849
Sum of atomic charges:   -0.0000000

LOEWDIN ATOMIC CHARGES
----------------------
   0 C :   -0.074284
   1 O :   -0.837272
   2 C :    0.015691
   3 C :   -0.068212
   4 N :   -0.736489
   5 H :    0.163206
   6 H :    0.178832
   7 H :    0.163211
   8 H :    0.171451
   9 H :    0.169460
  10 H :    0.180415
  11 H :    0.182478
  12 H :    0.246745
  13 H :    0.244768

  Mayer bond orders larger than 0.100000
B(  0-C ,  1-O ) :   0.8857 B(  0-C ,  5-H ) :   0.9618 B(  0-C ,  6-H ) :   0.9664
B(  0-C ,  7-H ) :   0.9634 B(  1-O ,  2-C ) :   0.8981 B(  2-C ,  3-C ) :   0.9442
B(  2-C ,  8-H ) :   0.9441 B(  2-C ,  9-H ) :   0.9436 B(  3-C ,  4-N ) :   0.9808
B(  3-C , 10-H ) :   0.9839 B(  3-C , 11-H ) :   0.9707 B(  4-N , 12-H ) :   0.8945
B(  4-N , 13-H ) :   0.8999

Dispersion correction           -0.002738448
FINAL SINGLE POINT ENERGY      -249.628682029449

DIPOLE MOMENT
-------------

Method             : SCF
Type of density    : Electron Density
Multiplicity       :   1
Irrep              :   0
Energy             :  -249.6386799023441938 Eh
Relativity type    :
Basis              : AO
                                X                 Y                 Z
Electronic contribution:     -0.710466026      -0.913386839       0.779511846
Nuclear contribution   :      1.574998029       1.420445290      -1.484506038
                        -----------------------------------------
Total Dipole Moment    :      0.864532003       0.507058450      -0.704994192
                        -----------------------------------------
Magnitude (a.u.)       :      1.225373685
Magnitude (Debye)      :      3.114652382

Rotational constants in cm-1:             0.432359             0.087768             0.079860
Rotational constants in MHz :         12961.793866          2631.220705          2394.133140

                             ****ORCA TERMINATED NORMALLY****
TOTAL RUN TIME: 0 days 0 hours 0 minutes 18 seconds 110 msec
