                         Program Version 6.0.0  -   RELEASE  -
|  1> ! r2scan-3c def2/J RI DEFGRID2 scfconv6 printgap
|  2> %output
|  3>     printlevel normal
|  4> end
|  5> * xyz 0 1
|  6> C -2.4791528476 0.8812285849 -0.6789024078
|  7> C -1.845608203 -0.4932972459 -0.4850794737
|  8> C -1.1774364803 -0.6973997672 0.8823826475
|  9> C 0.3212373574 -0.37651752 0.9978224697
| 10> C 1.1967422925 -1.2394600315 0.0632198837
| 11> C 2.1392300206 -0.2690321478 -0.6544322352
| 12> C 1.35300896 1.0375581204 -0.6997541285
| 13> C 0.6990919406 1.0822337507 0.6784670393
| 14> H -3.0375875077 0.9031310877 -1.6126546543
| 15> H -3.168011624 1.1015165551 0.1340361121
| 16> H -1.730699582 1.6668063842 -0.7188909619
| 17> H -2.6357215266 -1.2411933709 -0.5894786087
| 18> H -1.128813086 -0.6720654053 -1.2866330594
| 19> H -1.7144858198 -0.1044549275 1.6265363997
| 20> H -1.2927209296 -1.746952254 1.1664402018
| 21> H 0.5883234052 -0.5875211015 2.0384939406
| 22> H 1.7491471189 -1.9961626417 0.6192201285
| 23> H 0.5733289875 -1.7598606855 -0.6633666429
| 24> H 3.0481924933 -0.1265142054 -0.0672947705
| 25> H 2.4244423399 -0.6245774831 -1.643819826
| 26> H 1.9882241341 1.9025774858 -0.8876430582
| 27> H 0.5949112065 0.9916852917 -1.4820306072
| 28> H 1.4315648003 1.4346984334 1.4073072498
| 29> H -0.1582308582 1.7489122618 0.7237165409
| 30> *
| 31>
| 32>                          ****END OF INPUT****

CARTESIAN COORDINATES (ANGSTROEM)
---------------------------------
  C     -2.479153    0.881229   -0.678902
  C     -1.845608   -0.493297   -0.485079
  C     -1.177436   -0.697400    0.882383
  C      0.321237   -0.376518    0.997822
  C      1.196742   -1.239460    0.063220
  C      2.139230   -0.269032   -0.654432
  C      1.353009    1.037558   -0.699754
  C      0.699092    1.082234    0.678467
  H     -3.037588    0.903131   -1.612655
  H     -3.168012    1.101517    0.134036
  H     -1.730700    1.666806   -0.718891
  H     -2.635722   -1.241193   -0.589479
  H     -1.128813   -0.672065   -1.286633
  H     -1.714486   -0.104455    1.626536
  H     -1.292721   -1.746952    1.166440
  H      0.588323   -0.587521    2.038494
  H      1.749147   -1.996163    0.619220
  H      0.573329   -1.759861   -0.663367
  H      3.048192   -0.126514   -0.067295
  H      2.424442   -0.624577   -1.643820
  H      1.988224    1.902577   -0.887643
  H      0.594911    0.991685   -1.482031
  H      1.431565    1.434698    1.407307
  H     -0.158231    1.748912    0.723717

 Total Charge           Charge          ....    0
 Multiplicity           Mult            ....    1
 Number of Electrons    NEL             ....   64
 Basis Dimension        Dim             ....  232

ORBITAL ENERGIES
----------------

  NO   OCC          E(Eh)            E(eV)
   0   2.0000     -10.024844      -272.7899
   1   2.0000     -10.021528      -272.6997
   2   2.0000     -10.018523      -272.6179
   3   2.0000     -10.018427      -272.6152
   4   2.0000     -10.018220      -272.6096
   5   2.0000     -10.015983      -272.5487
   6   2.0000     -10.015642      -272.5395
   7   2.0000     -10.013398      -272.4784
   8   2.0000      -0.804655       -21.8958
   9   2.0000      -0.745993       -20.2995
  10   2.0000      -0.688344       -18.7308
  11   2.0000      -0.671287       -18.2666
  12   2.0000      -0.622657       -16.9433
  13   2.0000      -0.556885       -15.1536
  14   2.0000      -0.533104       -14.5065
  15   2.0000      -0.498278       -13.5588
  16   2.0000      -0.456390       -12.4190
  17   2.0000      -0.438347       -11.9280
  18   2.0000      -0.409341       -11.1387
  19   2.0000      -0.406540       -11.0625
  20   2.0000      -0.379191       -10.3183
  21   2.0000      -0.369529       -10.0554
  22   2.0000      -0.362600        -9.8669
  23   2.0000      -0.321710        -8.7542
  24   2.0000      -0.316084        -8.6011
  25   2.0000      -0.314543        -8.5591
  26   2.0000      -0.300606        -8.1799
  27   2.0000      -0.299311        -8.1447
  28   2.0000      -0.286785        -7.8038
  29   2.0000      -0.278285        -7.5725
  30   2.0000      -0.271657        -7.3922
  31   2.0000      -0.263535        -7.1712
  32   0.0000       0.078187         2.1276
  33   0.0000       0.089205         2.4274
  34   0.0000       0.094462         2.5705
  35   0.0000       0.109396         2.9768
  36   0.0000       0.121247         3.2993

MULLIKEN ATOMIC CHARGES
-----------------------
   0 C :   -0.500335
   1 C :   -0.213087
   2 C :   -0.389246
   3 C :    0.087280
   4 C :   -0.432414
   5 C :   -0.271981
   6 C :   -0.289736
   7 C :   -0.393696
   8 H :    0.144450
   9 H :    0.146700
  10 H :    0.147533
  11 H :    0.141610
  12 H :    0.137828
  13 H :    0.152420
  14 H :    0.146646
  15 H :    0.155005
  16 H :    0.152905
  17 H :    0.158970
  18 H :    0.147370
  19 H :    0.151453
  20 H :    0.152580
  21 H :    0.154761
  22 H :    0.154451
  23 H :    0.158535
Sum of atomic charges:    0.0000000

LOEWDIN ATOMIC CHARGES
----------------------
   0 C :   -0.427989
   1 C :   -0.321707
   2 C :   -0.300461
   3 C :   -0.222808
   4 C :   -0.301210
   5 C :   -0.301209
   6 C :   -0.304278
   7 C :   -0.300790
   8 H :    0.149815
   9 H :    0.149539
  10 H :    0.148695
  11 H :    0.153027
  12 H :    0.152254
  13 H :    0.157057
  14 H :    0.158095
  15 H :    0.159917
  16 H :    0.157685
  17 H :    0.158553
  18 H :    0.154638
  19 H :    0.155359
  20 H :    0.155116
  21 H :    0.154323
  22 H :    0.157608
  23 H :    0.158773

  Mayer bond orders larger than 0.100000
B(  0-C ,  1-C ) :   0.9034 B(  0-C ,  8-H ) :   0.9716 B(  0-C ,  9-H ) :   0.9861
B(  0-C , 10-H ) :   0.9789 B(  1-C ,  2-C ) :   0.8552 B(  1-C , 11-H ) :   0.9645
B(  1-C , 12-H ) :   0.9747 B(  2-C ,  3-C ) :   0.8773 B(  2-C , 13-H ) :   0.9970
B(  2-C , 14-H ) :   0.9729 B(  3-C ,  4-C ) :   0.9218 B(  3-C ,  7-C ) :   0.9055
B(  3-C , 15-H ) :   0.9518 B(  4-C ,  5-C ) :   0.8976 B(  4-C , 16-H ) :   0.9574
B(  4-C , 17-H ) :   0.9976 B(  5-C ,  6-C ) :   0.8980 B(  5-C , 18-H ) :   0.9853
B(  5-C , 19-H ) :   0.9597 B(  6-C ,  7-C ) :   0.8839 B(  6-C , 20-H ) :   0.9486
B(  6-C , 21-H ) :   0.9982 B(  7-C , 22-H ) :   0.9733 B(  7-C , 23-H ) :   0.9716

Dispersion correction           -0.007444514
FINAL SINGLE POINT ENERGY      -314.376494739698

DIPOLE MOMENT
-------------

Method             : SCF
Type of density    : Electron Density
Multiplicity       :   1
Irrep              :   0
Energy             :  -314.3795820811035924 Eh
Relativity type    :
Basis              : AO
                                X                 Y                 Z
Electronic contribution:      2.321780981      -0.870408096       1.190075883
Nuclear contribution   :     -2.315514392       0.834988958      -1.159627322
                        -----------------------------------------
Total Dipole Moment    :      0.006266588      -0.035419138       0.030448561
                        -----------------------------------------
Magnitude (a.u.)       :      0.047126429
Magnitude (Debye)      :      0.119785864

Rotational constants in cm-1:             0.104007             0.047739             0.042478
Rotational constants in MHz :          3118.060634          1431.174220          1273.450457

                             ****ORCA TERMINATED NORMALLY****
TOTAL RUN TIME: 0 days 0 hours 0 minutes 23 seconds 941 msec
