                         Program Version 6.0.0  -   RELEASE  -
|  1> ! r2scan-3c def2/J RI DEFGRID2 scfconv6 printgap
|  2> %output
|  3>     printlevel normal
|  4> end
|  5> %cpcm
|  6>     smd true
|  7>     smdsolvent "water"
|  8> end
|  9> * xyz 0 1
| 10> C -2.4791528476 0.8812285849 -0.6789024078
| 11> C -1.845608203 -0.4932972459 -0.4850794737
| 12> C -1.1774364803 -0.6973997672 0.8823826475
| 13> C 0.3212373574 -0.37651752 0.9978224697
| 14> C 1.1967422925 -1.2394600315 0.0632198837
| 15> C 2.1392300206 -0.2690321478 -0.6544322352
| 16> C 1.35300896 1.0375581204 -0.6997541285
| 17> C 0.6990919406 1.0822337507 0.6784670393
| 18> H -3.0375875077 0.9031310877 -1.6126546543
| 19> H -3.168011624 1.1015165551 0.1340361121
| 20> H -1.730699582 1.6668063842 -0.7188909619
| 21> H -2.6357215266 -1.2411933709 -0.5894786087
| 22> H -1.128813086 -0.6720654053 -1.2866330594
| 23> H -1.7144858198 -0.1044549275 1.6265363997
| 24> H -1.2927209296 -1.746952254 1.1664402018
| 25> H 0.5883234052 -0.5875211015 2.0384939406
| 26> H 1.7491471189 -1.9961626417 0.6192201285
| 27> H 0.5733289875 -1.7598606855 -0.6633666429
| 28> H 3.0481924933 -0.1265142054 -0.0672947705
| 29> H 2.4244423399 -0.6245774831 -1.643819826
| 30> H 1.9882241341 1.9025774858 -0.8876430582
| 31> H 0.5949112065 0.9916852917 -1.4820306072
| 32> H 1.4315648003 1.4346984334 1.4073072498
| 33> H -0.1582308582 1.7489122618 0.7237165409
| 34> *
| 35>
| 36>                          ****END OF INPUT****

CARTESIAN COORDINATES (ANGSTROEM)
---------------------------------
  C     -2.479153    0.881229   -0.678902
  C     -1.845608   -0.493297   -0.485079
  C     -1.177436   -0.697400    0.882383
  C      0.321237   -0.376518    0.997822
  C      1.196742   -1.239460    0.063220
  C      2.139230   -0.269032   -0.654432
  C      1.353009    1.037558   -0.699754
  C      0.699092    1.082234    0.678467
  H     -3.037588    0.903131   -1.612655
  H     -3.168012    1.101517    0.134036
  H     -1.730700    1.666806   -0.718891
  H     -2.635722   -1.241193   -0.589479
  H     -1.128813   -0.672065   -1.286633
  H     -1.714486   -0.104455    1.626536
  H     -1.292721   -1.746952    1.166440
  H      0.588323   -0.587521    2.038494
  H      1.749147   -1.996163    0.619220
  H      0.573329   -1.759861   -0.663367
  H      3.048192   -0.126514   -0.067295
  H      2.424442   -0.624577   -1.643820
  H      1.988224    1.902577   -0.887643
  H      0.594911    0.991685   -1.482031
  H      1.431565    1.434698    1.407307
  H     -0.158231    1.748912    0.723717

 Total Charge           Charge          ....    0
 Multiplicity           Mult            ....    1
 Number of Electrons    NEL             ....   64
 Basis Dimension        Dim             ....  232

ORBITAL ENERGIES
----------------

  NO   OCC          E(Eh)            E(eV)
   0   2.0000     -10.017636      -272.5937
   1   2.0000     -10.013405      -272.4786
   2   2.0000     -10.011529      -272.4276
   3   2.0000     -10.011056      -272.4147
   4   2.0000     -10.011041      -272.4143
   5   2.0000     -10.008763      -272.3523
   6   2.0000     -10.008293      -272.3395
   7   2.0000     -10.005631      -272.2671
   8   2.0000      -0.797526       -21.7018
   9   2.0000      -0.738563       -20.0973
  10   2.0000      -0.681291       -18.5389
  11   2.0000      -0.664481       -18.0814
  12   2.0000      -0.615676       -16.7534
  13   2.0000      -0.549643       -14.9566
  14   2.0000      -0.526335       -14.3223
  15   2.0000      -0.491273       -13.3682
  16   2.0000      -0.448942       -12.2163
  17   2.0000      -0.431422       -11.7396
  18   2.0000      -0.401872       -10.9355
  19   2.0000      -0.399104       -10.8602
  20   2.0000      -0.371829       -10.1180
  21   2.0000      -0.362116        -9.8537
  22   2.0000      -0.355134        -9.6637
  23   2.0000      -0.314488        -8.5577
  24   2.0000      -0.308431        -8.3928
  25   2.0000      -0.306904        -8.3513
  26   2.0000      -0.294020        -8.0007
  27   2.0000      -0.292556        -7.9609
  28   2.0000      -0.279290        -7.5999
  29   2.0000      -0.271035        -7.3752
  30   2.0000      -0.264369        -7.1938
  31   2.0000      -0.255904        -6.9635
  32   0.0000       0.086661         2.3582
  33   0.0000       0.096845         2.6353
  34   0.0000       0.101410         2.7595
  35   0.0000       0.116473         3.1694
  36   0.0000       0.128731         3.5029

MULLIKEN ATOMIC CHARGES
-----------------------
   0 C :   -0.535582
   1 C :   -0.224842
   2 C :   -0.403293
   3 C :    0.082342
   4 C :   -0.444384
   5 C :   -0.293409
   6 C :   -0.306945
   7 C :   -0.407972
   8 H :    0.152809
   9 H :    0.156283
  10 H :    0.157863
  11 H :    0.148700
  12 H :    0.149821
  13 H :    0.159376
  14 H :    0.152814
  15 H :    0.161555
  16 H :    0.160199
  17 H :    0.167133
  18 H :    0.156061
  19 H :    0.158457
  20 H :    0.159102
  21 H :    0.164509
  22 H :    0.162072
  23 H :    0.167332
Sum of atomic charges:    0.0000000

LOEWDIN ATOMIC CHARGES
----------------------
   0 C :   -0.435909
   1 C :   -0.323864
   2 C :   -0.303721
   3 C :   -0.222965
   4 C :   -0.304985
   5 C :   -0.305647
   6 C :   -0.308178
   7 C :   -0.304525
   8 H :    0.151316
   9 H :    0.151595
  10 H :    0.151332
  11 H :    0.154269
  12 H :    0.155817
  13 H :    0.158542
  14 H :    0.159080
  15 H :    0.161383
  16 H :    0.158952
  17 H :    0.160823
  18 H :    0.156552
  19 H :    0.156781
  20 H :    0.156194
  21 H :    0.157111
  22 H :    0.159133
  23 H :    0.160915

  Mayer bond orders larger than 0.100000
B(  0-C ,  1-C ) :   0.8953 B(  0-C ,  8-H ) :   0.9697 B(  0-C ,  9-H ) :   0.9836
B(  0-C , 10-H ) :   0.9769 B(  1-C ,  2-C ) :   0.8481 B(  1-C , 11-H ) :   0.9659
B(  1-C , 12-H ) :   0.9751 B(  2-C ,  3-C ) :   0.8713 B(  2-C , 13-H ) :   0.9954
B(  2-C , 14-H ) :   0.9732 B(  3-C ,  4-C ) :   0.9226 B(  3-C ,  7-C ) :   0.9036
B(  3-C , 15-H ) :   0.9535 B(  4-C ,  5-C ) :   0.8952 B(  4-C , 16-H ) :   0.9566
B(  4-C , 17-H ) :   0.9958 B(  5-C ,  6-C ) :   0.8968 B(  5-C , 18-H ) :   0.9839
B(  5-C , 19-H ) :   0.9583 B(  6-C ,  7-C ) :   0.8802 B(  6-C , 20-H ) :   0.9479
B(  6-C , 21-H ) :   0.9965 B(  7-C , 22-H ) :   0.9729 B(  7-C , 23-H ) :   0.9708

Dispersion correction           -0.007444514
FINAL SINGLE POINT ENERGY      -314.373974320167

DIPOLE MOMENT
-------------

Method             : SCF
Type of density    : Electron Density
Multiplicity       :   1
Irrep              :   0
Energy             :  -314.3770616615723270 Eh
Relativity type    :
Basis              : AO
                                X                 Y                 Z
Electronic contribution:      2.318782308      -0.875742790       1.187851706
Nuclear contribution   :     -2.315514392       0.834988958      -1.159627322
                        -----------------------------------------
Total Dipole Moment    :      0.003267916      -0.040753832       0.028224383
                        -----------------------------------------
Magnitude (a.u.)       :      0.049680679
Magnitude (Debye)      :      0.126278251

Rotational constants in cm-1:             0.104007             0.047739             0.042478
Rotational constants in MHz :          3118.060634          1431.174220          1273.450457

                             ****ORCA TERMINATED NORMALLY****
TOTAL RUN TIME: 0 days 0 hours 0 minutes 29 seconds 336 msec
