                         Program Version 6.0.0  -   RELEASE  -
|  1> ! r2scan-3c def2/J RI DEFGRID2 scfconv6 printgap
|  2> %output
|  3>     printlevel normal
|  4> end
|  5> %cpcm
|  6>     smd true
|  7>     smdsolvent "water"
|  8> end
|  9> * xyz 0 1
| 10> C -1.3387389036 -0.3458971854 -0.4666142065
| 11> C 0.0035675119 -0.0329884683 0.2064549293
| 12> C 1.1643373539 -0.685796014 -0.55304065
| 13> O 2.3884847392 -0.6285417062 0.1327646053
| 14> O 0.2227816701 1.3592068547 0.2513026316
| 15> O -2.3502198704 0.2466475685 0.3210856013
| 16> H -1.4735999478 -1.4320142184 -0.5238618134
| 17> H -1.3357982677 0.0750998668 -1.4792262978
| 18> H -0.0314078813 -0.4294691721 1.235010414
| 19> H 1.3258805269 -0.1416422503 -1.48547403
| 20> H 0.9009357412 -1.7270669848 -0.7825233656
| 21> H 2.2911706058 -1.0398141598 1.0035438097
| 22> H -0.5729939371 1.7737198569 0.6180399588
| 23> H -3.212194444 0.0948189784 -0.0884702639
| 24> *
| 25>
| 26>                          ****END OF INPUT****

CARTESIAN COORDINATES (ANGSTROEM)
---------------------------------
  C     -1.338739   -0.345897   -0.466614
  C      0.003568   -0.032988    0.206455
  C      1.164337   -0.685796   -0.553041
  O      2.388485   -0.628542    0.132765
  O      0.222782    1.359207    0.251303
  O     -2.350220    0.246648    0.321086
  H     -1.473600   -1.432014   -0.523862
  H     -1.335798    0.075100   -1.479226
  H     -0.031408   -0.429469    1.235010
  H      1.325881   -0.141642   -1.485474
  H      0.900936   -1.727067   -0.782523
  H      2.291171   -1.039814    1.003544
  H     -0.572994    1.773720    0.618040
  H     -3.212194    0.094819   -0.088470

 Total Charge           Charge          ....    0
 Multiplicity           Mult            ....    1
 Number of Electrons    NEL             ....   50
 Basis Dimension        Dim             ....  169

ORBITAL ENERGIES
----------------

  NO   OCC          E(Eh)            E(eV)
   0   2.0000     -18.956412      -515.8302
   1   2.0000     -18.954908      -515.7893
   2   2.0000     -18.954068      -515.7664
   3   2.0000     -10.081192      -274.3232
   4   2.0000     -10.074501      -274.1411
   5   2.0000     -10.073450      -274.1125
   6   2.0000      -1.006607       -27.3912
   7   2.0000      -0.991437       -26.9784
   8   2.0000      -0.978635       -26.6300
   9   2.0000      -0.725307       -19.7366
  10   2.0000      -0.637363       -17.3435
  11   2.0000      -0.566730       -15.4215
  12   2.0000      -0.496320       -13.5056
  13   2.0000      -0.492628       -13.4051
  14   2.0000      -0.450886       -12.2692
  15   2.0000      -0.430431       -11.7126
  16   2.0000      -0.404050       -10.9948
  17   2.0000      -0.392002       -10.6669
  18   2.0000      -0.367133        -9.9902
  19   2.0000      -0.334229        -9.0948
  20   2.0000      -0.323317        -8.7979
  21   2.0000      -0.291913        -7.9434
  22   2.0000      -0.248899        -6.7729
  23   2.0000      -0.246182        -6.6990
  24   2.0000      -0.241302        -6.5662
  25   0.0000       0.060527         1.6470
  26   0.0000       0.078798         2.1442
  27   0.0000       0.096895         2.6367
  28   0.0000       0.118995         3.2380
  29   0.0000       0.131885         3.5888

MULLIKEN ATOMIC CHARGES
-----------------------
   0 C :   -0.177345
   1 C :    0.088695
   2 C :   -0.212919
   3 O :   -0.488327
   4 O :   -0.502701
   5 O :   -0.507734
   6 H :    0.148033
   7 H :    0.148290
   8 H :    0.144782
   9 H :    0.163279
  10 H :    0.146353
  11 H :    0.351620
  12 H :    0.347924
  13 H :    0.350050
Sum of atomic charges:    0.0000000

LOEWDIN ATOMIC CHARGES
----------------------
   0 C :    0.028719
   1 C :    0.075819
   2 C :    0.028202
   3 O :   -0.628727
   4 O :   -0.620214
   5 O :   -0.644620
   6 H :    0.174449
   7 H :    0.173280
   8 H :    0.180072
   9 H :    0.191170
  10 H :    0.174895
  11 H :    0.285650
  12 H :    0.292024
  13 H :    0.289281

  Mayer bond orders larger than 0.100000
B(  0-C ,  1-C ) :   0.9529 B(  0-C ,  5-O ) :   0.9327 B(  0-C ,  6-H ) :   0.9552
B(  0-C ,  7-H ) :   0.9600 B(  1-C ,  2-C ) :   0.9357 B(  1-C ,  4-O ) :   0.8642
B(  1-C ,  8-H ) :   0.9315 B(  2-C ,  3-O ) :   0.9700 B(  2-C ,  9-H ) :   0.9674
B(  2-C , 10-H ) :   0.9647 B(  3-O , 11-H ) :   0.8657 B(  4-O , 12-H ) :   0.8582
B(  5-O , 13-H ) :   0.8711

Dispersion correction           -0.002953493
FINAL SINGLE POINT ENERGY      -344.744541858419

DIPOLE MOMENT
-------------

Method             : SCF
Type of density    : Electron Density
Multiplicity       :   1
Irrep              :   0
Energy             :  -344.7520579676047987 Eh
Relativity type    :
Basis              : AO
                                X                 Y                 Z
Electronic contribution:      0.345752996       1.469552294       1.272379361
Nuclear contribution   :     -1.973799721      -2.637108889      -1.399566087
                        -----------------------------------------
Total Dipole Moment    :     -1.628046725      -1.167556595      -0.127186726
                        -----------------------------------------
Magnitude (a.u.)       :      2.007461334
Magnitude (Debye)      :      5.102561203

Rotational constants in cm-1:             0.260623             0.064631             0.056338
Rotational constants in MHz :          7813.290185          1937.596118          1688.974755

                             ****ORCA TERMINATED NORMALLY****
TOTAL RUN TIME: 0 days 0 hours 0 minutes 23 seconds 534 msec
