                         Program Version 6.0.0  -   RELEASE  -
|  1> ! pbe def2-sv(p) def2/J RI DEFGRID1 loosescf d4 GCP(DFT/SV(P)) printgap
|  2> %output
|  3>     printlevel normal
|  4> end
|  5> * xyz 0 1
|  6> C -3.5746325138 -0.3211824641 -0.2526208374
|  7> C -2.1799881956 -0.6011824076 0.2952393099
|  8> C -1.1738409815 0.4553212335 -0.157646853
|  9> C 0.2181797798 0.2458626763 0.4356205157
| 10> C 0.8983324176 -1.0486039744 -0.0277200811
| 11> C 2.3855718054 -0.7482123686 0.1221832383
| 12> C 2.5004159463 0.6796304999 -0.4082369975
| 13> C 1.2031848352 1.369766905 0.0419401488
| 14> H -4.2766464389 -1.0816059116 0.0806728143
| 15> H -3.9303806984 0.6486292499 0.08843941
| 16> H -3.5624010373 -0.3175107013 -1.3402906564
| 17> H -2.216040308 -0.618240077 1.3870144372
| 18> H -1.8511373163 -1.5857189552 -0.0417224979
| 19> H -1.106053262 0.4445307584 -1.2484226679
| 20> H -1.5389416231 1.4411697107 0.142236249
| 21> H 0.1259440729 0.2177812487 1.5262981973
| 22> H 0.5865562098 -1.9134943136 0.5555869546
| 23> H 0.6640123188 -1.2342070952 -1.0776188808
| 24> H 2.6651112836 -0.7812543182 1.1765304449
| 25> H 3.0152600277 -1.4488938407 -0.4243250881
| 26> H 3.3880072585 1.1890016139 -0.0358805513
| 27> H 2.5553273839 0.6588893387 -1.4974184122
| 28> H 1.3869895066 2.0282697199 0.890435437
| 29> H 0.7907647068 1.9784630768 -0.7625825837
| 30> *
| 31>
| 32>                          ****END OF INPUT****

CARTESIAN COORDINATES (ANGSTROEM)
---------------------------------
  C     -3.574633   -0.321182   -0.252621
  C     -2.179988   -0.601182    0.295239
  C     -1.173841    0.455321   -0.157647
  C      0.218180    0.245863    0.435621
  C      0.898332   -1.048604   -0.027720
  C      2.385572   -0.748212    0.122183
  C      2.500416    0.679630   -0.408237
  C      1.203185    1.369767    0.041940
  H     -4.276646   -1.081606    0.080673
  H     -3.930381    0.648629    0.088439
  H     -3.562401   -0.317511   -1.340291
  H     -2.216040   -0.618240    1.387014
  H     -1.851137   -1.585719   -0.041722
  H     -1.106053    0.444531   -1.248423
  H     -1.538942    1.441170    0.142236
  H      0.125944    0.217781    1.526298
  H      0.586556   -1.913494    0.555587
  H      0.664012   -1.234207   -1.077619
  H      2.665111   -0.781254    1.176530
  H      3.015260   -1.448894   -0.424325
  H      3.388007    1.189002   -0.035881
  H      2.555327    0.658889   -1.497418
  H      1.386990    2.028270    0.890435
  H      0.790765    1.978463   -0.762583

 Total Charge           Charge          ....    0
 Multiplicity           Mult            ....    1
 Number of Electrons    NEL             ....   64
 Basis Dimension        Dim             ....  144

ORBITAL ENERGIES
----------------

  NO   OCC          E(Eh)            E(eV)
   0   2.0000      -9.883568      -268.9456
   1   2.0000      -9.878018      -268.7945
   2   2.0000      -9.876457      -268.7521
   3   2.0000      -9.875393      -268.7231
   4   2.0000      -9.874609      -268.7018
   5   2.0000      -9.873974      -268.6845
   6   2.0000      -9.872588      -268.6468
   7   2.0000      -9.869041      -268.5502
   8   2.0000      -0.758258       -20.6333
   9   2.0000      -0.704515       -19.1708
  10   2.0000      -0.645514       -17.5653
  11   2.0000      -0.629648       -17.1336
  12   2.0000      -0.578436       -15.7400
  13   2.0000      -0.519606       -14.1392
  14   2.0000      -0.500763       -13.6264
  15   2.0000      -0.485383       -13.2080
  16   2.0000      -0.431108       -11.7311
  17   2.0000      -0.417968       -11.3735
  18   2.0000      -0.411124       -11.1872
  19   2.0000      -0.374553       -10.1921
  20   2.0000      -0.366599        -9.9757
  21   2.0000      -0.356728        -9.7071
  22   2.0000      -0.337291        -9.1782
  23   2.0000      -0.326026        -8.8716
  24   2.0000      -0.303570        -8.2605
  25   2.0000      -0.290330        -7.9003
  26   2.0000      -0.289464        -7.8767
  27   2.0000      -0.285251        -7.7621
  28   2.0000      -0.278914        -7.5896
  29   2.0000      -0.269508        -7.3337
  30   2.0000      -0.265943        -7.2367
  31   2.0000      -0.260304        -7.0832
  32   0.0000       0.032688         0.8895
  33   0.0000       0.044912         1.2221
  34   0.0000       0.048631         1.3233
  35   0.0000       0.071812         1.9541
  36   0.0000       0.083863         2.2820

MULLIKEN ATOMIC CHARGES
-----------------------
   0 C :   -0.250574
   1 C :   -0.193371
   2 C :   -0.137561
   3 C :   -0.186449
   4 C :   -0.140390
   5 C :   -0.140995
   6 C :   -0.169045
   7 C :   -0.083529
   8 H :    0.099615
   9 H :    0.095063
  10 H :    0.094479
  11 H :    0.080326
  12 H :    0.091502
  13 H :    0.071731
  14 H :    0.077971
  15 H :    0.059051
  16 H :    0.090849
  17 H :    0.071813
  18 H :    0.076917
  19 H :    0.085737
  20 H :    0.082729
  21 H :    0.076429
  22 H :    0.075700
  23 H :    0.072000
Sum of atomic charges:   -0.0000000

LOEWDIN ATOMIC CHARGES
----------------------
   0 C :   -0.339324
   1 C :   -0.234949
   2 C :   -0.217302
   3 C :   -0.144945
   4 C :   -0.222792
   5 C :   -0.227408
   6 C :   -0.229246
   7 C :   -0.222265
   8 H :    0.117431
   9 H :    0.115691
  10 H :    0.116171
  11 H :    0.113405
  12 H :    0.114795
  13 H :    0.110712
  14 H :    0.112623
  15 H :    0.113377
  16 H :    0.115913
  17 H :    0.113575
  18 H :    0.114752
  19 H :    0.114718
  20 H :    0.115698
  21 H :    0.115475
  22 H :    0.117663
  23 H :    0.116228

  Mayer bond orders larger than 0.100000
B(  0-C ,  1-C ) :   1.1562 B(  0-C ,  8-H ) :   0.9530 B(  0-C ,  9-H ) :   0.9542
B(  0-C , 10-H ) :   0.9540 B(  1-C ,  2-C ) :   1.1368 B(  1-C , 11-H ) :   0.9253
B(  1-C , 12-H ) :   0.9205 B(  2-C ,  3-C ) :   1.0971 B(  2-C , 13-H ) :   0.9075
B(  2-C , 14-H ) :   0.9203 B(  3-C ,  4-C ) :   1.1209 B(  3-C ,  7-C ) :   1.1149
B(  3-C , 15-H ) :   0.8889 B(  4-C ,  5-C ) :   1.1121 B(  4-C , 16-H ) :   0.9196
B(  4-C , 17-H ) :   0.9126 B(  5-C ,  6-C ) :   1.1496 B(  5-C , 18-H ) :   0.9189
B(  5-C , 19-H ) :   0.9283 B(  6-C ,  7-C ) :   1.1644 B(  6-C , 20-H ) :   0.9239
B(  6-C , 21-H ) :   0.9185 B(  7-C , 22-H ) :   0.9140 B(  7-C , 23-H ) :   0.9146

Dispersion correction           -0.020374084
FINAL SINGLE POINT ENERGY      -313.694058872165

DIPOLE MOMENT
-------------

Method             : SCF
Type of density    : Electron Density
Multiplicity       :   1
Irrep              :   0
Energy             :  -313.7753261903833959 Eh
Relativity type    :
Basis              : AO
                                X                 Y                 Z
Electronic contribution:      3.112526774       0.333332694       0.583039173
Nuclear contribution   :     -3.099341607      -0.351051693      -0.545117189
                        -----------------------------------------
Total Dipole Moment    :      0.013185167      -0.017718999       0.037921984
                        -----------------------------------------
Magnitude (a.u.)       :      0.043884945
Magnitude (Debye)      :      0.111546666

Rotational constants in cm-1:             0.169820             0.032490             0.029214
Rotational constants in MHz :          5091.069500           974.013420           875.807695

                             ****ORCA TERMINATED NORMALLY****
TOTAL RUN TIME: 0 days 0 hours 0 minutes 11 seconds 42 msec
