                         Program Version 6.0.0  -   RELEASE  -
|  1> ! r2scan-3c def2/J RI DEFGRID2 scfconv6 printgap
|  2> %output
|  3>     printlevel normal
|  4> end
|  5> * xyz 0 1
|  6> C 2.8345900132 -0.281621201 0.1736646886
|  7> C 1.5159518455 0.292117123 -0.3324331468
|  8> C 0.3207610393 -0.4825018544 0.2215629499
|  9> C -1.0284052759 -0.0014503423 -0.3291965577
| 10> H -0.9690582193 0.050504345 -1.4294742346
| 11> C -2.1510860733 -0.9589924368 0.0604824503
| 12> O -1.385851751 1.2772929759 0.1735513857
| 13> H 2.9393145188 -1.3204043643 -0.1305698527
| 14> H 2.8766323411 -0.2370904896 1.2594615459
| 15> H 3.6741188291 0.2809894846 -0.2269503278
| 16> H 1.4517086994 1.3410838192 -0.0351964579
| 17> H 1.4977756966 0.249858807 -1.4243134285
| 18> H 0.433313388 -1.5376745225 -0.0321722641
| 19> H 0.2985453056 -0.3963679792 1.3100634168
| 20> H -3.1009291525 -0.5693314036 -0.2951917005
| 21> H -1.9789199637 -1.938448384 -0.374121748
| 22> H -2.1982641463 -1.0455713242 1.1426618976
| 23> H -0.7029375719 1.9169953556 -0.0652361707
| 24> *
| 25>
| 26>                          ****END OF INPUT****

CARTESIAN COORDINATES (ANGSTROEM)
---------------------------------
  C      2.834590   -0.281621    0.173665
  C      1.515952    0.292117   -0.332433
  C      0.320761   -0.482502    0.221563
  C     -1.028405   -0.001450   -0.329197
  H     -0.969058    0.050504   -1.429474
  C     -2.151086   -0.958992    0.060482
  O     -1.385852    1.277293    0.173551
  H      2.939315   -1.320404   -0.130570
  H      2.876632   -0.237090    1.259462
  H      3.674119    0.280989   -0.226950
  H      1.451709    1.341084   -0.035196
  H      1.497776    0.249859   -1.424313
  H      0.433313   -1.537675   -0.032172
  H      0.298545   -0.396368    1.310063
  H     -3.100929   -0.569331   -0.295192
  H     -1.978920   -1.938448   -0.374122
  H     -2.198264   -1.045571    1.142662
  H     -0.702938    1.916995   -0.065236

 Total Charge           Charge          ....    0
 Multiplicity           Mult            ....    1
 Number of Electrons    NEL             ....   50
 Basis Dimension        Dim             ....  179

ORBITAL ENERGIES
----------------

  NO   OCC          E(Eh)            E(eV)
   0   2.0000     -18.943069      -515.4671
   1   2.0000     -10.078846      -274.2594
   2   2.0000     -10.031846      -272.9804
   3   2.0000     -10.023653      -272.7575
   4   2.0000     -10.020612      -272.6747
   5   2.0000     -10.013961      -272.4937
   6   2.0000      -0.980900       -26.6916
   7   2.0000      -0.765355       -20.8264
   8   2.0000      -0.716924       -19.5085
   9   2.0000      -0.648428       -17.6446
  10   2.0000      -0.569009       -15.4835
  11   2.0000      -0.545341       -14.8395
  12   2.0000      -0.481732       -13.1086
  13   2.0000      -0.439403       -11.9568
  14   2.0000      -0.419902       -11.4261
  15   2.0000      -0.391170       -10.6443
  16   2.0000      -0.367386        -9.9971
  17   2.0000      -0.352768        -9.5993
  18   2.0000      -0.351359        -9.5610
  19   2.0000      -0.341981        -9.3058
  20   2.0000      -0.318182        -8.6582
  21   2.0000      -0.309764        -8.4291
  22   2.0000      -0.303215        -8.2509
  23   2.0000      -0.278686        -7.5834
  24   2.0000      -0.231991        -6.3128
  25   0.0000       0.061597         1.6761
  26   0.0000       0.098893         2.6910
  27   0.0000       0.110924         3.0184
  28   0.0000       0.126335         3.4378
  29   0.0000       0.131415         3.5760

MULLIKEN ATOMIC CHARGES
-----------------------
   0 C :   -0.473568
   1 C :   -0.246265
   2 C :   -0.284806
   3 C :    0.066949
   4 H :    0.127111
   5 C :   -0.489383
   6 O :   -0.425837
   7 H :    0.143127
   8 H :    0.144886
   9 H :    0.147373
  10 H :    0.122812
  11 H :    0.144457
  12 H :    0.131617
  13 H :    0.157124
  14 H :    0.157342
  15 H :    0.141445
  16 H :    0.149448
  17 H :    0.286168
Sum of atomic charges:   -0.0000000

LOEWDIN ATOMIC CHARGES
----------------------
   0 C :   -0.421786
   1 C :   -0.317429
   2 C :   -0.292981
   3 C :    0.048114
   4 H :    0.159663
   5 C :   -0.383809
   6 O :   -0.615666
   7 H :    0.150389
   8 H :    0.151376
   9 H :    0.150175
  10 H :    0.146079
  11 H :    0.152835
  12 H :    0.161106
  13 H :    0.166377
  14 H :    0.162444
  15 H :    0.155502
  16 H :    0.161110
  17 H :    0.266499

  Mayer bond orders larger than 0.100000
B(  0-C ,  1-C ) :   0.9093 B(  0-C ,  7-H ) :   0.9852 B(  0-C ,  8-H ) :   0.9820
B(  0-C ,  9-H ) :   0.9751 B(  1-C ,  2-C ) :   0.9140 B(  1-C , 10-H ) :   0.9607
B(  1-C , 11-H ) :   0.9751 B(  2-C ,  3-C ) :   0.9070 B(  2-C , 12-H ) :   0.9766
B(  2-C , 13-H ) :   0.9712 B(  3-C ,  4-H ) :   0.9621 B(  3-C ,  5-C ) :   0.9367
B(  3-C ,  6-O ) :   0.8507 B(  5-C , 14-H ) :   0.9720 B(  5-C , 15-H ) :   0.9785
B(  5-C , 16-H ) :   0.9801 B(  6-O , 17-H ) :   0.8997

Dispersion correction           -0.004119887
FINAL SINGLE POINT ENERGY      -272.903382036346

DIPOLE MOMENT
-------------

Method             : SCF
Type of density    : Electron Density
Multiplicity       :   1
Irrep              :   0
Energy             :  -272.9087225786298632 Eh
Relativity type    :
Basis              : AO
                                X                 Y                 Z
Electronic contribution:     -3.393597419       2.829098620      -0.007443684
Nuclear contribution   :      3.939703200      -2.988287242      -0.279848564
                        -----------------------------------------
Total Dipole Moment    :      0.546105781      -0.159188622      -0.287292248
                        -----------------------------------------
Magnitude (a.u.)       :      0.637267116
Magnitude (Debye)      :      1.619804280

Rotational constants in cm-1:             0.240142             0.057566             0.050044
Rotational constants in MHz :          7199.264215          1725.789042          1500.277440

                             ****ORCA TERMINATED NORMALLY****
TOTAL RUN TIME: 0 days 0 hours 0 minutes 22 seconds 346 msec
