                         Program Version 6.0.0  -   RELEASE  -
|  1> ! r2scan-3c def2/J RI DEFGRID2 scfconv6 printgap
|  2> %output
|  3>     printlevel normal
|  4> end
|  5> %cpcm
|  6>     smd true
|  7>     smdsolvent "water"
|  8> end
|  9> * xyz 0 1
| 10> C 2.8345900132 -0.281621201 0.1736646886
| 11> C 1.5159518455 0.292117123 -0.3324331468
| 12> C 0.3207610393 -0.4825018544 0.2215629499
| 13> C -1.0284052759 -0.0014503423 -0.3291965577
| 14> H -0.9690582193 0.050504345 -1.4294742346
| 15> C -2.1510860733 -0.9589924368 0.0604824503
| 16> O -1.385851751 1.2772929759 0.1735513857
| 17> H 2.9393145188 -1.3204043643 -0.1305698527
| 18> H 2.8766323411 -0.2370904896 1.2594615459
| 19> H 3.6741188291 0.2809894846 -0.2269503278
| 20> H 1.4517086994 1.3410838192 -0.0351964579
| 21> H 1.4977756966 0.249858807 -1.4243134285
| 22> H 0.433313388 -1.5376745225 -0.0321722641
| 23> H 0.2985453056 -0.3963679792 1.3100634168
| 24> H -3.1009291525 -0.5693314036 -0.2951917005
| 25> H -1.9789199637 -1.938448384 -0.374121748
| 26> H -2.1982641463 -1.0455713242 1.1426618976
| 27> H -0.7029375719 1.9169953556 -0.0652361707
| 28> *
| 29>
| 30>                          ****END OF INPUT****

CARTESIAN COORDINATES (ANGSTROEM)
---------------------------------
  C      2.834590   -0.281621    0.173665
  C      1.515952    0.292117   -0.332433
  C      0.320761   -0.482502    0.221563
  C     -1.028405   -0.001450   -0.329197
  H     -0.969058    0.050504   -1.429474
  C     -2.151086   -0.958992    0.060482
  O     -1.385852    1.277293    0.173551
  H      2.939315   -1.320404   -0.130570
  H      2.876632   -0.237090    1.259462
  H      3.674119    0.280989   -0.226950
  H      1.451709    1.341084   -0.035196
  H      1.497776    0.249859   -1.424313
  H      0.433313   -1.537675   -0.032172
  H      0.298545   -0.396368    1.310063
  H     -3.100929   -0.569331   -0.295192
  H     -1.978920   -1.938448   -0.374122
  H     -2.198264   -1.045571    1.142662
  H     -0.702938    1.916995   -0.065236

 Total Charge           Charge          ....    0
 Multiplicity           Mult            ....    1
 Number of Electrons    NEL             ....   50
 Basis Dimension        Dim             ....  179

ORBITAL ENERGIES
----------------

  NO   OCC          E(Eh)            E(eV)
   0   2.0000     -18.948334      -515.6104
   1   2.0000     -10.074582      -274.1433
   2   2.0000     -10.017780      -272.5977
   3   2.0000     -10.014233      -272.5011
   4   2.0000     -10.009763      -272.3795
   5   2.0000     -10.008394      -272.3422
   6   2.0000      -0.985014       -26.8036
   7   2.0000      -0.755526       -20.5589
   8   2.0000      -0.710543       -19.3349
   9   2.0000      -0.640330       -17.4243
  10   2.0000      -0.561209       -15.2713
  11   2.0000      -0.538066       -14.6415
  12   2.0000      -0.478979       -13.0337
  13   2.0000      -0.430043       -11.7021
  14   2.0000      -0.411849       -11.2070
  15   2.0000      -0.386377       -10.5138
  16   2.0000      -0.359578        -9.7846
  17   2.0000      -0.348076        -9.4716
  18   2.0000      -0.343142        -9.3374
  19   2.0000      -0.338874        -9.2212
  20   2.0000      -0.313753        -8.5376
  21   2.0000      -0.301961        -8.2168
  22   2.0000      -0.290566        -7.9067
  23   2.0000      -0.274829        -7.4785
  24   2.0000      -0.236644        -6.4394
  25   0.0000       0.077936         2.1207
  26   0.0000       0.109484         2.9792
  27   0.0000       0.120782         3.2866
  28   0.0000       0.138067         3.7570
  29   0.0000       0.139484         3.7956

MULLIKEN ATOMIC CHARGES
-----------------------
   0 C :   -0.515673
   1 C :   -0.246274
   2 C :   -0.313572
   3 C :    0.083852
   4 H :    0.140352
   5 C :   -0.534453
   6 O :   -0.515205
   7 H :    0.154228
   8 H :    0.154160
   9 H :    0.156982
  10 H :    0.144554
  11 H :    0.152013
  12 H :    0.148616
  13 H :    0.160899
  14 H :    0.162029
  15 H :    0.165317
  16 H :    0.160058
  17 H :    0.342119
Sum of atomic charges:   -0.0000000

LOEWDIN ATOMIC CHARGES
----------------------
   0 C :   -0.431296
   1 C :   -0.316484
   2 C :   -0.293162
   3 C :    0.048668
   4 H :    0.167418
   5 C :   -0.393928
   6 O :   -0.653406
   7 H :    0.152453
   8 H :    0.152799
   9 H :    0.152340
  10 H :    0.153700
  11 H :    0.155884
  12 H :    0.167011
  13 H :    0.166021
  14 H :    0.161274
  15 H :    0.164502
  16 H :    0.161817
  17 H :    0.284387

  Mayer bond orders larger than 0.100000
B(  0-C ,  1-C ) :   0.8923 B(  0-C ,  7-H ) :   0.9825 B(  0-C ,  8-H ) :   0.9806
B(  0-C ,  9-H ) :   0.9729 B(  1-C ,  2-C ) :   0.9131 B(  1-C , 10-H ) :   0.9601
B(  1-C , 11-H ) :   0.9734 B(  2-C ,  3-C ) :   0.9218 B(  2-C , 12-H ) :   0.9732
B(  2-C , 13-H ) :   0.9731 B(  3-C ,  4-H ) :   0.9558 B(  3-C ,  5-C ) :   0.9234
B(  3-C ,  6-O ) :   0.8360 B(  5-C , 14-H ) :   0.9718 B(  5-C , 15-H ) :   0.9719
B(  5-C , 16-H ) :   0.9773 B(  6-O , 17-H ) :   0.8740

Dispersion correction           -0.004119887
FINAL SINGLE POINT ENERGY      -272.909634776673

DIPOLE MOMENT
-------------

Method             : SCF
Type of density    : Electron Density
Multiplicity       :   1
Irrep              :   0
Energy             :  -272.9149753189572607 Eh
Relativity type    :
Basis              : AO
                                X                 Y                 Z
Electronic contribution:     -3.183988828       2.778305038      -0.172169092
Nuclear contribution   :      3.939703200      -2.988287242      -0.279848564
                        -----------------------------------------
Total Dipole Moment    :      0.755714371      -0.209982204      -0.452017656
                        -----------------------------------------
Magnitude (a.u.)       :      0.905271616
Magnitude (Debye)      :      2.301017582

Rotational constants in cm-1:             0.240142             0.057566             0.050044
Rotational constants in MHz :          7199.264215          1725.789042          1500.277440

                             ****ORCA TERMINATED NORMALLY****
TOTAL RUN TIME: 0 days 0 hours 0 minutes 25 seconds 503 msec
