                         Program Version 6.0.0  -   RELEASE  -
|  1> ! pbe def2-sv(p) def2/J RI DEFGRID1 loosescf d4 GCP(DFT/SV(P)) printgap
|  2> %output
|  3>     printlevel normal
|  4> end
|  5> * xyz 0 1
|  6> C -1.0237933174 -0.271885256 -0.4861105071
|  7> C 0.1167081844 0.4078051185 0.275328738
|  8> C 1.4824289515 -0.0978635443 -0.2303620548
|  9> O 1.6484706495 -1.4845033815 -0.0727560221
| 10> O 0.0029054789 1.8016532567 0.0863598704
| 11> O -2.1626414831 -0.3217397592 0.3458370522
| 12> H -0.7052649381 -1.28474442 -0.7638959456
| 13> H -1.220339617 0.3135324512 -1.3915559248
| 14> H -0.0060104499 0.1553886376 1.3394375835
| 15> H 2.2846863591 0.4511041301 0.2798347774
| 16> H 1.557216241 0.0981360756 -1.3026707737
| 17> H 1.6460231585 -1.7045236598 0.8698211165
| 18> H 0.6121304928 2.2651956387 0.677368589
| 19> H -2.9088049296 -0.6747153683 -0.1571540481
| 20> *
| 21>
| 22>                          ****END OF INPUT****

CARTESIAN COORDINATES (ANGSTROEM)
---------------------------------
  C     -1.023793   -0.271885   -0.486111
  C      0.116708    0.407805    0.275329
  C      1.482429   -0.097864   -0.230362
  O      1.648471   -1.484503   -0.072756
  O      0.002905    1.801653    0.086360
  O     -2.162641   -0.321740    0.345837
  H     -0.705265   -1.284744   -0.763896
  H     -1.220340    0.313532   -1.391556
  H     -0.006010    0.155389    1.339438
  H      2.284686    0.451104    0.279835
  H      1.557216    0.098136   -1.302671
  H      1.646023   -1.704524    0.869821
  H      0.612130    2.265196    0.677369
  H     -2.908805   -0.674715   -0.157154

 Total Charge           Charge          ....    0
 Multiplicity           Mult            ....    1
 Number of Electrons    NEL             ....   50
 Basis Dimension        Dim             ....  100

ORBITAL ENERGIES
----------------

  NO   OCC          E(Eh)            E(eV)
   0   2.0000     -18.752279      -510.2755
   1   2.0000     -18.747111      -510.1348
   2   2.0000     -18.737040      -509.8608
   3   2.0000      -9.936035      -270.3733
   4   2.0000      -9.931307      -270.2446
   5   2.0000      -9.921999      -269.9913
   6   2.0000      -0.933874       -25.4120
   7   2.0000      -0.921913       -25.0865
   8   2.0000      -0.908589       -24.7240
   9   2.0000      -0.677917       -18.4471
  10   2.0000      -0.603613       -16.4251
  11   2.0000      -0.532460       -14.4890
  12   2.0000      -0.481880       -13.1126
  13   2.0000      -0.465023       -12.6539
  14   2.0000      -0.450270       -12.2525
  15   2.0000      -0.399600       -10.8737
  16   2.0000      -0.370201       -10.0737
  17   2.0000      -0.360790        -9.8176
  18   2.0000      -0.354871        -9.6565
  19   2.0000      -0.300829        -8.1860
  20   2.0000      -0.282503        -7.6873
  21   2.0000      -0.269805        -7.3418
  22   2.0000      -0.240062        -6.5324
  23   2.0000      -0.206230        -5.6118
  24   2.0000      -0.205344        -5.5877
  25   0.0000       0.019868         0.5406
  26   0.0000       0.028810         0.7840
  27   0.0000       0.037493         1.0202
  28   0.0000       0.073994         2.0135
  29   0.0000       0.103973         2.8292

MULLIKEN ATOMIC CHARGES
-----------------------
   0 C :    0.025914
   1 C :   -0.019155
   2 C :    0.010155
   3 O :   -0.424976
   4 O :   -0.417744
   5 O :   -0.438287
   6 H :    0.080973
   7 H :    0.075732
   8 H :    0.059728
   9 H :    0.065085
  10 H :    0.091346
  11 H :    0.298101
  12 H :    0.295998
  13 H :    0.297128
Sum of atomic charges:    0.0000000

LOEWDIN ATOMIC CHARGES
----------------------
   0 C :   -0.129995
   1 C :   -0.089585
   2 C :   -0.141823
   3 O :   -0.329867
   4 O :   -0.321566
   5 O :   -0.347326
   6 H :    0.099232
   7 H :    0.103422
   8 H :    0.097256
   9 H :    0.091039
  10 H :    0.116780
  11 H :    0.284354
  12 H :    0.283547
  13 H :    0.284532

  Mayer bond orders larger than 0.100000
B(  0-C ,  1-C ) :   1.0508 B(  0-C ,  5-O ) :   1.0890 B(  0-C ,  6-H ) :   0.9154
B(  0-C ,  7-H ) :   0.9063 B(  1-C ,  2-C ) :   1.0114 B(  1-C ,  4-O ) :   1.0623
B(  1-C ,  8-H ) :   0.9041 B(  2-C ,  3-O ) :   1.0515 B(  2-C ,  9-H ) :   0.9233
B(  2-C , 10-H ) :   0.9171 B(  3-O , 11-H ) :   0.8509 B(  4-O , 12-H ) :   0.8502
B(  5-O , 13-H ) :   0.8532

Dispersion correction           -0.008953831
FINAL SINGLE POINT ENERGY      -344.002748008118

DIPOLE MOMENT
-------------

Method             : SCF
Type of density    : Electron Density
Multiplicity       :   1
Irrep              :   0
Energy             :  -344.0754433584701815 Eh
Relativity type    :
Basis              : AO
                                X                 Y                 Z
Electronic contribution:     -0.921304998       0.302074040       0.769149987
Nuclear contribution   :      1.174164284      -0.357161828      -0.415727756
                        -----------------------------------------
Total Dipole Moment    :      0.252859285      -0.055087788       0.353422231
                        -----------------------------------------
Magnitude (a.u.)       :      0.438040815
Magnitude (Debye)      :      1.113411268

Rotational constants in cm-1:             0.154545             0.084650             0.059785
Rotational constants in MHz :          4633.130767          2537.744270          1792.301788

                             ****ORCA TERMINATED NORMALLY****
TOTAL RUN TIME: 0 days 0 hours 0 minutes 6 seconds 634 msec
