                         Program Version 6.0.0  -   RELEASE  -
|  1> ! pbe def2-sv(p) def2/J RI DEFGRID1 loosescf d4 GCP(DFT/SV(P)) printgap
|  2> %output
|  3>     printlevel normal
|  4> end
|  5> * xyz 0 1
|  6> C -2.3505640901 -0.2085978567 -0.1684804287
|  7> O -1.1082505955 0.0341484844 0.4562022511
|  8> C -0.0678764878 0.2926019792 -0.4658217997
|  9> C 1.2437597578 0.4660392555 0.3041408573
| 10> O 2.1566464207 -0.5206277699 -0.1292281749
| 11> H -2.2955557886 -1.0885380027 -0.8184883966
| 12> H -2.6632758514 0.6565905646 -0.7632299729
| 13> H -3.0639119461 -0.3839452965 0.632456156
| 14> H 0.0492453275 -0.5555534729 -1.1554442786
| 15> H -0.3092236192 1.1894543555 -1.0528500318
| 16> H 1.0158472561 0.3496141229 1.3703050142
| 17> H 1.658802656 1.465776425 0.1313270421
| 18> H 2.9641385531 -0.4657176327 0.3999879355
| 19> *
| 20>
| 21>                          ****END OF INPUT****

CARTESIAN COORDINATES (ANGSTROEM)
---------------------------------
  C     -2.350564   -0.208598   -0.168480
  O     -1.108251    0.034148    0.456202
  C     -0.067876    0.292602   -0.465822
  C      1.243760    0.466039    0.304141
  O      2.156646   -0.520628   -0.129228
  H     -2.295556   -1.088538   -0.818488
  H     -2.663276    0.656591   -0.763230
  H     -3.063912   -0.383945    0.632456
  H      0.049245   -0.555553   -1.155444
  H     -0.309224    1.189454   -1.052850
  H      1.015847    0.349614    1.370305
  H      1.658803    1.465776    0.131327
  H      2.964139   -0.465718    0.399988

 Total Charge           Charge          ....    0
 Multiplicity           Mult            ....    1
 Number of Electrons    NEL             ....   42
 Basis Dimension        Dim             ....   86

ORBITAL ENERGIES
----------------

  NO   OCC          E(Eh)            E(eV)
   0   2.0000     -18.749603      -510.2026
   1   2.0000     -18.741294      -509.9765
   2   2.0000      -9.927815      -270.1496
   3   2.0000      -9.926248      -270.1070
   4   2.0000      -9.922427      -270.0030
   5   2.0000      -0.932116       -25.3642
   6   2.0000      -0.914616       -24.8880
   7   2.0000      -0.675385       -18.3782
   8   2.0000      -0.596000       -16.2180
   9   2.0000      -0.534362       -14.5407
  10   2.0000      -0.470255       -12.7963
  11   2.0000      -0.441925       -12.0254
  12   2.0000      -0.408583       -11.1181
  13   2.0000      -0.405056       -11.0221
  14   2.0000      -0.374225       -10.1832
  15   2.0000      -0.338458        -9.2099
  16   2.0000      -0.336266        -9.1503
  17   2.0000      -0.280662        -7.6372
  18   2.0000      -0.264438        -7.1957
  19   2.0000      -0.211540        -5.7563
  20   2.0000      -0.201498        -5.4830
  21   0.0000       0.029665         0.8072
  22   0.0000       0.042597         1.1591
  23   0.0000       0.076641         2.0855
  24   0.0000       0.096176         2.6171
  25   0.0000       0.100971         2.7476

MULLIKEN ATOMIC CHARGES
-----------------------
   0 C :   -0.101308
   1 O :   -0.349916
   2 C :   -0.005616
   3 C :    0.009607
   4 O :   -0.447479
   5 H :    0.087174
   6 H :    0.082963
   7 H :    0.114897
   8 H :    0.087784
   9 H :    0.066867
  10 H :    0.089438
  11 H :    0.068251
  12 H :    0.297337
Sum of atomic charges:    0.0000000

LOEWDIN ATOMIC CHARGES
----------------------
   0 C :   -0.207372
   1 O :   -0.184154
   2 C :   -0.120100
   3 C :   -0.131756
   4 O :   -0.349643
   5 H :    0.097309
   6 H :    0.095381
   7 H :    0.115398
   8 H :    0.105631
   9 H :    0.095124
  10 H :    0.104887
  11 H :    0.095609
  12 H :    0.283687

  Mayer bond orders larger than 0.100000
B(  0-C ,  1-O ) :   1.0208 B(  0-C ,  5-H ) :   0.9428 B(  0-C ,  6-H ) :   0.9417
B(  0-C ,  7-H ) :   0.9644 B(  1-O ,  2-C ) :   1.0240 B(  2-C ,  3-C ) :   1.0898
B(  2-C ,  8-H ) :   0.9192 B(  2-C ,  9-H ) :   0.9149 B(  3-C ,  4-O ) :   1.0822
B(  3-C , 10-H ) :   0.9290 B(  3-C , 11-H ) :   0.9226 B(  4-O , 12-H ) :   0.8531

Dispersion correction           -0.007044120
FINAL SINGLE POINT ENERGY      -268.928737320062

DIPOLE MOMENT
-------------

Method             : SCF
Type of density    : Electron Density
Multiplicity       :   1
Irrep              :   0
Energy             :  -268.9891864487745465 Eh
Relativity type    :
Basis              : AO
                                X                 Y                 Z
Electronic contribution:      2.572783594      -0.764059379       1.205669711
Nuclear contribution   :     -2.464882668       1.088255407      -1.173425205
                        -----------------------------------------
Total Dipole Moment    :      0.107900926       0.324196029       0.032244506
                        -----------------------------------------
Magnitude (a.u.)       :      0.343198752
Magnitude (Debye)      :      0.872341901

Rotational constants in cm-1:             0.595179             0.074562             0.073331
Rotational constants in MHz :         17843.010722          2235.315265          2198.422001

                             ****ORCA TERMINATED NORMALLY****
TOTAL RUN TIME: 0 days 0 hours 0 minutes 6 seconds 267 msec
