                         Program Version 6.0.0  -   RELEASE  -
|  1> ! pbe def2-sv(p) def2/J RI DEFGRID1 loosescf d4 GCP(DFT/SV(P)) printgap
|  2> %output
|  3>     printlevel normal
|  4> end
|  5> * xyz 0 1
|  6> C -2.5616246564 -0.8308415726 -0.9672299202
|  7> C -2.4829729717 0.4825498713 -0.1992790586
|  8> C -1.5079623603 0.4041522238 0.9838767109
|  9> C -0.0953529347 0.1939511014 0.5192162471
| 10> C 0.5019511003 -1.0586132142 0.5780192488
| 11> C 1.7927655924 -1.25003454 0.1160393289
| 12> C 2.5057204764 -0.1881222646 -0.4132464213
| 13> C 1.9208574614 1.0658723206 -0.4754116574
| 14> C 0.6311064146 1.2532531159 -0.0125342577
| 15> H -2.8959826753 -1.6344764383 -0.3148545811
| 16> H -3.2623101493 -0.7459532653 -1.794284933
| 17> H -1.5857748652 -1.0965695431 -1.3679215527
| 18> H -3.4743374323 0.7414079467 0.1782222614
| 19> H -2.1623821601 1.2782853471 -0.8749756324
| 20> H -1.8078203392 -0.4148296302 1.6401598653
| 21> H -1.5679520146 1.3364008872 1.5498916986
| 22> H -0.0483331375 -1.8922207077 0.9905130372
| 23> H 2.2431414746 -2.2304736234 0.1693552241
| 24> H 3.5127816944 -0.3358678848 -0.7739646685
| 25> H 2.4727906474 1.899628007 -0.884380872
| 26> H 0.1808948682 2.2346646032 -0.0603995898
| 27> *
| 28>
| 29>                          ****END OF INPUT****

CARTESIAN COORDINATES (ANGSTROEM)
---------------------------------
  C     -2.561625   -0.830842   -0.967230
  C     -2.482973    0.482550   -0.199279
  C     -1.507962    0.404152    0.983877
  C     -0.095353    0.193951    0.519216
  C      0.501951   -1.058613    0.578019
  C      1.792766   -1.250035    0.116039
  C      2.505720   -0.188122   -0.413246
  C      1.920857    1.065872   -0.475412
  C      0.631106    1.253253   -0.012534
  H     -2.895983   -1.634476   -0.314855
  H     -3.262310   -0.745953   -1.794285
  H     -1.585775   -1.096570   -1.367922
  H     -3.474337    0.741408    0.178222
  H     -2.162382    1.278285   -0.874976
  H     -1.807820   -0.414830    1.640160
  H     -1.567952    1.336401    1.549892
  H     -0.048333   -1.892221    0.990513
  H      2.243141   -2.230474    0.169355
  H      3.512782   -0.335868   -0.773965
  H      2.472791    1.899628   -0.884381
  H      0.180895    2.234665   -0.060400

 Total Charge           Charge          ....    0
 Multiplicity           Mult            ....    1
 Number of Electrons    NEL             ....   66
 Basis Dimension        Dim             ....  150

ORBITAL ENERGIES
----------------

  NO   OCC          E(Eh)            E(eV)
   0   2.0000      -9.897975      -269.3376
   1   2.0000      -9.888544      -269.0810
   2   2.0000      -9.888121      -269.0694
   3   2.0000      -9.887321      -269.0477
   4   2.0000      -9.887096      -269.0416
   5   2.0000      -9.886790      -269.0332
   6   2.0000      -9.886452      -269.0240
   7   2.0000      -9.886435      -269.0236
   8   2.0000      -9.870737      -268.5964
   9   2.0000      -0.776454       -21.1284
  10   2.0000      -0.719070       -19.5669
  11   2.0000      -0.666453       -18.1351
  12   2.0000      -0.665428       -18.1072
  13   2.0000      -0.606031       -16.4910
  14   2.0000      -0.543593       -14.7919
  15   2.0000      -0.534883       -14.5549
  16   2.0000      -0.505890       -13.7660
  17   2.0000      -0.458895       -12.4872
  18   2.0000      -0.418320       -11.3831
  19   2.0000      -0.410281       -11.1643
  20   2.0000      -0.393237       -10.7005
  21   2.0000      -0.386998       -10.5307
  22   2.0000      -0.370864       -10.0917
  23   2.0000      -0.357770        -9.7354
  24   2.0000      -0.343832        -9.3561
  25   2.0000      -0.327811        -8.9202
  26   2.0000      -0.312048        -8.4913
  27   2.0000      -0.301127        -8.1941
  28   2.0000      -0.296846        -8.0776
  29   2.0000      -0.288128        -7.8404
  30   2.0000      -0.280549        -7.6341
  31   2.0000      -0.226052        -6.1512
  32   2.0000      -0.216958        -5.9037
  33   0.0000      -0.032622        -0.8877
  34   0.0000      -0.029712        -0.8085
  35   0.0000       0.039428         1.0729
  36   0.0000       0.054865         1.4930
  37   0.0000       0.062593         1.7032

MULLIKEN ATOMIC CHARGES
-----------------------
   0 C :   -0.291524
   1 C :   -0.186958
   2 C :   -0.094264
   3 C :    0.057959
   4 C :   -0.114449
   5 C :   -0.049315
   6 C :   -0.050634
   7 C :   -0.047194
   8 C :   -0.115823
   9 H :    0.093877
  10 H :    0.103008
  11 H :    0.123750
  12 H :    0.088672
  13 H :    0.090529
  14 H :    0.078796
  15 H :    0.086577
  16 H :    0.037309
  17 H :    0.049489
  18 H :    0.051127
  19 H :    0.049814
  20 H :    0.039254
Sum of atomic charges:   -0.0000000

LOEWDIN ATOMIC CHARGES
----------------------
   0 C :   -0.344788
   1 C :   -0.226110
   2 C :   -0.210176
   3 C :   -0.038528
   4 C :   -0.125403
   5 C :   -0.122166
   6 C :   -0.129336
   7 C :   -0.121491
   8 C :   -0.122600
   9 H :    0.115321
  10 H :    0.119617
  11 H :    0.123774
  12 H :    0.115265
  13 H :    0.115768
  14 H :    0.118917
  15 H :    0.124158
  16 H :    0.120128
  17 H :    0.122605
  18 H :    0.122276
  19 H :    0.122503
  20 H :    0.120263

  Mayer bond orders larger than 0.100000
B(  0-C ,  1-C ) :   1.1535 B(  0-C ,  9-H ) :   0.9541 B(  0-C , 10-H ) :   0.9510
B(  0-C , 11-H ) :   0.9469 B(  1-C ,  2-C ) :   1.1126 B(  1-C , 12-H ) :   0.9246
B(  1-C , 13-H ) :   0.9266 B(  2-C ,  3-C ) :   1.0676 B(  2-C , 14-H ) :   0.9086
B(  2-C , 15-H ) :   0.9019 B(  3-C ,  4-C ) :   1.3974 B(  3-C ,  8-C ) :   1.3850
B(  4-C ,  5-C ) :   1.3670 B(  4-C , 16-H ) :   0.9601 B(  5-C ,  6-C ) :   1.3841
B(  5-C , 17-H ) :   0.9637 B(  6-C ,  7-C ) :   1.3749 B(  6-C , 18-H ) :   0.9654
B(  7-C ,  8-C ) :   1.3801 B(  7-C , 19-H ) :   0.9637 B(  8-C , 20-H ) :   0.9599

Dispersion correction           -0.021127876
FINAL SINGLE POINT ENERGY      -349.368755521349

DIPOLE MOMENT
-------------

Method             : SCF
Type of density    : Electron Density
Multiplicity       :   1
Irrep              :   0
Energy             :  -349.4287892143350973 Eh
Relativity type    :
Basis              : AO
                                X                 Y                 Z
Electronic contribution:      7.748278018       0.838992946       1.437058182
Nuclear contribution   :     -7.876178906      -0.806827699      -1.447253777
                        -----------------------------------------
Total Dipole Moment    :     -0.127900888       0.032165248      -0.010195595
                        -----------------------------------------
Magnitude (a.u.)       :      0.132276946
Magnitude (Debye)      :      0.336221277

Rotational constants in cm-1:             0.109595             0.036362             0.032467
Rotational constants in MHz :          3285.568398          1090.092661           973.336014

                             ****ORCA TERMINATED NORMALLY****
TOTAL RUN TIME: 0 days 0 hours 0 minutes 10 seconds 561 msec
