                         Program Version 6.0.0  -   RELEASE  -
|  1> ! r2scan-3c def2/J RI DEFGRID2 scfconv6 printgap
|  2> %output
|  3>     printlevel normal
|  4> end
|  5> * xyz 0 1
|  6> C -2.9753218905 -1.1269150629 -0.473463729
|  7> C -1.806419558 -0.387657807 0.1796439455
|  8> C -2.3403607232 0.7096221813 1.0971119803
|  9> C -0.894511473 0.1730376088 -0.9185124778
| 10> C 0.3698017653 0.924259168 -0.4840042457
| 11> C 1.5895729986 0.1187957592 0.0116198297
| 12> C 1.9320335052 -1.0229787827 -0.9481554808
| 13> C 2.7773357355 1.0909537532 0.059280429
| 14> C 1.3867142883 -0.4451524859 1.4201051551
| 15> H -3.6262222342 -1.5577824033 0.2839463651
| 16> H -2.6150699126 -1.9303683725 -1.112230981
| 17> H -3.563641876 -0.4432650418 -1.0821216693
| 18> H -1.2525260671 -1.1083176759 0.7858721277
| 19> H -1.5377058462 1.1768751395 1.660622442
| 20> H -2.8475052929 1.476309548 0.5147891878
| 21> H -3.0504448892 0.2926074375 1.8077507613
| 22> H -0.6149654959 -0.641151105 -1.5884924706
| 23> H -1.4945035581 0.8745273625 -1.5063590547
| 24> H 0.1086909557 1.6572054336 0.281020724
| 25> H 0.7040931921 1.4888069543 -1.3592691941
| 26> H 2.0157420754 -0.6540293801 -1.9680279716
| 27> H 2.8821971248 -1.4723804632 -0.6676571606
| 28> H 1.172628989 -1.8000344892 -0.9193784903
| 29> H 3.6670224023 0.5895342677 0.4336507964
| 30> H 2.9980030846 1.4797740613 -0.9323402904
| 31> H 2.557253626 1.9304701233 0.7152308749
| 32> H 1.056627583 0.3335001765 2.1037883666
| 33> H 2.3240840937 -0.8517527866 1.7948313074
| 34> H 0.6533359344 -1.2452768675 1.4261822909
| 35> *
| 36>
| 37>                          ****END OF INPUT****

CARTESIAN COORDINATES (ANGSTROEM)
---------------------------------
  C     -2.975322   -1.126915   -0.473464
  C     -1.806420   -0.387658    0.179644
  C     -2.340361    0.709622    1.097112
  C     -0.894511    0.173038   -0.918512
  C      0.369802    0.924259   -0.484004
  C      1.589573    0.118796    0.011620
  C      1.932034   -1.022979   -0.948155
  C      2.777336    1.090954    0.059280
  C      1.386714   -0.445152    1.420105
  H     -3.626222   -1.557782    0.283946
  H     -2.615070   -1.930368   -1.112231
  H     -3.563642   -0.443265   -1.082122
  H     -1.252526   -1.108318    0.785872
  H     -1.537706    1.176875    1.660622
  H     -2.847505    1.476310    0.514789
  H     -3.050445    0.292607    1.807751
  H     -0.614965   -0.641151   -1.588492
  H     -1.494504    0.874527   -1.506359
  H      0.108691    1.657205    0.281021
  H      0.704093    1.488807   -1.359269
  H      2.015742   -0.654029   -1.968028
  H      2.882197   -1.472380   -0.667657
  H      1.172629   -1.800034   -0.919378
  H      3.667022    0.589534    0.433651
  H      2.998003    1.479774   -0.932340
  H      2.557254    1.930470    0.715231
  H      1.056628    0.333500    2.103788
  H      2.324084   -0.851753    1.794831
  H      0.653336   -1.245277    1.426182

 Total Charge           Charge          ....    0
 Multiplicity           Mult            ....    1
 Number of Electrons    NEL             ....   74
 Basis Dimension        Dim             ....  271

ORBITAL ENERGIES
----------------

  NO   OCC          E(Eh)            E(eV)
   0   2.0000     -10.039234      -273.1814
   1   2.0000     -10.028720      -272.8954
   2   2.0000     -10.018746      -272.6239
   3   2.0000     -10.018510      -272.6175
   4   2.0000     -10.012321      -272.4491
   5   2.0000     -10.012260      -272.4474
   6   2.0000     -10.011971      -272.4396
   7   2.0000     -10.011454      -272.4255
   8   2.0000     -10.011403      -272.4241
   9   2.0000      -0.794463       -21.6184
  10   2.0000      -0.765154       -20.8209
  11   2.0000      -0.687238       -18.7007
  12   2.0000      -0.650827       -17.7099
  13   2.0000      -0.648772       -17.6540
  14   2.0000      -0.646335       -17.5877
  15   2.0000      -0.593975       -16.1629
  16   2.0000      -0.525406       -14.2970
  17   2.0000      -0.490181       -13.3385
  18   2.0000      -0.441358       -12.0100
  19   2.0000      -0.424913       -11.5625
  20   2.0000      -0.418285       -11.3821
  21   2.0000      -0.403053       -10.9676
  22   2.0000      -0.399393       -10.8680
  23   2.0000      -0.380052       -10.3417
  24   2.0000      -0.363357        -9.8875
  25   2.0000      -0.357944        -9.7401
  26   2.0000      -0.350616        -9.5408
  27   2.0000      -0.341813        -9.3012
  28   2.0000      -0.332614        -9.0509
  29   2.0000      -0.331372        -9.0171
  30   2.0000      -0.321582        -8.7507
  31   2.0000      -0.303308        -8.2534
  32   2.0000      -0.294787        -8.0216
  33   2.0000      -0.293172        -7.9776
  34   2.0000      -0.278068        -7.5666
  35   2.0000      -0.270844        -7.3700
  36   2.0000      -0.267898        -7.2899
  37   0.0000       0.069718         1.8971
  38   0.0000       0.096635         2.6296
  39   0.0000       0.107707         2.9309
  40   0.0000       0.109718         2.9856
  41   0.0000       0.121135         3.2963

MULLIKEN ATOMIC CHARGES
-----------------------
   0 C :   -0.484636
   1 C :    0.016630
   2 C :   -0.514076
   3 C :   -0.340862
   4 C :   -0.313873
   5 C :    0.171550
   6 C :   -0.529493
   7 C :   -0.487298
   8 C :   -0.526058
   9 H :    0.146997
  10 H :    0.143402
  11 H :    0.146784
  12 H :    0.133959
  13 H :    0.148506
  14 H :    0.152740
  15 H :    0.144732
  16 H :    0.153290
  17 H :    0.148369
  18 H :    0.157894
  19 H :    0.149330
  20 H :    0.157844
  21 H :    0.151135
  22 H :    0.157570
  23 H :    0.153784
  24 H :    0.153061
  25 H :    0.151812
  26 H :    0.159062
  27 H :    0.149571
  28 H :    0.148276
Sum of atomic charges:   -0.0000000

LOEWDIN ATOMIC CHARGES
----------------------
   0 C :   -0.417518
   1 C :   -0.248756
   2 C :   -0.418048
   3 C :   -0.299058
   4 C :   -0.292962
   5 C :   -0.210112
   6 C :   -0.409185
   7 C :   -0.410746
   8 C :   -0.408130
   9 H :    0.151621
  10 H :    0.152242
  11 H :    0.153561
  12 H :    0.153323
  13 H :    0.150877
  14 H :    0.154203
  15 H :    0.153750
  16 H :    0.160452
  17 H :    0.159413
  18 H :    0.161379
  19 H :    0.162669
  20 H :    0.157821
  21 H :    0.157327
  22 H :    0.154399
  23 H :    0.153894
  24 H :    0.155193
  25 H :    0.157024
  26 H :    0.156581
  27 H :    0.155904
  28 H :    0.152880

  Mayer bond orders larger than 0.100000
B(  0-C ,  1-C ) :   0.9082 B(  0-C ,  9-H ) :   0.9770 B(  0-C , 10-H ) :   0.9786
B(  0-C , 11-H ) :   0.9872 B(  1-C ,  2-C ) :   0.8915 B(  1-C ,  3-C ) :   0.8942
B(  1-C , 12-H ) :   0.9521 B(  2-C , 13-H ) :   0.9738 B(  2-C , 14-H ) :   0.9876
B(  2-C , 15-H ) :   0.9715 B(  3-C ,  4-C ) :   0.8914 B(  3-C , 16-H ) :   0.9814
B(  3-C , 17-H ) :   0.9887 B(  4-C ,  5-C ) :   0.8652 B(  4-C , 18-H ) :   0.9975
B(  4-C , 19-H ) :   0.9790 B(  5-C ,  6-C ) :   0.9119 B(  5-C ,  7-C ) :   0.9307
B(  5-C ,  8-C ) :   0.9200 B(  6-C , 20-H ) :   0.9762 B(  6-C , 21-H ) :   0.9713
B(  6-C , 22-H ) :   0.9753 B(  7-C , 23-H ) :   0.9810 B(  7-C , 24-H ) :   0.9775
B(  7-C , 25-H ) :   0.9750 B(  8-C , 26-H ) :   0.9804 B(  8-C , 27-H ) :   0.9728
B(  8-C , 28-H ) :   0.9703

Dispersion correction           -0.009290119
FINAL SINGLE POINT ENERGY      -354.885639674151

DIPOLE MOMENT
-------------

Method             : SCF
Type of density    : Electron Density
Multiplicity       :   1
Irrep              :   0
Energy             :  -354.8906765188790473 Eh
Relativity type    :
Basis              : AO
                                X                 Y                 Z
Electronic contribution:      0.453878697       0.370748519      -0.634936052
Nuclear contribution   :     -0.434280824      -0.379719183       0.630264558
                        -----------------------------------------
Total Dipole Moment    :      0.019597873      -0.008970664      -0.004671494
                        -----------------------------------------
Magnitude (a.u.)       :      0.022053850
Magnitude (Debye)      :      0.056056431

Rotational constants in cm-1:             0.089492             0.027977             0.026399
Rotational constants in MHz :          2682.893394           838.728722           791.413918

                             ****ORCA TERMINATED NORMALLY****
TOTAL RUN TIME: 0 days 0 hours 0 minutes 34 seconds 570 msec
