                         Program Version 6.0.0  -   RELEASE  -
|  1> ! r2scan-3c def2/J RI DEFGRID2 scfconv6 printgap
|  2> %output
|  3>     printlevel normal
|  4> end
|  5> %cpcm
|  6>     smd true
|  7>     smdsolvent "water"
|  8> end
|  9> * xyz 0 1
| 10> C -2.9753218905 -1.1269150629 -0.473463729
| 11> C -1.806419558 -0.387657807 0.1796439455
| 12> C -2.3403607232 0.7096221813 1.0971119803
| 13> C -0.894511473 0.1730376088 -0.9185124778
| 14> C 0.3698017653 0.924259168 -0.4840042457
| 15> C 1.5895729986 0.1187957592 0.0116198297
| 16> C 1.9320335052 -1.0229787827 -0.9481554808
| 17> C 2.7773357355 1.0909537532 0.059280429
| 18> C 1.3867142883 -0.4451524859 1.4201051551
| 19> H -3.6262222342 -1.5577824033 0.2839463651
| 20> H -2.6150699126 -1.9303683725 -1.112230981
| 21> H -3.563641876 -0.4432650418 -1.0821216693
| 22> H -1.2525260671 -1.1083176759 0.7858721277
| 23> H -1.5377058462 1.1768751395 1.660622442
| 24> H -2.8475052929 1.476309548 0.5147891878
| 25> H -3.0504448892 0.2926074375 1.8077507613
| 26> H -0.6149654959 -0.641151105 -1.5884924706
| 27> H -1.4945035581 0.8745273625 -1.5063590547
| 28> H 0.1086909557 1.6572054336 0.281020724
| 29> H 0.7040931921 1.4888069543 -1.3592691941
| 30> H 2.0157420754 -0.6540293801 -1.9680279716
| 31> H 2.8821971248 -1.4723804632 -0.6676571606
| 32> H 1.172628989 -1.8000344892 -0.9193784903
| 33> H 3.6670224023 0.5895342677 0.4336507964
| 34> H 2.9980030846 1.4797740613 -0.9323402904
| 35> H 2.557253626 1.9304701233 0.7152308749
| 36> H 1.056627583 0.3335001765 2.1037883666
| 37> H 2.3240840937 -0.8517527866 1.7948313074
| 38> H 0.6533359344 -1.2452768675 1.4261822909
| 39> *
| 40>
| 41>                          ****END OF INPUT****

CARTESIAN COORDINATES (ANGSTROEM)
---------------------------------
  C     -2.975322   -1.126915   -0.473464
  C     -1.806420   -0.387658    0.179644
  C     -2.340361    0.709622    1.097112
  C     -0.894511    0.173038   -0.918512
  C      0.369802    0.924259   -0.484004
  C      1.589573    0.118796    0.011620
  C      1.932034   -1.022979   -0.948155
  C      2.777336    1.090954    0.059280
  C      1.386714   -0.445152    1.420105
  H     -3.626222   -1.557782    0.283946
  H     -2.615070   -1.930368   -1.112231
  H     -3.563642   -0.443265   -1.082122
  H     -1.252526   -1.108318    0.785872
  H     -1.537706    1.176875    1.660622
  H     -2.847505    1.476310    0.514789
  H     -3.050445    0.292607    1.807751
  H     -0.614965   -0.641151   -1.588492
  H     -1.494504    0.874527   -1.506359
  H      0.108691    1.657205    0.281021
  H      0.704093    1.488807   -1.359269
  H      2.015742   -0.654029   -1.968028
  H      2.882197   -1.472380   -0.667657
  H      1.172629   -1.800034   -0.919378
  H      3.667022    0.589534    0.433651
  H      2.998003    1.479774   -0.932340
  H      2.557254    1.930470    0.715231
  H      1.056628    0.333500    2.103788
  H      2.324084   -0.851753    1.794831
  H      0.653336   -1.245277    1.426182

 Total Charge           Charge          ....    0
 Multiplicity           Mult            ....    1
 Number of Electrons    NEL             ....   74
 Basis Dimension        Dim             ....  271

ORBITAL ENERGIES
----------------

  NO   OCC          E(Eh)            E(eV)
   0   2.0000     -10.031387      -272.9679
   1   2.0000     -10.020680      -272.6766
   2   2.0000     -10.010210      -272.3917
   3   2.0000     -10.009753      -272.3792
   4   2.0000     -10.004497      -272.2362
   5   2.0000     -10.004269      -272.2300
   6   2.0000     -10.003605      -272.2119
   7   2.0000     -10.003334      -272.2046
   8   2.0000     -10.002649      -272.1859
   9   2.0000      -0.786163       -21.3926
  10   2.0000      -0.757232       -20.6053
  11   2.0000      -0.679261       -18.4836
  12   2.0000      -0.643001       -17.4970
  13   2.0000      -0.641091       -17.4450
  14   2.0000      -0.639005       -17.3882
  15   2.0000      -0.586122       -15.9492
  16   2.0000      -0.517666       -14.0864
  17   2.0000      -0.482351       -13.1254
  18   2.0000      -0.433081       -11.7847
  19   2.0000      -0.416697       -11.3389
  20   2.0000      -0.410086       -11.1590
  21   2.0000      -0.395043       -10.7497
  22   2.0000      -0.391531       -10.6541
  23   2.0000      -0.372201       -10.1281
  24   2.0000      -0.355186        -9.6651
  25   2.0000      -0.349927        -9.5220
  26   2.0000      -0.343300        -9.3417
  27   2.0000      -0.333737        -9.0815
  28   2.0000      -0.324273        -8.8239
  29   2.0000      -0.323018        -8.7898
  30   2.0000      -0.313563        -8.5325
  31   2.0000      -0.295316        -8.0360
  32   2.0000      -0.286877        -7.8063
  33   2.0000      -0.285134        -7.7589
  34   2.0000      -0.269799        -7.3416
  35   2.0000      -0.262767        -7.1502
  36   2.0000      -0.259621        -7.0646
  37   0.0000       0.079223         2.1558
  38   0.0000       0.104885         2.8541
  39   0.0000       0.116157         3.1608
  40   0.0000       0.118418         3.2223
  41   0.0000       0.128645         3.5006

MULLIKEN ATOMIC CHARGES
-----------------------
   0 C :   -0.535056
   1 C :    0.033156
   2 C :   -0.559085
   3 C :   -0.358586
   4 C :   -0.331511
   5 C :    0.224919
   6 C :   -0.575781
   7 C :   -0.539630
   8 C :   -0.579225
   9 H :    0.157873
  10 H :    0.154929
  11 H :    0.157976
  12 H :    0.145424
  13 H :    0.161106
  14 H :    0.163183
  15 H :    0.155608
  16 H :    0.159868
  17 H :    0.156081
  18 H :    0.166783
  19 H :    0.156783
  20 H :    0.167508
  21 H :    0.161974
  22 H :    0.169362
  23 H :    0.165750
  24 H :    0.164344
  25 H :    0.162172
  26 H :    0.170518
  27 H :    0.160448
  28 H :    0.163110
Sum of atomic charges:   -0.0000000

LOEWDIN ATOMIC CHARGES
----------------------
   0 C :   -0.426987
   1 C :   -0.247130
   2 C :   -0.427370
   3 C :   -0.302052
   4 C :   -0.296072
   5 C :   -0.205115
   6 C :   -0.417365
   7 C :   -0.419986
   8 C :   -0.417102
   9 H :    0.153882
  10 H :    0.154522
  11 H :    0.155453
  12 H :    0.156443
  13 H :    0.153959
  14 H :    0.156395
  15 H :    0.155605
  16 H :    0.162034
  17 H :    0.160845
  18 H :    0.163734
  19 H :    0.164097
  20 H :    0.159841
  21 H :    0.159175
  22 H :    0.157390
  23 H :    0.156522
  24 H :    0.157418
  25 H :    0.158757
  26 H :    0.159144
  27 H :    0.157741
  28 H :    0.156222

  Mayer bond orders larger than 0.100000
B(  0-C ,  1-C ) :   0.8942 B(  0-C ,  9-H ) :   0.9746 B(  0-C , 10-H ) :   0.9766
B(  0-C , 11-H ) :   0.9870 B(  1-C ,  2-C ) :   0.8832 B(  1-C ,  3-C ) :   0.8872
B(  1-C , 12-H ) :   0.9533 B(  2-C , 13-H ) :   0.9702 B(  2-C , 14-H ) :   0.9854
B(  2-C , 15-H ) :   0.9704 B(  3-C ,  4-C ) :   0.8940 B(  3-C , 16-H ) :   0.9798
B(  3-C , 17-H ) :   0.9887 B(  4-C ,  5-C ) :   0.8613 B(  4-C , 18-H ) :   0.9949
B(  4-C , 19-H ) :   0.9793 B(  5-C ,  6-C ) :   0.9022 B(  5-C ,  7-C ) :   0.9119
B(  5-C ,  8-C ) :   0.9069 B(  6-C , 20-H ) :   0.9744 B(  6-C , 21-H ) :   0.9713
B(  6-C , 22-H ) :   0.9723 B(  7-C , 23-H ) :   0.9792 B(  7-C , 24-H ) :   0.9764
B(  7-C , 25-H ) :   0.9748 B(  8-C , 26-H ) :   0.9775 B(  8-C , 27-H ) :   0.9727
B(  8-C , 28-H ) :   0.9695

Dispersion correction           -0.009290119
FINAL SINGLE POINT ENERGY      -354.881507822017

DIPOLE MOMENT
-------------

Method             : SCF
Type of density    : Electron Density
Multiplicity       :   1
Irrep              :   0
Energy             :  -354.8865446667451806 Eh
Relativity type    :
Basis              : AO
                                X                 Y                 Z
Electronic contribution:      0.459142285       0.360712528      -0.631781772
Nuclear contribution   :     -0.434280824      -0.379719183       0.630264558
                        -----------------------------------------
Total Dipole Moment    :      0.024861460      -0.019006655      -0.001517214
                        -----------------------------------------
Magnitude (a.u.)       :      0.031331248
Magnitude (Debye)      :      0.079637703

Rotational constants in cm-1:             0.089492             0.027977             0.026399
Rotational constants in MHz :          2682.893394           838.728722           791.413918

                             ****ORCA TERMINATED NORMALLY****
TOTAL RUN TIME: 0 days 0 hours 0 minutes 44 seconds 454 msec
