                         Program Version 6.0.0  -   RELEASE  -
|  1> ! pbe def2-sv(p) def2/J RI DEFGRID1 loosescf d4 GCP(DFT/SV(P)) printgap
|  2> %output
|  3>     printlevel normal
|  4> end
|  5> * xyz 0 1
|  6> C -1.3856904459 1.5868903874 0.1315858945
|  7> C -1.2945350231 0.1494230208 -0.3662351807
|  8> C -0.130048277 -0.6370777731 0.2483597846
|  9> H -0.1233731828 -0.4639226837 1.3295647864
| 10> C -0.3075278852 -2.1308251896 -0.0224971444
| 11> C 1.2319179549 -0.1825533231 -0.2907484722
| 12> O 1.6156448603 1.0442730312 0.2996994253
| 13> H -0.4615031865 2.121119656 -0.0667991105
| 14> H -2.2051619132 2.1059253932 -0.3602430788
| 15> H -1.5598203526 1.6039789511 1.2051482732
| 16> H -1.1911801314 0.144535185 -1.4540406339
| 17> H -2.2261566385 -0.3660316152 -0.1214997775
| 18> H -1.2563431732 -2.4758074333 0.3792370025
| 19> H 0.4903420156 -2.7061357659 0.4405070232
| 20> H -0.2961278773 -2.3224585273 -1.0932183269
| 21> H 1.1778491274 -0.0785666642 -1.3837089264
| 22> H 1.9789012009 -0.9530210631 -0.0543845467
| 23> H 2.4996407421 1.282366081 -0.0084728753
| 24> *
| 25>
| 26>                          ****END OF INPUT****

CARTESIAN COORDINATES (ANGSTROEM)
---------------------------------
  C     -1.385690    1.586890    0.131586
  C     -1.294535    0.149423   -0.366235
  C     -0.130048   -0.637078    0.248360
  H     -0.123373   -0.463923    1.329565
  C     -0.307528   -2.130825   -0.022497
  C      1.231918   -0.182553   -0.290748
  O      1.615645    1.044273    0.299699
  H     -0.461503    2.121120   -0.066799
  H     -2.205162    2.105925   -0.360243
  H     -1.559820    1.603979    1.205148
  H     -1.191180    0.144535   -1.454041
  H     -2.226157   -0.366032   -0.121500
  H     -1.256343   -2.475807    0.379237
  H      0.490342   -2.706136    0.440507
  H     -0.296128   -2.322459   -1.093218
  H      1.177849   -0.078567   -1.383709
  H      1.978901   -0.953021   -0.054385
  H      2.499641    1.282366   -0.008473

 Total Charge           Charge          ....    0
 Multiplicity           Mult            ....    1
 Number of Electrons    NEL             ....   50
 Basis Dimension        Dim             ....  108

ORBITAL ENERGIES
----------------

  NO   OCC          E(Eh)            E(eV)
   0   2.0000     -18.740516      -509.9554
   1   2.0000      -9.926842      -270.1231
   2   2.0000      -9.889098      -269.0960
   3   2.0000      -9.875648      -268.7300
   4   2.0000      -9.872729      -268.6506
   5   2.0000      -9.856517      -268.2095
   6   2.0000      -0.916859       -24.9490
   7   2.0000      -0.724791       -19.7226
   8   2.0000      -0.650137       -17.6911
   9   2.0000      -0.599964       -16.3259
  10   2.0000      -0.545771       -14.8512
  11   2.0000      -0.495651       -13.4873
  12   2.0000      -0.459188       -12.4951
  13   2.0000      -0.422120       -11.4865
  14   2.0000      -0.395488       -10.7618
  15   2.0000      -0.367653       -10.0044
  16   2.0000      -0.359327        -9.7778
  17   2.0000      -0.350000        -9.5240
  18   2.0000      -0.319114        -8.6835
  19   2.0000      -0.314321        -8.5531
  20   2.0000      -0.297603        -8.0982
  21   2.0000      -0.283481        -7.7139
  22   2.0000      -0.273395        -7.4395
  23   2.0000      -0.258260        -7.0276
  24   2.0000      -0.210416        -5.7257
  25   0.0000       0.027964         0.7609
  26   0.0000       0.044260         1.2044
  27   0.0000       0.067652         1.8409
  28   0.0000       0.072744         1.9795
  29   0.0000       0.102229         2.7818

MULLIKEN ATOMIC CHARGES
-----------------------
   0 C :   -0.256150
   1 C :   -0.168193
   2 C :   -0.182121
   3 H :    0.077594
   4 C :   -0.244624
   5 C :    0.034304
   6 O :   -0.425924
   7 H :    0.112493
   8 H :    0.090345
   9 H :    0.090671
  10 H :    0.072938
  11 H :    0.078650
  12 H :    0.102822
  13 H :    0.099438
  14 H :    0.094026
  15 H :    0.060683
  16 H :    0.065405
  17 H :    0.297641
Sum of atomic charges:   -0.0000000

LOEWDIN ATOMIC CHARGES
----------------------
   0 C :   -0.347377
   1 C :   -0.222586
   2 C :   -0.162998
   3 H :    0.119674
   4 C :   -0.327824
   5 C :   -0.112066
   6 O :   -0.340139
   7 H :    0.120768
   8 H :    0.112937
   9 H :    0.115686
  10 H :    0.110412
  11 H :    0.111306
  12 H :    0.119768
  13 H :    0.115903
  14 H :    0.116905
  15 H :    0.092405
  16 H :    0.092776
  17 H :    0.284451

  Mayer bond orders larger than 0.100000
B(  0-C ,  1-C ) :   1.1674 B(  0-C ,  7-H ) :   0.9373 B(  0-C ,  8-H ) :   0.9495
B(  0-C ,  9-H ) :   0.9527 B(  1-C ,  2-C ) :   1.0865 B(  1-C , 10-H ) :   0.9191
B(  1-C , 11-H ) :   0.9300 B(  2-C ,  3-H ) :   0.8975 B(  2-C ,  4-C ) :   1.1045
B(  2-C ,  5-C ) :   1.0653 B(  4-C , 12-H ) :   0.9497 B(  4-C , 13-H ) :   0.9481
B(  4-C , 14-H ) :   0.9494 B(  5-C ,  6-O ) :   1.0788 B(  5-C , 15-H ) :   0.9125
B(  5-C , 16-H ) :   0.9277 B(  6-O , 17-H ) :   0.8507

Dispersion correction           -0.012992586
FINAL SINGLE POINT ENERGY      -272.298778410403

DIPOLE MOMENT
-------------

Method             : SCF
Type of density    : Electron Density
Multiplicity       :   1
Irrep              :   0
Energy             :  -272.3688170895890153 Eh
Relativity type    :
Basis              : AO
                                X                 Y                 Z
Electronic contribution:      3.417464127       1.722287472       0.795036308
Nuclear contribution   :     -2.952753783      -1.962168788      -1.110006459
                        -----------------------------------------
Total Dipole Moment    :      0.464710344      -0.239881316      -0.314970152
                        -----------------------------------------
Magnitude (a.u.)       :      0.610495656
Magnitude (Debye)      :      1.551756638

Rotational constants in cm-1:             0.115751             0.108637             0.061508
Rotational constants in MHz :          3470.139002          3256.866982          1843.976353

                             ****ORCA TERMINATED NORMALLY****
TOTAL RUN TIME: 0 days 0 hours 0 minutes 7 seconds 645 msec
