                         Program Version 6.0.0  -   RELEASE  -
|  1> ! r2scan-3c def2/J RI DEFGRID2 scfconv6 printgap
|  2> %output
|  3>     printlevel normal
|  4> end
|  5> * xyz 0 1
|  6> C -2.780850023 0.3128831595 0.000275819
|  7> C -1.3009736399 0.6764472565 -0.002446671
|  8> C -0.4287880742 -0.5758930154 0.0016744334
|  9> C 1.0505860623 -0.3054497932 0.0006213705
| 10> O 1.8938337702 -1.1813930142 0.0024682091
| 11> O 1.3677021239 0.9768186543 -0.0024034556
| 12> H -3.3902679867 1.2123925656 -0.003092746
| 13> H -3.0304144885 -0.2681414341 0.8847910872
| 14> H -3.0317461606 -0.2756071799 -0.8789072228
| 15> H -1.0704406203 1.2743515181 -0.885277793
| 16> H -1.068879016 1.2811811287 0.8752975928
| 17> H -0.6414899461 -1.1909481748 0.8795913523
| 18> H -0.6416719676 -1.1970130816 -0.8718888352
| 19> H 2.3334385335 1.1242742886 -0.0030302323
| 20> *
| 21>
| 22>                          ****END OF INPUT****

CARTESIAN COORDINATES (ANGSTROEM)
---------------------------------
  C     -2.780850    0.312883    0.000276
  C     -1.300974    0.676447   -0.002447
  C     -0.428788   -0.575893    0.001674
  C      1.050586   -0.305450    0.000621
  O      1.893834   -1.181393    0.002468
  O      1.367702    0.976819   -0.002403
  H     -3.390268    1.212393   -0.003093
  H     -3.030414   -0.268141    0.884791
  H     -3.031746   -0.275607   -0.878907
  H     -1.070441    1.274352   -0.885278
  H     -1.068879    1.281181    0.875298
  H     -0.641490   -1.190948    0.879591
  H     -0.641672   -1.197013   -0.871889
  H      2.333439    1.124274   -0.003030

 Total Charge           Charge          ....    0
 Multiplicity           Mult            ....    1
 Number of Electrons    NEL             ....   48
 Basis Dimension        Dim             ....  164

ORBITAL ENERGIES
----------------

  NO   OCC          E(Eh)            E(eV)
   0   2.0000     -19.005718      -517.1719
   1   2.0000     -18.930455      -515.1239
   2   2.0000     -10.161741      -276.5150
   3   2.0000     -10.048577      -273.4357
   4   2.0000     -10.035940      -273.0918
   5   2.0000     -10.024221      -272.7729
   6   2.0000      -1.079934       -29.3865
   7   2.0000      -0.976090       -26.5608
   8   2.0000      -0.774994       -21.0886
   9   2.0000      -0.691180       -18.8080
  10   2.0000      -0.600210       -16.3325
  11   2.0000      -0.571531       -15.5522
  12   2.0000      -0.460695       -12.5362
  13   2.0000      -0.458342       -12.4721
  14   2.0000      -0.443873       -12.0784
  15   2.0000      -0.411024       -11.1845
  16   2.0000      -0.385805       -10.4983
  17   2.0000      -0.363928        -9.9030
  18   2.0000      -0.359061        -9.7705
  19   2.0000      -0.335842        -9.1387
  20   2.0000      -0.319578        -8.6962
  21   2.0000      -0.315043        -8.5728
  22   2.0000      -0.285805        -7.7772
  23   2.0000      -0.236457        -6.4343
  24   0.0000      -0.019183        -0.5220
  25   0.0000       0.053476         1.4552
  26   0.0000       0.095624         2.6021
  27   0.0000       0.113704         3.0940
  28   0.0000       0.136495         3.7142

MULLIKEN ATOMIC CHARGES
-----------------------
   0 C :   -0.456096
   1 C :   -0.240197
   2 C :   -0.302623
   3 C :    0.317139
   4 O :   -0.393624
   5 O :   -0.325897
   6 H :    0.149904
   7 H :    0.141520
   8 H :    0.141472
   9 H :    0.148238
  10 H :    0.148288
  11 H :    0.169351
  12 H :    0.169352
  13 H :    0.333173
Sum of atomic charges:   -0.0000000

LOEWDIN ATOMIC CHARGES
----------------------
   0 C :   -0.421413
   1 C :   -0.299153
   2 C :   -0.234926
   3 C :    0.342659
   4 O :   -0.427944
   5 O :   -0.407976
   6 H :    0.152818
   7 H :    0.150700
   8 H :    0.150701
   9 H :    0.161118
  10 H :    0.161176
  11 H :    0.185415
  12 H :    0.185408
  13 H :    0.301418

  Mayer bond orders larger than 0.100000
B(  0-C ,  1-C ) :   0.8865 B(  0-C ,  6-H ) :   0.9738 B(  0-C ,  7-H ) :   0.9817
B(  0-C ,  8-H ) :   0.9816 B(  1-C ,  2-C ) :   0.9290 B(  1-C ,  9-H ) :   0.9669
B(  1-C , 10-H ) :   0.9670 B(  2-C ,  3-C ) :   1.0390 B(  2-C , 11-H ) :   0.9387
B(  2-C , 12-H ) :   0.9388 B(  3-C ,  4-O ) :   1.9441 B(  3-C ,  5-O ) :   1.0401
B(  5-O , 13-H ) :   0.8561

Dispersion correction           -0.003035615
FINAL SINGLE POINT ENERGY      -307.646531411602

DIPOLE MOMENT
-------------

Method             : SCF
Type of density    : Electron Density
Multiplicity       :   1
Irrep              :   0
Energy             :  -307.6512133292293356 Eh
Relativity type    :
Basis              : AO
                                X                 Y                 Z
Electronic contribution:      9.351333256      -1.130826274       0.000808282
Nuclear contribution   :     -9.841279762       1.836240167      -0.002360230
                        -----------------------------------------
Total Dipole Moment    :     -0.489946506       0.705413893      -0.001551947
                        -----------------------------------------
Magnitude (a.u.)       :      0.858870624
Magnitude (Debye)      :      2.183075634

Rotational constants in cm-1:             0.299740             0.063310             0.053830
Rotational constants in MHz :          8985.974972          1897.974383          1613.797515

                             ****ORCA TERMINATED NORMALLY****
TOTAL RUN TIME: 0 days 0 hours 0 minutes 18 seconds 593 msec
