                         Program Version 6.0.0  -   RELEASE  -
|  1> ! r2scan-3c def2/J RI DEFGRID2 scfconv6 printgap
|  2> %output
|  3>     printlevel normal
|  4> end
|  5> %cpcm
|  6>     smd true
|  7>     smdsolvent "water"
|  8> end
|  9> * xyz 0 1
| 10> C -2.780850023 0.3128831595 0.000275819
| 11> C -1.3009736399 0.6764472565 -0.002446671
| 12> C -0.4287880742 -0.5758930154 0.0016744334
| 13> C 1.0505860623 -0.3054497932 0.0006213705
| 14> O 1.8938337702 -1.1813930142 0.0024682091
| 15> O 1.3677021239 0.9768186543 -0.0024034556
| 16> H -3.3902679867 1.2123925656 -0.003092746
| 17> H -3.0304144885 -0.2681414341 0.8847910872
| 18> H -3.0317461606 -0.2756071799 -0.8789072228
| 19> H -1.0704406203 1.2743515181 -0.885277793
| 20> H -1.068879016 1.2811811287 0.8752975928
| 21> H -0.6414899461 -1.1909481748 0.8795913523
| 22> H -0.6416719676 -1.1970130816 -0.8718888352
| 23> H 2.3334385335 1.1242742886 -0.0030302323
| 24> *
| 25>
| 26>                          ****END OF INPUT****

CARTESIAN COORDINATES (ANGSTROEM)
---------------------------------
  C     -2.780850    0.312883    0.000276
  C     -1.300974    0.676447   -0.002447
  C     -0.428788   -0.575893    0.001674
  C      1.050586   -0.305450    0.000621
  O      1.893834   -1.181393    0.002468
  O      1.367702    0.976819   -0.002403
  H     -3.390268    1.212393   -0.003093
  H     -3.030414   -0.268141    0.884791
  H     -3.031746   -0.275607   -0.878907
  H     -1.070441    1.274352   -0.885278
  H     -1.068879    1.281181    0.875298
  H     -0.641490   -1.190948    0.879591
  H     -0.641672   -1.197013   -0.871889
  H      2.333439    1.124274   -0.003030

 Total Charge           Charge          ....    0
 Multiplicity           Mult            ....    1
 Number of Electrons    NEL             ....   48
 Basis Dimension        Dim             ....  164

ORBITAL ENERGIES
----------------

  NO   OCC          E(Eh)            E(eV)
   0   2.0000     -19.002532      -517.0852
   1   2.0000     -18.941325      -515.4197
   2   2.0000     -10.167611      -276.6747
   3   2.0000     -10.037736      -273.1407
   4   2.0000     -10.024180      -272.7718
   5   2.0000     -10.010439      -272.3979
   6   2.0000      -1.079548       -29.3760
   7   2.0000      -0.984505       -26.7897
   8   2.0000      -0.764098       -20.7922
   9   2.0000      -0.681238       -18.5374
  10   2.0000      -0.590935       -16.0802
  11   2.0000      -0.560793       -15.2600
  12   2.0000      -0.456684       -12.4270
  13   2.0000      -0.453991       -12.3537
  14   2.0000      -0.453018       -12.3272
  15   2.0000      -0.405284       -11.0283
  16   2.0000      -0.377289       -10.2666
  17   2.0000      -0.359394        -9.7796
  18   2.0000      -0.347870        -9.4660
  19   2.0000      -0.330273        -8.9872
  20   2.0000      -0.308127        -8.3846
  21   2.0000      -0.307138        -8.3577
  22   2.0000      -0.288539        -7.8515
  23   2.0000      -0.248454        -6.7608
  24   0.0000      -0.022143        -0.6025
  25   0.0000       0.073746         2.0067
  26   0.0000       0.111763         3.0412
  27   0.0000       0.128049         3.4844
  28   0.0000       0.143810         3.9133

MULLIKEN ATOMIC CHARGES
-----------------------
   0 C :   -0.504844
   1 C :   -0.252177
   2 C :   -0.305874
   3 C :    0.352533
   4 O :   -0.489954
   5 O :   -0.348516
   6 H :    0.159440
   7 H :    0.155482
   8 H :    0.155432
   9 H :    0.157070
  10 H :    0.157039
  11 H :    0.191321
  12 H :    0.191263
  13 H :    0.381786
Sum of atomic charges:   -0.0000000

LOEWDIN ATOMIC CHARGES
----------------------
   0 C :   -0.427660
   1 C :   -0.298263
   2 C :   -0.234184
   3 C :    0.355725
   4 O :   -0.497626
   5 O :   -0.396719
   6 H :    0.154935
   7 H :    0.154380
   8 H :    0.154380
   9 H :    0.162464
  10 H :    0.162503
  11 H :    0.194211
  12 H :    0.194182
  13 H :    0.321674

  Mayer bond orders larger than 0.100000
B(  0-C ,  1-C ) :   0.8820 B(  0-C ,  6-H ) :   0.9711 B(  0-C ,  7-H ) :   0.9797
B(  0-C ,  8-H ) :   0.9796 B(  1-C ,  2-C ) :   0.9197 B(  1-C ,  9-H ) :   0.9686
B(  1-C , 10-H ) :   0.9687 B(  2-C ,  3-C ) :   1.0432 B(  2-C , 11-H ) :   0.9272
B(  2-C , 12-H ) :   0.9272 B(  3-C ,  4-O ) :   1.8673 B(  3-C ,  5-O ) :   1.0852
B(  5-O , 13-H ) :   0.8317

Dispersion correction           -0.003035615
FINAL SINGLE POINT ENERGY      -307.657208046759

DIPOLE MOMENT
-------------

Method             : SCF
Type of density    : Electron Density
Multiplicity       :   1
Irrep              :   0
Energy             :  -307.6618899643867735 Eh
Relativity type    :
Basis              : AO
                                X                 Y                 Z
Electronic contribution:      9.199010665      -0.894490868       0.000329067
Nuclear contribution   :     -9.841279762       1.836240167      -0.002360230
                        -----------------------------------------
Total Dipole Moment    :     -0.642269097       0.941749299      -0.002031163
                        -----------------------------------------
Magnitude (a.u.)       :      1.139914673
Magnitude (Debye)      :      2.897432835

Rotational constants in cm-1:             0.299740             0.063310             0.053830
Rotational constants in MHz :          8985.974972          1897.974383          1613.797515

                             ****ORCA TERMINATED NORMALLY****
TOTAL RUN TIME: 0 days 0 hours 0 minutes 20 seconds 332 msec
