                         Program Version 6.0.0  -   RELEASE  -
|  1> ! r2scan-3c def2/J RI DEFGRID2 scfconv6 printgap
|  2> %output
|  3>     printlevel normal
|  4> end
|  5> * xyz 0 1
|  6> C -4.0327860785 -0.6319100376 -1.6315988206
|  7> C -3.0325840359 -1.5483369975 -0.9361145871
|  8> C -2.4617441692 -1.0404069009 0.3981140366
|  9> H -1.9774447274 -1.9006319529 0.8762141813
| 10> C -3.5068545642 -0.4940175273 1.360537131
| 11> N -1.3381544987 -0.1017247984 0.1837187799
| 12> C -0.0643878402 -0.6794445412 0.2332033583
| 13> O 0.0817851954 -1.8778896346 0.410497221
| 14> C 1.0346794702 0.2404381704 0.0701655816
| 15> C 0.8572120461 1.5700219713 -0.1388050816
| 16> N -0.4258944198 2.0120895901 -0.2016554492
| 17> C -1.5533379456 1.230424364 -0.0727047263
| 18> O -2.6464997001 1.7502623038 -0.1900145487
| 19> C 1.9546771335 2.5524942689 -0.3138438465
| 20> Br 2.7712041316 -0.5256824468 0.1587482197
| 21> H -3.6260033702 0.3633889046 -1.7819591364
| 22> H -4.2914529006 -1.0508475688 -2.6008056553
| 23> H -4.942034144 -0.542167987 -1.044912595
| 24> H -3.5177739606 -2.5047050938 -0.7331423108
| 25> H -2.1893595216 -1.7496506673 -1.6025365484
| 26> H -4.0015379184 0.3835838453 0.9591264034
| 27> H -4.2442534098 -1.2705813042 1.5400570126
| 28> H -3.0406374062 -0.2307542812 2.307303252
| 29> H -0.6090382919 2.9950860698 -0.3800405667
| 30> H 1.57572683 3.5686243362 -0.3008498057
| 31> H 2.4630139789 2.3719469016 -1.2602854988
| 32> H 2.6963306023 2.4279443264 0.4727989229
| 33> *
| 34>
| 35>                          ****END OF INPUT****

CARTESIAN COORDINATES (ANGSTROEM)
---------------------------------
  C     -4.032786   -0.631910   -1.631599
  C     -3.032584   -1.548337   -0.936115
  C     -2.461744   -1.040407    0.398114
  H     -1.977445   -1.900632    0.876214
  C     -3.506855   -0.494018    1.360537
  N     -1.338154   -0.101725    0.183719
  C     -0.064388   -0.679445    0.233203
  O      0.081785   -1.877890    0.410497
  C      1.034679    0.240438    0.070166
  C      0.857212    1.570022   -0.138805
  N     -0.425894    2.012090   -0.201655
  C     -1.553338    1.230424   -0.072705
  O     -2.646500    1.750262   -0.190015
  C      1.954677    2.552494   -0.313844
  Br     2.771204   -0.525682    0.158748
  H     -3.626003    0.363389   -1.781959
  H     -4.291453   -1.050848   -2.600806
  H     -4.942034   -0.542168   -1.044913
  H     -3.517774   -2.504705   -0.733142
  H     -2.189360   -1.749651   -1.602537
  H     -4.001538    0.383584    0.959126
  H     -4.244253   -1.270581    1.540057
  H     -3.040637   -0.230754    2.307303
  H     -0.609038    2.995086   -0.380041
  H      1.575727    3.568624   -0.300850
  H      2.463014    2.371947   -1.260285
  H      2.696331    2.427944    0.472799

 Total Charge           Charge          ....    0
 Multiplicity           Mult            ....    1
 Number of Electrons    NEL             ....  132
 Basis Dimension        Dim             ....  368

ORBITAL ENERGIES
----------------

  NO   OCC          E(Eh)            E(eV)
   0   2.0000    -482.235861    -13122.3049
   1   2.0000     -62.307059     -1695.4613
   2   2.0000     -56.087654     -1526.2227
   3   2.0000     -56.084868     -1526.1468
   4   2.0000     -56.084648     -1526.1409
   5   2.0000     -18.932950      -515.1918
   6   2.0000     -18.927468      -515.0426
   7   2.0000     -14.240746      -387.5104
   8   2.0000     -14.228676      -387.1820
   9   2.0000     -10.184310      -277.1292
  10   2.0000     -10.150966      -276.2218
  11   2.0000     -10.130704      -275.6705
  12   2.0000     -10.098739      -274.8007
  13   2.0000     -10.077691      -274.2279
  14   2.0000     -10.070587      -274.0346
  15   2.0000     -10.030059      -272.9318
  16   2.0000     -10.018224      -272.6097
  17   2.0000     -10.009350      -272.3683
  18   2.0000      -8.638878      -235.0758
  19   2.0000      -6.447036      -175.4328
  20   2.0000      -6.432662      -175.0416
  21   2.0000      -6.431843      -175.0193
  22   2.0000      -2.544457       -69.2382
  23   2.0000      -2.540951       -69.1428
  24   2.0000      -2.540373       -69.1271
  25   2.0000      -2.529670       -68.8358
  26   2.0000      -2.529652       -68.8353
  27   2.0000      -1.054836       -28.7035
  28   2.0000      -1.015626       -27.6366
  29   2.0000      -0.959209       -26.1014
  30   2.0000      -0.918132       -24.9836
  31   2.0000      -0.815114       -22.1804
  32   2.0000      -0.774156       -21.0659
  33   2.0000      -0.749730       -20.4012
  34   2.0000      -0.707615       -19.2552
  35   2.0000      -0.691294       -18.8111
  36   2.0000      -0.651167       -17.7192
  37   2.0000      -0.629522       -17.1302
  38   2.0000      -0.608395       -16.5553
  39   2.0000      -0.560148       -15.2424
  40   2.0000      -0.552398       -15.0315
  41   2.0000      -0.514786       -14.0080
  42   2.0000      -0.474556       -12.9133
  43   2.0000      -0.453990       -12.3537
  44   2.0000      -0.438840       -11.9414
  45   2.0000      -0.435502       -11.8506
  46   2.0000      -0.424793       -11.5592
  47   2.0000      -0.413340       -11.2476
  48   2.0000      -0.409773       -11.1505
  49   2.0000      -0.401021       -10.9123
  50   2.0000      -0.390840       -10.6353
  51   2.0000      -0.386891       -10.5278
  52   2.0000      -0.384493       -10.4626
  53   2.0000      -0.363863        -9.9012
  54   2.0000      -0.357613        -9.7312
  55   2.0000      -0.349820        -9.5191
  56   2.0000      -0.335031        -9.1167
  57   2.0000      -0.314898        -8.5688
  58   2.0000      -0.303466        -8.2577
  59   2.0000      -0.302240        -8.2244
  60   2.0000      -0.292283        -7.9534
  61   2.0000      -0.270257        -7.3541
  62   2.0000      -0.258465        -7.0332
  63   2.0000      -0.249951        -6.8015
  64   2.0000      -0.235150        -6.3988
  65   2.0000      -0.217773        -5.9259
  66   0.0000      -0.073275        -1.9939
  67   0.0000      -0.033128        -0.9015
  68   0.0000      -0.026313        -0.7160
  69   0.0000       0.038965         1.0603
  70   0.0000       0.062450         1.6993

MULLIKEN ATOMIC CHARGES
-----------------------
   0 C :   -0.479619
   1 C :   -0.332750
   2 C :   -0.024111
   3 H :    0.213227
   4 C :   -0.536804
   5 N :    0.149868
   6 C :    0.209465
   7 O :   -0.434020
   8 C :   -0.096445
   9 C :    0.166003
  10 N :   -0.027481
  11 C :    0.217563
  12 O :   -0.460401
  13 C :   -0.582739
  14 Br:   -0.078017
  15 H :    0.178484
  16 H :    0.143151
  17 H :    0.149503
  18 H :    0.151171
  19 H :    0.153906
  20 H :    0.205124
  21 H :    0.155861
  22 H :    0.151184
  23 H :    0.275156
  24 H :    0.146498
  25 H :    0.196387
  26 H :    0.189837
Sum of atomic charges:    0.0000000

LOEWDIN ATOMIC CHARGES
----------------------
   0 C :   -0.415973
   1 C :   -0.264672
   2 C :    0.043221
   3 H :    0.225523
   4 C :   -0.367668
   5 N :   -0.618059
   6 C :    0.354868
   7 O :   -0.474478
   8 C :   -0.199078
   9 C :    0.154835
  10 N :   -0.517864
  11 C :    0.461013
  12 O :   -0.431952
  13 C :   -0.351265
  14 Br:    0.260995
  15 H :    0.172060
  16 H :    0.149039
  17 H :    0.153563
  18 H :    0.160784
  19 H :    0.166963
  20 H :    0.184607
  21 H :    0.160144
  22 H :    0.160566
  23 H :    0.298552
  24 H :    0.164022
  25 H :    0.185448
  26 H :    0.184806

  Mayer bond orders larger than 0.100000
B(  0-C ,  1-C ) :   0.9005 B(  0-C , 15-H ) :   0.9725 B(  0-C , 16-H ) :   0.9702
B(  0-C , 17-H ) :   0.9736 B(  1-C ,  2-C ) :   0.8574 B(  1-C , 18-H ) :   0.9737
B(  1-C , 19-H ) :   0.9893 B(  2-C ,  3-H ) :   0.9593 B(  2-C ,  4-C ) :   0.8404
B(  2-C ,  5-N ) :   0.8505 B(  4-C , 20-H ) :   0.9680 B(  4-C , 21-H ) :   0.9697
B(  4-C , 22-H ) :   0.9729 B(  5-N ,  6-C ) :   1.0754 B(  5-N , 11-C ) :   1.1661
B(  6-C ,  7-O ) :   1.8999 B(  6-C ,  8-C ) :   0.9930 B(  8-C ,  9-C ) :   1.4636
B(  8-C , 14-Br) :   1.1864 B(  9-C , 10-N ) :   1.1591 B(  9-C , 13-C ) :   0.8649
B( 10-N , 11-C ) :   1.0299 B( 10-N , 23-H ) :   0.9040 B( 11-C , 12-O ) :   1.8846
B( 13-C , 24-H ) :   0.9929 B( 13-C , 25-H ) :   0.9449 B( 13-C , 26-H ) :   0.9508

Dispersion correction           -0.011435010
FINAL SINGLE POINT ENERGY     -3184.781738302498

DIPOLE MOMENT
-------------

Method             : SCF
Type of density    : Electron Density
Multiplicity       :   1
Irrep              :   0
Energy             : -3184.7919683622449156 Eh
Relativity type    :
Basis              : AO
                                X                 Y                 Z
Electronic contribution:     50.260218665      -6.062482597       4.588698987
Nuclear contribution   :    -49.893460263       7.573905660      -4.800422103
                        -----------------------------------------
Total Dipole Moment    :      0.366758402       1.511423063      -0.211723116
                        -----------------------------------------
Magnitude (a.u.)       :      1.569629917
Magnitude (Debye)      :      3.989682185

Rotational constants in cm-1:             0.033009             0.010452             0.008697
Rotational constants in MHz :           989.570454           313.345537           260.734326

                             ****ORCA TERMINATED NORMALLY****
TOTAL RUN TIME: 0 days 0 hours 1 minutes 23 seconds 917 msec
