                         Program Version 6.0.0  -   RELEASE  -
|  1> ! r2scan-3c def2/J RI DEFGRID2 scfconv6 printgap
|  2> %output
|  3>     printlevel normal
|  4> end
|  5> %cpcm
|  6>     smd true
|  7>     smdsolvent "water"
|  8> end
|  9> * xyz 0 1
| 10> C -4.0327860785 -0.6319100376 -1.6315988206
| 11> C -3.0325840359 -1.5483369975 -0.9361145871
| 12> C -2.4617441692 -1.0404069009 0.3981140366
| 13> H -1.9774447274 -1.9006319529 0.8762141813
| 14> C -3.5068545642 -0.4940175273 1.360537131
| 15> N -1.3381544987 -0.1017247984 0.1837187799
| 16> C -0.0643878402 -0.6794445412 0.2332033583
| 17> O 0.0817851954 -1.8778896346 0.410497221
| 18> C 1.0346794702 0.2404381704 0.0701655816
| 19> C 0.8572120461 1.5700219713 -0.1388050816
| 20> N -0.4258944198 2.0120895901 -0.2016554492
| 21> C -1.5533379456 1.230424364 -0.0727047263
| 22> O -2.6464997001 1.7502623038 -0.1900145487
| 23> C 1.9546771335 2.5524942689 -0.3138438465
| 24> Br 2.7712041316 -0.5256824468 0.1587482197
| 25> H -3.6260033702 0.3633889046 -1.7819591364
| 26> H -4.2914529006 -1.0508475688 -2.6008056553
| 27> H -4.942034144 -0.542167987 -1.044912595
| 28> H -3.5177739606 -2.5047050938 -0.7331423108
| 29> H -2.1893595216 -1.7496506673 -1.6025365484
| 30> H -4.0015379184 0.3835838453 0.9591264034
| 31> H -4.2442534098 -1.2705813042 1.5400570126
| 32> H -3.0406374062 -0.2307542812 2.307303252
| 33> H -0.6090382919 2.9950860698 -0.3800405667
| 34> H 1.57572683 3.5686243362 -0.3008498057
| 35> H 2.4630139789 2.3719469016 -1.2602854988
| 36> H 2.6963306023 2.4279443264 0.4727989229
| 37> *
| 38>
| 39>                          ****END OF INPUT****

CARTESIAN COORDINATES (ANGSTROEM)
---------------------------------
  C     -4.032786   -0.631910   -1.631599
  C     -3.032584   -1.548337   -0.936115
  C     -2.461744   -1.040407    0.398114
  H     -1.977445   -1.900632    0.876214
  C     -3.506855   -0.494018    1.360537
  N     -1.338154   -0.101725    0.183719
  C     -0.064388   -0.679445    0.233203
  O      0.081785   -1.877890    0.410497
  C      1.034679    0.240438    0.070166
  C      0.857212    1.570022   -0.138805
  N     -0.425894    2.012090   -0.201655
  C     -1.553338    1.230424   -0.072705
  O     -2.646500    1.750262   -0.190015
  C      1.954677    2.552494   -0.313844
  Br     2.771204   -0.525682    0.158748
  H     -3.626003    0.363389   -1.781959
  H     -4.291453   -1.050848   -2.600806
  H     -4.942034   -0.542168   -1.044913
  H     -3.517774   -2.504705   -0.733142
  H     -2.189360   -1.749651   -1.602537
  H     -4.001538    0.383584    0.959126
  H     -4.244253   -1.270581    1.540057
  H     -3.040637   -0.230754    2.307303
  H     -0.609038    2.995086   -0.380041
  H      1.575727    3.568624   -0.300850
  H      2.463014    2.371947   -1.260285
  H      2.696331    2.427944    0.472799

 Total Charge           Charge          ....    0
 Multiplicity           Mult            ....    1
 Number of Electrons    NEL             ....  132
 Basis Dimension        Dim             ....  368

ORBITAL ENERGIES
----------------

  NO   OCC          E(Eh)            E(eV)
   0   2.0000    -482.234669    -13122.2725
   1   2.0000     -62.305931     -1695.4306
   2   2.0000     -56.086486     -1526.1909
   3   2.0000     -56.083751     -1526.1165
   4   2.0000     -56.083542     -1526.1108
   5   2.0000     -18.936350      -515.2843
   6   2.0000     -18.935051      -515.2489
   7   2.0000     -14.228029      -387.1643
   8   2.0000     -14.227433      -387.1481
   9   2.0000     -10.183913      -277.1184
  10   2.0000     -10.155244      -276.3382
  11   2.0000     -10.121166      -275.4109
  12   2.0000     -10.092169      -274.6219
  13   2.0000     -10.074450      -274.1397
  14   2.0000     -10.041461      -273.2420
  15   2.0000     -10.025065      -272.7959
  16   2.0000     -10.013003      -272.4677
  17   2.0000     -10.006972      -272.3036
  18   2.0000      -8.637807      -235.0467
  19   2.0000      -6.445767      -175.3982
  20   2.0000      -6.431677      -175.0148
  21   2.0000      -6.430899      -174.9937
  22   2.0000      -2.543251       -69.2054
  23   2.0000      -2.539804       -69.1116
  24   2.0000      -2.539256       -69.0967
  25   2.0000      -2.528758       -68.8110
  26   2.0000      -2.528744       -68.8106
  27   2.0000      -1.054540       -28.6955
  28   2.0000      -1.022920       -27.8351
  29   2.0000      -0.952140       -25.9090
  30   2.0000      -0.915517       -24.9125
  31   2.0000      -0.808481       -21.9999
  32   2.0000      -0.767649       -20.8888
  33   2.0000      -0.738246       -20.0887
  34   2.0000      -0.700924       -19.0731
  35   2.0000      -0.683515       -18.5994
  36   2.0000      -0.646281       -17.5862
  37   2.0000      -0.620144       -16.8750
  38   2.0000      -0.602657       -16.3991
  39   2.0000      -0.554289       -15.0830
  40   2.0000      -0.545441       -14.8422
  41   2.0000      -0.503361       -13.6971
  42   2.0000      -0.468386       -12.7454
  43   2.0000      -0.448344       -12.2001
  44   2.0000      -0.440401       -11.9839
  45   2.0000      -0.427985       -11.6461
  46   2.0000      -0.415931       -11.3180
  47   2.0000      -0.409657       -11.1473
  48   2.0000      -0.396537       -10.7903
  49   2.0000      -0.393844       -10.7170
  50   2.0000      -0.390135       -10.6161
  51   2.0000      -0.382987       -10.4216
  52   2.0000      -0.373160       -10.1542
  53   2.0000      -0.360644        -9.8136
  54   2.0000      -0.353669        -9.6238
  55   2.0000      -0.345804        -9.4098
  56   2.0000      -0.325258        -8.8507
  57   2.0000      -0.313201        -8.5226
  58   2.0000      -0.301034        -8.1915
  59   2.0000      -0.299202        -8.1417
  60   2.0000      -0.291660        -7.9365
  61   2.0000      -0.270258        -7.3541
  62   2.0000      -0.262071        -7.1313
  63   2.0000      -0.252352        -6.8668
  64   2.0000      -0.244263        -6.6467
  65   2.0000      -0.213890        -5.8203
  66   0.0000      -0.066132        -1.7996
  67   0.0000      -0.029398        -0.8000
  68   0.0000      -0.025951        -0.7061
  69   0.0000       0.056866         1.5474
  70   0.0000       0.077163         2.0997

MULLIKEN ATOMIC CHARGES
-----------------------
   0 C :   -0.533686
   1 C :   -0.323540
   2 C :   -0.018264
   3 H :    0.212857
   4 C :   -0.570079
   5 N :    0.175431
   6 C :    0.201220
   7 O :   -0.510985
   8 C :   -0.103417
   9 C :    0.209828
  10 N :   -0.036237
  11 C :    0.243546
  12 O :   -0.525831
  13 C :   -0.613389
  14 Br:   -0.109398
  15 H :    0.175051
  16 H :    0.157400
  17 H :    0.165529
  18 H :    0.168785
  19 H :    0.161029
  20 H :    0.191948
  21 H :    0.176253
  22 H :    0.171227
  23 H :    0.335133
  24 H :    0.191453
  25 H :    0.213984
  26 H :    0.194156
Sum of atomic charges:    0.0000000

LOEWDIN ATOMIC CHARGES
----------------------
   0 C :   -0.423444
   1 C :   -0.265544
   2 C :    0.045202
   3 H :    0.224774
   4 C :   -0.370632
   5 N :   -0.606322
   6 C :    0.356569
   7 O :   -0.542459
   8 C :   -0.208054
   9 C :    0.181132
  10 N :   -0.479109
  11 C :    0.468198
  12 O :   -0.480170
  13 C :   -0.346464
  14 Br:    0.241200
  15 H :    0.168141
  16 H :    0.153529
  17 H :    0.156286
  18 H :    0.166552
  19 H :    0.168689
  20 H :    0.178902
  21 H :    0.167219
  22 H :    0.165896
  23 H :    0.317390
  24 H :    0.182945
  25 H :    0.192823
  26 H :    0.186751

  Mayer bond orders larger than 0.100000
B(  0-C ,  1-C ) :   0.8835 B(  0-C , 15-H ) :   0.9757 B(  0-C , 16-H ) :   0.9665
B(  0-C , 17-H ) :   0.9736 B(  1-C ,  2-C ) :   0.8567 B(  1-C , 18-H ) :   0.9716
B(  1-C , 19-H ) :   0.9864 B(  2-C ,  3-H ) :   0.9570 B(  2-C ,  4-C ) :   0.8380
B(  2-C ,  5-N ) :   0.8392 B(  4-C , 20-H ) :   0.9694 B(  4-C , 21-H ) :   0.9651
B(  4-C , 22-H ) :   0.9718 B(  5-N ,  6-C ) :   1.0838 B(  5-N , 11-C ) :   1.1761
B(  6-C ,  7-O ) :   1.8577 B(  6-C ,  8-C ) :   1.0131 B(  8-C ,  9-C ) :   1.4344
B(  8-C , 14-Br) :   1.1248 B(  9-C , 10-N ) :   1.1704 B(  9-C , 13-C ) :   0.8409
B( 10-N , 11-C ) :   1.0511 B( 10-N , 23-H ) :   0.8794 B( 11-C , 12-O ) :   1.8283
B( 13-C , 24-H ) :   0.9815 B( 13-C , 25-H ) :   0.9375 B( 13-C , 26-H ) :   0.9492

Dispersion correction           -0.011435010
FINAL SINGLE POINT ENERGY     -3184.798255595461

DIPOLE MOMENT
-------------

Method             : SCF
Type of density    : Electron Density
Multiplicity       :   1
Irrep              :   0
Energy             : -3184.8084856552086421 Eh
Relativity type    :
Basis              : AO
                                X                 Y                 Z
Electronic contribution:     50.421109827      -5.299687323       4.476144734
Nuclear contribution   :    -49.893460263       7.573905660      -4.800422103
                        -----------------------------------------
Total Dipole Moment    :      0.527649565       2.274218337      -0.324277369
                        -----------------------------------------
Magnitude (a.u.)       :      2.357040288
Magnitude (Debye)      :      5.991120290

Rotational constants in cm-1:             0.033009             0.010452             0.008697
Rotational constants in MHz :           989.570454           313.345537           260.734326

                             ****ORCA TERMINATED NORMALLY****
TOTAL RUN TIME: 0 days 0 hours 1 minutes 42 seconds 795 msec
