                         Program Version 6.0.0  -   RELEASE  -
|  1> ! pbe def2-sv(p) def2/J RI DEFGRID1 loosescf d4 GCP(DFT/SV(P)) printgap
|  2> %output
|  3>     printlevel normal
|  4> end
|  5> * xyz 0 1
|  6> C -3.267254212 0.9198849908 -0.1175823183
|  7> C -2.2904392482 1.2320755827 0.8135787623
|  8> C -1.1401376094 0.468349025 0.8944476952
|  9> C -0.9519835682 -0.612363915 0.0414394184
| 10> C -1.9321724347 -0.9167604171 -0.8924536434
| 11> C -3.086788856 -0.156547692 -0.9689467866
| 12> C 0.3115476673 -1.4365314665 0.1316404987
| 13> N 1.48668247 -0.6016066415 0.0807318048
| 14> C 2.2842637127 -0.238986725 1.1263279222
| 15> C 3.2205508033 0.6107750822 0.6122962263
| 16> N 3.0099466327 0.7827436223 -0.7215463019
| 17> C 1.9641672369 0.0478711243 -1.0018856649
| 18> H -4.1651939644 1.5154070454 -0.1797107788
| 19> H -2.42493279 2.0712859145 1.4790700743
| 20> H -0.3789241545 0.7172505586 1.6198739854
| 21> H -1.7943235832 -1.7531805912 -1.5617050884
| 22> H -3.8438506906 -0.4028457777 -1.6978016269
| 23> H 0.3308941242 -1.987775333 1.0758850098
| 24> H 0.3479911904 -2.1522132462 -0.6938535675
| 25> H 2.1340165573 -0.6123406586 2.117928579
| 26> H 4.0296424634 1.1076037964 1.108852511
| 27> H 1.5279450184 -0.0404611235 -1.976423199
| 28> *
| 29>
| 30>                          ****END OF INPUT****

CARTESIAN COORDINATES (ANGSTROEM)
---------------------------------
  C     -3.267254    0.919885   -0.117582
  C     -2.290439    1.232076    0.813579
  C     -1.140138    0.468349    0.894448
  C     -0.951984   -0.612364    0.041439
  C     -1.932172   -0.916760   -0.892454
  C     -3.086789   -0.156548   -0.968947
  C      0.311548   -1.436531    0.131640
  N      1.486682   -0.601607    0.080732
  C      2.284264   -0.238987    1.126328
  C      3.220551    0.610775    0.612296
  N      3.009947    0.782744   -0.721546
  C      1.964167    0.047871   -1.001886
  H     -4.165194    1.515407   -0.179711
  H     -2.424933    2.071286    1.479070
  H     -0.378924    0.717251    1.619874
  H     -1.794324   -1.753181   -1.561705
  H     -3.843851   -0.402846   -1.697802
  H      0.330894   -1.987775    1.075885
  H      0.347991   -2.152213   -0.693854
  H      2.134017   -0.612341    2.117929
  H      4.029642    1.107604    1.108853
  H      1.527945   -0.040461   -1.976423

 Total Charge           Charge          ....    0
 Multiplicity           Mult            ....    1
 Number of Electrons    NEL             ....   84
 Basis Dimension        Dim             ....  188

ORBITAL ENERGIES
----------------

  NO   OCC          E(Eh)            E(eV)
   0   2.0000     -14.056926      -382.5084
   1   2.0000     -13.957547      -379.8042
   2   2.0000      -9.949216      -270.7319
   3   2.0000      -9.925290      -270.0809
   4   2.0000      -9.914828      -269.7962
   5   2.0000      -9.909229      -269.6438
   6   2.0000      -9.903407      -269.4854
   7   2.0000      -9.903112      -269.4774
   8   2.0000      -9.902669      -269.4653
   9   2.0000      -9.902562      -269.4624
  10   2.0000      -9.902169      -269.4517
  11   2.0000      -9.891642      -269.1653
  12   2.0000      -0.936497       -25.4834
  13   2.0000      -0.812039       -22.0967
  14   2.0000      -0.783898       -21.3309
  15   2.0000      -0.706498       -19.2248
  16   2.0000      -0.681368       -18.5410
  17   2.0000      -0.667067       -18.1518
  18   2.0000      -0.636112       -17.3095
  19   2.0000      -0.558323       -15.1927
  20   2.0000      -0.546084       -14.8597
  21   2.0000      -0.537591       -14.6286
  22   2.0000      -0.512131       -13.9358
  23   2.0000      -0.491661       -13.3788
  24   2.0000      -0.472864       -12.8673
  25   2.0000      -0.431537       -11.7427
  26   2.0000      -0.419650       -11.4193
  27   2.0000      -0.405309       -11.0290
  28   2.0000      -0.399917       -10.8823
  29   2.0000      -0.386301       -10.5118
  30   2.0000      -0.384981       -10.4759
  31   2.0000      -0.368533       -10.0283
  32   2.0000      -0.360878        -9.8200
  33   2.0000      -0.352431        -9.5901
  34   2.0000      -0.338090        -9.1999
  35   2.0000      -0.315592        -8.5877
  36   2.0000      -0.310000        -8.4355
  37   2.0000      -0.244877        -6.6634
  38   2.0000      -0.240965        -6.5570
  39   2.0000      -0.233094        -6.3428
  40   2.0000      -0.208291        -5.6679
  41   2.0000      -0.198399        -5.3987
  42   0.0000      -0.050225        -1.3667
  43   0.0000      -0.044957        -1.2233
  44   0.0000      -0.004705        -0.1280
  45   0.0000       0.030552         0.8314
  46   0.0000       0.039744         1.0815

MULLIKEN ATOMIC CHARGES
-----------------------
   0 C :   -0.044357
   1 C :   -0.046781
   2 C :   -0.099889
   3 C :    0.031152
   4 C :   -0.114233
   5 C :   -0.047902
   6 C :    0.028481
   7 N :   -0.131619
   8 C :   -0.045406
   9 C :   -0.085144
  10 N :   -0.123473
  11 C :   -0.004715
  12 H :    0.058768
  13 H :    0.058297
  14 H :    0.057553
  15 H :    0.042027
  16 H :    0.056621
  17 H :    0.115135
  18 H :    0.098765
  19 H :    0.065285
  20 H :    0.060167
  21 H :    0.071268
Sum of atomic charges:    0.0000000

LOEWDIN ATOMIC CHARGES
----------------------
   0 C :   -0.120262
   1 C :   -0.114618
   2 C :   -0.114298
   3 C :   -0.058481
   4 C :   -0.123176
   5 C :   -0.117515
   6 C :   -0.124367
   7 N :    0.056862
   8 C :   -0.159496
   9 C :   -0.149299
  10 N :   -0.114089
  11 C :   -0.108693
  12 H :    0.126034
  13 H :    0.126975
  14 H :    0.127394
  15 H :    0.122586
  16 H :    0.126112
  17 H :    0.137014
  18 H :    0.129033
  19 H :    0.121290
  20 H :    0.115413
  21 H :    0.115580

  Mayer bond orders larger than 0.100000
B(  0-C ,  1-C ) :   1.3711 B(  0-C ,  5-C ) :   1.3897 B(  0-C , 12-H ) :   0.9651
B(  1-C ,  2-C ) :   1.3919 B(  1-C , 13-H ) :   0.9643 B(  2-C ,  3-C ) :   1.3847
B(  2-C , 14-H ) :   0.9549 B(  3-C ,  4-C ) :   1.3975 B(  3-C ,  6-C ) :   1.0547
B(  4-C ,  5-C ) :   1.3691 B(  4-C , 15-H ) :   0.9602 B(  5-C , 16-H ) :   0.9630
B(  6-C ,  7-N ) :   0.9922 B(  6-C , 17-H ) :   0.9029 B(  6-C , 18-H ) :   0.9094
B(  7-N ,  8-C ) :   1.1858 B(  7-N , 11-C ) :   1.2129 B(  8-C ,  9-C ) :   1.4705
B(  8-C , 19-H ) :   0.9604 B(  9-C , 10-N ) :   1.4131 B(  9-C , 20-H ) :   0.9784
B( 10-N , 11-C ) :   1.6351 B( 11-C , 21-H ) :   0.9571

Dispersion correction           -0.025939631
FINAL SINGLE POINT ENERGY      -495.509693915030

DIPOLE MOMENT
-------------

Method             : SCF
Type of density    : Electron Density
Multiplicity       :   1
Irrep              :   0
Energy             :  -495.5715920520495956 Eh
Relativity type    :
Basis              : AO
                                X                 Y                 Z
Electronic contribution:      2.759054293       0.629696952      -0.730494512
Nuclear contribution   :     -3.950099196      -1.441226552       1.208707662
                        -----------------------------------------
Total Dipole Moment    :     -1.191044903      -0.811529600       0.478213150
                        -----------------------------------------
Magnitude (a.u.)       :      1.518504551
Magnitude (Debye)      :      3.859731830

Rotational constants in cm-1:             0.081313             0.018409             0.017445
Rotational constants in MHz :          2437.691069           551.886348           522.995018

                             ****ORCA TERMINATED NORMALLY****
TOTAL RUN TIME: 0 days 0 hours 0 minutes 13 seconds 611 msec
