                         Program Version 6.0.0  -   RELEASE  -
|  1> ! pbe def2-sv(p) def2/J RI DEFGRID1 loosescf d4 GCP(DFT/SV(P)) printgap
|  2> %output
|  3>     printlevel normal
|  4> end
|  5> * xyz 0 1
|  6> C -2.2270918507 0.6906286418 -0.8481871295
|  7> C -1.7830029515 0.5351093864 0.6011869258
|  8> C -0.8898719743 -0.6975938315 0.7936578611
|  9> C 0.4059621002 -0.5527254375 0.0384519284
| 10> O 0.7526682484 -1.2571266162 -0.8875556624
| 11> O 1.1314531568 0.4523944797 0.512066193
| 12> C 2.3920453695 0.7509455423 -0.0938926152
| 13> H -2.8514586156 1.5728059257 -0.9614806654
| 14> H -1.366126161 0.7898885593 -1.5067660942
| 15> H -2.7955632985 -0.1794349678 -1.1681835715
| 16> H -2.6601536946 0.4295092921 1.2403023265
| 17> H -1.2333893823 1.4223482497 0.9185960906
| 18> H -1.393712952 -1.5947846744 0.4346418727
| 19> H -0.6512412579 -0.8093261236 1.8516301058
| 20> H 2.5621545763 0.0871638605 -0.9423274486
| 21> H 3.1656182764 0.6109300688 0.6590305631
| 22> H 2.3640860458 1.7892346832 -0.4186873654
| 23> *
| 24>
| 25>                          ****END OF INPUT****

CARTESIAN COORDINATES (ANGSTROEM)
---------------------------------
  C     -2.227092    0.690629   -0.848187
  C     -1.783003    0.535109    0.601187
  C     -0.889872   -0.697594    0.793658
  C      0.405962   -0.552725    0.038452
  O      0.752668   -1.257127   -0.887556
  O      1.131453    0.452394    0.512066
  C      2.392045    0.750946   -0.093893
  H     -2.851459    1.572806   -0.961481
  H     -1.366126    0.789889   -1.506766
  H     -2.795563   -0.179435   -1.168184
  H     -2.660154    0.429509    1.240302
  H     -1.233389    1.422348    0.918596
  H     -1.393713   -1.594785    0.434642
  H     -0.651241   -0.809326    1.851630
  H      2.562155    0.087164   -0.942327
  H      3.165618    0.610930    0.659031
  H      2.364086    1.789235   -0.418687

 Total Charge           Charge          ....    0
 Multiplicity           Mult            ....    1
 Number of Electrons    NEL             ....   56
 Basis Dimension        Dim             ....  118

ORBITAL ENERGIES
----------------

  NO   OCC          E(Eh)            E(eV)
   0   2.0000     -18.799714      -511.5662
   1   2.0000     -18.730641      -509.6866
   2   2.0000     -10.005276      -272.2574
   3   2.0000      -9.940489      -270.4944
   4   2.0000      -9.896639      -269.3012
   5   2.0000      -9.894254      -269.2364
   6   2.0000      -9.877525      -268.7811
   7   2.0000      -1.004928       -27.3455
   8   2.0000      -0.907910       -24.7055
   9   2.0000      -0.728129       -19.8134
  10   2.0000      -0.670109       -18.2346
  11   2.0000      -0.620635       -16.8883
  12   2.0000      -0.540009       -14.6944
  13   2.0000      -0.506210       -13.7747
  14   2.0000      -0.450563       -12.2604
  15   2.0000      -0.436965       -11.8904
  16   2.0000      -0.413535       -11.2529
  17   2.0000      -0.399885       -10.8814
  18   2.0000      -0.398311       -10.8386
  19   2.0000      -0.364459        -9.9174
  20   2.0000      -0.348858        -9.4929
  21   2.0000      -0.347153        -9.4465
  22   2.0000      -0.313882        -8.5412
  23   2.0000      -0.300786        -8.1848
  24   2.0000      -0.299199        -8.1416
  25   2.0000      -0.294382        -8.0106
  26   2.0000      -0.255030        -6.9397
  27   2.0000      -0.215760        -5.8711
  28   0.0000      -0.019066        -0.5188
  29   0.0000       0.039386         1.0717
  30   0.0000       0.059344         1.6148
  31   0.0000       0.080648         2.1946
  32   0.0000       0.083687         2.2773

MULLIKEN ATOMIC CHARGES
-----------------------
   0 C :   -0.286131
   1 C :   -0.216860
   2 C :   -0.106351
   3 C :    0.078185
   4 O :   -0.198135
   5 O :   -0.246851
   6 C :   -0.130133
   7 H :    0.106036
   8 H :    0.118049
   9 H :    0.103467
  10 H :    0.094710
  11 H :    0.102817
  12 H :    0.097972
  13 H :    0.106549
  14 H :    0.133576
  15 H :    0.122222
  16 H :    0.120877
Sum of atomic charges:   -0.0000000

LOEWDIN ATOMIC CHARGES
----------------------
   0 C :   -0.342369
   1 C :   -0.229142
   2 C :   -0.241703
   3 C :    0.033147
   4 O :   -0.168564
   5 O :   -0.075597
   6 C :   -0.209331
   7 H :    0.120655
   8 H :    0.120847
   9 H :    0.120613
  10 H :    0.118795
  11 H :    0.119646
  12 H :    0.132017
  13 H :    0.136957
  14 H :    0.124259
  15 H :    0.120188
  16 H :    0.119582

  Mayer bond orders larger than 0.100000
B(  0-C ,  1-C ) :   1.1524 B(  0-C ,  7-H ) :   0.9515 B(  0-C ,  8-H ) :   0.9483
B(  0-C ,  9-H ) :   0.9535 B(  1-C ,  2-C ) :   1.1088 B(  1-C , 10-H ) :   0.9274
B(  1-C , 11-H ) :   0.9248 B(  2-C ,  3-C ) :   1.0232 B(  2-C , 12-H ) :   0.9121
B(  2-C , 13-H ) :   0.8963 B(  3-C ,  4-O ) :   2.0777 B(  3-C ,  5-O ) :   1.1898
B(  5-O ,  6-C ) :   0.9382 B(  6-C , 14-H ) :   0.9278 B(  6-C , 15-H ) :   0.9613
B(  6-C , 16-H ) :   0.9603

Dispersion correction           -0.012435653
FINAL SINGLE POINT ENERGY      -346.238484841930

DIPOLE MOMENT
-------------

Method             : SCF
Type of density    : Electron Density
Multiplicity       :   1
Irrep              :   0
Energy             :  -346.3032706795048625 Eh
Relativity type    :
Basis              : AO
                                X                 Y                 Z
Electronic contribution:      4.583807446      -3.228611591       0.365122495
Nuclear contribution   :     -4.531357987       3.851755618       0.094587737
                        -----------------------------------------
Total Dipole Moment    :      0.052449459       0.623144027       0.459710232
                        -----------------------------------------
Magnitude (a.u.)       :      0.776139757
Magnitude (Debye)      :      1.972790481

Rotational constants in cm-1:             0.146118             0.055054             0.051412
Rotational constants in MHz :          4380.506546          1650.490859          1541.302201

                             ****ORCA TERMINATED NORMALLY****
TOTAL RUN TIME: 0 days 0 hours 0 minutes 10 seconds 211 msec
