                         Program Version 6.0.0  -   RELEASE  -
|  1> ! pbe def2-sv(p) def2/J RI DEFGRID1 loosescf d4 GCP(DFT/SV(P)) printgap
|  2> %output
|  3>     printlevel normal
|  4> end
|  5> * xyz 0 1
|  6> C -2.165290762 1.0365807321 -0.6363649975
|  7> C -2.0866571655 -0.2810389358 0.1252149645
|  8> C -0.8233692257 -0.3590919577 0.9883172406
|  9> C 0.4131873999 -0.4112145003 0.1287895996
| 10> O 0.5935616001 -1.1933411851 -0.7813679264
| 11> O 1.2933900554 0.5143902854 0.4916160534
| 12> C 2.539592202 0.6066542804 -0.2060606894
| 13> H -3.0811290222 1.0829803218 -1.2193859158
| 14> H -2.1493288621 1.877962848 0.0522708327
| 15> H -1.3215425516 1.1322603167 -1.3172714113
| 16> H -2.0781275891 -1.1132386423 -0.5811401076
| 17> H -2.9597956134 -0.3851655292 0.7696431812
| 18> H -0.8456017567 -1.2753066023 1.5810196846
| 19> H -0.7486476749 0.4992518824 1.6548448466
| 20> H 2.6514068277 1.6372454532 -0.5359552044
| 21> H 2.5377216148 -0.0741103392 -1.0581311345
| 22> H 3.3355587778 0.3423199288 0.488120354
| 23> *
| 24>
| 25>                          ****END OF INPUT****

CARTESIAN COORDINATES (ANGSTROEM)
---------------------------------
  C     -2.165291    1.036581   -0.636365
  C     -2.086657   -0.281039    0.125215
  C     -0.823369   -0.359092    0.988317
  C      0.413187   -0.411215    0.128790
  O      0.593562   -1.193341   -0.781368
  O      1.293390    0.514390    0.491616
  C      2.539592    0.606654   -0.206061
  H     -3.081129    1.082980   -1.219386
  H     -2.149329    1.877963    0.052271
  H     -1.321543    1.132260   -1.317271
  H     -2.078128   -1.113239   -0.581140
  H     -2.959796   -0.385166    0.769643
  H     -0.845602   -1.275307    1.581020
  H     -0.748648    0.499252    1.654845
  H      2.651407    1.637245   -0.535955
  H      2.537722   -0.074110   -1.058131
  H      3.335559    0.342320    0.488120

 Total Charge           Charge          ....    0
 Multiplicity           Mult            ....    1
 Number of Electrons    NEL             ....   56
 Basis Dimension        Dim             ....  118

ORBITAL ENERGIES
----------------

  NO   OCC          E(Eh)            E(eV)
   0   2.0000     -18.800146      -511.5780
   1   2.0000     -18.731628      -509.7135
   2   2.0000     -10.005627      -272.2670
   3   2.0000      -9.940013      -270.4815
   4   2.0000      -9.896399      -269.2947
   5   2.0000      -9.890744      -269.1408
   6   2.0000      -9.876851      -268.7628
   7   2.0000      -1.004653       -27.3380
   8   2.0000      -0.909171       -24.7398
   9   2.0000      -0.725077       -19.7304
  10   2.0000      -0.672162       -18.2904
  11   2.0000      -0.620161       -16.8754
  12   2.0000      -0.539469       -14.6797
  13   2.0000      -0.499354       -13.5881
  14   2.0000      -0.450810       -12.2672
  15   2.0000      -0.438771       -11.9396
  16   2.0000      -0.419546       -11.4164
  17   2.0000      -0.404175       -10.9982
  18   2.0000      -0.389927       -10.6105
  19   2.0000      -0.360745        -9.8164
  20   2.0000      -0.354496        -9.6463
  21   2.0000      -0.346363        -9.4250
  22   2.0000      -0.309241        -8.4149
  23   2.0000      -0.299062        -8.1379
  24   2.0000      -0.297124        -8.0852
  25   2.0000      -0.291501        -7.9322
  26   2.0000      -0.255575        -6.9546
  27   2.0000      -0.220223        -5.9926
  28   0.0000      -0.019611        -0.5336
  29   0.0000       0.041267         1.1229
  30   0.0000       0.061171         1.6646
  31   0.0000       0.079668         2.1679
  32   0.0000       0.084722         2.3054

MULLIKEN ATOMIC CHARGES
-----------------------
   0 C :   -0.289044
   1 C :   -0.198808
   2 C :   -0.130624
   3 C :    0.086165
   4 O :   -0.205424
   5 O :   -0.238312
   6 C :   -0.133085
   7 H :    0.107766
   8 H :    0.098861
   9 H :    0.115647
  10 H :    0.108717
  11 H :    0.091202
  12 H :    0.114731
  13 H :    0.093743
  14 H :    0.122488
  15 H :    0.133644
  16 H :    0.122336
Sum of atomic charges:   -0.0000000

LOEWDIN ATOMIC CHARGES
----------------------
   0 C :   -0.342437
   1 C :   -0.227460
   2 C :   -0.246637
   3 C :    0.035743
   4 O :   -0.173210
   5 O :   -0.072857
   6 C :   -0.210173
   7 H :    0.121683
   8 H :    0.117178
   9 H :    0.120447
  10 H :    0.125024
  11 H :    0.117952
  12 H :    0.142687
  13 H :    0.126631
  14 H :    0.120664
  15 H :    0.124227
  16 H :    0.120537

  Mayer bond orders larger than 0.100000
B(  0-C ,  1-C ) :   1.1546 B(  0-C ,  7-H ) :   0.9522 B(  0-C ,  8-H ) :   0.9538
B(  0-C ,  9-H ) :   0.9495 B(  1-C ,  2-C ) :   1.1130 B(  1-C , 10-H ) :   0.9194
B(  1-C , 11-H ) :   0.9283 B(  2-C ,  3-C ) :   1.0112 B(  2-C , 12-H ) :   0.8936
B(  2-C , 13-H ) :   0.9113 B(  3-C ,  4-O ) :   2.0595 B(  3-C ,  5-O ) :   1.2180
B(  5-O ,  6-C ) :   0.9366 B(  6-C , 14-H ) :   0.9607 B(  6-C , 15-H ) :   0.9286
B(  6-C , 16-H ) :   0.9605

Dispersion correction           -0.012317939
FINAL SINGLE POINT ENERGY      -346.239430334449

DIPOLE MOMENT
-------------

Method             : SCF
Type of density    : Electron Density
Multiplicity       :   1
Irrep              :   0
Energy             :  -346.3042356338048080 Eh
Relativity type    :
Basis              : AO
                                X                 Y                 Z
Electronic contribution:      4.502938061      -2.957362949       0.546515522
Nuclear contribution   :     -4.343400559       3.483855720      -0.160017472
                        -----------------------------------------
Total Dipole Moment    :      0.159537502       0.526492771       0.386498050
                        -----------------------------------------
Magnitude (a.u.)       :      0.672329974
Magnitude (Debye)      :      1.708926984

Rotational constants in cm-1:             0.163237             0.051683             0.048872
Rotational constants in MHz :          4893.728593          1549.419941          1465.145205

                             ****ORCA TERMINATED NORMALLY****
TOTAL RUN TIME: 0 days 0 hours 0 minutes 10 seconds 2 msec
