                         Program Version 6.0.0  -   RELEASE  -
|  1> ! pbe def2-sv(p) def2/J RI DEFGRID1 loosescf d4 GCP(DFT/SV(P)) printgap
|  2> %output
|  3>     printlevel normal
|  4> end
|  5> * xyz 0 1
|  6> C -2.6001242898 0.3318686746 0.2018805287
|  7> C -2.2205133058 -0.9833288393 0.4131135586
|  8> C -0.9071898005 -1.364524095 0.2123284884
|  9> C 0.0508940983 -0.4458280587 -0.2073676489
| 10> C -0.3408798954 0.8691762811 -0.4161303927
| 11> C -1.6555576076 1.254426109 -0.2104844009
| 12> C 1.4616526446 -0.9306746316 -0.4314839957
| 13> C 2.5425768367 0.1527238081 -0.4397828396
| 14> O 2.5630026306 0.9507641025 0.7239447761
| 15> H -3.6241720012 0.6350162149 0.3610871588
| 16> H -2.9488081384 -1.7117957589 0.7378592491
| 17> H -0.6176070977 -2.392201227 0.3810983712
| 18> H 0.3793377379 1.6094719236 -0.7256799536
| 19> H -1.940771425 2.2832933114 -0.3740367948
| 20> H 1.7003251344 -1.6669349618 0.3408254538
| 21> H 1.5056253264 -1.4468919268 -1.3946483996
| 22> H 3.5212004821 -0.3277877089 -0.5835025945
| 23> H 2.387837947 0.8474604499 -1.2682424266
| 24> H 2.6765717701 0.3790725382 1.4954706814
| 25> *
| 26>
| 27>                          ****END OF INPUT****

CARTESIAN COORDINATES (ANGSTROEM)
---------------------------------
  C     -2.600124    0.331869    0.201881
  C     -2.220513   -0.983329    0.413114
  C     -0.907190   -1.364524    0.212328
  C      0.050894   -0.445828   -0.207368
  C     -0.340880    0.869176   -0.416130
  C     -1.655558    1.254426   -0.210484
  C      1.461653   -0.930675   -0.431484
  C      2.542577    0.152724   -0.439783
  O      2.563003    0.950764    0.723945
  H     -3.624172    0.635016    0.361087
  H     -2.948808   -1.711796    0.737859
  H     -0.617607   -2.392201    0.381098
  H      0.379338    1.609472   -0.725680
  H     -1.940771    2.283293   -0.374037
  H      1.700325   -1.666935    0.340825
  H      1.505625   -1.446892   -1.394648
  H      3.521200   -0.327788   -0.583503
  H      2.387838    0.847460   -1.268242
  H      2.676572    0.379073    1.495471

 Total Charge           Charge          ....    0
 Multiplicity           Mult            ....    1
 Number of Electrons    NEL             ....   66
 Basis Dimension        Dim             ....  146

ORBITAL ENERGIES
----------------

  NO   OCC          E(Eh)            E(eV)
   0   2.0000     -18.743356      -510.0326
   1   2.0000      -9.934470      -270.3307
   2   2.0000      -9.899850      -269.3886
   3   2.0000      -9.895638      -269.2740
   4   2.0000      -9.886843      -269.0347
   5   2.0000      -9.886782      -269.0330
   6   2.0000      -9.885581      -269.0003
   7   2.0000      -9.885550      -268.9995
   8   2.0000      -9.885487      -268.9978
   9   2.0000      -0.920432       -25.0462
  10   2.0000      -0.774387       -21.0721
  11   2.0000      -0.705185       -19.1891
  12   2.0000      -0.665071       -18.0975
  13   2.0000      -0.642116       -17.4729
  14   2.0000      -0.573460       -15.6047
  15   2.0000      -0.536775       -14.6064
  16   2.0000      -0.516932       -14.0664
  17   2.0000      -0.470836       -12.8121
  18   2.0000      -0.435894       -11.8613
  19   2.0000      -0.418658       -11.3923
  20   2.0000      -0.409101       -11.1322
  21   2.0000      -0.394753       -10.7418
  22   2.0000      -0.376254       -10.2384
  23   2.0000      -0.366000        -9.9594
  24   2.0000      -0.351234        -9.5576
  25   2.0000      -0.343569        -9.3490
  26   2.0000      -0.315930        -8.5969
  27   2.0000      -0.297290        -8.0897
  28   2.0000      -0.293926        -7.9981
  29   2.0000      -0.274008        -7.4561
  30   2.0000      -0.225993        -6.1496
  31   2.0000      -0.216837        -5.9004
  32   2.0000      -0.214073        -5.8252
  33   0.0000      -0.031047        -0.8448
  34   0.0000      -0.028111        -0.7649
  35   0.0000       0.024413         0.6643
  36   0.0000       0.050172         1.3652
  37   0.0000       0.064438         1.7535

MULLIKEN ATOMIC CHARGES
-----------------------
   0 C :   -0.048797
   1 C :   -0.046660
   2 C :   -0.117578
   3 C :    0.067485
   4 C :   -0.107742
   5 C :   -0.049701
   6 C :   -0.168498
   7 C :    0.018823
   8 O :   -0.434011
   9 H :    0.049912
  10 H :    0.048780
  11 H :    0.034454
  12 H :    0.050094
  13 H :    0.049347
  14 H :    0.082896
  15 H :    0.103102
  16 H :    0.078696
  17 H :    0.094042
  18 H :    0.295355
Sum of atomic charges:   -0.0000000

LOEWDIN ATOMIC CHARGES
----------------------
   0 C :   -0.129081
   1 C :   -0.123387
   2 C :   -0.125452
   3 C :   -0.043164
   4 C :   -0.119584
   5 C :   -0.121120
   6 C :   -0.239301
   7 C :   -0.122732
   8 O :   -0.339566
   9 H :    0.121843
  10 H :    0.121849
  11 H :    0.118572
  12 H :    0.125920
  13 H :    0.122709
  14 H :    0.120384
  15 H :    0.137022
  16 H :    0.098442
  17 H :    0.113187
  18 H :    0.283460

  Mayer bond orders larger than 0.100000
B(  0-C ,  1-C ) :   1.3742 B(  0-C ,  5-C ) :   1.3850 B(  0-C ,  9-H ) :   0.9653
B(  1-C ,  2-C ) :   1.3846 B(  1-C , 10-H ) :   0.9632 B(  2-C ,  3-C ) :   1.3855
B(  2-C , 11-H ) :   0.9639 B(  3-C ,  4-C ) :   1.4209 B(  3-C ,  6-C ) :   1.0330
B(  4-C ,  5-C ) :   1.3632 B(  4-C , 12-H ) :   0.9518 B(  5-C , 13-H ) :   0.9616
B(  6-C ,  7-C ) :   1.1327 B(  6-C , 14-H ) :   0.9072 B(  6-C , 15-H ) :   0.8837
B(  7-C ,  8-O ) :   1.0746 B(  7-C , 16-H ) :   0.9246 B(  7-C , 17-H ) :   0.9109
B(  8-O , 18-H ) :   0.8537

Dispersion correction           -0.018810961
FINAL SINGLE POINT ENERGY      -385.217263755966

DIPOLE MOMENT
-------------

Method             : SCF
Type of density    : Electron Density
Multiplicity       :   1
Irrep              :   0
Energy             :  -385.2794667371401829 Eh
Relativity type    :
Basis              : AO
                                X                 Y                 Z
Electronic contribution:     -2.684782543       1.079467514       1.003273774
Nuclear contribution   :      2.889584981      -1.666448574      -0.955368401
                        -----------------------------------------
Total Dipole Moment    :      0.204802438      -0.586981060       0.047905374
                        -----------------------------------------
Magnitude (a.u.)       :      0.623526846
Magnitude (Debye)      :      1.584879291

Rotational constants in cm-1:             0.121922             0.035188             0.029886
Rotational constants in MHz :          3655.127637          1054.905139           895.974717

                             ****ORCA TERMINATED NORMALLY****
TOTAL RUN TIME: 0 days 0 hours 0 minutes 8 seconds 118 msec
