                         Program Version 6.0.0  -   RELEASE  -
|  1> ! pbe def2-sv(p) def2/J RI DEFGRID1 loosescf d4 GCP(DFT/SV(P)) printgap
|  2> %output
|  3>     printlevel normal
|  4> end
|  5> * xyz 0 1
|  6> C 1.4734894194 -0.9947856229 -0.7269573083
|  7> C 1.2611900819 0.0457190636 0.3713200239
|  8> C 1.630837984 1.4489932046 -0.1255560177
|  9> O -0.0001592405 -0.0003249159 1.0392178866
| 10> C -1.2613097398 -0.0460178655 0.370891351
| 11> C -1.4733285174 0.995312751 -0.726656404
| 12> C -1.6307314812 -1.4489276648 -0.1271556046
| 13> H 1.2054316329 -1.9856200741 -0.3710991375
| 14> H 0.8902872467 -0.7602961691 -1.6131770997
| 15> H 2.5249854355 -0.9968420129 -1.001559009
| 16> H 1.9361069866 -0.1976573375 1.2043149777
| 17> H 2.707372762 1.5040890494 -0.2620273857
| 18> H 1.3353700717 2.1892687539 0.6136548823
| 19> H 1.1518829963 1.68142041 -1.0714613718
| 20> H -1.9364964783 0.1966718368 1.2038651817
| 21> H -0.8899761247 0.7614801755 -1.6129565257
| 22> H -2.5247762046 0.9976484878 -1.0014389146
| 23> H -1.205277406 1.9858593737 -0.3699830207
| 24> H -1.1514406802 -1.6806423211 -1.0730490041
| 25> H -2.7072234382 -1.5040138179 -0.2640473671
| 26> H -1.3354796951 -2.1897105993 0.6116318341
| 27> *
| 28>
| 29>                          ****END OF INPUT****

CARTESIAN COORDINATES (ANGSTROEM)
---------------------------------
  C      1.473489   -0.994786   -0.726957
  C      1.261190    0.045719    0.371320
  C      1.630838    1.448993   -0.125556
  O     -0.000159   -0.000325    1.039218
  C     -1.261310   -0.046018    0.370891
  C     -1.473329    0.995313   -0.726656
  C     -1.630731   -1.448928   -0.127156
  H      1.205432   -1.985620   -0.371099
  H      0.890287   -0.760296   -1.613177
  H      2.524985   -0.996842   -1.001559
  H      1.936107   -0.197657    1.204315
  H      2.707373    1.504089   -0.262027
  H      1.335370    2.189269    0.613655
  H      1.151883    1.681420   -1.071461
  H     -1.936496    0.196672    1.203865
  H     -0.889976    0.761480   -1.612957
  H     -2.524776    0.997648   -1.001439
  H     -1.205277    1.985859   -0.369983
  H     -1.151441   -1.680642   -1.073049
  H     -2.707223   -1.504014   -0.264047
  H     -1.335480   -2.189711    0.611632

 Total Charge           Charge          ....    0
 Multiplicity           Mult            ....    1
 Number of Electrons    NEL             ....   58
 Basis Dimension        Dim             ....  126

ORBITAL ENERGIES
----------------

  NO   OCC          E(Eh)            E(eV)
   0   2.0000     -18.735213      -509.8111
   1   2.0000      -9.936188      -270.3774
   2   2.0000      -9.936111      -270.3753
   3   2.0000      -9.875416      -268.7237
   4   2.0000      -9.875389      -268.7230
   5   2.0000      -9.870233      -268.5827
   6   2.0000      -9.870210      -268.5821
   7   2.0000      -0.913221       -24.8500
   8   2.0000      -0.712844       -19.3975
   9   2.0000      -0.678076       -18.4514
  10   2.0000      -0.620259       -16.8781
  11   2.0000      -0.607723       -16.5370
  12   2.0000      -0.556720       -15.1491
  13   2.0000      -0.484527       -13.1846
  14   2.0000      -0.428039       -11.6475
  15   2.0000      -0.415492       -11.3061
  16   2.0000      -0.398699       -10.8491
  17   2.0000      -0.382240       -10.4013
  18   2.0000      -0.376100       -10.2342
  19   2.0000      -0.357296        -9.7225
  20   2.0000      -0.351264        -9.5584
  21   2.0000      -0.336056        -9.1446
  22   2.0000      -0.334995        -9.1157
  23   2.0000      -0.328155        -8.9296
  24   2.0000      -0.313699        -8.5362
  25   2.0000      -0.297001        -8.0818
  26   2.0000      -0.279470        -7.6048
  27   2.0000      -0.235404        -6.4057
  28   2.0000      -0.195615        -5.3230
  29   0.0000       0.030744         0.8366
  30   0.0000       0.056017         1.5243
  31   0.0000       0.059875         1.6293
  32   0.0000       0.076850         2.0912
  33   0.0000       0.081233         2.2105

MULLIKEN ATOMIC CHARGES
-----------------------
   0 C :   -0.277610
   1 C :    0.014708
   2 C :   -0.260476
   3 O :   -0.334674
   4 C :    0.014717
   5 C :   -0.277613
   6 C :   -0.260475
   7 H :    0.113270
   8 H :    0.106045
   9 H :    0.101606
  10 H :    0.070854
  11 H :    0.095945
  12 H :    0.106336
  13 H :    0.096658
  14 H :    0.070853
  15 H :    0.106043
  16 H :    0.101603
  17 H :    0.113271
  18 H :    0.096656
  19 H :    0.095950
  20 H :    0.106333
Sum of atomic charges:    0.0000000

LOEWDIN ATOMIC CHARGES
----------------------
   0 C :   -0.351347
   1 C :   -0.048497
   2 C :   -0.352667
   3 O :   -0.170298
   4 C :   -0.048493
   5 C :   -0.351347
   6 C :   -0.352667
   7 H :    0.123400
   8 H :    0.115493
   9 H :    0.125858
  10 H :    0.112759
  11 H :    0.121978
  12 H :    0.122367
  13 H :    0.115802
  14 H :    0.112762
  15 H :    0.115491
  16 H :    0.125856
  17 H :    0.123400
  18 H :    0.115803
  19 H :    0.121981
  20 H :    0.122367

  Mayer bond orders larger than 0.100000
B(  0-C ,  1-C ) :   1.1095 B(  0-C ,  7-H ) :   0.9363 B(  0-C ,  8-H ) :   0.9366
B(  0-C ,  9-H ) :   0.9377 B(  1-C ,  2-C ) :   1.1070 B(  1-C ,  3-O ) :   1.0391
B(  1-C , 10-H ) :   0.9158 B(  2-C , 11-H ) :   0.9401 B(  2-C , 12-H ) :   0.9434
B(  2-C , 13-H ) :   0.9396 B(  3-O ,  4-C ) :   1.0391 B(  4-C ,  5-C ) :   1.1095
B(  4-C ,  6-C ) :   1.1070 B(  4-C , 14-H ) :   0.9158 B(  5-C , 15-H ) :   0.9366
B(  5-C , 16-H ) :   0.9377 B(  5-C , 17-H ) :   0.9363 B(  6-C , 18-H ) :   0.9396
B(  6-C , 19-H ) :   0.9401 B(  6-C , 20-H ) :   0.9434

Dispersion correction           -0.017198894
FINAL SINGLE POINT ENERGY      -311.512807165573

DIPOLE MOMENT
-------------

Method             : SCF
Type of density    : Electron Density
Multiplicity       :   1
Irrep              :   0
Energy             :  -311.5902925999791933 Eh
Relativity type    :
Basis              : AO
                                X                 Y                 Z
Electronic contribution:     -0.000666663      -0.001460938       4.253775590
Nuclear contribution   :      0.000717306       0.001548547      -4.682273516
                        -----------------------------------------
Total Dipole Moment    :      0.000050643       0.000087609      -0.428497927
                        -----------------------------------------
Magnitude (a.u.)       :      0.428497938
Magnitude (Debye)      :      1.089155203

Rotational constants in cm-1:             0.116567             0.065931             0.055158
Rotational constants in MHz :          3494.585022          1976.559264          1653.610211

                             ****ORCA TERMINATED NORMALLY****
TOTAL RUN TIME: 0 days 0 hours 0 minutes 7 seconds 746 msec
