                         Program Version 6.0.0  -   RELEASE  -
|  1> ! pbe def2-sv(p) def2/J RI DEFGRID1 loosescf d4 GCP(DFT/SV(P)) printgap
|  2> %output
|  3>     printlevel normal
|  4> end
|  5> * xyz 0 1
|  6> C -1.6479897811 -1.2523939779 -0.5903194013
|  7> C -1.3909811276 0.0102136942 0.2237591586
|  8> C -0.0091371646 0.6330453662 -0.0113545894
|  9> C 0.0726527464 1.9696560353 0.7278340999
| 10> C 1.1376983986 -0.2968161496 0.4282170537
| 11> C 1.820669546 -1.0038409575 -0.7383639498
| 12> H -2.6691997362 -1.5943753208 -0.4371478625
| 13> H -1.5086892425 -1.0559857585 -1.6512461935
| 14> H -0.9759931808 -2.0531031137 -0.2937440318
| 15> H -1.5023881159 -0.215515288 1.2872959185
| 16> H -2.1511072272 0.7518274835 -0.03450194
| 17> H 0.0959835543 0.832093964 -1.0836680359
| 18> H 1.0235997614 2.4589683657 0.5304965134
| 19> H -0.0200968671 1.8142813041 1.8007790136
| 20> H -0.7262811205 2.6351380439 0.4080593919
| 21> H 1.8912875613 0.2895949027 0.9581016803
| 22> H 0.757430055 -1.0396876361 1.1319935502
| 23> H 2.6136197026 -1.6535893209 -0.3740872222
| 24> H 2.2613593639 -0.2752042761 -1.4155571089
| 25> H 1.1141033798 -1.6078341955 -1.3007353305
| 26> *
| 27>
| 28>                          ****END OF INPUT****

CARTESIAN COORDINATES (ANGSTROEM)
---------------------------------
  C     -1.647990   -1.252394   -0.590319
  C     -1.390981    0.010214    0.223759
  C     -0.009137    0.633045   -0.011355
  C      0.072653    1.969656    0.727834
  C      1.137698   -0.296816    0.428217
  C      1.820670   -1.003841   -0.738364
  H     -2.669200   -1.594375   -0.437148
  H     -1.508689   -1.055986   -1.651246
  H     -0.975993   -2.053103   -0.293744
  H     -1.502388   -0.215515    1.287296
  H     -2.151107    0.751827   -0.034502
  H      0.095984    0.832094   -1.083668
  H      1.023600    2.458968    0.530497
  H     -0.020097    1.814281    1.800779
  H     -0.726281    2.635138    0.408059
  H      1.891288    0.289595    0.958102
  H      0.757430   -1.039688    1.131994
  H      2.613620   -1.653589   -0.374087
  H      2.261359   -0.275204   -1.415557
  H      1.114103   -1.607834   -1.300735

 Total Charge           Charge          ....    0
 Multiplicity           Mult            ....    1
 Number of Electrons    NEL             ....   50
 Basis Dimension        Dim             ....  112

ORBITAL ENERGIES
----------------

  NO   OCC          E(Eh)            E(eV)
   0   2.0000      -9.887074      -269.0410
   1   2.0000      -9.878252      -268.8009
   2   2.0000      -9.877474      -268.7797
   3   2.0000      -9.869705      -268.5683
   4   2.0000      -9.869376      -268.5594
   5   2.0000      -9.867633      -268.5120
   6   2.0000      -0.733191       -19.9511
   7   2.0000      -0.667650       -18.1677
   8   2.0000      -0.642968       -17.4960
   9   2.0000      -0.561971       -15.2920
  10   2.0000      -0.539783       -14.6882
  11   2.0000      -0.493683       -13.4338
  12   2.0000      -0.418046       -11.3756
  13   2.0000      -0.399322       -10.8661
  14   2.0000      -0.382256       -10.4017
  15   2.0000      -0.366177        -9.9642
  16   2.0000      -0.357317        -9.7231
  17   2.0000      -0.351964        -9.5774
  18   2.0000      -0.325523        -8.8579
  19   2.0000      -0.315373        -8.5817
  20   2.0000      -0.303496        -8.2585
  21   2.0000      -0.292819        -7.9680
  22   2.0000      -0.275195        -7.4884
  23   2.0000      -0.268333        -7.3017
  24   2.0000      -0.263508        -7.1704
  25   0.0000       0.038186         1.0391
  26   0.0000       0.059310         1.6139
  27   0.0000       0.064351         1.7511
  28   0.0000       0.067127         1.8266
  29   0.0000       0.093153         2.5348

MULLIKEN ATOMIC CHARGES
-----------------------
   0 C :   -0.264719
   1 C :   -0.175310
   2 C :   -0.166095
   3 C :   -0.239120
   4 C :   -0.149024
   5 C :   -0.289415
   6 H :    0.100027
   7 H :    0.097635
   8 H :    0.107792
   9 H :    0.080641
  10 H :    0.078592
  11 H :    0.067661
  12 H :    0.099222
  13 H :    0.094218
  14 H :    0.092826
  15 H :    0.078668
  16 H :    0.083225
  17 H :    0.098742
  18 H :    0.100723
  19 H :    0.103711
Sum of atomic charges:    0.0000000

LOEWDIN ATOMIC CHARGES
----------------------
   0 C :   -0.342085
   1 C :   -0.223685
   2 C :   -0.151990
   3 C :   -0.328658
   4 C :   -0.224952
   5 C :   -0.340825
   6 H :    0.119058
   7 H :    0.116434
   8 H :    0.116712
   9 H :    0.112345
  10 H :    0.112274
  11 H :    0.111221
  12 H :    0.115223
  13 H :    0.116238
  14 H :    0.114355
  15 H :    0.114912
  16 H :    0.114081
  17 H :    0.117294
  18 H :    0.116188
  19 H :    0.115860

  Mayer bond orders larger than 0.100000
B(  0-C ,  1-C ) :   1.1628 B(  0-C ,  6-H ) :   0.9492 B(  0-C ,  7-H ) :   0.9500
B(  0-C ,  8-H ) :   0.9433 B(  1-C ,  2-C ) :   1.1006 B(  1-C ,  9-H ) :   0.9187
B(  1-C , 10-H ) :   0.9253 B(  2-C ,  3-C ) :   1.1202 B(  2-C ,  4-C ) :   1.0376
B(  2-C , 11-H ) :   0.9098 B(  3-C , 12-H ) :   0.9484 B(  3-C , 13-H ) :   0.9481
B(  3-C , 14-H ) :   0.9496 B(  4-C ,  5-C ) :   1.1584 B(  4-C , 15-H ) :   0.9292
B(  4-C , 16-H ) :   0.9217 B(  5-C , 17-H ) :   0.9508 B(  5-C , 18-H ) :   0.9535
B(  5-C , 19-H ) :   0.9481

Dispersion correction           -0.015020736
FINAL SINGLE POINT ENERGY      -236.446159885942

DIPOLE MOMENT
-------------

Method             : SCF
Type of density    : Electron Density
Multiplicity       :   1
Irrep              :   0
Energy             :  -236.5139647042153683 Eh
Relativity type    :
Basis              : AO
                                X                 Y                 Z
Electronic contribution:     -0.199793514       0.666174170       0.439283147
Nuclear contribution   :      0.191035779      -0.669275594      -0.444652426
                        -----------------------------------------
Total Dipole Moment    :     -0.008757735      -0.003101424      -0.005369279
                        -----------------------------------------
Magnitude (a.u.)       :      0.010730606
Magnitude (Debye)      :      0.027275033

Rotational constants in cm-1:             0.111487             0.102477             0.059713
Rotational constants in MHz :          3342.298587          3072.196903          1790.151219

                             ****ORCA TERMINATED NORMALLY****
TOTAL RUN TIME: 0 days 0 hours 0 minutes 8 seconds 188 msec
