                         Program Version 6.0.0  -   RELEASE  -
|  1> ! r2scan-3c def2/J RI DEFGRID2 scfconv6 printgap
|  2> %output
|  3>     printlevel normal
|  4> end
|  5> * xyz 0 1
|  6> C 0.7134786239 -2.8249678294 0.0504009283
|  7> O 1.4529487314 -1.6202174945 -0.039485604
|  8> C 0.8472127354 -0.4196316054 -0.0178605854
|  9> C 1.7209244039 0.6841385826 0.0014817749
| 10> C 1.2666329824 1.9846066442 0.0257981466
| 11> C -0.0961324101 2.2372093574 0.0314108486
| 12> C -0.9660947383 1.1670070734 0.0068913611
| 13> C -0.5259964864 -0.1581195841 -0.0166895454
| 14> C -1.6167429037 -1.1915525178 -0.085573655
| 15> O -2.0967914037 -1.5881974484 -1.122934015
| 16> O -2.0321324122 -1.5672444575 1.1056844148
| 17> Cl -2.6757129907 1.4548675588 -0.0054347803
| 18> Cl 3.4178051574 0.3575265885 -0.0069955983
| 19> H 0.0388282222 -2.9430216285 -0.7996097899
| 20> H 0.1597424984 -2.8704718303 0.9899208246
| 21> H 1.4639024663 -3.6123826629 0.0292942655
| 22> H 1.9744677272 2.7960151406 0.0415720374
| 23> H -0.4730624415 3.2449624136 0.0524645005
| 24> H -2.7963424181 -2.178819793 1.0735569947
| 25> *
| 26>
| 27>                          ****END OF INPUT****

CARTESIAN COORDINATES (ANGSTROEM)
---------------------------------
  C      0.713479   -2.824968    0.050401
  O      1.452949   -1.620217   -0.039486
  C      0.847213   -0.419632   -0.017861
  C      1.720924    0.684139    0.001482
  C      1.266633    1.984607    0.025798
  C     -0.096132    2.237209    0.031411
  C     -0.966095    1.167007    0.006891
  C     -0.525996   -0.158120   -0.016690
  C     -1.616743   -1.191553   -0.085574
  O     -2.096791   -1.588197   -1.122934
  O     -2.032132   -1.567244    1.105684
  Cl    -2.675713    1.454868   -0.005435
  Cl     3.417805    0.357527   -0.006996
  H      0.038828   -2.943022   -0.799610
  H      0.159742   -2.870472    0.989921
  H      1.463902   -3.612383    0.029294
  H      1.974468    2.796015    0.041572
  H     -0.473062    3.244962    0.052465
  H     -2.796342   -2.178820    1.073557

 Total Charge           Charge          ....    0
 Multiplicity           Mult            ....    1
 Number of Electrons    NEL             ....  112
 Basis Dimension        Dim             ....  308

ORBITAL ENERGIES
----------------

  NO   OCC          E(Eh)            E(eV)
   0   2.0000    -101.230950     -2754.6342
   1   2.0000    -101.223676     -2754.4363
   2   2.0000     -19.024811      -517.6914
   3   2.0000     -19.010244      -517.2950
   4   2.0000     -18.955315      -515.8003
   5   2.0000     -10.189924      -277.2819
   6   2.0000     -10.134297      -275.7682
   7   2.0000     -10.118972      -275.3512
   8   2.0000     -10.108733      -275.0726
   9   2.0000     -10.099088      -274.8101
  10   2.0000     -10.080708      -274.3100
  11   2.0000     -10.064193      -273.8606
  12   2.0000     -10.057994      -273.6919
  13   2.0000      -9.386878      -255.4299
  14   2.0000      -9.379477      -255.2285
  15   2.0000      -7.133175      -194.1036
  16   2.0000      -7.125894      -193.9054
  17   2.0000      -7.123032      -193.8275
  18   2.0000      -7.122690      -193.8183
  19   2.0000      -7.115789      -193.6305
  20   2.0000      -7.115021      -193.6096
  21   2.0000      -1.101159       -29.9641
  22   2.0000      -1.062496       -28.9120
  23   2.0000      -1.001931       -27.2639
  24   2.0000      -0.886128       -24.1128
  25   2.0000      -0.853325       -23.2201
  26   2.0000      -0.798838       -21.7375
  27   2.0000      -0.762506       -20.7488
  28   2.0000      -0.726649       -19.7731
  29   2.0000      -0.680183       -18.5087
  30   2.0000      -0.653050       -17.7704
  31   2.0000      -0.595509       -16.2046
  32   2.0000      -0.584521       -15.9056
  33   2.0000      -0.526916       -14.3381
  34   2.0000      -0.500469       -13.6185
  35   2.0000      -0.494752       -13.4629
  36   2.0000      -0.467218       -12.7137
  37   2.0000      -0.461124       -12.5478
  38   2.0000      -0.456691       -12.4272
  39   2.0000      -0.431188       -11.7332
  40   2.0000      -0.428520       -11.6606
  41   2.0000      -0.420638       -11.4461
  42   2.0000      -0.399286       -10.8651
  43   2.0000      -0.387581       -10.5466
  44   2.0000      -0.377850       -10.2818
  45   2.0000      -0.363589        -9.8937
  46   2.0000      -0.355450        -9.6723
  47   2.0000      -0.325653        -8.8615
  48   2.0000      -0.325038        -8.8447
  49   2.0000      -0.311457        -8.4752
  50   2.0000      -0.298040        -8.1101
  51   2.0000      -0.291811        -7.9406
  52   2.0000      -0.286812        -7.8046
  53   2.0000      -0.270977        -7.3737
  54   2.0000      -0.239169        -6.5081
  55   2.0000      -0.217353        -5.9145
  56   0.0000      -0.059483        -1.6186
  57   0.0000      -0.049723        -1.3530
  58   0.0000      -0.045726        -1.2443
  59   0.0000      -0.010229        -0.2783
  60   0.0000       0.016661         0.4534

MULLIKEN ATOMIC CHARGES
-----------------------
   0 C :   -0.346207
   1 O :   -0.150946
   2 C :    0.403979
   3 C :   -0.028082
   4 C :   -0.193069
   5 C :   -0.274194
   6 C :    0.149985
   7 C :   -0.090795
   8 C :    0.250719
   9 O :   -0.340754
  10 O :   -0.322252
  11 Cl:   -0.114848
  12 Cl:   -0.119374
  13 H :    0.179657
  14 H :    0.166638
  15 H :    0.162282
  16 H :    0.165225
  17 H :    0.163589
  18 H :    0.338446
Sum of atomic charges:    0.0000000

LOEWDIN ATOMIC CHARGES
----------------------
   0 C :   -0.029986
   1 O :   -0.684655
   2 C :    0.210318
   3 C :   -0.135374
   4 C :   -0.149943
   5 C :   -0.180577
   6 C :   -0.128485
   7 C :   -0.038884
   8 C :    0.324112
   9 O :   -0.392379
  10 O :   -0.381214
  11 Cl:    0.180718
  12 Cl:    0.185438
  13 H :    0.186351
  14 H :    0.179864
  15 H :    0.183615
  16 H :    0.183579
  17 H :    0.182066
  18 H :    0.305434

  Mayer bond orders larger than 0.100000
B(  0-C ,  1-O ) :   0.8535 B(  0-C , 13-H ) :   0.9394 B(  0-C , 14-H ) :   0.9455
B(  0-C , 15-H ) :   0.9623 B(  1-O ,  2-C ) :   1.1556 B(  2-C ,  3-C ) :   1.2711
B(  2-C ,  7-C ) :   1.2667 B(  3-C ,  4-C ) :   1.3646 B(  3-C ,  7-C ) :  -0.1046
B(  3-C , 12-Cl) :   1.0062 B(  4-C ,  5-C ) :   1.3014 B(  4-C , 16-H ) :   0.9439
B(  5-C ,  6-C ) :   1.4069 B(  5-C , 11-Cl) :   0.1224 B(  5-C , 17-H ) :   0.9297
B(  6-C ,  7-C ) :   1.3100 B(  6-C , 11-Cl) :   0.9351 B(  7-C ,  8-C ) :   0.8888
B(  8-C ,  9-O ) :   1.9542 B(  8-C , 10-O ) :   1.0209 B( 10-O , 18-H ) :   0.8545

Dispersion correction           -0.008775153
FINAL SINGLE POINT ENERGY     -1454.385213014429

DIPOLE MOMENT
-------------

Method             : SCF
Type of density    : Electron Density
Multiplicity       :   1
Irrep              :   0
Energy             : -1454.3892416352400687 Eh
Relativity type    :
Basis              : AO
                                X                 Y                 Z
Electronic contribution:      0.480412425       7.259140287      -0.599477449
Nuclear contribution   :     -0.690818738      -7.723005232       1.317280120
                        -----------------------------------------
Total Dipole Moment    :     -0.210406313      -0.463864945       0.717802671
                        -----------------------------------------
Magnitude (a.u.)       :      0.880160314
Magnitude (Debye)      :      2.237189726

Rotational constants in cm-1:             0.031095             0.016679             0.011488
Rotational constants in MHz :           932.217246           500.031133           344.402776

                             ****ORCA TERMINATED NORMALLY****
TOTAL RUN TIME: 0 days 0 hours 0 minutes 56 seconds 302 msec
