                         Program Version 6.0.0  -   RELEASE  -
|  1> ! r2scan-3c def2/J RI DEFGRID2 scfconv6 printgap
|  2> %output
|  3>     printlevel normal
|  4> end
|  5> %cpcm
|  6>     smd true
|  7>     smdsolvent "water"
|  8> end
|  9> * xyz 0 1
| 10> C 0.7134786239 -2.8249678294 0.0504009283
| 11> O 1.4529487314 -1.6202174945 -0.039485604
| 12> C 0.8472127354 -0.4196316054 -0.0178605854
| 13> C 1.7209244039 0.6841385826 0.0014817749
| 14> C 1.2666329824 1.9846066442 0.0257981466
| 15> C -0.0961324101 2.2372093574 0.0314108486
| 16> C -0.9660947383 1.1670070734 0.0068913611
| 17> C -0.5259964864 -0.1581195841 -0.0166895454
| 18> C -1.6167429037 -1.1915525178 -0.085573655
| 19> O -2.0967914037 -1.5881974484 -1.122934015
| 20> O -2.0321324122 -1.5672444575 1.1056844148
| 21> Cl -2.6757129907 1.4548675588 -0.0054347803
| 22> Cl 3.4178051574 0.3575265885 -0.0069955983
| 23> H 0.0388282222 -2.9430216285 -0.7996097899
| 24> H 0.1597424984 -2.8704718303 0.9899208246
| 25> H 1.4639024663 -3.6123826629 0.0292942655
| 26> H 1.9744677272 2.7960151406 0.0415720374
| 27> H -0.4730624415 3.2449624136 0.0524645005
| 28> H -2.7963424181 -2.178819793 1.0735569947
| 29> *
| 30>
| 31>                          ****END OF INPUT****

CARTESIAN COORDINATES (ANGSTROEM)
---------------------------------
  C      0.713479   -2.824968    0.050401
  O      1.452949   -1.620217   -0.039486
  C      0.847213   -0.419632   -0.017861
  C      1.720924    0.684139    0.001482
  C      1.266633    1.984607    0.025798
  C     -0.096132    2.237209    0.031411
  C     -0.966095    1.167007    0.006891
  C     -0.525996   -0.158120   -0.016690
  C     -1.616743   -1.191553   -0.085574
  O     -2.096791   -1.588197   -1.122934
  O     -2.032132   -1.567244    1.105684
  Cl    -2.675713    1.454868   -0.005435
  Cl     3.417805    0.357527   -0.006996
  H      0.038828   -2.943022   -0.799610
  H      0.159742   -2.870472    0.989921
  H      1.463902   -3.612383    0.029294
  H      1.974468    2.796015    0.041572
  H     -0.473062    3.244962    0.052465
  H     -2.796342   -2.178820    1.073557

 Total Charge           Charge          ....    0
 Multiplicity           Mult            ....    1
 Number of Electrons    NEL             ....  112
 Basis Dimension        Dim             ....  308

ORBITAL ENERGIES
----------------

  NO   OCC          E(Eh)            E(eV)
   0   2.0000    -101.234037     -2754.7182
   1   2.0000    -101.228081     -2754.5561
   2   2.0000     -19.014371      -517.4073
   3   2.0000     -19.005736      -517.1724
   4   2.0000     -18.959634      -515.9179
   5   2.0000     -10.191819      -277.3335
   6   2.0000     -10.132333      -275.7148
   7   2.0000     -10.118116      -275.3279
   8   2.0000     -10.107422      -275.0369
   9   2.0000     -10.080607      -274.3073
  10   2.0000     -10.079207      -274.2692
  11   2.0000     -10.058947      -273.7179
  12   2.0000     -10.052550      -273.5438
  13   2.0000      -9.390063      -255.5166
  14   2.0000      -9.384003      -255.3517
  15   2.0000      -7.136255      -194.1874
  16   2.0000      -7.130277      -194.0247
  17   2.0000      -7.126287      -193.9161
  18   2.0000      -7.125890      -193.9053
  19   2.0000      -7.120378      -193.7553
  20   2.0000      -7.119607      -193.7344
  21   2.0000      -1.094575       -29.7849
  22   2.0000      -1.057511       -28.7763
  23   2.0000      -1.002776       -27.2869
  24   2.0000      -0.885820       -24.1044
  25   2.0000      -0.855439       -23.2777
  26   2.0000      -0.800289       -21.7770
  27   2.0000      -0.758100       -20.6290
  28   2.0000      -0.721257       -19.6264
  29   2.0000      -0.675021       -18.3682
  30   2.0000      -0.643378       -17.5072
  31   2.0000      -0.587417       -15.9844
  32   2.0000      -0.580674       -15.8009
  33   2.0000      -0.520805       -14.1718
  34   2.0000      -0.497017       -13.5245
  35   2.0000      -0.490147       -13.3376
  36   2.0000      -0.471338       -12.8257
  37   2.0000      -0.455796       -12.4028
  38   2.0000      -0.448114       -12.1938
  39   2.0000      -0.430633       -11.7181
  40   2.0000      -0.427393       -11.6300
  41   2.0000      -0.410178       -11.1615
  42   2.0000      -0.395411       -10.7597
  43   2.0000      -0.382949       -10.4206
  44   2.0000      -0.373305       -10.1582
  45   2.0000      -0.359893        -9.7932
  46   2.0000      -0.355313        -9.6686
  47   2.0000      -0.321866        -8.7584
  48   2.0000      -0.319388        -8.6910
  49   2.0000      -0.311497        -8.4763
  50   2.0000      -0.300845        -8.1864
  51   2.0000      -0.292724        -7.9654
  52   2.0000      -0.290227        -7.8975
  53   2.0000      -0.275509        -7.4970
  54   2.0000      -0.240157        -6.5350
  55   2.0000      -0.216643        -5.8951
  56   0.0000      -0.058248        -1.5850
  57   0.0000      -0.049955        -1.3593
  58   0.0000      -0.043298        -1.1782
  59   0.0000      -0.009352        -0.2545
  60   0.0000       0.014552         0.3960

MULLIKEN ATOMIC CHARGES
-----------------------
   0 C :   -0.361382
   1 O :   -0.176619
   2 C :    0.416501
   3 C :   -0.037318
   4 C :   -0.207163
   5 C :   -0.293224
   6 C :    0.132253
   7 C :   -0.092450
   8 C :    0.275107
   9 O :   -0.409485
  10 O :   -0.335117
  11 Cl:   -0.123669
  12 Cl:   -0.138820
  13 H :    0.184928
  14 H :    0.189021
  15 H :    0.185493
  16 H :    0.201484
  17 H :    0.199685
  18 H :    0.390775
Sum of atomic charges:   -0.0000000

LOEWDIN ATOMIC CHARGES
----------------------
   0 C :   -0.025358
   1 O :   -0.699767
   2 C :    0.211633
   3 C :   -0.142482
   4 C :   -0.143434
   5 C :   -0.177059
   6 C :   -0.135815
   7 C :   -0.044803
   8 C :    0.331961
   9 O :   -0.444246
  10 O :   -0.364179
  11 Cl:    0.170287
  12 Cl:    0.170204
  13 H :    0.189659
  14 H :    0.189534
  15 H :    0.192853
  16 H :    0.196879
  17 H :    0.195172
  18 H :    0.328963

  Mayer bond orders larger than 0.100000
B(  0-C ,  1-O ) :   0.8459 B(  0-C , 13-H ) :   0.9327 B(  0-C , 14-H ) :   0.9376
B(  0-C , 15-H ) :   0.9526 B(  1-O ,  2-C ) :   1.1624 B(  2-C ,  3-C ) :   1.2472
B(  2-C ,  7-C ) :   1.2757 B(  3-C ,  4-C ) :   1.3339 B(  3-C ,  7-C ) :  -0.1017
B(  3-C , 12-Cl) :   0.9862 B(  4-C ,  5-C ) :   1.3197 B(  4-C , 16-H ) :   0.9452
B(  5-C ,  6-C ) :   1.3721 B(  5-C , 11-Cl) :   0.1150 B(  5-C , 17-H ) :   0.9338
B(  6-C ,  7-C ) :   1.2774 B(  6-C , 11-Cl) :   0.9525 B(  7-C ,  8-C ) :   0.8913
B(  8-C ,  9-O ) :   1.8954 B(  8-C , 10-O ) :   1.0675 B( 10-O , 18-H ) :   0.8275

Dispersion correction           -0.008775153
FINAL SINGLE POINT ENERGY     -1454.397717531250

DIPOLE MOMENT
-------------

Method             : SCF
Type of density    : Electron Density
Multiplicity       :   1
Irrep              :   0
Energy             : -1454.4017461520602410 Eh
Relativity type    :
Basis              : AO
                                X                 Y                 Z
Electronic contribution:      0.416612504       7.204157484      -0.264166443
Nuclear contribution   :     -0.690818738      -7.723005232       1.317280120
                        -----------------------------------------
Total Dipole Moment    :     -0.274206234      -0.518847748       1.053113677
                        -----------------------------------------
Magnitude (a.u.)       :      1.205587185
Magnitude (Debye)      :      3.064359096

Rotational constants in cm-1:             0.031095             0.016679             0.011488
Rotational constants in MHz :           932.217246           500.031133           344.402776

                             ****ORCA TERMINATED NORMALLY****
TOTAL RUN TIME: 0 days 0 hours 0 minutes 59 seconds 722 msec
