                         Program Version 6.0.0  -   RELEASE  -
|  1> ! r2scan-3c def2/J RI DEFGRID2 scfconv6 printgap
|  2> %output
|  3>     printlevel normal
|  4> end
|  5> * xyz 0 1
|  6> C -2.3971700813 1.1169670054 -0.1556186496
|  7> C -1.8213281579 -0.1321024712 0.5067421158
|  8> C -0.4450356366 -0.4828651352 0.0001121192
|  9> O -0.0828349814 -1.6131017632 -0.2603820957
| 10> O 0.3337091824 0.5822282144 -0.1214259398
| 11> C 1.687562995 0.3958963557 -0.5636570923
| 12> C 2.6120533077 0.1120838374 0.610352984
| 13> H -3.3825484871 1.3245511793 0.2506804157
| 14> H -1.7527215659 1.9720696852 0.0248983737
| 15> H -2.4875691201 0.970590665 -1.2288958018
| 16> H -2.4635186981 -0.9983423597 0.3459775514
| 17> H -1.7307838826 0.0329349543 1.582810467
| 18> H 1.71084394 -0.4301887402 -1.2808583156
| 19> H 1.9479086532 1.3334309367 -1.0559346417
| 20> H 2.5412147436 0.9105400257 1.3441479075
| 21> H 2.3370192337 -0.8289111317 1.0818381351
| 22> H 3.634532878 0.0416245919 0.25406248
| 23> *
| 24>
| 25>                          ****END OF INPUT****

CARTESIAN COORDINATES (ANGSTROEM)
---------------------------------
  C     -2.397170    1.116967   -0.155619
  C     -1.821328   -0.132102    0.506742
  C     -0.445036   -0.482865    0.000112
  O     -0.082835   -1.613102   -0.260382
  O      0.333709    0.582228   -0.121426
  C      1.687563    0.395896   -0.563657
  C      2.612053    0.112084    0.610353
  H     -3.382548    1.324551    0.250680
  H     -1.752722    1.972070    0.024898
  H     -2.487569    0.970591   -1.228896
  H     -2.463519   -0.998342    0.345978
  H     -1.730784    0.032935    1.582810
  H      1.710844   -0.430189   -1.280858
  H      1.947909    1.333431   -1.055935
  H      2.541215    0.910540    1.344148
  H      2.337019   -0.828911    1.081838
  H      3.634533    0.041625    0.254062

 Total Charge           Charge          ....    0
 Multiplicity           Mult            ....    1
 Number of Electrons    NEL             ....   56
 Basis Dimension        Dim             ....  193

ORBITAL ENERGIES
----------------

  NO   OCC          E(Eh)            E(eV)
   0   2.0000     -18.996928      -516.9327
   1   2.0000     -18.926203      -515.0082
   2   2.0000     -10.151514      -276.2367
   3   2.0000     -10.091665      -274.6082
   4   2.0000     -10.044103      -273.3139
   5   2.0000     -10.029134      -272.9066
   6   2.0000     -10.027580      -272.8643
   7   2.0000      -1.072100       -29.1733
   8   2.0000      -0.973818       -26.4989
   9   2.0000      -0.766174       -20.8486
  10   2.0000      -0.728815       -19.8321
  11   2.0000      -0.640416       -17.4266
  12   2.0000      -0.602590       -16.3973
  13   2.0000      -0.524261       -14.2659
  14   2.0000      -0.473512       -12.8849
  15   2.0000      -0.447880       -12.1874
  16   2.0000      -0.440733       -11.9929
  17   2.0000      -0.412539       -11.2257
  18   2.0000      -0.405167       -11.0251
  19   2.0000      -0.384170       -10.4538
  20   2.0000      -0.360878        -9.8200
  21   2.0000      -0.355619        -9.6769
  22   2.0000      -0.343330        -9.3425
  23   2.0000      -0.331559        -9.0222
  24   2.0000      -0.319752        -8.7009
  25   2.0000      -0.305939        -8.3250
  26   2.0000      -0.271192        -7.3795
  27   2.0000      -0.232004        -6.3131
  28   0.0000      -0.013601        -0.3701
  29   0.0000       0.075566         2.0563
  30   0.0000       0.090018         2.4495
  31   0.0000       0.119646         3.2557
  32   0.0000       0.124099         3.3769

MULLIKEN ATOMIC CHARGES
-----------------------
   0 C :   -0.460858
   1 C :   -0.306614
   2 C :    0.387954
   3 O :   -0.429509
   4 O :   -0.166414
   5 C :   -0.138412
   6 C :   -0.463274
   7 H :    0.147986
   8 H :    0.161701
   9 H :    0.149333
  10 H :    0.169114
  11 H :    0.163032
  12 H :    0.169555
  13 H :    0.147367
  14 H :    0.150893
  15 H :    0.171282
  16 H :    0.146864
Sum of atomic charges:   -0.0000000

LOEWDIN ATOMIC CHARGES
----------------------
   0 C :   -0.398226
   1 C :   -0.235442
   2 C :    0.359359
   3 O :   -0.435429
   4 O :   -0.601818
   5 C :    0.028691
   6 C :   -0.390049
   7 H :    0.151188
   8 H :    0.163811
   9 H :    0.155784
  10 H :    0.176177
  11 H :    0.178379
  12 H :    0.189227
  13 H :    0.177239
  14 H :    0.156759
  15 H :    0.165072
  16 H :    0.159278

  Mayer bond orders larger than 0.100000
B(  0-C ,  1-C ) :   0.8926 B(  0-C ,  7-H ) :   0.9711 B(  0-C ,  8-H ) :   0.9725
B(  0-C ,  9-H ) :   0.9766 B(  1-C ,  2-C ) :   0.9989 B(  1-C , 10-H ) :   0.9853
B(  1-C , 11-H ) :   0.9367 B(  2-C ,  3-O ) :   1.8472 B(  2-C ,  4-O ) :   1.0522
B(  4-O ,  5-C ) :   0.8155 B(  5-C ,  6-C ) :   0.9380 B(  5-C , 12-H ) :   0.9666
B(  5-C , 13-H ) :   0.9622 B(  6-C , 14-H ) :   0.9740 B(  6-C , 15-H ) :   0.9714
B(  6-C , 16-H ) :   0.9654

Dispersion correction           -0.004013155
FINAL SINGLE POINT ENERGY      -346.935792853242

DIPOLE MOMENT
-------------

Method             : SCF
Type of density    : Electron Density
Multiplicity       :   1
Irrep              :   0
Energy             :  -346.9422362280550374 Eh
Relativity type    :
Basis              : AO
                                X                 Y                 Z
Electronic contribution:     -0.223241249      -3.222973618      -1.087035323
Nuclear contribution   :      0.336185030       4.045385024       1.231525271
                        -----------------------------------------
Total Dipole Moment    :      0.112943782       0.822411406       0.144489948
                        -----------------------------------------
Magnitude (a.u.)       :      0.842611515
Magnitude (Debye)      :      2.141748262

Rotational constants in cm-1:             0.168307             0.053419             0.045603
Rotational constants in MHz :          5045.718622          1601.458058          1367.154186

                             ****ORCA TERMINATED NORMALLY****
TOTAL RUN TIME: 0 days 0 hours 0 minutes 21 seconds 556 msec
