                         Program Version 6.0.0  -   RELEASE  -
|  1> ! r2scan-3c def2/J RI DEFGRID2 scfconv6 printgap
|  2> %output
|  3>     printlevel normal
|  4> end
|  5> %cpcm
|  6>     smd true
|  7>     smdsolvent "water"
|  8> end
|  9> * xyz 0 1
| 10> C -2.3971700813 1.1169670054 -0.1556186496
| 11> C -1.8213281579 -0.1321024712 0.5067421158
| 12> C -0.4450356366 -0.4828651352 0.0001121192
| 13> O -0.0828349814 -1.6131017632 -0.2603820957
| 14> O 0.3337091824 0.5822282144 -0.1214259398
| 15> C 1.687562995 0.3958963557 -0.5636570923
| 16> C 2.6120533077 0.1120838374 0.610352984
| 17> H -3.3825484871 1.3245511793 0.2506804157
| 18> H -1.7527215659 1.9720696852 0.0248983737
| 19> H -2.4875691201 0.970590665 -1.2288958018
| 20> H -2.4635186981 -0.9983423597 0.3459775514
| 21> H -1.7307838826 0.0329349543 1.582810467
| 22> H 1.71084394 -0.4301887402 -1.2808583156
| 23> H 1.9479086532 1.3334309367 -1.0559346417
| 24> H 2.5412147436 0.9105400257 1.3441479075
| 25> H 2.3370192337 -0.8289111317 1.0818381351
| 26> H 3.634532878 0.0416245919 0.25406248
| 27> *
| 28>
| 29>                          ****END OF INPUT****

CARTESIAN COORDINATES (ANGSTROEM)
---------------------------------
  C     -2.397170    1.116967   -0.155619
  C     -1.821328   -0.132102    0.506742
  C     -0.445036   -0.482865    0.000112
  O     -0.082835   -1.613102   -0.260382
  O      0.333709    0.582228   -0.121426
  C      1.687563    0.395896   -0.563657
  C      2.612053    0.112084    0.610353
  H     -3.382548    1.324551    0.250680
  H     -1.752722    1.972070    0.024898
  H     -2.487569    0.970591   -1.228896
  H     -2.463519   -0.998342    0.345978
  H     -1.730784    0.032935    1.582810
  H      1.710844   -0.430189   -1.280858
  H      1.947909    1.333431   -1.055935
  H      2.541215    0.910540    1.344148
  H      2.337019   -0.828911    1.081838
  H      3.634533    0.041625    0.254062

 Total Charge           Charge          ....    0
 Multiplicity           Mult            ....    1
 Number of Electrons    NEL             ....   56
 Basis Dimension        Dim             ....  193

ORBITAL ENERGIES
----------------

  NO   OCC          E(Eh)            E(eV)
   0   2.0000     -19.002083      -517.0730
   1   2.0000     -18.942206      -515.4436
   2   2.0000     -10.162108      -276.5250
   3   2.0000     -10.083468      -274.3851
   4   2.0000     -10.037912      -273.1455
   5   2.0000     -10.018299      -272.6118
   6   2.0000     -10.018272      -272.6111
   7   2.0000      -1.079006       -29.3612
   8   2.0000      -0.987695       -26.8766
   9   2.0000      -0.761558       -20.7230
  10   2.0000      -0.720864       -19.6157
  11   2.0000      -0.635171       -17.2839
  12   2.0000      -0.596562       -16.2333
  13   2.0000      -0.521455       -14.1895
  14   2.0000      -0.471585       -12.8325
  15   2.0000      -0.455349       -12.3907
  16   2.0000      -0.444815       -12.1040
  17   2.0000      -0.410122       -11.1600
  18   2.0000      -0.400491       -10.8979
  19   2.0000      -0.378392       -10.2966
  20   2.0000      -0.354772        -9.6538
  21   2.0000      -0.350874        -9.5478
  22   2.0000      -0.339710        -9.2440
  23   2.0000      -0.326489        -8.8842
  24   2.0000      -0.314207        -8.5500
  25   2.0000      -0.303348        -8.2545
  26   2.0000      -0.278234        -7.5711
  27   2.0000      -0.247894        -6.7455
  28   0.0000      -0.021552        -0.5865
  29   0.0000       0.079450         2.1619
  30   0.0000       0.096858         2.6357
  31   0.0000       0.130137         3.5412
  32   0.0000       0.133824         3.6415

MULLIKEN ATOMIC CHARGES
-----------------------
   0 C :   -0.496063
   1 C :   -0.315728
   2 C :    0.430681
   3 O :   -0.517054
   4 O :   -0.184439
   5 C :   -0.143034
   6 C :   -0.489009
   7 H :    0.166126
   8 H :    0.165317
   9 H :    0.164926
  10 H :    0.175622
  11 H :    0.194583
  12 H :    0.171971
  13 H :    0.173488
  14 H :    0.165328
  15 H :    0.167229
  16 H :    0.170056
Sum of atomic charges:   -0.0000000

LOEWDIN ATOMIC CHARGES
----------------------
   0 C :   -0.400476
   1 C :   -0.232750
   2 C :    0.369827
   3 O :   -0.497687
   4 O :   -0.602446
   5 C :    0.033403
   6 C :   -0.392952
   7 H :    0.158164
   8 H :    0.163937
   9 H :    0.159795
  10 H :    0.179639
  11 H :    0.191018
  12 H :    0.189985
  13 H :    0.188664
  14 H :    0.161876
  15 H :    0.162231
  16 H :    0.167772

  Mayer bond orders larger than 0.100000
B(  0-C ,  1-C ) :   0.8795 B(  0-C ,  7-H ) :   0.9662 B(  0-C ,  8-H ) :   0.9713
B(  0-C ,  9-H ) :   0.9747 B(  1-C ,  2-C ) :   1.0002 B(  1-C , 10-H ) :   0.9809
B(  1-C , 11-H ) :   0.9242 B(  2-C ,  3-O ) :   1.7766 B(  2-C ,  4-O ) :   1.0817
B(  4-O ,  5-C ) :   0.7977 B(  5-C ,  6-C ) :   0.9370 B(  5-C , 12-H ) :   0.9630
B(  5-C , 13-H ) :   0.9529 B(  6-C , 14-H ) :   0.9700 B(  6-C , 15-H ) :   0.9692
B(  6-C , 16-H ) :   0.9605

Dispersion correction           -0.004013155
FINAL SINGLE POINT ENERGY      -346.940995663707

DIPOLE MOMENT
-------------

Method             : SCF
Type of density    : Electron Density
Multiplicity       :   1
Irrep              :   0
Energy             :  -346.9474390385202582 Eh
Relativity type    :
Basis              : AO
                                X                 Y                 Z
Electronic contribution:     -0.222499779      -2.876204273      -1.028805243
Nuclear contribution   :      0.336185030       4.045385024       1.231525271
                        -----------------------------------------
Total Dipole Moment    :      0.113685251       1.169180751       0.202720028
                        -----------------------------------------
Magnitude (a.u.)       :      1.192058461
Magnitude (Debye)      :      3.029971813

Rotational constants in cm-1:             0.168307             0.053419             0.045603
Rotational constants in MHz :          5045.718622          1601.458058          1367.154186

                             ****ORCA TERMINATED NORMALLY****
TOTAL RUN TIME: 0 days 0 hours 0 minutes 25 seconds 958 msec
