                         Program Version 6.0.0  -   RELEASE  -
|  1> ! pbe def2-sv(p) def2/J RI DEFGRID1 loosescf d4 GCP(DFT/SV(P)) printgap
|  2> %output
|  3>     printlevel normal
|  4> end
|  5> * xyz 0 1
|  6> C -2.6838792443 0.4786271248 -0.4990407618
|  7> C -1.7086466605 0.3334458144 0.6730433987
|  8> C -0.4187011509 -0.2610748951 0.1699413579
|  9> O -0.2195570984 -1.4478452752 0.0119376103
| 10> O 0.4676006414 0.6803919072 -0.1258997703
| 11> C 1.7448540127 0.2813665837 -0.6510421354
| 12> C 2.7224108313 -0.0371110711 0.4699038436
| 13> H -2.2789475479 1.1562986911 -1.2463785068
| 14> H -2.8592720855 -0.4893108963 -0.9626615019
| 15> H -3.6300127081 0.8738131022 -0.1420865496
| 16> H -2.1292133532 -0.3375768275 1.4213169511
| 17> H -1.5012029016 1.3078835007 1.1119558364
| 18> H 1.6002764663 -0.5913715251 -1.2950894677
| 19> H 2.079504347 1.1364815866 -1.2390168466
| 20> H 3.6934273678 -0.2699697707 0.0453622128
| 21> H 2.8166768633 0.8148762195 1.1377207035
| 22> H 2.3702699148 -0.8954955994 1.0377797203
| 23> *
| 24>
| 25>                          ****END OF INPUT****

CARTESIAN COORDINATES (ANGSTROEM)
---------------------------------
  C     -2.683879    0.478627   -0.499041
  C     -1.708647    0.333446    0.673043
  C     -0.418701   -0.261075    0.169941
  O     -0.219557   -1.447845    0.011938
  O      0.467601    0.680392   -0.125900
  C      1.744854    0.281367   -0.651042
  C      2.722411   -0.037111    0.469904
  H     -2.278948    1.156299   -1.246379
  H     -2.859272   -0.489311   -0.962662
  H     -3.630013    0.873813   -0.142087
  H     -2.129213   -0.337577    1.421317
  H     -1.501203    1.307884    1.111956
  H      1.600276   -0.591372   -1.295089
  H      2.079504    1.136482   -1.239017
  H      3.693427   -0.269970    0.045362
  H      2.816677    0.814876    1.137721
  H      2.370270   -0.895496    1.037780

 Total Charge           Charge          ....    0
 Multiplicity           Mult            ....    1
 Number of Electrons    NEL             ....   56
 Basis Dimension        Dim             ....  118

ORBITAL ENERGIES
----------------

  NO   OCC          E(Eh)            E(eV)
   0   2.0000     -18.797077      -511.4945
   1   2.0000     -18.729721      -509.6616
   2   2.0000     -10.003687      -272.2142
   3   2.0000      -9.946062      -270.6461
   4   2.0000      -9.898040      -269.3394
   5   2.0000      -9.887497      -269.0525
   6   2.0000      -9.886182      -269.0167
   7   2.0000      -1.003529       -27.3074
   8   2.0000      -0.907192       -24.6860
   9   2.0000      -0.720802       -19.6140
  10   2.0000      -0.686391       -18.6777
  11   2.0000      -0.606883       -16.5141
  12   2.0000      -0.562466       -15.3055
  13   2.0000      -0.496038       -13.4979
  14   2.0000      -0.452097       -12.3022
  15   2.0000      -0.426444       -11.6041
  16   2.0000      -0.416710       -11.3393
  17   2.0000      -0.399194       -10.8626
  18   2.0000      -0.384562       -10.4645
  19   2.0000      -0.367454        -9.9989
  20   2.0000      -0.349599        -9.5131
  21   2.0000      -0.340912        -9.2767
  22   2.0000      -0.322871        -8.7858
  23   2.0000      -0.316655        -8.6166
  24   2.0000      -0.311401        -8.4737
  25   2.0000      -0.289064        -7.8658
  26   2.0000      -0.254343        -6.9210
  27   2.0000      -0.215196        -5.8558
  28   0.0000      -0.019220        -0.5230
  29   0.0000       0.046245         1.2584
  30   0.0000       0.057550         1.5660
  31   0.0000       0.082597         2.2476
  32   0.0000       0.088039         2.3957

MULLIKEN ATOMIC CHARGES
-----------------------
   0 C :   -0.302688
   1 C :   -0.131999
   2 C :    0.099615
   3 O :   -0.216295
   4 O :   -0.240635
   5 C :   -0.012978
   6 C :   -0.303696
   7 H :    0.110942
   8 H :    0.119465
   9 H :    0.115953
  10 H :    0.106553
  11 H :    0.098196
  12 H :    0.106554
  13 H :    0.100312
  14 H :    0.111448
  15 H :    0.112195
  16 H :    0.127059
Sum of atomic charges:   -0.0000000

LOEWDIN ATOMIC CHARGES
----------------------
   0 C :   -0.329721
   1 C :   -0.249919
   2 C :    0.037197
   3 O :   -0.175555
   4 O :   -0.068707
   5 C :   -0.113303
   6 C :   -0.355993
   7 H :    0.122133
   8 H :    0.126206
   9 H :    0.123667
  10 H :    0.135574
  11 H :    0.129041
  12 H :    0.118680
  13 H :    0.116375
  14 H :    0.129799
  15 H :    0.123895
  16 H :    0.130630

  Mayer bond orders larger than 0.100000
B(  0-C ,  1-C ) :   1.1418 B(  0-C ,  7-H ) :   0.9544 B(  0-C ,  8-H ) :   0.9525
B(  0-C ,  9-H ) :   0.9526 B(  1-C ,  2-C ) :   1.0245 B(  1-C , 10-H ) :   0.9089
B(  1-C , 11-H ) :   0.9094 B(  2-C ,  3-O ) :   2.0368 B(  2-C ,  4-O ) :   1.2091
B(  4-O ,  5-C ) :   0.9225 B(  5-C ,  6-C ) :   1.1729 B(  5-C , 12-H ) :   0.9137
B(  5-C , 13-H ) :   0.9372 B(  6-C , 14-H ) :   0.9446 B(  6-C , 15-H ) :   0.9492
B(  6-C , 16-H ) :   0.9463

Dispersion correction           -0.012010222
FINAL SINGLE POINT ENERGY      -346.244278204895

DIPOLE MOMENT
-------------

Method             : SCF
Type of density    : Electron Density
Multiplicity       :   1
Irrep              :   0
Energy             :  -346.3088265743689931 Eh
Relativity type    :
Basis              : AO
                                X                 Y                 Z
Electronic contribution:      0.025112625      -1.844324172       0.091761643
Nuclear contribution   :      0.155197505       2.526953516      -0.124680947
                        -----------------------------------------
Total Dipole Moment    :      0.180310130       0.682629344      -0.032919304
                        -----------------------------------------
Magnitude (a.u.)       :      0.706808493
Magnitude (Debye)      :      1.796564413

Rotational constants in cm-1:             0.205886             0.048288             0.044730
Rotational constants in MHz :          6172.296208          1447.627947          1340.986182

                             ****ORCA TERMINATED NORMALLY****
TOTAL RUN TIME: 0 days 0 hours 0 minutes 8 seconds 926 msec
