                         Program Version 6.0.0  -   RELEASE  -
|  1> ! pbe def2-sv(p) def2/J RI DEFGRID1 loosescf d4 GCP(DFT/SV(P)) printgap
|  2> %output
|  3>     printlevel normal
|  4> end
|  5> * xyz 0 1
|  6> C 2.1235913947 0.5599240798 -0.9658843726
|  7> C 1.6125672184 -0.6273628893 -0.1564724301
|  8> C 0.2951442808 -0.3856503856 0.6041095471
|  9> H 0.2502629816 -1.1608104435 1.3905898104
| 10> C -0.987815328 -0.5607839634 -0.2441910559
| 11> C -2.2133562334 -0.6352152118 0.6716008113
| 12> C -1.1831205586 0.5516767909 -1.272998908
| 13> O 0.3706625235 0.8855089857 1.2221463259
| 14> H 2.115947811 1.4534996534 -0.3481517956
| 15> H 1.5162263642 0.7412616237 -1.8459103187
| 16> H 3.143940331 0.3665934973 -1.2884232347
| 17> H 1.4855330284 -1.4993281911 -0.7993791998
| 18> H 2.3711009472 -0.869934065 0.5911100816
| 19> H -0.8931867349 -1.5211963542 -0.761316627
| 20> H -3.0903766737 -0.918611086 0.0950397025
| 21> H -2.0692322775 -1.3750323788 1.4565728762
| 22> H -2.413225253 0.3312200409 1.1292572699
| 23> H -0.949871525 1.516148542 -0.8279855227
| 24> H -2.2150609513 0.5661153739 -1.6156264839
| 25> H -0.5445374408 0.4042544303 -2.1381515116
| 26> H -0.3848937435 0.9869504341 1.814672969
| 27> *
| 28>
| 29>                          ****END OF INPUT****

CARTESIAN COORDINATES (ANGSTROEM)
---------------------------------
  C      2.123591    0.559924   -0.965884
  C      1.612567   -0.627363   -0.156472
  C      0.295144   -0.385650    0.604110
  H      0.250263   -1.160810    1.390590
  C     -0.987815   -0.560784   -0.244191
  C     -2.213356   -0.635215    0.671601
  C     -1.183121    0.551677   -1.272999
  O      0.370663    0.885509    1.222146
  H      2.115948    1.453500   -0.348152
  H      1.516226    0.741262   -1.845910
  H      3.143940    0.366593   -1.288423
  H      1.485533   -1.499328   -0.799379
  H      2.371101   -0.869934    0.591110
  H     -0.893187   -1.521196   -0.761317
  H     -3.090377   -0.918611    0.095040
  H     -2.069232   -1.375032    1.456573
  H     -2.413225    0.331220    1.129257
  H     -0.949872    1.516149   -0.827986
  H     -2.215061    0.566115   -1.615626
  H     -0.544537    0.404254   -2.138152
  H     -0.384894    0.986950    1.814673

 Total Charge           Charge          ....    0
 Multiplicity           Mult            ....    1
 Number of Electrons    NEL             ....   58
 Basis Dimension        Dim             ....  126

ORBITAL ENERGIES
----------------

  NO   OCC          E(Eh)            E(eV)
   0   2.0000     -18.743357      -510.0327
   1   2.0000      -9.932565      -270.2788
   2   2.0000      -9.892561      -269.1903
   3   2.0000      -9.878826      -268.8165
   4   2.0000      -9.878630      -268.8112
   5   2.0000      -9.867805      -268.5166
   6   2.0000      -9.861972      -268.3579
   7   2.0000      -0.920819       -25.0568
   8   2.0000      -0.722771       -19.6676
   9   2.0000      -0.682159       -18.5625
  10   2.0000      -0.611265       -16.6334
  11   2.0000      -0.600987       -16.3537
  12   2.0000      -0.524590       -14.2748
  13   2.0000      -0.502654       -13.6779
  14   2.0000      -0.448175       -12.1955
  15   2.0000      -0.421370       -11.4661
  16   2.0000      -0.409217       -11.1354
  17   2.0000      -0.374136       -10.1807
  18   2.0000      -0.372921       -10.1477
  19   2.0000      -0.350254        -9.5309
  20   2.0000      -0.339324        -9.2335
  21   2.0000      -0.325150        -8.8478
  22   2.0000      -0.324450        -8.8287
  23   2.0000      -0.298796        -8.1307
  24   2.0000      -0.296954        -8.0805
  25   2.0000      -0.285963        -7.7815
  26   2.0000      -0.280519        -7.6333
  27   2.0000      -0.258018        -7.0210
  28   2.0000      -0.212806        -5.7907
  29   0.0000       0.016823         0.4578
  30   0.0000       0.050201         1.3660
  31   0.0000       0.066518         1.8100
  32   0.0000       0.070605         1.9213
  33   0.0000       0.084664         2.3038

MULLIKEN ATOMIC CHARGES
-----------------------
   0 C :   -0.281575
   1 C :   -0.148665
   2 C :    0.056720
   3 H :    0.049308
   4 C :   -0.185360
   5 C :   -0.265284
   6 C :   -0.237338
   7 O :   -0.418778
   8 H :    0.117754
   9 H :    0.098009
  10 H :    0.095870
  11 H :    0.078865
  12 H :    0.083033
  13 H :    0.066315
  14 H :    0.108307
  15 H :    0.098085
  16 H :    0.085459
  17 H :    0.099569
  18 H :    0.091399
  19 H :    0.109351
  20 H :    0.298954
Sum of atomic charges:   -0.0000000

LOEWDIN ATOMIC CHARGES
----------------------
   0 C :   -0.346056
   1 C :   -0.233444
   2 C :   -0.043958
   3 H :    0.094009
   4 C :   -0.171867
   5 C :   -0.337362
   6 C :   -0.335162
   7 O :   -0.320922
   8 H :    0.125745
   9 H :    0.114085
  10 H :    0.117247
  11 H :    0.117188
  12 H :    0.119726
  13 H :    0.116728
  14 H :    0.122529
  15 H :    0.115311
  16 H :    0.109665
  17 H :    0.119607
  18 H :    0.115769
  19 H :    0.118261
  20 H :    0.282900

  Mayer bond orders larger than 0.100000
B(  0-C ,  1-C ) :   1.1728 B(  0-C ,  8-H ) :   0.9434 B(  0-C ,  9-H ) :   0.9448
B(  0-C , 10-H ) :   0.9493 B(  1-C ,  2-C ) :   1.0818 B(  1-C , 11-H ) :   0.9223
B(  1-C , 12-H ) :   0.9172 B(  2-C ,  3-H ) :   0.9011 B(  2-C ,  4-C ) :   1.0148
B(  2-C ,  7-O ) :   1.0494 B(  4-C ,  5-C ) :   1.1079 B(  4-C ,  6-C ) :   1.1123
B(  4-C , 13-H ) :   0.8915 B(  5-C , 14-H ) :   0.9474 B(  5-C , 15-H ) :   0.9484
B(  5-C , 16-H ) :   0.9419 B(  6-C , 17-H ) :   0.9337 B(  6-C , 18-H ) :   0.9482
B(  6-C , 19-H ) :   0.9405 B(  7-O , 20-H ) :   0.8442

Dispersion correction           -0.017125563
FINAL SINGLE POINT ENERGY      -311.514307753173

DIPOLE MOMENT
-------------

Method             : SCF
Type of density    : Electron Density
Multiplicity       :   1
Irrep              :   0
Energy             :  -311.5941784237903676 Eh
Relativity type    :
Basis              : AO
                                X                 Y                 Z
Electronic contribution:      1.130407644       0.576210791       3.087143634
Nuclear contribution   :     -1.568149413      -0.905197502      -2.934921661
                        -----------------------------------------
Total Dipole Moment    :     -0.437741769      -0.328986711       0.152221972
                        -----------------------------------------
Magnitude (a.u.)       :      0.568349928
Magnitude (Debye)      :      1.444630711

Rotational constants in cm-1:             0.127040             0.059724             0.052573
Rotational constants in MHz :          3808.572349          1790.477283          1576.110567

                             ****ORCA TERMINATED NORMALLY****
TOTAL RUN TIME: 0 days 0 hours 0 minutes 8 seconds 300 msec
