                         Program Version 6.0.0  -   RELEASE  -
|  1> ! pbe def2-sv(p) def2/J RI DEFGRID1 loosescf d4 GCP(DFT/SV(P)) printgap
|  2> %output
|  3>     printlevel normal
|  4> end
|  5> * xyz 0 1
|  6> C -2.0881715563 0.4137872441 0.5518397321
|  7> C -1.426104471 -0.7654252124 -0.1493630165
|  8> C -0.213173278 -0.3322442775 -0.9907754838
|  9> C 0.8973257449 0.1709832174 -0.1021500178
| 10> O 1.0469641513 1.3527383454 0.1441164784
| 11> C 1.7981623239 -0.8878807434 0.4597642861
| 12> H -2.4672996077 1.1267348714 -0.1767309087
| 13> H -1.3764150482 0.9333606833 1.1903554669
| 14> H -2.9180960913 0.0731254687 1.1656734839
| 15> H -2.1488303852 -1.2428117603 -0.8127316608
| 16> H -1.1130813107 -1.5024475431 0.5920522392
| 17> H 0.1432286428 -1.1835286351 -1.569504807
| 18> H -0.5195271128 0.4693693229 -1.6644400763
| 19> H 2.4581112039 -1.2295599232 -0.3355502772
| 20> H 1.2187490456 -1.7394957945 0.8033244703
| 21> H 2.4012900356 -0.4853973826 1.2688021103
| 22> *
| 23>
| 24>                          ****END OF INPUT****

CARTESIAN COORDINATES (ANGSTROEM)
---------------------------------
  C     -2.088172    0.413787    0.551840
  C     -1.426104   -0.765425   -0.149363
  C     -0.213173   -0.332244   -0.990775
  C      0.897326    0.170983   -0.102150
  O      1.046964    1.352738    0.144116
  C      1.798162   -0.887881    0.459764
  H     -2.467300    1.126735   -0.176731
  H     -1.376415    0.933361    1.190355
  H     -2.918096    0.073125    1.165673
  H     -2.148830   -1.242812   -0.812732
  H     -1.113081   -1.502448    0.592052
  H      0.143229   -1.183529   -1.569505
  H     -0.519527    0.469369   -1.664440
  H      2.458111   -1.229560   -0.335550
  H      1.218749   -1.739496    0.803324
  H      2.401290   -0.485397    1.268802

 Total Charge           Charge          ....    0
 Multiplicity           Mult            ....    1
 Number of Electrons    NEL             ....   48
 Basis Dimension        Dim             ....  104

ORBITAL ENERGIES
----------------

  NO   OCC          E(Eh)            E(eV)
   0   2.0000     -18.735327      -509.8142
   1   2.0000      -9.971614      -271.3414
   2   2.0000      -9.900855      -269.4160
   3   2.0000      -9.891399      -269.1587
   4   2.0000      -9.886417      -269.0231
   5   2.0000      -9.875360      -268.7222
   6   2.0000      -0.932181       -25.3659
   7   2.0000      -0.727664       -19.8008
   8   2.0000      -0.673547       -18.3281
   9   2.0000      -0.621640       -16.9157
  10   2.0000      -0.539952       -14.6928
  11   2.0000      -0.469981       -12.7888
  12   2.0000      -0.426917       -11.6170
  13   2.0000      -0.415478       -11.3057
  14   2.0000      -0.400466       -10.8972
  15   2.0000      -0.380993       -10.3674
  16   2.0000      -0.375513       -10.2182
  17   2.0000      -0.347459        -9.4548
  18   2.0000      -0.333533        -9.0759
  19   2.0000      -0.319304        -8.6887
  20   2.0000      -0.308991        -8.4081
  21   2.0000      -0.303154        -8.2492
  22   2.0000      -0.293558        -7.9881
  23   2.0000      -0.191939        -5.2229
  24   0.0000      -0.049662        -1.3514
  25   0.0000       0.029861         0.8126
  26   0.0000       0.063105         1.7172
  27   0.0000       0.075366         2.0508
  28   0.0000       0.085283         2.3207

MULLIKEN ATOMIC CHARGES
-----------------------
   0 C :   -0.284743
   1 C :   -0.218397
   2 C :   -0.119510
   3 C :   -0.024253
   4 O :   -0.172221
   5 C :   -0.258095
   6 H :    0.104073
   7 H :    0.123353
   8 H :    0.105060
   9 H :    0.100567
  10 H :    0.093662
  11 H :    0.089875
  12 H :    0.094869
  13 H :    0.127363
  14 H :    0.119347
  15 H :    0.119050
Sum of atomic charges:   -0.0000000

LOEWDIN ATOMIC CHARGES
----------------------
   0 C :   -0.343834
   1 C :   -0.223827
   2 C :   -0.247493
   3 C :    0.040883
   4 O :   -0.134402
   5 C :   -0.362807
   6 H :    0.121240
   7 H :    0.123830
   8 H :    0.120123
   9 H :    0.121390
  10 H :    0.114333
  11 H :    0.124847
  12 H :    0.130158
  13 H :    0.147070
  14 H :    0.133947
  15 H :    0.134542

  Mayer bond orders larger than 0.100000
B(  0-C ,  1-C ) :   1.1533 B(  0-C ,  6-H ) :   0.9537 B(  0-C ,  7-H ) :   0.9464
B(  0-C ,  8-H ) :   0.9507 B(  1-C ,  2-C ) :   1.0999 B(  1-C ,  9-H ) :   0.9258
B(  1-C , 10-H ) :   0.9249 B(  2-C ,  3-C ) :   1.0027 B(  2-C , 11-H ) :   0.9063
B(  2-C , 12-H ) :   0.9000 B(  3-C ,  4-O ) :   2.1658 B(  3-C ,  5-C ) :   1.0663
B(  5-C , 13-H ) :   0.9168 B(  5-C , 14-H ) :   0.9282 B(  5-C , 15-H ) :   0.9352

Dispersion correction           -0.011550393
FINAL SINGLE POINT ENERGY      -271.141556521804

DIPOLE MOMENT
-------------

Method             : SCF
Type of density    : Electron Density
Multiplicity       :   1
Irrep              :   0
Energy             :  -271.1961209383682672 Eh
Relativity type    :
Basis              : AO
                                X                 Y                 Z
Electronic contribution:      3.832808847       3.471062353      -0.622480800
Nuclear contribution   :     -4.039089317      -4.464956670       0.434875323
                        -----------------------------------------
Total Dipole Moment    :     -0.206280471      -0.993894316      -0.187605478
                        -----------------------------------------
Magnitude (a.u.)       :      1.032266129
Magnitude (Debye)      :      2.623811981

Rotational constants in cm-1:             0.183074             0.080830             0.069385
Rotational constants in MHz :          5488.432675          2423.217112          2080.124593

                             ****ORCA TERMINATED NORMALLY****
TOTAL RUN TIME: 0 days 0 hours 0 minutes 7 seconds 860 msec
