                         Program Version 6.0.0  -   RELEASE  -
|  1> ! r2scan-3c def2/J RI DEFGRID2 scfconv6 printgap
|  2> %output
|  3>     printlevel normal
|  4> end
|  5> * xyz 0 1
|  6> C 1.8506445929 0.6585368266 -0.8482709309
|  7> C 1.4048454047 0.0580048321 0.4832878462
|  8> C 1.4913332901 -1.4664336371 0.4510779754
|  9> C -0.0048779369 0.5277926867 0.861657688
| 10> C -1.1129489014 0.1393317976 -0.0801819233
| 11> O -1.0199999824 -0.5020698702 -1.1035815781
| 12> O -2.2823917599 0.6006563577 0.3520169645
| 13> H 1.2047938502 0.3130187414 -1.6513591358
| 14> H 2.8702940059 0.3573525432 -1.0738984482
| 15> H 1.8120354598 1.7448665651 -0.8125372508
| 16> H 2.0789128048 0.4230715501 1.2667316753
| 17> H 2.508727104 -1.7807338963 0.2332835791
| 18> H 1.1977968395 -1.8887736537 1.4093820698
| 19> H 0.8365828453 -1.8637823144 -0.3202032246
| 20> H -0.0308129139 1.6173692463 0.9374980905
| 21> H -0.2813290946 0.1360902667 1.8433694857
| 22> H -3.0210805843 0.3628878764 -0.2406488861
| 23> *
| 24>
| 25>                          ****END OF INPUT****

CARTESIAN COORDINATES (ANGSTROEM)
---------------------------------
  C      1.850645    0.658537   -0.848271
  C      1.404845    0.058005    0.483288
  C      1.491333   -1.466434    0.451078
  C     -0.004878    0.527793    0.861658
  C     -1.112949    0.139332   -0.080182
  O     -1.020000   -0.502070   -1.103582
  O     -2.282392    0.600656    0.352017
  H      1.204794    0.313019   -1.651359
  H      2.870294    0.357353   -1.073898
  H      1.812035    1.744867   -0.812537
  H      2.078913    0.423072    1.266732
  H      2.508727   -1.780734    0.233284
  H      1.197797   -1.888774    1.409382
  H      0.836583   -1.863782   -0.320203
  H     -0.030813    1.617369    0.937498
  H     -0.281329    0.136090    1.843369
  H     -3.021081    0.362888   -0.240649

 Total Charge           Charge          ....    0
 Multiplicity           Mult            ....    1
 Number of Electrons    NEL             ....   56
 Basis Dimension        Dim             ....  193

ORBITAL ENERGIES
----------------

  NO   OCC          E(Eh)            E(eV)
   0   2.0000     -19.003169      -517.1025
   1   2.0000     -18.936819      -515.2970
   2   2.0000     -10.164781      -276.5977
   3   2.0000     -10.048007      -273.4202
   4   2.0000     -10.041985      -273.2563
   5   2.0000     -10.010933      -272.4113
   6   2.0000     -10.010928      -272.4112
   7   2.0000      -1.078635       -29.3512
   8   2.0000      -0.981292       -26.7023
   9   2.0000      -0.783908       -21.3312
  10   2.0000      -0.700551       -19.0630
  11   2.0000      -0.647869       -17.6294
  12   2.0000      -0.598814       -16.2946
  13   2.0000      -0.528737       -14.3877
  14   2.0000      -0.466529       -12.6949
  15   2.0000      -0.448863       -12.2142
  16   2.0000      -0.444166       -12.0864
  17   2.0000      -0.415181       -11.2976
  18   2.0000      -0.396703       -10.7948
  19   2.0000      -0.390557       -10.6276
  20   2.0000      -0.353791        -9.6271
  21   2.0000      -0.347457        -9.4548
  22   2.0000      -0.336787        -9.1644
  23   2.0000      -0.306032        -8.3276
  24   2.0000      -0.302698        -8.2368
  25   2.0000      -0.300769        -8.1843
  26   2.0000      -0.293287        -7.9807
  27   2.0000      -0.239281        -6.5112
  28   0.0000      -0.022219        -0.6046
  29   0.0000       0.058290         1.5861
  30   0.0000       0.074323         2.0224
  31   0.0000       0.126814         3.4508
  32   0.0000       0.136116         3.7039

MULLIKEN ATOMIC CHARGES
-----------------------
   0 C :   -0.541008
   1 C :    0.073460
   2 C :   -0.540979
   3 C :   -0.341615
   4 C :    0.345680
   5 O :   -0.414248
   6 O :   -0.343891
   7 H :    0.191028
   8 H :    0.143178
   9 H :    0.140649
  10 H :    0.146030
  11 H :    0.143152
  12 H :    0.140653
  13 H :    0.191019
  14 H :    0.170242
  15 H :    0.170230
  16 H :    0.326421
Sum of atomic charges:   -0.0000000

LOEWDIN ATOMIC CHARGES
----------------------
   0 C :   -0.411025
   1 C :   -0.232359
   2 C :   -0.411021
   3 C :   -0.235148
   4 C :    0.346987
   5 O :   -0.439196
   6 O :   -0.408000
   7 H :    0.174065
   8 H :    0.153312
   9 H :    0.151581
  10 H :    0.157071
  11 H :    0.153314
  12 H :    0.151582
  13 H :    0.174054
  14 H :    0.188207
  15 H :    0.188211
  16 H :    0.298365

  Mayer bond orders larger than 0.100000
B(  0-C ,  1-C ) :   0.8935 B(  0-C ,  7-H ) :   0.9742 B(  0-C ,  8-H ) :   0.9707
B(  0-C ,  9-H ) :   0.9731 B(  1-C ,  2-C ) :   0.8934 B(  1-C ,  3-C ) :   0.9184
B(  1-C , 10-H ) :   0.9629 B(  2-C , 11-H ) :   0.9707 B(  2-C , 12-H ) :   0.9732
B(  2-C , 13-H ) :   0.9743 B(  3-C ,  4-C ) :   0.9777 B(  3-C , 14-H ) :   0.9400
B(  3-C , 15-H ) :   0.9401 B(  4-C ,  5-O ) :   1.9274 B(  4-C ,  6-O ) :   1.0460
B(  6-O , 16-H ) :   0.8604

Dispersion correction           -0.004449522
FINAL SINGLE POINT ENERGY      -346.948495563291

DIPOLE MOMENT
-------------

Method             : SCF
Type of density    : Electron Density
Multiplicity       :   1
Irrep              :   0
Energy             :  -346.9535107860362473 Eh
Relativity type    :
Basis              : AO
                                X                 Y                 Z
Electronic contribution:     -8.718964955       0.897373593      -0.943567961
Nuclear contribution   :      8.559585707      -0.541392914       1.482060948
                        -----------------------------------------
Total Dipole Moment    :     -0.159379248       0.355980679       0.538492987
                        -----------------------------------------
Magnitude (a.u.)       :      0.664905020
Magnitude (Debye)      :      1.690054250

Rotational constants in cm-1:             0.149021             0.055800             0.055410
Rotational constants in MHz :          4467.546921          1672.855789          1661.151592

                             ****ORCA TERMINATED NORMALLY****
TOTAL RUN TIME: 0 days 0 hours 0 minutes 24 seconds 826 msec
