                         Program Version 6.0.0  -   RELEASE  -
|  1> ! r2scan-3c def2/J RI DEFGRID2 scfconv6 printgap
|  2> %output
|  3>     printlevel normal
|  4> end
|  5> %cpcm
|  6>     smd true
|  7>     smdsolvent "water"
|  8> end
|  9> * xyz 0 1
| 10> C 1.8506445929 0.6585368266 -0.8482709309
| 11> C 1.4048454047 0.0580048321 0.4832878462
| 12> C 1.4913332901 -1.4664336371 0.4510779754
| 13> C -0.0048779369 0.5277926867 0.861657688
| 14> C -1.1129489014 0.1393317976 -0.0801819233
| 15> O -1.0199999824 -0.5020698702 -1.1035815781
| 16> O -2.2823917599 0.6006563577 0.3520169645
| 17> H 1.2047938502 0.3130187414 -1.6513591358
| 18> H 2.8702940059 0.3573525432 -1.0738984482
| 19> H 1.8120354598 1.7448665651 -0.8125372508
| 20> H 2.0789128048 0.4230715501 1.2667316753
| 21> H 2.508727104 -1.7807338963 0.2332835791
| 22> H 1.1977968395 -1.8887736537 1.4093820698
| 23> H 0.8365828453 -1.8637823144 -0.3202032246
| 24> H -0.0308129139 1.6173692463 0.9374980905
| 25> H -0.2813290946 0.1360902667 1.8433694857
| 26> H -3.0210805843 0.3628878764 -0.2406488861
| 27> *
| 28>
| 29>                          ****END OF INPUT****

CARTESIAN COORDINATES (ANGSTROEM)
---------------------------------
  C      1.850645    0.658537   -0.848271
  C      1.404845    0.058005    0.483288
  C      1.491333   -1.466434    0.451078
  C     -0.004878    0.527793    0.861658
  C     -1.112949    0.139332   -0.080182
  O     -1.020000   -0.502070   -1.103582
  O     -2.282392    0.600656    0.352017
  H      1.204794    0.313019   -1.651359
  H      2.870294    0.357353   -1.073898
  H      1.812035    1.744867   -0.812537
  H      2.078913    0.423072    1.266732
  H      2.508727   -1.780734    0.233284
  H      1.197797   -1.888774    1.409382
  H      0.836583   -1.863782   -0.320203
  H     -0.030813    1.617369    0.937498
  H     -0.281329    0.136090    1.843369
  H     -3.021081    0.362888   -0.240649

 Total Charge           Charge          ....    0
 Multiplicity           Mult            ....    1
 Number of Electrons    NEL             ....   56
 Basis Dimension        Dim             ....  193

ORBITAL ENERGIES
----------------

  NO   OCC          E(Eh)            E(eV)
   0   2.0000     -18.997492      -516.9480
   1   2.0000     -18.943682      -515.4838
   2   2.0000     -10.167376      -276.6684
   3   2.0000     -10.036660      -273.1114
   4   2.0000     -10.033811      -273.0339
   5   2.0000     -10.006190      -272.2823
   6   2.0000     -10.006170      -272.2817
   7   2.0000      -1.076496       -29.2929
   8   2.0000      -0.984907       -26.8007
   9   2.0000      -0.776283       -21.1237
  10   2.0000      -0.693216       -18.8634
  11   2.0000      -0.643240       -17.5035
  12   2.0000      -0.590069       -16.0566
  13   2.0000      -0.522224       -14.2104
  14   2.0000      -0.468224       -12.7410
  15   2.0000      -0.445700       -12.1281
  16   2.0000      -0.443579       -12.0704
  17   2.0000      -0.410914       -11.1815
  18   2.0000      -0.390739       -10.6325
  19   2.0000      -0.385981       -10.5031
  20   2.0000      -0.353907        -9.6303
  21   2.0000      -0.344788        -9.3822
  22   2.0000      -0.328923        -8.9504
  23   2.0000      -0.301050        -8.1920
  24   2.0000      -0.297704        -8.1009
  25   2.0000      -0.296369        -8.0646
  26   2.0000      -0.293131        -7.9765
  27   2.0000      -0.244992        -6.6666
  28   0.0000      -0.022795        -0.6203
  29   0.0000       0.074761         2.0344
  30   0.0000       0.093236         2.5371
  31   0.0000       0.136647         3.7183
  32   0.0000       0.140576         3.8253

MULLIKEN ATOMIC CHARGES
-----------------------
   0 C :   -0.574982
   1 C :    0.075956
   2 C :   -0.574792
   3 C :   -0.341459
   4 C :    0.361363
   5 O :   -0.486491
   6 O :   -0.370072
   7 H :    0.173552
   8 H :    0.157645
   9 H :    0.159910
  10 H :    0.162229
  11 H :    0.157643
  12 H :    0.159868
  13 H :    0.173416
  14 H :    0.195846
  15 H :    0.195803
  16 H :    0.374566
Sum of atomic charges:   -0.0000000

LOEWDIN ATOMIC CHARGES
----------------------
   0 C :   -0.418277
   1 C :   -0.229206
   2 C :   -0.418243
   3 C :   -0.232756
   4 C :    0.357363
   5 O :   -0.494736
   6 O :   -0.403314
   7 H :    0.165960
   8 H :    0.156331
   9 H :    0.157698
  10 H :    0.163977
  11 H :    0.156355
  12 H :    0.157688
  13 H :    0.165902
  14 H :    0.198657
  15 H :    0.198615
  16 H :    0.317986

  Mayer bond orders larger than 0.100000
B(  0-C ,  1-C ) :   0.8905 B(  0-C ,  7-H ) :   0.9772 B(  0-C ,  8-H ) :   0.9702
B(  0-C ,  9-H ) :   0.9698 B(  1-C ,  2-C ) :   0.8903 B(  1-C ,  3-C ) :   0.9125
B(  1-C , 10-H ) :   0.9583 B(  2-C , 11-H ) :   0.9701 B(  2-C , 12-H ) :   0.9698
B(  2-C , 13-H ) :   0.9772 B(  3-C ,  4-C ) :   0.9798 B(  3-C , 14-H ) :   0.9307
B(  3-C , 15-H ) :   0.9308 B(  4-C ,  5-O ) :   1.8720 B(  4-C ,  6-O ) :   1.0720
B(  6-O , 16-H ) :   0.8372

Dispersion correction           -0.004449522
FINAL SINGLE POINT ENERGY      -346.956347158498

DIPOLE MOMENT
-------------

Method             : SCF
Type of density    : Electron Density
Multiplicity       :   1
Irrep              :   0
Energy             :  -346.9613623812430205 Eh
Relativity type    :
Basis              : AO
                                X                 Y                 Z
Electronic contribution:     -8.764979888       1.102517771      -0.621821666
Nuclear contribution   :      8.559585707      -0.541392914       1.482060948
                        -----------------------------------------
Total Dipole Moment    :     -0.205394181       0.561124857       0.860239282
                        -----------------------------------------
Magnitude (a.u.)       :      1.047406080
Magnitude (Debye)      :      2.662294680

Rotational constants in cm-1:             0.149021             0.055800             0.055410
Rotational constants in MHz :          4467.546921          1672.855789          1661.151592

                             ****ORCA TERMINATED NORMALLY****
TOTAL RUN TIME: 0 days 0 hours 0 minutes 29 seconds 797 msec
