                         Program Version 6.0.0  -   RELEASE  -
|  1> ! pbe def2-sv(p) def2/J RI DEFGRID1 loosescf d4 GCP(DFT/SV(P)) printgap
|  2> %output
|  3>     printlevel normal
|  4> end
|  5> * xyz 0 1
|  6> C -3.4479139902 -0.1849260759 -0.3589840037
|  7> C -1.9592006129 0.1143670528 -0.4972712855
|  8> C -1.2077953701 -0.2323692493 0.7874175388
|  9> C 0.3174050054 -0.1146096203 0.7222531533
| 10> C 1.0056058248 -1.1542459424 -0.174855719
| 11> C 2.3496280035 -0.5262398252 -0.589688801
| 12> C 2.3446811061 0.8992725212 -0.0166914286
| 13> C 0.8666969533 1.2126909192 0.1970860931
| 14> H -3.875421448 0.3832286548 0.464263116
| 15> H -3.9775276613 0.0799500933 -1.2710043534
| 16> H -3.6083569057 -1.2428530114 -0.1630563103
| 17> H -1.5576533637 -0.4595323451 -1.334081184
| 18> H -1.83102739 1.1738743293 -0.7242035587
| 19> H -1.5708223643 0.42172734 1.5844410781
| 20> H -1.4537096985 -1.2592598352 1.0712537246
| 21> H 0.6944388617 -0.2476152472 1.7433881149
| 22> H 1.1416299355 -2.0996335175 0.3490858913
| 23> H 0.3956594938 -1.3501382765 -1.0559559893
| 24> H 3.1944203477 -1.0982009444 -0.2079661388
| 25> H 2.4355438685 -0.4975368244 -1.6757787103
| 26> H 2.8652853699 0.9203560889 0.942088634
| 27> H 2.8312175036 1.6114452755 -0.6815453303
| 28> H 0.7060845946 2.0366823624 0.8909480869
| 29> H 0.4033302186 1.461387493 -0.7573046804
| 30> *
| 31>
| 32>                          ****END OF INPUT****

CARTESIAN COORDINATES (ANGSTROEM)
---------------------------------
  C     -3.447914   -0.184926   -0.358984
  C     -1.959201    0.114367   -0.497271
  C     -1.207795   -0.232369    0.787418
  C      0.317405   -0.114610    0.722253
  C      1.005606   -1.154246   -0.174856
  C      2.349628   -0.526240   -0.589689
  C      2.344681    0.899273   -0.016691
  C      0.866697    1.212691    0.197086
  H     -3.875421    0.383229    0.464263
  H     -3.977528    0.079950   -1.271004
  H     -3.608357   -1.242853   -0.163056
  H     -1.557653   -0.459532   -1.334081
  H     -1.831027    1.173874   -0.724204
  H     -1.570822    0.421727    1.584441
  H     -1.453710   -1.259260    1.071254
  H      0.694439   -0.247615    1.743388
  H      1.141630   -2.099634    0.349086
  H      0.395659   -1.350138   -1.055956
  H      3.194420   -1.098201   -0.207966
  H      2.435544   -0.497537   -1.675779
  H      2.865285    0.920356    0.942089
  H      2.831218    1.611445   -0.681545
  H      0.706085    2.036682    0.890948
  H      0.403330    1.461387   -0.757305

 Total Charge           Charge          ....    0
 Multiplicity           Mult            ....    1
 Number of Electrons    NEL             ....   64
 Basis Dimension        Dim             ....  144

ORBITAL ENERGIES
----------------

  NO   OCC          E(Eh)            E(eV)
   0   2.0000      -9.884088      -268.9597
   1   2.0000      -9.878901      -268.8186
   2   2.0000      -9.877196      -268.7722
   3   2.0000      -9.874553      -268.7002
   4   2.0000      -9.874269      -268.6925
   5   2.0000      -9.873272      -268.6654
   6   2.0000      -9.872590      -268.6468
   7   2.0000      -9.870094      -268.5789
   8   2.0000      -0.758179       -20.6311
   9   2.0000      -0.703778       -19.1508
  10   2.0000      -0.644743       -17.5443
  11   2.0000      -0.629100       -17.1187
  12   2.0000      -0.579158       -15.7597
  13   2.0000      -0.529989       -14.4217
  14   2.0000      -0.496892       -13.5211
  15   2.0000      -0.477760       -13.0005
  16   2.0000      -0.431184       -11.7331
  17   2.0000      -0.417256       -11.3541
  18   2.0000      -0.408437       -11.1141
  19   2.0000      -0.375871       -10.2280
  20   2.0000      -0.369516       -10.0550
  21   2.0000      -0.360597        -9.8123
  22   2.0000      -0.341900        -9.3036
  23   2.0000      -0.315367        -8.5816
  24   2.0000      -0.303584        -8.2609
  25   2.0000      -0.294461        -8.0127
  26   2.0000      -0.290467        -7.9040
  27   2.0000      -0.288717        -7.8564
  28   2.0000      -0.272521        -7.4157
  29   2.0000      -0.271269        -7.3816
  30   2.0000      -0.264464        -7.1964
  31   2.0000      -0.258407        -7.0316
  32   0.0000       0.031601         0.8599
  33   0.0000       0.044230         1.2035
  34   0.0000       0.049922         1.3584
  35   0.0000       0.068042         1.8515
  36   0.0000       0.081228         2.2103

MULLIKEN ATOMIC CHARGES
-----------------------
   0 C :   -0.254722
   1 C :   -0.231096
   2 C :   -0.088544
   3 C :   -0.179695
   4 C :   -0.126246
   5 C :   -0.156760
   6 C :   -0.133175
   7 C :   -0.155171
   8 H :    0.095097
   9 H :    0.099889
  10 H :    0.095985
  11 H :    0.092295
  12 H :    0.095810
  13 H :    0.072105
  14 H :    0.073913
  15 H :    0.061247
  16 H :    0.076369
  17 H :    0.078772
  18 H :    0.079552
  19 H :    0.077810
  20 H :    0.073020
  21 H :    0.082760
  22 H :    0.082509
  23 H :    0.088275
Sum of atomic charges:    0.0000000

LOEWDIN ATOMIC CHARGES
----------------------
   0 C :   -0.337809
   1 C :   -0.238201
   2 C :   -0.217195
   3 C :   -0.145538
   4 C :   -0.224111
   5 C :   -0.230799
   6 C :   -0.227763
   7 C :   -0.223112
   8 H :    0.116215
   9 H :    0.117441
  10 H :    0.115950
  11 H :    0.112896
  12 H :    0.115761
  13 H :    0.114379
  14 H :    0.113956
  15 H :    0.114476
  16 H :    0.116413
  17 H :    0.114072
  18 H :    0.116998
  19 H :    0.116836
  20 H :    0.114648
  21 H :    0.114694
  22 H :    0.114636
  23 H :    0.115158

  Mayer bond orders larger than 0.100000
B(  0-C ,  1-C ) :   1.1558 B(  0-C ,  8-H ) :   0.9538 B(  0-C ,  9-H ) :   0.9531
B(  0-C , 10-H ) :   0.9539 B(  1-C ,  2-C ) :   1.1366 B(  1-C , 11-H ) :   0.9204
B(  1-C , 12-H ) :   0.9159 B(  2-C ,  3-C ) :   1.0855 B(  2-C , 13-H ) :   0.9116
B(  2-C , 14-H ) :   0.9202 B(  3-C ,  4-C ) :   1.1240 B(  3-C ,  7-C ) :   1.0873
B(  3-C , 15-H ) :   0.8919 B(  4-C ,  5-C ) :   1.1615 B(  4-C , 16-H ) :   0.9146
B(  4-C , 17-H ) :   0.9106 B(  5-C ,  6-C ) :   1.1666 B(  5-C , 18-H ) :   0.9206
B(  5-C , 19-H ) :   0.9228 B(  6-C ,  7-C ) :   1.1394 B(  6-C , 20-H ) :   0.9137
B(  6-C , 21-H ) :   0.9275 B(  7-C , 22-H ) :   0.9243 B(  7-C , 23-H ) :   0.9093

Dispersion correction           -0.020693311
FINAL SINGLE POINT ENERGY      -313.692429233848

DIPOLE MOMENT
-------------

Method             : SCF
Type of density    : Electron Density
Multiplicity       :   1
Irrep              :   0
Energy             :  -313.7736032515708189 Eh
Relativity type    :
Basis              : AO
                                X                 Y                 Z
Electronic contribution:      3.002694248       0.165612781       0.785614876
Nuclear contribution   :     -3.008603155      -0.155846110      -0.774385676
                        -----------------------------------------
Total Dipole Moment    :     -0.005908907       0.009766671       0.011229200
                        -----------------------------------------
Magnitude (a.u.)       :      0.016012432
Magnitude (Debye)      :      0.040700367

Rotational constants in cm-1:             0.152307             0.034286             0.032209
Rotational constants in MHz :          4566.051190          1027.871360           965.614717

                             ****ORCA TERMINATED NORMALLY****
TOTAL RUN TIME: 0 days 0 hours 0 minutes 11 seconds 36 msec
