                         Program Version 6.0.0  -   RELEASE  -
|  1> ! r2scan-3c def2/J RI DEFGRID2 scfconv6 printgap
|  2> %output
|  3>     printlevel normal
|  4> end
|  5> * xyz 0 1
|  6> C -0.2469702627 -2.8220695799 -0.1728702589
|  7> C 0.5230128616 -1.5471775549 -0.0465825934
|  8> C 1.8918223198 -1.4540032722 -0.3465053811
|  9> N 2.5625192724 -0.3232338319 -0.2281282649
| 10> C 1.9065806131 0.7710929856 0.1905026678
| 11> N 0.5910733738 0.7891390109 0.4815601024
| 12> C -0.0549772443 -0.3500844813 0.3526480342
| 13> O -1.4052223201 -0.2966614402 0.694420638
| 14> C -2.2656371041 -0.023031127 -0.3284834927
| 15> O -1.8930494475 0.0520628416 -1.4905563764
| 16> N -3.5252940883 0.1271752294 0.0825281824
| 17> C -4.5761649519 0.3712143986 -0.8828153965
| 18> C -3.9450284924 0.0379290136 1.4644413726
| 19> N 2.5971975184 1.9069346581 0.3274459339
| 20> C 1.9769234378 3.136063778 0.756470594
| 21> C 4.0069496125 1.9811941263 0.0284511771
| 22> C 2.659030283 -2.6440127063 -0.8192288495
| 23> H -0.3652700333 -3.0863895915 -1.2237553986
| 24> H 0.274331998 -3.6339469897 0.3296834875
| 25> H -1.235034909 -2.7100778268 0.2672429341
| 26> H -5.0534311714 1.3287784577 -0.6745113168
| 27> H -5.3191414265 -0.4244942647 -0.8262522905
| 28> H -4.1357920467 0.3919937677 -1.8766517578
| 29> H -4.5602089794 -0.8518402815 1.6075546139
| 30> H -4.5316816241 0.9215733452 1.7147627111
| 31> H -3.0750042491 -0.0150101185 2.111120339
| 32> H 2.0837886433 3.8956280237 -0.0200186254
| 33> H 2.4568324172 3.4918763409 1.6696495011
| 34> H 0.9238026294 2.9527478951 0.9433429497
| 35> H 4.5535465625 2.3049456743 0.9154640741
| 36> H 4.1771861384 2.6996940473 -0.7750630941
| 37> H 4.3522795249 0.999537222 -0.2788867302
| 38> H 3.6788925531 -2.3504490932 -1.0436006119
| 39> H 2.6634397511 -3.4124613558 -0.0490772153
| 40> H 2.1901323489 -3.0586539669 -1.7084803358
| 41> *
| 42>
| 43>                          ****END OF INPUT****

CARTESIAN COORDINATES (ANGSTROEM)
---------------------------------
  C     -0.246970   -2.822070   -0.172870
  C      0.523013   -1.547178   -0.046583
  C      1.891822   -1.454003   -0.346505
  N      2.562519   -0.323234   -0.228128
  C      1.906581    0.771093    0.190503
  N      0.591073    0.789139    0.481560
  C     -0.054977   -0.350084    0.352648
  O     -1.405222   -0.296661    0.694421
  C     -2.265637   -0.023031   -0.328483
  O     -1.893049    0.052063   -1.490556
  N     -3.525294    0.127175    0.082528
  C     -4.576165    0.371214   -0.882815
  C     -3.945028    0.037929    1.464441
  N      2.597198    1.906935    0.327446
  C      1.976923    3.136064    0.756471
  C      4.006950    1.981194    0.028451
  C      2.659030   -2.644013   -0.819229
  H     -0.365270   -3.086390   -1.223755
  H      0.274332   -3.633947    0.329683
  H     -1.235035   -2.710078    0.267243
  H     -5.053431    1.328778   -0.674511
  H     -5.319141   -0.424494   -0.826252
  H     -4.135792    0.391994   -1.876652
  H     -4.560209   -0.851840    1.607555
  H     -4.531682    0.921573    1.714763
  H     -3.075004   -0.015010    2.111120
  H      2.083789    3.895628   -0.020019
  H      2.456832    3.491876    1.669650
  H      0.923803    2.952748    0.943343
  H      4.553547    2.304946    0.915464
  H      4.177186    2.699694   -0.775063
  H      4.352280    0.999537   -0.278887
  H      3.678893   -2.350449   -1.043601
  H      2.663440   -3.412461   -0.049077
  H      2.190132   -3.058654   -1.708480

 Total Charge           Charge          ....    0
 Multiplicity           Mult            ....    1
 Number of Electrons    NEL             ....  128
 Basis Dimension        Dim             ....  443

ORBITAL ENERGIES
----------------

  NO   OCC          E(Eh)            E(eV)
   0   2.0000     -18.993592      -516.8419
   1   2.0000     -18.905908      -514.4559
   2   2.0000     -14.197134      -386.3237
   3   2.0000     -14.184258      -385.9733
   4   2.0000     -14.139783      -384.7630
   5   2.0000     -14.135158      -384.6372
   6   2.0000     -10.167068      -276.6600
   7   2.0000     -10.122651      -275.4513
   8   2.0000     -10.119305      -275.3603
   9   2.0000     -10.075278      -274.1623
  10   2.0000     -10.066698      -273.9288
  11   2.0000     -10.062549      -273.8159
  12   2.0000     -10.051462      -273.5142
  13   2.0000     -10.051221      -273.5076
  14   2.0000     -10.030695      -272.9491
  15   2.0000     -10.024638      -272.7843
  16   2.0000     -10.023895      -272.7640
  17   2.0000      -1.075185       -29.2573
  18   2.0000      -0.977881       -26.6095
  19   2.0000      -0.961683       -26.1687
  20   2.0000      -0.914491       -24.8846
  21   2.0000      -0.893891       -24.3240
  22   2.0000      -0.844941       -22.9920
  23   2.0000      -0.769431       -20.9373
  24   2.0000      -0.706328       -19.2202
  25   2.0000      -0.699063       -19.0225
  26   2.0000      -0.691787       -18.8245
  27   2.0000      -0.682212       -18.5639
  28   2.0000      -0.673278       -18.3208
  29   2.0000      -0.624819       -17.0022
  30   2.0000      -0.600128       -16.3303
  31   2.0000      -0.553590       -15.0640
  32   2.0000      -0.530082       -14.4243
  33   2.0000      -0.505087       -13.7441
  34   2.0000      -0.501360       -13.6427
  35   2.0000      -0.474695       -12.9171
  36   2.0000      -0.455858       -12.4045
  37   2.0000      -0.452660       -12.3175
  38   2.0000      -0.443863       -12.0781
  39   2.0000      -0.421008       -11.4562
  40   2.0000      -0.415306       -11.3011
  41   2.0000      -0.410605       -11.1731
  42   2.0000      -0.393895       -10.7184
  43   2.0000      -0.386088       -10.5060
  44   2.0000      -0.383955       -10.4479
  45   2.0000      -0.378254       -10.2928
  46   2.0000      -0.373566       -10.1653
  47   2.0000      -0.372845       -10.1456
  48   2.0000      -0.370927       -10.0934
  49   2.0000      -0.366033        -9.9603
  50   2.0000      -0.361502        -9.8370
  51   2.0000      -0.358330        -9.7507
  52   2.0000      -0.352570        -9.5939
  53   2.0000      -0.351108        -9.5541
  54   2.0000      -0.344556        -9.3759
  55   2.0000      -0.338733        -9.2174
  56   2.0000      -0.274741        -7.4761
  57   2.0000      -0.270063        -7.3488
  58   2.0000      -0.267126        -7.2689
  59   2.0000      -0.259866        -7.0713
  60   2.0000      -0.232174        -6.3178
  61   2.0000      -0.217890        -5.9291
  62   2.0000      -0.205937        -5.6038
  63   2.0000      -0.177765        -4.8372
  64   0.0000      -0.040876        -1.1123
  65   0.0000      -0.007825        -0.2129
  66   0.0000       0.031191         0.8488
  67   0.0000       0.061020         1.6604
  68   0.0000       0.079049         2.1510

MULLIKEN ATOMIC CHARGES
-----------------------
   0 C :   -0.608952
   1 C :    0.001744
   2 C :    0.250861
   3 N :   -0.242636
   4 C :    0.065803
   5 N :   -0.249323
   6 C :    0.169927
   7 O :   -0.141012
   8 C :    0.261344
   9 O :   -0.484522
  10 N :    0.073371
  11 C :   -0.386049
  12 C :   -0.381811
  13 N :    0.159790
  14 C :   -0.383179
  15 C :   -0.381200
  16 C :   -0.636862
  17 H :    0.180705
  18 H :    0.146829
  19 H :    0.167759
  20 H :    0.144321
  21 H :    0.140428
  22 H :    0.201801
  23 H :    0.148108
  24 H :    0.141705
  25 H :    0.185956
  26 H :    0.140538
  27 H :    0.139148
  28 H :    0.198290
  29 H :    0.138931
  30 H :    0.140849
  31 H :    0.198144
  32 H :    0.176440
  33 H :    0.163343
  34 H :    0.159410
Sum of atomic charges:   -0.0000000

LOEWDIN ATOMIC CHARGES
----------------------
   0 C :   -0.372608
   1 C :   -0.066152
   2 C :    0.178872
   3 N :   -0.567044
   4 C :    0.436065
   5 N :   -0.476904
   6 C :    0.396037
   7 O :   -0.472331
   8 C :    0.476056
   9 O :   -0.419292
  10 N :   -0.786301
  11 C :   -0.097813
  12 C :   -0.097303
  13 N :   -0.792941
  14 C :   -0.103566
  15 C :   -0.104791
  16 C :   -0.353857
  17 H :    0.168441
  18 H :    0.160116
  19 H :    0.173280
  20 H :    0.172598
  21 H :    0.171935
  22 H :    0.209664
  23 H :    0.170894
  24 H :    0.173847
  25 H :    0.205260
  26 H :    0.171470
  27 H :    0.170397
  28 H :    0.210679
  29 H :    0.170426
  30 H :    0.170972
  31 H :    0.210492
  32 H :    0.175337
  33 H :    0.168498
  34 H :    0.169568

  Mayer bond orders larger than 0.100000
B(  0-C ,  1-C ) :   0.6852 B(  0-C , 17-H ) :   0.9864 B(  0-C , 18-H ) :   0.9734
B(  0-C , 19-H ) :   0.9968 B(  1-C ,  2-C ) :   1.3329 B(  1-C ,  6-C ) :   1.4044
B(  2-C ,  3-N ) :   1.3620 B(  2-C , 16-C ) :   0.7674 B(  3-N ,  4-C ) :   1.3436
B(  4-C ,  5-N ) :   1.3530 B(  4-C ,  6-C ) :   0.1016 B(  4-C , 13-N ) :   1.3284
B(  5-N ,  6-C ) :   1.5295 B(  6-C ,  7-O ) :   1.0509 B(  7-O ,  8-C ) :   1.0125
B(  8-C ,  9-O ) :   1.7916 B(  8-C , 10-N ) :   1.3274 B( 10-N , 11-C ) :   0.9188
B( 10-N , 12-C ) :   0.9031 B( 11-C , 20-H ) :   0.9577 B( 11-C , 21-H ) :   0.9535
B( 11-C , 22-H ) :   0.9549 B( 12-C , 23-H ) :   0.9574 B( 12-C , 24-H ) :   0.9570
B( 12-C , 25-H ) :   0.9582 B( 13-N , 14-C ) :   0.9118 B( 13-N , 15-C ) :   0.9128
B( 14-C , 26-H ) :   0.9553 B( 14-C , 27-H ) :   0.9578 B( 14-C , 28-H ) :   0.9551
B( 15-C , 29-H ) :   0.9575 B( 15-C , 30-H ) :   0.9564 B( 15-C , 31-H ) :   0.9540
B( 16-C , 32-H ) :   1.0123 B( 16-C , 33-H ) :   0.9783 B( 16-C , 34-H ) :   0.9636

Dispersion correction           -0.013550232
FINAL SINGLE POINT ENERGY      -799.295393064104

DIPOLE MOMENT
-------------

Method             : SCF
Type of density    : Electron Density
Multiplicity       :   1
Irrep              :   0
Energy             :  -799.3194814774681163 Eh
Relativity type    :
Basis              : AO
                                X                 Y                 Z
Electronic contribution:      0.435405819       0.488643325      -0.277956590
Nuclear contribution   :     -0.901030615      -0.512047916       1.007432147
                        -----------------------------------------
Total Dipole Moment    :     -0.465624796      -0.023404591       0.729475557
                        -----------------------------------------
Magnitude (a.u.)       :      0.865730220
Magnitude (Debye)      :      2.200511341

Rotational constants in cm-1:             0.024211             0.009822             0.007696
Rotational constants in MHz :           725.816687           294.463584           230.719316

                             ****ORCA TERMINATED NORMALLY****
TOTAL RUN TIME: 0 days 0 hours 1 minutes 25 seconds 199 msec
