                         Program Version 6.0.0  -   RELEASE  -
|  1> ! r2scan-3c def2/J RI DEFGRID2 scfconv6 printgap
|  2> %output
|  3>     printlevel normal
|  4> end
|  5> %cpcm
|  6>     smd true
|  7>     smdsolvent "water"
|  8> end
|  9> * xyz 0 1
| 10> C -0.2469702627 -2.8220695799 -0.1728702589
| 11> C 0.5230128616 -1.5471775549 -0.0465825934
| 12> C 1.8918223198 -1.4540032722 -0.3465053811
| 13> N 2.5625192724 -0.3232338319 -0.2281282649
| 14> C 1.9065806131 0.7710929856 0.1905026678
| 15> N 0.5910733738 0.7891390109 0.4815601024
| 16> C -0.0549772443 -0.3500844813 0.3526480342
| 17> O -1.4052223201 -0.2966614402 0.694420638
| 18> C -2.2656371041 -0.023031127 -0.3284834927
| 19> O -1.8930494475 0.0520628416 -1.4905563764
| 20> N -3.5252940883 0.1271752294 0.0825281824
| 21> C -4.5761649519 0.3712143986 -0.8828153965
| 22> C -3.9450284924 0.0379290136 1.4644413726
| 23> N 2.5971975184 1.9069346581 0.3274459339
| 24> C 1.9769234378 3.136063778 0.756470594
| 25> C 4.0069496125 1.9811941263 0.0284511771
| 26> C 2.659030283 -2.6440127063 -0.8192288495
| 27> H -0.3652700333 -3.0863895915 -1.2237553986
| 28> H 0.274331998 -3.6339469897 0.3296834875
| 29> H -1.235034909 -2.7100778268 0.2672429341
| 30> H -5.0534311714 1.3287784577 -0.6745113168
| 31> H -5.3191414265 -0.4244942647 -0.8262522905
| 32> H -4.1357920467 0.3919937677 -1.8766517578
| 33> H -4.5602089794 -0.8518402815 1.6075546139
| 34> H -4.5316816241 0.9215733452 1.7147627111
| 35> H -3.0750042491 -0.0150101185 2.111120339
| 36> H 2.0837886433 3.8956280237 -0.0200186254
| 37> H 2.4568324172 3.4918763409 1.6696495011
| 38> H 0.9238026294 2.9527478951 0.9433429497
| 39> H 4.5535465625 2.3049456743 0.9154640741
| 40> H 4.1771861384 2.6996940473 -0.7750630941
| 41> H 4.3522795249 0.999537222 -0.2788867302
| 42> H 3.6788925531 -2.3504490932 -1.0436006119
| 43> H 2.6634397511 -3.4124613558 -0.0490772153
| 44> H 2.1901323489 -3.0586539669 -1.7084803358
| 45> *
| 46>
| 47>                          ****END OF INPUT****

CARTESIAN COORDINATES (ANGSTROEM)
---------------------------------
  C     -0.246970   -2.822070   -0.172870
  C      0.523013   -1.547178   -0.046583
  C      1.891822   -1.454003   -0.346505
  N      2.562519   -0.323234   -0.228128
  C      1.906581    0.771093    0.190503
  N      0.591073    0.789139    0.481560
  C     -0.054977   -0.350084    0.352648
  O     -1.405222   -0.296661    0.694421
  C     -2.265637   -0.023031   -0.328483
  O     -1.893049    0.052063   -1.490556
  N     -3.525294    0.127175    0.082528
  C     -4.576165    0.371214   -0.882815
  C     -3.945028    0.037929    1.464441
  N      2.597198    1.906935    0.327446
  C      1.976923    3.136064    0.756471
  C      4.006950    1.981194    0.028451
  C      2.659030   -2.644013   -0.819229
  H     -0.365270   -3.086390   -1.223755
  H      0.274332   -3.633947    0.329683
  H     -1.235035   -2.710078    0.267243
  H     -5.053431    1.328778   -0.674511
  H     -5.319141   -0.424494   -0.826252
  H     -4.135792    0.391994   -1.876652
  H     -4.560209   -0.851840    1.607555
  H     -4.531682    0.921573    1.714763
  H     -3.075004   -0.015010    2.111120
  H      2.083789    3.895628   -0.020019
  H      2.456832    3.491876    1.669650
  H      0.923803    2.952748    0.943343
  H      4.553547    2.304946    0.915464
  H      4.177186    2.699694   -0.775063
  H      4.352280    0.999537   -0.278887
  H      3.678893   -2.350449   -1.043601
  H      2.663440   -3.412461   -0.049077
  H      2.190132   -3.058654   -1.708480

 Total Charge           Charge          ....    0
 Multiplicity           Mult            ....    1
 Number of Electrons    NEL             ....  128
 Basis Dimension        Dim             ....  443

ORBITAL ENERGIES
----------------

  NO   OCC          E(Eh)            E(eV)
   0   2.0000     -19.007952      -517.2327
   1   2.0000     -18.930967      -515.1378
   2   2.0000     -14.201777      -386.4500
   3   2.0000     -14.188818      -386.0974
   4   2.0000     -14.152757      -385.1161
   5   2.0000     -14.145765      -384.9258
   6   2.0000     -10.184433      -277.1325
   7   2.0000     -10.134219      -275.7661
   8   2.0000     -10.129055      -275.6256
   9   2.0000     -10.083992      -274.3994
  10   2.0000     -10.054624      -273.6002
  11   2.0000     -10.053918      -273.5810
  12   2.0000     -10.047291      -273.4007
  13   2.0000     -10.046515      -273.3796
  14   2.0000     -10.038539      -273.1625
  15   2.0000     -10.022445      -272.7246
  16   2.0000     -10.020488      -272.6713
  17   2.0000      -1.091349       -29.6971
  18   2.0000      -0.997153       -27.1339
  19   2.0000      -0.972782       -26.4707
  20   2.0000      -0.920096       -25.0371
  21   2.0000      -0.899938       -24.4885
  22   2.0000      -0.856972       -23.3194
  23   2.0000      -0.775335       -21.0979
  24   2.0000      -0.708451       -19.2779
  25   2.0000      -0.699789       -19.0422
  26   2.0000      -0.687127       -18.6977
  27   2.0000      -0.680791       -18.5253
  28   2.0000      -0.673506       -18.3270
  29   2.0000      -0.627045       -17.0627
  30   2.0000      -0.606006       -16.4903
  31   2.0000      -0.557913       -15.1816
  32   2.0000      -0.536761       -14.6060
  33   2.0000      -0.509424       -13.8621
  34   2.0000      -0.504039       -13.7156
  35   2.0000      -0.481382       -13.0991
  36   2.0000      -0.462534       -12.5862
  37   2.0000      -0.455038       -12.3822
  38   2.0000      -0.446352       -12.1458
  39   2.0000      -0.421024       -11.4566
  40   2.0000      -0.416326       -11.3288
  41   2.0000      -0.415102       -11.2955
  42   2.0000      -0.400239       -10.8911
  43   2.0000      -0.391796       -10.6613
  44   2.0000      -0.390819       -10.6347
  45   2.0000      -0.372403       -10.1336
  46   2.0000      -0.371124       -10.0988
  47   2.0000      -0.370409       -10.0793
  48   2.0000      -0.365547        -9.9470
  49   2.0000      -0.363699        -9.8968
  50   2.0000      -0.359965        -9.7951
  51   2.0000      -0.358626        -9.7587
  52   2.0000      -0.352283        -9.5861
  53   2.0000      -0.350425        -9.5355
  54   2.0000      -0.344505        -9.3744
  55   2.0000      -0.340469        -9.2646
  56   2.0000      -0.293539        -7.9876
  57   2.0000      -0.282808        -7.6956
  58   2.0000      -0.280337        -7.6284
  59   2.0000      -0.265660        -7.2290
  60   2.0000      -0.259124        -7.0511
  61   2.0000      -0.224107        -6.0983
  62   2.0000      -0.218894        -5.9564
  63   2.0000      -0.184161        -5.0113
  64   0.0000      -0.052585        -1.4309
  65   0.0000      -0.017001        -0.4626
  66   0.0000       0.015540         0.4229
  67   0.0000       0.055911         1.5214
  68   0.0000       0.075474         2.0538

MULLIKEN ATOMIC CHARGES
-----------------------
   0 C :   -0.641105
   1 C :   -0.014048
   2 C :    0.253426
   3 N :   -0.275233
   4 C :    0.065961
   5 N :   -0.277691
   6 C :    0.142801
   7 O :   -0.142089
   8 C :    0.278851
   9 O :   -0.575487
  10 N :    0.081781
  11 C :   -0.408089
  12 C :   -0.406268
  13 N :    0.160577
  14 C :   -0.413362
  15 C :   -0.410966
  16 C :   -0.658387
  17 H :    0.196317
  18 H :    0.175021
  19 H :    0.184848
  20 H :    0.174571
  21 H :    0.172132
  22 H :    0.190123
  23 H :    0.175466
  24 H :    0.170518
  25 H :    0.189383
  26 H :    0.166975
  27 H :    0.167151
  28 H :    0.192015
  29 H :    0.166277
  30 H :    0.166785
  31 H :    0.193784
  32 H :    0.181965
  33 H :    0.192607
  34 H :    0.183389
Sum of atomic charges:    0.0000000

LOEWDIN ATOMIC CHARGES
----------------------
   0 C :   -0.375918
   1 C :   -0.070393
   2 C :    0.183146
   3 N :   -0.587320
   4 C :    0.429237
   5 N :   -0.508293
   6 C :    0.382061
   7 O :   -0.474402
   8 C :    0.474463
   9 O :   -0.492636
  10 N :   -0.770965
  11 C :   -0.093962
  12 C :   -0.091435
  13 N :   -0.790368
  14 C :   -0.103354
  15 C :   -0.104201
  16 C :   -0.355535
  17 H :    0.173550
  18 H :    0.171474
  19 H :    0.177563
  20 H :    0.185450
  21 H :    0.185629
  22 H :    0.203928
  23 H :    0.183921
  24 H :    0.186570
  25 H :    0.205811
  26 H :    0.181741
  27 H :    0.181896
  28 H :    0.206313
  29 H :    0.181562
  30 H :    0.181227
  31 H :    0.206984
  32 H :    0.176136
  33 H :    0.180835
  34 H :    0.179283

  Mayer bond orders larger than 0.100000
B(  0-C ,  1-C ) :   0.7002 B(  0-C , 17-H ) :   0.9757 B(  0-C , 18-H ) :   0.9645
B(  0-C , 19-H ) :   0.9929 B(  1-C ,  2-C ) :   1.3127 B(  1-C ,  6-C ) :   1.4169
B(  2-C ,  3-N ) :   1.3658 B(  2-C , 16-C ) :   0.7893 B(  3-N ,  4-C ) :   1.3426
B(  4-C ,  5-N ) :   1.3457 B(  4-C , 13-N ) :   1.3526 B(  5-N ,  6-C ) :   1.5216
B(  6-C ,  7-O ) :   1.0327 B(  7-O ,  8-C ) :   1.0187 B(  8-C ,  9-O ) :   1.7174
B(  8-C , 10-N ) :   1.3843 B( 10-N , 11-C ) :   0.9081 B( 10-N , 12-C ) :   0.8940
B( 11-C , 20-H ) :   0.9481 B( 11-C , 21-H ) :   0.9452 B( 11-C , 22-H ) :   0.9561
B( 12-C , 23-H ) :   0.9475 B( 12-C , 24-H ) :   0.9485 B( 12-C , 25-H ) :   0.9540
B( 13-N , 14-C ) :   0.8987 B( 13-N , 15-C ) :   0.9003 B( 14-C , 26-H ) :   0.9485
B( 14-C , 27-H ) :   0.9499 B( 14-C , 28-H ) :   0.9571 B( 15-C , 29-H ) :   0.9498
B( 15-C , 30-H ) :   0.9493 B( 15-C , 31-H ) :   0.9554 B( 16-C , 32-H ) :   1.0075
B( 16-C , 33-H ) :   0.9621 B( 16-C , 34-H ) :   0.9521

Dispersion correction           -0.013550232
FINAL SINGLE POINT ENERGY      -799.309871581281

DIPOLE MOMENT
-------------

Method             : SCF
Type of density    : Electron Density
Multiplicity       :   1
Irrep              :   0
Energy             :  -799.3339599946450562 Eh
Relativity type    :
Basis              : AO
                                X                 Y                 Z
Electronic contribution:      0.218656283       0.375537348       0.161852346
Nuclear contribution   :     -0.901030615      -0.512047916       1.007432147
                        -----------------------------------------
Total Dipole Moment    :     -0.682374332      -0.136510568       1.169284493
                        -----------------------------------------
Magnitude (a.u.)       :      1.360696914
Magnitude (Debye)      :      3.458616694

Rotational constants in cm-1:             0.024211             0.009822             0.007696
Rotational constants in MHz :           725.816687           294.463584           230.719316

                             ****ORCA TERMINATED NORMALLY****
TOTAL RUN TIME: 0 days 0 hours 2 minutes 2 seconds 316 msec
