                         Program Version 6.0.0  -   RELEASE  -
|  1> ! pbe def2-sv(p) def2/J RI DEFGRID1 loosescf d4 GCP(DFT/SV(P)) printgap
|  2> %output
|  3>     printlevel normal
|  4> end
|  5> * xyz 0 1
|  6> C 1.8827586908 -0.3214351549 0.8894265879
|  7> C 1.5284763024 0.2411337188 -0.4816383525
|  8> C 0.2497430812 -0.3332804519 -1.099375276
|  9> C -1.0690774075 0.0007964464 -0.3645538205
| 10> H -1.8790531794 -0.0168221636 -1.114607718
| 11> C -1.4332788949 -1.0207770858 0.7106106705
| 12> O -1.0473828708 1.280257412 0.2467412379
| 13> H 1.8661359322 -1.4088711822 0.8768905638
| 14> H 1.1842091213 0.0369796991 1.6404402136
| 15> H 2.8803867681 0.003902282 1.1766538496
| 16> H 1.4392339166 1.3258683155 -0.4014893666
| 17> H 2.3468657594 0.0281120522 -1.1738231405
| 18> H 0.179820037 0.0510856867 -2.1203551413
| 19> H 0.3341431217 -1.4187129355 -1.1633895716
| 20> H -2.3704899337 -0.7274722764 1.1771631685
| 21> H -1.5518935218 -2.0020615489 0.2613933359
| 22> H -0.6690386845 -1.0663669848 1.4777784504
| 23> H -0.9412982041 1.9551181396 -0.4357901152
| 24> *
| 25>
| 26>                          ****END OF INPUT****

CARTESIAN COORDINATES (ANGSTROEM)
---------------------------------
  C      1.882759   -0.321435    0.889427
  C      1.528476    0.241134   -0.481638
  C      0.249743   -0.333280   -1.099375
  C     -1.069077    0.000796   -0.364554
  H     -1.879053   -0.016822   -1.114608
  C     -1.433279   -1.020777    0.710611
  O     -1.047383    1.280257    0.246741
  H      1.866136   -1.408871    0.876891
  H      1.184209    0.036980    1.640440
  H      2.880387    0.003902    1.176654
  H      1.439234    1.325868   -0.401489
  H      2.346866    0.028112   -1.173823
  H      0.179820    0.051086   -2.120355
  H      0.334143   -1.418713   -1.163390
  H     -2.370490   -0.727472    1.177163
  H     -1.551894   -2.002062    0.261393
  H     -0.669039   -1.066367    1.477778
  H     -0.941298    1.955118   -0.435790

 Total Charge           Charge          ....    0
 Multiplicity           Mult            ....    1
 Number of Electrons    NEL             ....   50
 Basis Dimension        Dim             ....  108

ORBITAL ENERGIES
----------------

  NO   OCC          E(Eh)            E(eV)
   0   2.0000     -18.740691      -509.9601
   1   2.0000      -9.935660      -270.3630
   2   2.0000      -9.881228      -268.8819
   3   2.0000      -9.880254      -268.8554
   4   2.0000      -9.868396      -268.5327
   5   2.0000      -9.866812      -268.4896
   6   2.0000      -0.917529       -24.9672
   7   2.0000      -0.712099       -19.3772
   8   2.0000      -0.665552       -18.1106
   9   2.0000      -0.610091       -16.6014
  10   2.0000      -0.537666       -14.6306
  11   2.0000      -0.505442       -13.7538
  12   2.0000      -0.452993       -12.3266
  13   2.0000      -0.418264       -11.3815
  14   2.0000      -0.401014       -10.9121
  15   2.0000      -0.365982        -9.9589
  16   2.0000      -0.360032        -9.7970
  17   2.0000      -0.337476        -9.1832
  18   2.0000      -0.329993        -8.9796
  19   2.0000      -0.325918        -8.8687
  20   2.0000      -0.299110        -8.1392
  21   2.0000      -0.286030        -7.7833
  22   2.0000      -0.279616        -7.6088
  23   2.0000      -0.261209        -7.1079
  24   2.0000      -0.211909        -5.7663
  25   0.0000       0.018047         0.4911
  26   0.0000       0.058773         1.5993
  27   0.0000       0.068571         1.8659
  28   0.0000       0.073944         2.0121
  29   0.0000       0.086821         2.3625

MULLIKEN ATOMIC CHARGES
-----------------------
   0 C :   -0.291852
   1 C :   -0.161268
   2 C :   -0.182811
   3 C :    0.024290
   4 H :    0.057298
   5 C :   -0.255371
   6 O :   -0.422273
   7 H :    0.094798
   8 H :    0.127347
   9 H :    0.097111
  10 H :    0.068782
  11 H :    0.082564
  12 H :    0.073981
  13 H :    0.080154
  14 H :    0.105652
  15 H :    0.097374
  16 H :    0.107186
  17 H :    0.297036
Sum of atomic charges:   -0.0000000

LOEWDIN ATOMIC CHARGES
----------------------
   0 C :   -0.345642
   1 C :   -0.233484
   2 C :   -0.246661
   3 C :   -0.055375
   4 H :    0.095121
   5 C :   -0.343004
   6 O :   -0.330886
   7 H :    0.114098
   8 H :    0.121352
   9 H :    0.118193
  10 H :    0.109258
  11 H :    0.114862
  12 H :    0.112141
  13 H :    0.118895
  14 H :    0.123390
  15 H :    0.121415
  16 H :    0.123283
  17 H :    0.283043

  Mayer bond orders larger than 0.100000
B(  0-C ,  1-C ) :   1.1608 B(  0-C ,  7-H ) :   0.9529 B(  0-C ,  8-H ) :   0.9398
B(  0-C ,  9-H ) :   0.9474 B(  1-C ,  2-C ) :   1.1324 B(  1-C , 10-H ) :   0.9140
B(  1-C , 11-H ) :   0.9260 B(  2-C ,  3-C ) :   1.0432 B(  2-C , 12-H ) :   0.9180
B(  2-C , 13-H ) :   0.9153 B(  3-C ,  4-H ) :   0.9147 B(  3-C ,  5-C ) :   1.1314
B(  3-C ,  6-O ) :   1.0638 B(  5-C , 14-H ) :   0.9432 B(  5-C , 15-H ) :   0.9453
B(  5-C , 16-H ) :   0.9390 B(  6-O , 17-H ) :   0.8493

Dispersion correction           -0.013273953
FINAL SINGLE POINT ENERGY      -272.301508298414

DIPOLE MOMENT
-------------

Method             : SCF
Type of density    : Electron Density
Multiplicity       :   1
Irrep              :   0
Energy             :  -272.3711087435910372 Eh
Relativity type    :
Basis              : AO
                                X                 Y                 Z
Electronic contribution:     -2.588299288       3.036895863      -0.750720790
Nuclear contribution   :      2.629159459      -3.019938413       0.192105546
                        -----------------------------------------
Total Dipole Moment    :      0.040860171       0.016957450      -0.558615244
                        -----------------------------------------
Magnitude (a.u.)       :      0.560364256
Magnitude (Debye)      :      1.424332745

Rotational constants in cm-1:             0.153268             0.080971             0.074864
Rotational constants in MHz :          4594.849983          2427.454013          2244.359015

                             ****ORCA TERMINATED NORMALLY****
TOTAL RUN TIME: 0 days 0 hours 0 minutes 7 seconds 131 msec
