                         Program Version 6.0.0  -   RELEASE  -
|  1> ! r2scan-3c def2/J RI DEFGRID2 scfconv6 printgap
|  2> %output
|  3>     printlevel normal
|  4> end
|  5> * xyz 0 1
|  6> C 0.533491208 1.6562454879 0.6137163715
|  7> C 1.8778197999 1.9326994491 0.6776246292
|  8> C 2.8389896745 0.966952802 0.3595076689
|  9> C 2.3982292997 -0.3130115345 -0.0266870373
| 10> C 1.0257184963 -0.576168927 -0.0774284182
| 11> C 0.0834908085 0.387071935 0.2327075635
| 12> C -1.3513777853 0.0681895756 0.1702844719
| 13> C -1.8355561827 -1.142761669 0.6656433707
| 14> C -3.1794833913 -1.4622184423 0.6183784905
| 15> C -4.056542768 -0.5523547684 0.0592796509
| 16> C -3.6330036228 0.658300584 -0.4535313983
| 17> C -2.2829999769 0.9429853985 -0.3842257078
| 18> F -1.8700849113 2.1241543233 -0.9125594485
| 19> F -5.3803916054 -0.8517184721 0.0063304694
| 20> C 3.2867359068 -1.4261905353 -0.3935161869
| 21> O 2.8908732769 -2.5305325437 -0.7181171165
| 22> O 4.5941711508 -1.1516364869 -0.3489335456
| 23> O 4.1199966011 1.3419657633 0.4513338307
| 24> H -0.1779134509 2.4239080523 0.8738788769
| 25> H 2.2313484411 2.9064003697 0.9759121643
| 26> H 0.724142529 -1.5636605768 -0.3930687494
| 27> H -1.1395468709 -1.8362843603 1.108456931
| 28> H -3.5490534558 -2.3962619866 1.0070902998
| 29> H -4.3241454146 1.3557942857 -0.8960053447
| 30> H 5.1366482962 -1.9236057502 -0.6016098663
| 31> H 4.7247342274 0.6152096 0.2115641621
| 32> *
| 33>
| 34>                          ****END OF INPUT****

CARTESIAN COORDINATES (ANGSTROEM)
---------------------------------
  C      0.533491    1.656245    0.613716
  C      1.877820    1.932699    0.677625
  C      2.838990    0.966953    0.359508
  C      2.398229   -0.313012   -0.026687
  C      1.025718   -0.576169   -0.077428
  C      0.083491    0.387072    0.232708
  C     -1.351378    0.068190    0.170284
  C     -1.835556   -1.142762    0.665643
  C     -3.179483   -1.462218    0.618378
  C     -4.056543   -0.552355    0.059280
  C     -3.633004    0.658301   -0.453531
  C     -2.283000    0.942985   -0.384226
  F     -1.870085    2.124154   -0.912559
  F     -5.380392   -0.851718    0.006330
  C      3.286736   -1.426191   -0.393516
  O      2.890873   -2.530533   -0.718117
  O      4.594171   -1.151636   -0.348934
  O      4.119997    1.341966    0.451334
  H     -0.177913    2.423908    0.873879
  H      2.231348    2.906400    0.975912
  H      0.724143   -1.563661   -0.393069
  H     -1.139547   -1.836284    1.108457
  H     -3.549053   -2.396262    1.007090
  H     -4.324145    1.355794   -0.896005
  H      5.136648   -1.923606   -0.601610
  H      4.724734    0.615210    0.211564

 Total Charge           Charge          ....    0
 Multiplicity           Mult            ....    1
 Number of Electrons    NEL             ....  128
 Basis Dimension        Dim             ....  407

ORBITAL ENERGIES
----------------

  NO   OCC          E(Eh)            E(eV)
   0   2.0000     -24.509255      -666.9307
   1   2.0000     -24.505489      -666.8283
   2   2.0000     -19.031715      -517.8793
   3   2.0000     -18.997702      -516.9538
   4   2.0000     -18.946723      -515.5665
   5   2.0000     -10.180460      -277.0244
   6   2.0000     -10.137665      -275.8599
   7   2.0000     -10.135231      -275.7936
   8   2.0000     -10.123534      -275.4754
   9   2.0000     -10.065750      -273.9030
  10   2.0000     -10.064746      -273.8757
  11   2.0000     -10.059958      -273.7454
  12   2.0000     -10.059216      -273.7252
  13   2.0000     -10.057230      -273.6711
  14   2.0000     -10.056607      -273.6542
  15   2.0000     -10.055391      -273.6211
  16   2.0000     -10.052340      -273.5381
  17   2.0000     -10.046698      -273.3845
  18   2.0000      -1.194956       -32.5164
  19   2.0000      -1.190478       -32.3945
  20   2.0000      -1.100256       -29.9395
  21   2.0000      -1.048051       -28.5189
  22   2.0000      -0.994304       -27.0564
  23   2.0000      -0.861406       -23.4400
  24   2.0000      -0.840126       -22.8610
  25   2.0000      -0.769866       -20.9491
  26   2.0000      -0.752158       -20.4673
  27   2.0000      -0.740663       -20.1545
  28   2.0000      -0.708516       -19.2797
  29   2.0000      -0.661978       -18.0133
  30   2.0000      -0.621040       -16.8994
  31   2.0000      -0.613715       -16.7000
  32   2.0000      -0.587949       -15.9989
  33   2.0000      -0.580649       -15.8003
  34   2.0000      -0.547702       -14.9037
  35   2.0000      -0.537562       -14.6278
  36   2.0000      -0.503961       -13.7135
  37   2.0000      -0.493499       -13.4288
  38   2.0000      -0.480364       -13.0714
  39   2.0000      -0.473485       -12.8842
  40   2.0000      -0.463859       -12.6223
  41   2.0000      -0.450487       -12.2584
  42   2.0000      -0.445469       -12.1218
  43   2.0000      -0.438717       -11.9381
  44   2.0000      -0.429345       -11.6831
  45   2.0000      -0.425990       -11.5918
  46   2.0000      -0.416765       -11.3407
  47   2.0000      -0.408552       -11.1173
  48   2.0000      -0.401199       -10.9172
  49   2.0000      -0.396215       -10.7816
  50   2.0000      -0.389992       -10.6122
  51   2.0000      -0.373208       -10.1555
  52   2.0000      -0.360943        -9.8218
  53   2.0000      -0.346540        -9.4298
  54   2.0000      -0.342732        -9.3262
  55   2.0000      -0.336148        -9.1470
  56   2.0000      -0.329284        -8.9603
  57   2.0000      -0.319438        -8.6924
  58   2.0000      -0.311985        -8.4895
  59   2.0000      -0.261002        -7.1022
  60   2.0000      -0.257604        -7.0098
  61   2.0000      -0.255964        -6.9651
  62   2.0000      -0.247993        -6.7482
  63   2.0000      -0.210976        -5.7409
  64   0.0000      -0.086206        -2.3458
  65   0.0000      -0.060187        -1.6378
  66   0.0000      -0.048030        -1.3070
  67   0.0000      -0.018164        -0.4943
  68   0.0000       0.018409         0.5009

MULLIKEN ATOMIC CHARGES
-----------------------
   0 C :   -0.132809
   1 C :   -0.331265
   2 C :    0.348392
   3 C :   -0.040963
   4 C :   -0.279729
   5 C :    0.253517
   6 C :   -0.091558
   7 C :   -0.115838
   8 C :   -0.300024
   9 C :    0.415970
  10 C :   -0.397177
  11 C :    0.358413
  12 F :   -0.234981
  13 F :   -0.235595
  14 C :    0.245290
  15 O :   -0.409597
  16 O :   -0.364044
  17 O :   -0.381882
  18 H :    0.159372
  19 H :    0.159637
  20 H :    0.193112
  21 H :    0.160165
  22 H :    0.164390
  23 H :    0.178551
  24 H :    0.339024
  25 H :    0.339627
Sum of atomic charges:    0.0000000

LOEWDIN ATOMIC CHARGES
----------------------
   0 C :   -0.098101
   1 C :   -0.128290
   2 C :    0.224993
   3 C :   -0.047859
   4 C :   -0.073221
   5 C :   -0.079779
   6 C :   -0.072161
   7 C :   -0.118732
   8 C :   -0.160743
   9 C :    0.225077
  10 C :   -0.140623
  11 C :    0.240727
  12 F :   -0.281194
  13 F :   -0.283696
  14 C :    0.377082
  15 O :   -0.431016
  16 O :   -0.426186
  17 O :   -0.463783
  18 H :    0.181441
  19 H :    0.184641
  20 H :    0.200482
  21 H :    0.180941
  22 H :    0.184348
  23 H :    0.196400
  24 H :    0.306622
  25 H :    0.302628

  Mayer bond orders larger than 0.100000
B(  0-C ,  1-C ) :   1.4330 B(  0-C ,  5-C ) :   1.3404 B(  0-C , 18-H ) :   0.9249
B(  1-C ,  2-C ) :   1.3129 B(  1-C , 17-O ) :   0.1044 B(  1-C , 19-H ) :   0.9579
B(  2-C ,  3-C ) :   1.2951 B(  2-C , 17-O ) :   1.0531 B(  3-C ,  4-C ) :   1.3919
B(  3-C , 14-C ) :   1.0775 B(  4-C ,  5-C ) :   1.3211 B(  4-C , 20-H ) :   0.9349
B(  5-C ,  6-C ) :   0.7543 B(  6-C ,  7-C ) :   1.3777 B(  6-C , 11-C ) :   1.4424
B(  7-C ,  8-C ) :   1.3865 B(  7-C , 21-H ) :   0.9373 B(  8-C ,  9-C ) :   1.4187
B(  8-C , 22-H ) :   0.9301 B(  9-C , 10-C ) :   1.3939 B(  9-C , 13-F ) :   0.8652
B( 10-C , 11-C ) :   1.3532 B( 10-C , 23-H ) :   0.9196 B( 11-C , 12-F ) :   0.8912
B( 14-C , 15-O ) :   1.9603 B( 14-C , 16-O ) :   1.0365 B( 16-O , 24-H ) :   0.8565
B( 17-O , 25-H ) :   0.8118

Dispersion correction           -0.011413728
FINAL SINGLE POINT ENERGY      -925.450552260625

DIPOLE MOMENT
-------------

Method             : SCF
Type of density    : Electron Density
Multiplicity       :   1
Irrep              :   0
Energy             :  -925.4499878019089465 Eh
Relativity type    :
Basis              : AO
                                X                 Y                 Z
Electronic contribution:     -9.376167807       1.601820639      -2.670151053
Nuclear contribution   :     10.291501946      -1.606200705       2.975402928
                        -----------------------------------------
Total Dipole Moment    :      0.915334139      -0.004380066       0.305251874
                        -----------------------------------------
Magnitude (a.u.)       :      0.964901279
Magnitude (Debye)      :      2.452584140

Rotational constants in cm-1:             0.031909             0.006835             0.005873
Rotational constants in MHz :           956.601420           204.911475           176.074036

                             ****ORCA TERMINATED NORMALLY****
TOTAL RUN TIME: 0 days 0 hours 1 minutes 17 seconds 106 msec
