                         Program Version 6.0.0  -   RELEASE  -
|  1> ! r2scan-3c def2/J RI DEFGRID2 scfconv6 printgap
|  2> %output
|  3>     printlevel normal
|  4> end
|  5> %cpcm
|  6>     smd true
|  7>     smdsolvent "water"
|  8> end
|  9> * xyz 0 1
| 10> C 0.533491208 1.6562454879 0.6137163715
| 11> C 1.8778197999 1.9326994491 0.6776246292
| 12> C 2.8389896745 0.966952802 0.3595076689
| 13> C 2.3982292997 -0.3130115345 -0.0266870373
| 14> C 1.0257184963 -0.576168927 -0.0774284182
| 15> C 0.0834908085 0.387071935 0.2327075635
| 16> C -1.3513777853 0.0681895756 0.1702844719
| 17> C -1.8355561827 -1.142761669 0.6656433707
| 18> C -3.1794833913 -1.4622184423 0.6183784905
| 19> C -4.056542768 -0.5523547684 0.0592796509
| 20> C -3.6330036228 0.658300584 -0.4535313983
| 21> C -2.2829999769 0.9429853985 -0.3842257078
| 22> F -1.8700849113 2.1241543233 -0.9125594485
| 23> F -5.3803916054 -0.8517184721 0.0063304694
| 24> C 3.2867359068 -1.4261905353 -0.3935161869
| 25> O 2.8908732769 -2.5305325437 -0.7181171165
| 26> O 4.5941711508 -1.1516364869 -0.3489335456
| 27> O 4.1199966011 1.3419657633 0.4513338307
| 28> H -0.1779134509 2.4239080523 0.8738788769
| 29> H 2.2313484411 2.9064003697 0.9759121643
| 30> H 0.724142529 -1.5636605768 -0.3930687494
| 31> H -1.1395468709 -1.8362843603 1.108456931
| 32> H -3.5490534558 -2.3962619866 1.0070902998
| 33> H -4.3241454146 1.3557942857 -0.8960053447
| 34> H 5.1366482962 -1.9236057502 -0.6016098663
| 35> H 4.7247342274 0.6152096 0.2115641621
| 36> *
| 37>
| 38>                          ****END OF INPUT****

CARTESIAN COORDINATES (ANGSTROEM)
---------------------------------
  C      0.533491    1.656245    0.613716
  C      1.877820    1.932699    0.677625
  C      2.838990    0.966953    0.359508
  C      2.398229   -0.313012   -0.026687
  C      1.025718   -0.576169   -0.077428
  C      0.083491    0.387072    0.232708
  C     -1.351378    0.068190    0.170284
  C     -1.835556   -1.142762    0.665643
  C     -3.179483   -1.462218    0.618378
  C     -4.056543   -0.552355    0.059280
  C     -3.633004    0.658301   -0.453531
  C     -2.283000    0.942985   -0.384226
  F     -1.870085    2.124154   -0.912559
  F     -5.380392   -0.851718    0.006330
  C      3.286736   -1.426191   -0.393516
  O      2.890873   -2.530533   -0.718117
  O      4.594171   -1.151636   -0.348934
  O      4.119997    1.341966    0.451334
  H     -0.177913    2.423908    0.873879
  H      2.231348    2.906400    0.975912
  H      0.724143   -1.563661   -0.393069
  H     -1.139547   -1.836284    1.108457
  H     -3.549053   -2.396262    1.007090
  H     -4.324145    1.355794   -0.896005
  H      5.136648   -1.923606   -0.601610
  H      4.724734    0.615210    0.211564

 Total Charge           Charge          ....    0
 Multiplicity           Mult            ....    1
 Number of Electrons    NEL             ....  128
 Basis Dimension        Dim             ....  407

ORBITAL ENERGIES
----------------

  NO   OCC          E(Eh)            E(eV)
   0   2.0000     -24.508532      -666.9110
   1   2.0000     -24.506387      -666.8527
   2   2.0000     -19.012055      -517.3443
   3   2.0000     -18.992127      -516.8020
   4   2.0000     -18.947555      -515.5892
   5   2.0000     -10.178615      -276.9742
   6   2.0000     -10.133498      -275.7465
   7   2.0000     -10.130795      -275.6729
   8   2.0000     -10.119322      -275.3608
   9   2.0000     -10.061298      -273.7818
  10   2.0000     -10.060106      -273.7494
  11   2.0000     -10.055147      -273.6145
  12   2.0000     -10.051882      -273.5256
  13   2.0000     -10.051067      -273.5034
  14   2.0000     -10.050643      -273.4919
  15   2.0000     -10.050569      -273.4899
  16   2.0000     -10.044830      -273.3337
  17   2.0000     -10.040632      -273.2195
  18   2.0000      -1.194729       -32.5102
  19   2.0000      -1.191934       -32.4342
  20   2.0000      -1.086501       -29.5652
  21   2.0000      -1.042312       -28.3628
  22   2.0000      -0.990856       -26.9626
  23   2.0000      -0.856748       -23.3133
  24   2.0000      -0.835684       -22.7401
  25   2.0000      -0.764975       -20.8160
  26   2.0000      -0.746770       -20.3207
  27   2.0000      -0.734530       -19.9876
  28   2.0000      -0.703806       -19.1515
  29   2.0000      -0.650546       -17.7022
  30   2.0000      -0.615792       -16.7566
  31   2.0000      -0.606909       -16.5148
  32   2.0000      -0.578758       -15.7488
  33   2.0000      -0.575563       -15.6619
  34   2.0000      -0.539604       -14.6834
  35   2.0000      -0.535379       -14.5684
  36   2.0000      -0.497675       -13.5424
  37   2.0000      -0.489420       -13.3178
  38   2.0000      -0.477306       -12.9882
  39   2.0000      -0.468900       -12.7594
  40   2.0000      -0.455578       -12.3969
  41   2.0000      -0.448534       -12.2052
  42   2.0000      -0.437745       -11.9116
  43   2.0000      -0.436506       -11.8779
  44   2.0000      -0.428723       -11.6661
  45   2.0000      -0.417878       -11.3710
  46   2.0000      -0.411255       -11.1908
  47   2.0000      -0.404009       -10.9936
  48   2.0000      -0.397151       -10.8070
  49   2.0000      -0.392187       -10.6720
  50   2.0000      -0.383865       -10.4455
  51   2.0000      -0.368544       -10.0286
  52   2.0000      -0.356722        -9.7069
  53   2.0000      -0.343425        -9.3451
  54   2.0000      -0.338827        -9.2200
  55   2.0000      -0.330691        -8.9986
  56   2.0000      -0.324840        -8.8394
  57   2.0000      -0.314151        -8.5485
  58   2.0000      -0.306378        -8.3370
  59   2.0000      -0.263587        -7.1726
  60   2.0000      -0.255309        -6.9473
  61   2.0000      -0.252160        -6.8616
  62   2.0000      -0.244015        -6.6400
  63   2.0000      -0.207841        -5.6556
  64   0.0000      -0.082707        -2.2506
  65   0.0000      -0.056115        -1.5270
  66   0.0000      -0.042894        -1.1672
  67   0.0000      -0.014623        -0.3979
  68   0.0000       0.022111         0.6017

MULLIKEN ATOMIC CHARGES
-----------------------
   0 C :   -0.162347
   1 C :   -0.363418
   2 C :    0.345635
   3 C :   -0.018563
   4 C :   -0.266398
   5 C :    0.202497
   6 C :   -0.099805
   7 C :   -0.140131
   8 C :   -0.327031
   9 C :    0.400958
  10 C :   -0.397008
  11 C :    0.351051
  12 F :   -0.242145
  13 F :   -0.244989
  14 C :    0.268876
  15 O :   -0.485962
  16 O :   -0.365279
  17 O :   -0.414988
  18 H :    0.190577
  19 H :    0.188712
  20 H :    0.206690
  21 H :    0.194166
  22 H :    0.199113
  23 H :    0.214366
  24 H :    0.386008
  25 H :    0.379415
Sum of atomic charges:    0.0000000

LOEWDIN ATOMIC CHARGES
----------------------
   0 C :   -0.103448
   1 C :   -0.134463
   2 C :    0.222413
   3 C :   -0.048660
   4 C :   -0.078099
   5 C :   -0.086946
   6 C :   -0.075246
   7 C :   -0.118463
   8 C :   -0.161411
   9 C :    0.216379
  10 C :   -0.139189
  11 C :    0.236127
  12 F :   -0.289347
  13 F :   -0.294740
  14 C :    0.386138
  15 O :   -0.491107
  16 O :   -0.393632
  17 O :   -0.474573
  18 H :    0.191359
  19 H :    0.194215
  20 H :    0.204269
  21 H :    0.192898
  22 H :    0.196056
  23 H :    0.208748
  24 H :    0.327119
  25 H :    0.313600

  Mayer bond orders larger than 0.100000
B(  0-C ,  1-C ) :   1.4310 B(  0-C ,  5-C ) :   1.3196 B(  0-C , 18-H ) :   0.9312
B(  1-C ,  2-C ) :   1.2728 B(  1-C , 17-O ) :   0.1001 B(  1-C , 19-H ) :   0.9670
B(  2-C ,  3-C ) :   1.2888 B(  2-C , 17-O ) :   1.0606 B(  3-C ,  4-C ) :   1.3455
B(  3-C , 14-C ) :   1.0840 B(  4-C ,  5-C ) :   1.3378 B(  4-C , 20-H ) :   0.9359
B(  5-C ,  6-C ) :   0.7515 B(  6-C ,  7-C ) :   1.3673 B(  6-C , 11-C ) :   1.4190
B(  7-C ,  8-C ) :   1.3937 B(  7-C , 21-H ) :   0.9366 B(  8-C ,  9-C ) :   1.3861
B(  8-C , 22-H ) :   0.9329 B(  9-C , 10-C ) :   1.3842 B(  9-C , 13-F ) :   0.8623
B( 10-C , 11-C ) :   1.3554 B( 10-C , 23-H ) :   0.9120 B( 11-C , 12-F ) :   0.8900
B( 14-C , 15-O ) :   1.8947 B( 14-C , 16-O ) :   1.0895 B( 16-O , 24-H ) :   0.8318
B( 17-O , 25-H ) :   0.7942

Dispersion correction           -0.011413728
FINAL SINGLE POINT ENERGY      -925.463985163923

DIPOLE MOMENT
-------------

Method             : SCF
Type of density    : Electron Density
Multiplicity       :   1
Irrep              :   0
Energy             :  -925.4634207052068859 Eh
Relativity type    :
Basis              : AO
                                X                 Y                 Z
Electronic contribution:     -9.043855584       1.642396760      -2.520618435
Nuclear contribution   :     10.291501946      -1.606200705       2.975402928
                        -----------------------------------------
Total Dipole Moment    :      1.247646362       0.036196055       0.454784493
                        -----------------------------------------
Magnitude (a.u.)       :      1.328442898
Magnitude (Debye)      :      3.376633501

Rotational constants in cm-1:             0.031909             0.006835             0.005873
Rotational constants in MHz :           956.601420           204.911475           176.074036

                             ****ORCA TERMINATED NORMALLY****
TOTAL RUN TIME: 0 days 0 hours 1 minutes 48 seconds 965 msec
