                         Program Version 6.0.0  -   RELEASE  -
|  1> ! r2scan-3c def2/J RI DEFGRID2 scfconv6 printgap
|  2> %output
|  3>     printlevel normal
|  4> end
|  5> * xyz 0 1
|  6> C 2.5808023362 -1.5028393202 -0.085369539
|  7> O 1.1779456827 -1.3693326372 0.0446699104
|  8> C 0.6408442309 -0.1167402498 0.0392210046
|  9> C 1.3554463808 1.0593316693 -0.1523587219
| 10> C 0.7029830931 2.2816927774 -0.1576241382
| 11> C -0.6636276628 2.3511980208 0.0307673275
| 12> C -1.3863903945 1.1862030988 0.2296792929
| 13> C -0.7487448793 -0.0418845407 0.2399010247
| 14> O -1.452510385 -1.2113446516 0.4907561039
| 15> C -2.2439206356 -1.6669239539 -0.5950442523
| 16> H 2.9251826245 -1.1266313807 -1.0522191581
| 17> H 2.771278163 -2.571514403 -0.019367443
| 18> H 3.1024341127 -0.985183992 0.7232514266
| 19> H 2.4219306278 1.0302459218 -0.304592335
| 20> H 1.275737751 3.1828893952 -0.3111212902
| 21> H -1.1693272778 3.303442312 0.0282243192
| 22> H -2.4531493212 1.2189956169 0.3913816114
| 23> H -2.9624350746 -0.9048590533 -0.9099425976
| 24> H -2.7705848176 -2.5443287708 -0.2278133753
| 25> H -1.6116000216 -1.9426847947 -1.4446985126
| 26> *
| 27>
| 28>                          ****END OF INPUT****

CARTESIAN COORDINATES (ANGSTROEM)
---------------------------------
  C      2.580802   -1.502839   -0.085370
  O      1.177946   -1.369333    0.044670
  C      0.640844   -0.116740    0.039221
  C      1.355446    1.059332   -0.152359
  C      0.702983    2.281693   -0.157624
  C     -0.663628    2.351198    0.030767
  C     -1.386390    1.186203    0.229679
  C     -0.748745   -0.041885    0.239901
  O     -1.452510   -1.211345    0.490756
  C     -2.243921   -1.666924   -0.595044
  H      2.925183   -1.126631   -1.052219
  H      2.771278   -2.571514   -0.019367
  H      3.102434   -0.985184    0.723251
  H      2.421931    1.030246   -0.304592
  H      1.275738    3.182889   -0.311121
  H     -1.169327    3.303442    0.028224
  H     -2.453149    1.218996    0.391382
  H     -2.962435   -0.904859   -0.909943
  H     -2.770585   -2.544329   -0.227813
  H     -1.611600   -1.942685   -1.444699

 Total Charge           Charge          ....    0
 Multiplicity           Mult            ....    1
 Number of Electrons    NEL             ....   74
 Basis Dimension        Dim             ....  250

ORBITAL ENERGIES
----------------

  NO   OCC          E(Eh)            E(eV)
   0   2.0000     -18.984968      -516.6073
   1   2.0000     -18.962329      -515.9912
   2   2.0000     -10.094164      -274.6762
   3   2.0000     -10.086824      -274.4764
   4   2.0000     -10.083941      -274.3980
   5   2.0000     -10.073877      -274.1241
   6   2.0000     -10.034102      -273.0418
   7   2.0000     -10.032639      -273.0020
   8   2.0000     -10.032452      -272.9969
   9   2.0000     -10.028287      -272.8836
  10   2.0000      -1.035512       -28.1777
  11   2.0000      -1.005361       -27.3573
  12   2.0000      -0.820299       -22.3215
  13   2.0000      -0.727046       -19.7839
  14   2.0000      -0.717837       -19.5333
  15   2.0000      -0.670146       -18.2356
  16   2.0000      -0.647673       -17.6241
  17   2.0000      -0.572605       -15.5814
  18   2.0000      -0.560460       -15.2509
  19   2.0000      -0.507247       -13.8029
  20   2.0000      -0.472311       -12.8522
  21   2.0000      -0.459665       -12.5081
  22   2.0000      -0.440958       -11.9991
  23   2.0000      -0.428839       -11.6693
  24   2.0000      -0.418768       -11.3953
  25   2.0000      -0.414308       -11.2739
  26   2.0000      -0.401220       -10.9177
  27   2.0000      -0.385039       -10.4774
  28   2.0000      -0.353429        -9.6173
  29   2.0000      -0.347722        -9.4620
  30   2.0000      -0.331815        -9.0291
  31   2.0000      -0.313642        -8.5346
  32   2.0000      -0.295969        -8.0537
  33   2.0000      -0.292836        -7.9685
  34   2.0000      -0.241471        -6.5707
  35   2.0000      -0.224170        -6.1000
  36   2.0000      -0.197489        -5.3740
  37   0.0000      -0.028375        -0.7721
  38   0.0000      -0.015229        -0.4144
  39   0.0000       0.049725         1.3531
  40   0.0000       0.085745         2.3333
  41   0.0000       0.092847         2.5265

MULLIKEN ATOMIC CHARGES
-----------------------
   0 C :   -0.318567
   1 O :   -0.175915
   2 C :    0.209677
   3 C :   -0.261499
   4 C :   -0.165341
   5 C :   -0.153585
   6 C :   -0.204905
   7 C :    0.071320
   8 O :   -0.218607
   9 C :   -0.267762
  10 H :    0.150502
  11 H :    0.155642
  12 H :    0.153582
  13 H :    0.148340
  14 H :    0.145492
  15 H :    0.147189
  16 H :    0.157238
  17 H :    0.135522
  18 H :    0.147496
  19 H :    0.144183
Sum of atomic charges:    0.0000000

LOEWDIN ATOMIC CHARGES
----------------------
   0 C :   -0.050593
   1 O :   -0.665024
   2 C :    0.209614
   3 C :   -0.169734
   4 C :   -0.164355
   5 C :   -0.182091
   6 C :   -0.130621
   7 C :    0.190757
   8 O :   -0.685437
   9 C :   -0.047170
  10 H :    0.163404
  11 H :    0.180925
  12 H :    0.165777
  13 H :    0.175254
  14 H :    0.167202
  15 H :    0.167065
  16 H :    0.178445
  17 H :    0.158957
  18 H :    0.175116
  19 H :    0.162508

  Mayer bond orders larger than 0.100000
B(  0-C ,  1-O ) :   0.8533 B(  0-C , 10-H ) :   0.9636 B(  0-C , 11-H ) :   0.9681
B(  0-C , 12-H ) :   0.9621 B(  1-O ,  2-C ) :   1.0960 B(  2-C ,  3-C ) :   1.2857
B(  2-C ,  7-C ) :   1.5031 B(  3-C ,  4-C ) :   1.3814 B(  3-C , 13-H ) :   0.9291
B(  4-C ,  5-C ) :   1.4497 B(  4-C , 14-H ) :   0.9491 B(  5-C ,  6-C ) :   1.3524
B(  5-C , 15-H ) :   0.9459 B(  6-C ,  7-C ) :   1.3790 B(  6-C , 16-H ) :   0.9379
B(  7-C ,  8-O ) :   1.0104 B(  8-O ,  9-C ) :   0.8638 B(  9-C , 17-H ) :   0.9653
B(  9-C , 18-H ) :   0.9734 B(  9-C , 19-H ) :   0.9657

Dispersion correction           -0.006529961
FINAL SINGLE POINT ENERGY      -461.174327190800

DIPOLE MOMENT
-------------

Method             : SCF
Type of density    : Electron Density
Multiplicity       :   1
Irrep              :   0
Energy             :  -461.1789895875919001 Eh
Relativity type    :
Basis              : AO
                                X                 Y                 Z
Electronic contribution:     -1.025837738       1.332663612       2.417493242
Nuclear contribution   :      1.430831131      -1.295036068      -2.925626892
                        -----------------------------------------
Total Dipole Moment    :      0.404993393       0.037627543      -0.508133650
                        -----------------------------------------
Magnitude (a.u.)       :      0.650872712
Magnitude (Debye)      :      1.654386956

Rotational constants in cm-1:             0.050858             0.049472             0.026250
Rotational constants in MHz :          1524.685356          1483.125184           786.947971

                             ****ORCA TERMINATED NORMALLY****
TOTAL RUN TIME: 0 days 0 hours 0 minutes 34 seconds 935 msec
