                         Program Version 6.0.0  -   RELEASE  -
|  1> ! r2scan-3c def2/J RI DEFGRID2 scfconv6 printgap
|  2> %output
|  3>     printlevel normal
|  4> end
|  5> %cpcm
|  6>     smd true
|  7>     smdsolvent "water"
|  8> end
|  9> * xyz 0 1
| 10> C 2.5808023362 -1.5028393202 -0.085369539
| 11> O 1.1779456827 -1.3693326372 0.0446699104
| 12> C 0.6408442309 -0.1167402498 0.0392210046
| 13> C 1.3554463808 1.0593316693 -0.1523587219
| 14> C 0.7029830931 2.2816927774 -0.1576241382
| 15> C -0.6636276628 2.3511980208 0.0307673275
| 16> C -1.3863903945 1.1862030988 0.2296792929
| 17> C -0.7487448793 -0.0418845407 0.2399010247
| 18> O -1.452510385 -1.2113446516 0.4907561039
| 19> C -2.2439206356 -1.6669239539 -0.5950442523
| 20> H 2.9251826245 -1.1266313807 -1.0522191581
| 21> H 2.771278163 -2.571514403 -0.019367443
| 22> H 3.1024341127 -0.985183992 0.7232514266
| 23> H 2.4219306278 1.0302459218 -0.304592335
| 24> H 1.275737751 3.1828893952 -0.3111212902
| 25> H -1.1693272778 3.303442312 0.0282243192
| 26> H -2.4531493212 1.2189956169 0.3913816114
| 27> H -2.9624350746 -0.9048590533 -0.9099425976
| 28> H -2.7705848176 -2.5443287708 -0.2278133753
| 29> H -1.6116000216 -1.9426847947 -1.4446985126
| 30> *
| 31>
| 32>                          ****END OF INPUT****

CARTESIAN COORDINATES (ANGSTROEM)
---------------------------------
  C      2.580802   -1.502839   -0.085370
  O      1.177946   -1.369333    0.044670
  C      0.640844   -0.116740    0.039221
  C      1.355446    1.059332   -0.152359
  C      0.702983    2.281693   -0.157624
  C     -0.663628    2.351198    0.030767
  C     -1.386390    1.186203    0.229679
  C     -0.748745   -0.041885    0.239901
  O     -1.452510   -1.211345    0.490756
  C     -2.243921   -1.666924   -0.595044
  H      2.925183   -1.126631   -1.052219
  H      2.771278   -2.571514   -0.019367
  H      3.102434   -0.985184    0.723251
  H      2.421931    1.030246   -0.304592
  H      1.275738    3.182889   -0.311121
  H     -1.169327    3.303442    0.028224
  H     -2.453149    1.218996    0.391382
  H     -2.962435   -0.904859   -0.909943
  H     -2.770585   -2.544329   -0.227813
  H     -1.611600   -1.942685   -1.444699

 Total Charge           Charge          ....    0
 Multiplicity           Mult            ....    1
 Number of Electrons    NEL             ....   74
 Basis Dimension        Dim             ....  250

ORBITAL ENERGIES
----------------

  NO   OCC          E(Eh)            E(eV)
   0   2.0000     -18.990489      -516.7575
   1   2.0000     -18.974838      -516.3316
   2   2.0000     -10.099277      -274.8153
   3   2.0000     -10.090605      -274.5793
   4   2.0000     -10.073754      -274.1208
   5   2.0000     -10.070396      -274.0294
   6   2.0000     -10.035391      -273.0769
   7   2.0000     -10.034709      -273.0583
   8   2.0000     -10.033791      -273.0333
   9   2.0000     -10.030001      -272.9302
  10   2.0000      -1.041197       -28.3324
  11   2.0000      -1.015651       -27.6373
  12   2.0000      -0.824782       -22.4435
  13   2.0000      -0.728985       -19.8367
  14   2.0000      -0.720736       -19.6122
  15   2.0000      -0.666801       -18.1446
  16   2.0000      -0.648378       -17.6433
  17   2.0000      -0.572749       -15.5853
  18   2.0000      -0.561622       -15.2825
  19   2.0000      -0.507001       -13.7962
  20   2.0000      -0.473830       -12.8936
  21   2.0000      -0.462872       -12.5954
  22   2.0000      -0.440576       -11.9887
  23   2.0000      -0.429023       -11.6743
  24   2.0000      -0.420274       -11.4362
  25   2.0000      -0.411012       -11.1842
  26   2.0000      -0.400348       -10.8940
  27   2.0000      -0.382484       -10.4079
  28   2.0000      -0.352979        -9.6050
  29   2.0000      -0.347610        -9.4590
  30   2.0000      -0.331147        -9.0110
  31   2.0000      -0.318809        -8.6752
  32   2.0000      -0.299269        -8.1435
  33   2.0000      -0.296006        -8.0547
  34   2.0000      -0.250822        -6.8252
  35   2.0000      -0.231181        -6.2908
  36   2.0000      -0.204306        -5.5595
  37   0.0000      -0.033367        -0.9080
  38   0.0000      -0.020766        -0.5651
  39   0.0000       0.047237         1.2854
  40   0.0000       0.094490         2.5712
  41   0.0000       0.096408         2.6234

MULLIKEN ATOMIC CHARGES
-----------------------
   0 C :   -0.325782
   1 O :   -0.225023
   2 C :    0.197613
   3 C :   -0.263725
   4 C :   -0.201956
   5 C :   -0.196235
   6 C :   -0.220220
   7 C :    0.053062
   8 O :   -0.277860
   9 C :   -0.286009
  10 H :    0.172135
  11 H :    0.174044
  12 H :    0.172331
  13 H :    0.187222
  14 H :    0.179657
  15 H :    0.180649
  16 H :    0.190826
  17 H :    0.161425
  18 H :    0.167960
  19 H :    0.159885
Sum of atomic charges:    0.0000000

LOEWDIN ATOMIC CHARGES
----------------------
   0 C :   -0.045138
   1 O :   -0.695759
   2 C :    0.200616
   3 C :   -0.167425
   4 C :   -0.171150
   5 C :   -0.191830
   6 C :   -0.135507
   7 C :    0.175986
   8 O :   -0.724326
   9 C :   -0.046113
  10 H :    0.174633
  11 H :    0.188009
  12 H :    0.175593
  13 H :    0.190841
  14 H :    0.179100
  15 H :    0.178324
  16 H :    0.190883
  17 H :    0.170731
  18 H :    0.183180
  19 H :    0.169352

  Mayer bond orders larger than 0.100000
B(  0-C ,  1-O ) :   0.8448 B(  0-C , 10-H ) :   0.9554 B(  0-C , 11-H ) :   0.9601
B(  0-C , 12-H ) :   0.9535 B(  1-O ,  2-C ) :   1.0696 B(  2-C ,  3-C ) :   1.2767
B(  2-C ,  7-C ) :   1.4682 B(  3-C ,  4-C ) :   1.3459 B(  3-C , 13-H ) :   0.9358
B(  4-C ,  5-C ) :   1.4001 B(  4-C , 14-H ) :   0.9617 B(  5-C ,  6-C ) :   1.3250
B(  5-C , 15-H ) :   0.9562 B(  6-C ,  7-C ) :   1.3548 B(  6-C , 16-H ) :   0.9477
B(  7-C ,  8-O ) :   0.9750 B(  8-O ,  9-C ) :   0.8525 B(  9-C , 17-H ) :   0.9576
B(  9-C , 18-H ) :   0.9647 B(  9-C , 19-H ) :   0.9587

Dispersion correction           -0.006529961
FINAL SINGLE POINT ENERGY      -461.180792407429

DIPOLE MOMENT
-------------

Method             : SCF
Type of density    : Electron Density
Multiplicity       :   1
Irrep              :   0
Energy             :  -461.1854548042203987 Eh
Relativity type    :
Basis              : AO
                                X                 Y                 Z
Electronic contribution:     -0.847723943       1.546163436       2.162813997
Nuclear contribution   :      1.430831131      -1.295036068      -2.925626892
                        -----------------------------------------
Total Dipole Moment    :      0.583107189       0.251127368      -0.762812895
                        -----------------------------------------
Magnitude (a.u.)       :      0.992452750
Magnitude (Debye)      :      2.522614415

Rotational constants in cm-1:             0.050858             0.049472             0.026250
Rotational constants in MHz :          1524.685356          1483.125184           786.947971

                             ****ORCA TERMINATED NORMALLY****
TOTAL RUN TIME: 0 days 0 hours 0 minutes 42 seconds 354 msec
