                         Program Version 6.0.0  -   RELEASE  -
|  1> ! pbe def2-sv(p) def2/J RI DEFGRID1 loosescf d4 GCP(DFT/SV(P)) printgap
|  2> %output
|  3>     printlevel normal
|  4> end
|  5> * xyz 0 1
|  6> C -3.0365974486 0.6928682701 0.1602102471
|  7> C -1.8083812147 -0.1886693479 0.3685915672
|  8> C -1.8681028313 -1.4294568452 -0.5187792171
|  9> C -0.5436014523 0.6170268977 0.0763599293
| 10> O 0.6009840707 -0.1508283381 0.4707259376
| 11> C 1.7769758469 0.153235592 -0.0622908973
| 12> O 1.9342447583 1.055970033 -0.8600552082
| 13> C 2.8619204526 -0.7567888785 0.4300687999
| 14> H -3.9398736257 0.1274204319 0.3699362091
| 15> H -3.079132859 1.0436935983 -0.8681259185
| 16> H -3.0084206269 1.5570685322 0.8186240785
| 17> H -1.7620171306 -0.5048670043 1.4151230518
| 18> H -2.7451138311 -2.0233416601 -0.2771532346
| 19> H -0.9826357089 -2.0423284416 -0.3707628082
| 20> H -1.9214443317 -1.1425340124 -1.566845192
| 21> H -0.4571627418 0.8572949935 -0.98883016
| 22> H -0.5349380379 1.5547402927 0.6418308812
| 23> H 2.5180040041 -1.3063272683 1.2993757558
| 24> H 3.7467921383 -0.1711694577 0.6612368342
| 25> H 3.117520581 -1.4522620353 -0.3663632427
| 26> *
| 27>
| 28>                          ****END OF INPUT****

CARTESIAN COORDINATES (ANGSTROEM)
---------------------------------
  C     -3.036597    0.692868    0.160210
  C     -1.808381   -0.188669    0.368592
  C     -1.868103   -1.429457   -0.518779
  C     -0.543601    0.617027    0.076360
  O      0.600984   -0.150828    0.470726
  C      1.776976    0.153236   -0.062291
  O      1.934245    1.055970   -0.860055
  C      2.861920   -0.756789    0.430069
  H     -3.939874    0.127420    0.369936
  H     -3.079133    1.043694   -0.868126
  H     -3.008421    1.557069    0.818624
  H     -1.762017   -0.504867    1.415123
  H     -2.745114   -2.023342   -0.277153
  H     -0.982636   -2.042328   -0.370763
  H     -1.921444   -1.142534   -1.566845
  H     -0.457163    0.857295   -0.988830
  H     -0.534938    1.554740    0.641831
  H      2.518004   -1.306327    1.299376
  H      3.746792   -0.171169    0.661237
  H      3.117521   -1.452262   -0.366363

 Total Charge           Charge          ....    0
 Multiplicity           Mult            ....    1
 Number of Electrons    NEL             ....   64
 Basis Dimension        Dim             ....  136

ORBITAL ENERGIES
----------------

  NO   OCC          E(Eh)            E(eV)
   0   2.0000     -18.798596      -511.5358
   1   2.0000     -18.728427      -509.6264
   2   2.0000     -10.007051      -272.3057
   3   2.0000      -9.941592      -270.5245
   4   2.0000      -9.904111      -269.5045
   5   2.0000      -9.893410      -269.2134
   6   2.0000      -9.884005      -268.9574
   7   2.0000      -9.878774      -268.8151
   8   2.0000      -1.004913       -27.3451
   9   2.0000      -0.906536       -24.6681
  10   2.0000      -0.740352       -20.1460
  11   2.0000      -0.684723       -18.6323
  12   2.0000      -0.624074       -16.9819
  13   2.0000      -0.619200       -16.8493
  14   2.0000      -0.521278       -14.1847
  15   2.0000      -0.506587       -13.7849
  16   2.0000      -0.446998       -12.1634
  17   2.0000      -0.433264       -11.7897
  18   2.0000      -0.416395       -11.3307
  19   2.0000      -0.409117       -11.1326
  20   2.0000      -0.388002       -10.5581
  21   2.0000      -0.379778       -10.3343
  22   2.0000      -0.360996        -9.8232
  23   2.0000      -0.353442        -9.6177
  24   2.0000      -0.344939        -9.3863
  25   2.0000      -0.326839        -8.8937
  26   2.0000      -0.313085        -8.5195
  27   2.0000      -0.304722        -8.2919
  28   2.0000      -0.297151        -8.0859
  29   2.0000      -0.287004        -7.8098
  30   2.0000      -0.254483        -6.9248
  31   2.0000      -0.215548        -5.8654
  32   0.0000      -0.018574        -0.5054
  33   0.0000       0.032115         0.8739
  34   0.0000       0.050536         1.3751
  35   0.0000       0.067965         1.8494
  36   0.0000       0.078024         2.1231

MULLIKEN ATOMIC CHARGES
-----------------------
   0 C :   -0.252856
   1 C :   -0.183463
   2 C :   -0.252069
   3 C :    0.028256
   4 O :   -0.237091
   5 C :    0.083629
   6 O :   -0.216440
   7 C :   -0.249240
   8 H :    0.107207
   9 H :    0.099821
  10 H :    0.104398
  11 H :    0.083033
  12 H :    0.102947
  13 H :    0.108119
  14 H :    0.094652
  15 H :    0.098209
  16 H :    0.097775
  17 H :    0.116892
  18 H :    0.130837
  19 H :    0.135383
Sum of atomic charges:    0.0000000

LOEWDIN ATOMIC CHARGES
----------------------
   0 C :   -0.327204
   1 C :   -0.169743
   2 C :   -0.331796
   3 C :   -0.096746
   4 O :   -0.066319
   5 C :    0.028179
   6 O :   -0.175042
   7 C :   -0.360046
   8 H :    0.122766
   9 H :    0.119713
  10 H :    0.119464
  11 H :    0.120234
  12 H :    0.119783
  13 H :    0.119740
  14 H :    0.117846
  15 H :    0.116677
  16 H :    0.114122
  17 H :    0.133969
  18 H :    0.144866
  19 H :    0.149537

  Mayer bond orders larger than 0.100000
B(  0-C ,  1-C ) :   1.1013 B(  0-C ,  8-H ) :   0.9513 B(  0-C ,  9-H ) :   0.9491
B(  0-C , 10-H ) :   0.9497 B(  1-C ,  2-C ) :   1.1053 B(  1-C ,  3-C ) :   1.0633
B(  1-C , 11-H ) :   0.8979 B(  2-C , 12-H ) :   0.9526 B(  2-C , 13-H ) :   0.9481
B(  2-C , 14-H ) :   0.9498 B(  3-C ,  4-O ) :   0.9239 B(  3-C , 15-H ) :   0.9111
B(  3-C , 16-H ) :   0.9325 B(  4-O ,  5-C ) :   1.1976 B(  5-C ,  6-O ) :   2.0505
B(  5-C ,  7-C ) :   1.0861 B(  7-C , 17-H ) :   0.9382 B(  7-C , 18-H ) :   0.9355
B(  7-C , 19-H ) :   0.9254

Dispersion correction           -0.015066888
FINAL SINGLE POINT ENERGY      -385.458322268201

DIPOLE MOMENT
-------------

Method             : SCF
Type of density    : Electron Density
Multiplicity       :   1
Irrep              :   0
Energy             :  -385.5331567359551741 Eh
Relativity type    :
Basis              : AO
                                X                 Y                 Z
Electronic contribution:      8.017667247       2.773660381      -0.259266609
Nuclear contribution   :     -8.451335561      -3.272612374       0.714782380
                        -----------------------------------------
Total Dipole Moment    :     -0.433668314      -0.498951993       0.455515770
                        -----------------------------------------
Magnitude (a.u.)       :      0.802817485
Magnitude (Debye)      :      2.040599878

Rotational constants in cm-1:             0.148141             0.033069             0.030073
Rotational constants in MHz :          4441.155864           991.391301           901.561340

                             ****ORCA TERMINATED NORMALLY****
TOTAL RUN TIME: 0 days 0 hours 0 minutes 12 seconds 115 msec
