                         Program Version 6.0.0  -   RELEASE  -
|  1> ! pbe def2-sv(p) def2/J RI DEFGRID1 loosescf d4 GCP(DFT/SV(P)) printgap
|  2> %output
|  3>     printlevel normal
|  4> end
|  5> * xyz 0 1
|  6> C -2.7626277519 0.3037368034 -0.0055939417
|  7> C -1.3461692328 0.0381937559 0.4871272508
|  8> C -0.3357159902 0.1103212435 -0.6683235326
|  9> C 1.0432754045 -0.1664468717 -0.1404413403
| 10> O 1.6025701388 -1.2423508706 -0.18926663
| 11> O 1.5916884061 0.8944371506 0.4294792238
| 12> H -2.8314279791 1.2923273461 -0.4519979687
| 13> H -3.4631531372 0.2489474811 0.8232013826
| 14> H -3.0517131491 -0.4328694972 -0.7508777411
| 15> H -1.0735763527 0.776655899 1.2431659142
| 16> H -1.2930311805 -0.9520493043 0.9445933245
| 17> H -0.5809732122 -0.6356094713 -1.4236045324
| 18> H -0.3543095459 1.108685859 -1.1042808195
| 19> H 2.4741046952 0.7107870464 0.8061481104
| 20> *
| 21>
| 22>                          ****END OF INPUT****

CARTESIAN COORDINATES (ANGSTROEM)
---------------------------------
  C     -2.762628    0.303737   -0.005594
  C     -1.346169    0.038194    0.487127
  C     -0.335716    0.110321   -0.668324
  C      1.043275   -0.166447   -0.140441
  O      1.602570   -1.242351   -0.189267
  O      1.591688    0.894437    0.429479
  H     -2.831428    1.292327   -0.451998
  H     -3.463153    0.248947    0.823201
  H     -3.051713   -0.432869   -0.750878
  H     -1.073576    0.776656    1.243166
  H     -1.293031   -0.952049    0.944593
  H     -0.580973   -0.635609   -1.423605
  H     -0.354310    1.108686   -1.104281
  H      2.474105    0.710787    0.806148

 Total Charge           Charge          ....    0
 Multiplicity           Mult            ....    1
 Number of Electrons    NEL             ....   48
 Basis Dimension        Dim             ....  100

ORBITAL ENERGIES
----------------

  NO   OCC          E(Eh)            E(eV)
   0   2.0000     -18.799477      -511.5598
   1   2.0000     -18.732256      -509.7306
   2   2.0000     -10.010744      -272.4062
   3   2.0000      -9.900393      -269.4034
   4   2.0000      -9.898676      -269.3567
   5   2.0000      -9.882829      -268.9254
   6   2.0000      -1.007425       -27.4134
   7   2.0000      -0.906934       -24.6789
   8   2.0000      -0.728447       -19.8221
   9   2.0000      -0.650607       -17.7039
  10   2.0000      -0.571123       -15.5411
  11   2.0000      -0.533631       -14.5208
  12   2.0000      -0.442344       -12.0368
  13   2.0000      -0.425551       -11.5798
  14   2.0000      -0.407306       -11.0834
  15   2.0000      -0.403625       -10.9832
  16   2.0000      -0.365835        -9.9549
  17   2.0000      -0.351623        -9.5681
  18   2.0000      -0.340105        -9.2547
  19   2.0000      -0.313632        -8.5344
  20   2.0000      -0.306572        -8.3423
  21   2.0000      -0.301196        -8.1960
  22   2.0000      -0.269360        -7.3297
  23   2.0000      -0.215975        -5.8770
  24   0.0000      -0.019705        -0.5362
  25   0.0000       0.022944         0.6243
  26   0.0000       0.047193         1.2842
  27   0.0000       0.076588         2.0841
  28   0.0000       0.080969         2.2033

MULLIKEN ATOMIC CHARGES
-----------------------
   0 C :   -0.245916
   1 C :   -0.239480
   2 C :   -0.140131
   3 C :    0.081228
   4 O :   -0.197601
   5 O :   -0.292591
   6 H :    0.100012
   7 H :    0.108401
   8 H :    0.102148
   9 H :    0.102308
  10 H :    0.104170
  11 H :    0.103684
  12 H :    0.099855
  13 H :    0.313912
Sum of atomic charges:   -0.0000000

LOEWDIN ATOMIC CHARGES
----------------------
   0 C :   -0.338756
   1 C :   -0.225284
   2 C :   -0.242596
   3 C :    0.023229
   4 O :   -0.176511
   5 O :   -0.207954
   6 H :    0.118680
   7 H :    0.122512
   8 H :    0.119536
   9 H :    0.120235
  10 H :    0.122414
  11 H :    0.134863
  12 H :    0.132394
  13 H :    0.297238

  Mayer bond orders larger than 0.100000
B(  0-C ,  1-C ) :   1.1574 B(  0-C ,  6-H ) :   0.9536 B(  0-C ,  7-H ) :   0.9517
B(  0-C ,  8-H ) :   0.9533 B(  1-C ,  2-C ) :   1.1215 B(  1-C ,  9-H ) :   0.9268
B(  1-C , 10-H ) :   0.9279 B(  2-C ,  3-C ) :   1.0165 B(  2-C , 11-H ) :   0.9109
B(  2-C , 12-H ) :   0.8988 B(  3-C ,  4-O ) :   2.1093 B(  3-C ,  5-O ) :   1.2620
B(  5-O , 13-H ) :   0.8212

Dispersion correction           -0.009174839
FINAL SINGLE POINT ENERGY      -307.032052856017

DIPOLE MOMENT
-------------

Method             : SCF
Type of density    : Electron Density
Multiplicity       :   1
Irrep              :   0
Energy             :  -307.0869119827275426 Eh
Relativity type    :
Basis              : AO
                                X                 Y                 Z
Electronic contribution:      9.264754875      -1.341270926       0.132796415
Nuclear contribution   :     -9.497601952       1.980827908       0.084577195
                        -----------------------------------------
Total Dipole Moment    :     -0.232847077       0.639556983       0.217373610
                        -----------------------------------------
Magnitude (a.u.)       :      0.714494354
Magnitude (Debye)      :      1.816100320

Rotational constants in cm-1:             0.272427             0.063068             0.056773
Rotational constants in MHz :          8167.159525          1890.716928          1701.999773

                             ****ORCA TERMINATED NORMALLY****
TOTAL RUN TIME: 0 days 0 hours 0 minutes 7 seconds 268 msec
