                         Program Version 6.0.0  -   RELEASE  -
|  1> ! pbe def2-sv(p) def2/J RI DEFGRID1 loosescf d4 GCP(DFT/SV(P)) printgap
|  2> %output
|  3>     printlevel normal
|  4> end
|  5> * xyz 0 1
|  6> C 1.7179819962 -1.1888721524 -0.0375345813
|  7> C 1.2311116111 0.1585204259 0.4838166839
|  8> H 1.0581951415 0.0765687775 1.570956637
|  9> C -0.0646647647 0.6327629784 -0.188804799
| 10> C -1.2891474581 -0.2500250046 0.1123751399
| 11> C -2.5104024694 0.614172622 0.4285296297
| 12> C -1.611065104 -1.1803274504 -1.0561535919
| 13> O 2.2842140264 1.0853711614 0.2562568927
| 14> H 1.0162530914 -1.9742663803 0.221713556
| 15> H 1.8393129553 -1.1439606061 -1.1165952049
| 16> H 2.6840756664 -1.4141657736 0.4068693051
| 17> H -0.2638896557 1.6488491107 0.161241855
| 18> H 0.1051589976 0.6868382699 -1.2657680775
| 19> H -1.0695833868 -0.8605429712 0.9954672585
| 20> H -2.7454079149 1.2589485215 -0.4155136439
| 21> H -2.3279501845 1.2371470269 1.3010775128
| 22> H -3.3756412865 -0.0123998632 0.6318647885
| 23> H -0.753038357 -1.791418849 -1.3196490069
| 24> H -2.4364323504 -1.8402008556 -0.7983516487
| 25> H -1.8996135508 -0.5981497496 -1.9287684771
| 26> H 2.0131569478 1.9618828886 0.5594606845
| 27> *
| 28>
| 29>                          ****END OF INPUT****

CARTESIAN COORDINATES (ANGSTROEM)
---------------------------------
  C      1.717982   -1.188872   -0.037535
  C      1.231112    0.158520    0.483817
  H      1.058195    0.076569    1.570957
  C     -0.064665    0.632763   -0.188805
  C     -1.289147   -0.250025    0.112375
  C     -2.510402    0.614173    0.428530
  C     -1.611065   -1.180327   -1.056154
  O      2.284214    1.085371    0.256257
  H      1.016253   -1.974266    0.221714
  H      1.839313   -1.143961   -1.116595
  H      2.684076   -1.414166    0.406869
  H     -0.263890    1.648849    0.161242
  H      0.105159    0.686838   -1.265768
  H     -1.069583   -0.860543    0.995467
  H     -2.745408    1.258949   -0.415514
  H     -2.327950    1.237147    1.301078
  H     -3.375641   -0.012400    0.631865
  H     -0.753038   -1.791419   -1.319649
  H     -2.436432   -1.840201   -0.798352
  H     -1.899614   -0.598150   -1.928768
  H      2.013157    1.961883    0.559461

 Total Charge           Charge          ....    0
 Multiplicity           Mult            ....    1
 Number of Electrons    NEL             ....   58
 Basis Dimension        Dim             ....  126

ORBITAL ENERGIES
----------------

  NO   OCC          E(Eh)            E(eV)
   0   2.0000     -18.734554      -509.7931
   1   2.0000      -9.934906      -270.3425
   2   2.0000      -9.897176      -269.3159
   3   2.0000      -9.879920      -268.8463
   4   2.0000      -9.873968      -268.6843
   5   2.0000      -9.872871      -268.6545
   6   2.0000      -9.869997      -268.5763
   7   2.0000      -0.912210       -24.8225
   8   2.0000      -0.733482       -19.9591
   9   2.0000      -0.674343       -18.3498
  10   2.0000      -0.614007       -16.7080
  11   2.0000      -0.608201       -16.5500
  12   2.0000      -0.525739       -14.3061
  13   2.0000      -0.501575       -13.6485
  14   2.0000      -0.459403       -12.5010
  15   2.0000      -0.418092       -11.3769
  16   2.0000      -0.402541       -10.9537
  17   2.0000      -0.390898       -10.6369
  18   2.0000      -0.359868        -9.7925
  19   2.0000      -0.350709        -9.5433
  20   2.0000      -0.341057        -9.2806
  21   2.0000      -0.335922        -9.1409
  22   2.0000      -0.317577        -8.6417
  23   2.0000      -0.313168        -8.5217
  24   2.0000      -0.300339        -8.1726
  25   2.0000      -0.284501        -7.7417
  26   2.0000      -0.282080        -7.6758
  27   2.0000      -0.260658        -7.0929
  28   2.0000      -0.208222        -5.6660
  29   0.0000       0.027395         0.7455
  30   0.0000       0.043840         1.1930
  31   0.0000       0.060168         1.6373
  32   0.0000       0.070194         1.9101
  33   0.0000       0.083401         2.2695

MULLIKEN ATOMIC CHARGES
-----------------------
   0 C :   -0.247884
   1 C :   -0.003362
   2 H :    0.059011
   3 C :   -0.107689
   4 C :   -0.190635
   5 C :   -0.252754
   6 C :   -0.253391
   7 O :   -0.427848
   8 H :    0.111073
   9 H :    0.100948
  10 H :    0.109090
  11 H :    0.059197
  12 H :    0.080367
  13 H :    0.078840
  14 H :    0.097760
  15 H :    0.099442
  16 H :    0.096490
  17 H :    0.105479
  18 H :    0.096851
  19 H :    0.096391
  20 H :    0.292623
Sum of atomic charges:   -0.0000000

LOEWDIN ATOMIC CHARGES
----------------------
   0 C :   -0.341470
   1 C :   -0.055207
   2 H :    0.092847
   3 C :   -0.230012
   4 C :   -0.157614
   5 C :   -0.328949
   6 C :   -0.330119
   7 O :   -0.336317
   8 H :    0.122194
   9 H :    0.121877
  10 H :    0.125981
  11 H :    0.108020
  12 H :    0.118987
  13 H :    0.111967
  14 H :    0.116924
  15 H :    0.115028
  16 H :    0.116114
  17 H :    0.117004
  18 H :    0.116723
  19 H :    0.116842
  20 H :    0.279178

  Mayer bond orders larger than 0.100000
B(  0-C ,  1-C ) :   1.1174 B(  0-C ,  8-H ) :   0.9364 B(  0-C ,  9-H ) :   0.9406
B(  0-C , 10-H ) :   0.9409 B(  1-C ,  2-H ) :   0.9102 B(  1-C ,  3-C ) :   1.0794
B(  1-C ,  7-O ) :   1.0518 B(  3-C ,  4-C ) :   1.0194 B(  3-C , 11-H ) :   0.9173
B(  3-C , 12-H ) :   0.9045 B(  4-C ,  5-C ) :   1.1109 B(  4-C ,  6-C ) :   1.1162
B(  4-C , 13-H ) :   0.9095 B(  5-C , 14-H ) :   0.9495 B(  5-C , 15-H ) :   0.9489
B(  5-C , 16-H ) :   0.9516 B(  6-C , 17-H ) :   0.9433 B(  6-C , 18-H ) :   0.9504
B(  6-C , 19-H ) :   0.9473 B(  7-O , 20-H ) :   0.8525

Dispersion correction           -0.016325692
FINAL SINGLE POINT ENERGY      -311.515633110885

DIPOLE MOMENT
-------------

Method             : SCF
Type of density    : Electron Density
Multiplicity       :   1
Irrep              :   0
Energy             :  -311.5950550040596454 Eh
Relativity type    :
Basis              : AO
                                X                 Y                 Z
Electronic contribution:      5.249982073       2.744084762       1.177206878
Nuclear contribution   :     -5.740876040      -2.577792924      -0.930602646
                        -----------------------------------------
Total Dipole Moment    :     -0.490893968       0.166291837       0.246604231
                        -----------------------------------------
Magnitude (a.u.)       :      0.573971698
Magnitude (Debye)      :      1.458920113

Rotational constants in cm-1:             0.142001             0.048983             0.040310
Rotational constants in MHz :          4257.097329          1468.463096          1208.473007

                             ****ORCA TERMINATED NORMALLY****
TOTAL RUN TIME: 0 days 0 hours 0 minutes 9 seconds 990 msec
