                         Program Version 6.0.0  -   RELEASE  -
|  1> ! pbe def2-sv(p) def2/J RI DEFGRID1 loosescf d4 GCP(DFT/SV(P)) printgap
|  2> %output
|  3>     printlevel normal
|  4> end
|  5> * xyz 0 1
|  6> C -3.3277088148 0.0013165278 -0.0524559817
|  7> C -1.9791219089 0.7064131889 0.0165233455
|  8> C -0.8477017688 -0.2951107794 0.2052797334
|  9> O 0.3900505872 0.4238690663 0.3007242566
| 10> C 1.5110440422 -0.1850059731 -0.0685932314
| 11> O 1.5473571422 -1.3282073001 -0.476136146
| 12> C 2.6994589195 0.7159538776 0.081863192
| 13> H -3.519171139 -0.5468747594 0.8662433517
| 14> H -4.1215738696 0.7284639505 -0.1938778633
| 15> H -3.3488927238 -0.7009528092 -0.8820311168
| 16> H -1.9632843374 1.408828046 0.8504614323
| 17> H -1.8023257497 1.2684596536 -0.9015106427
| 18> H -0.9804534534 -0.8691372425 1.12829818
| 19> H -0.7838008688 -0.9973569614 -0.6327885438
| 20> H 2.80765515 0.9883655402 1.1283720051
| 21> H 2.5334620282 1.625972289 -0.4877759232
| 22> H 3.5907051037 0.2053423244 -0.2671246799
| 23> *
| 24>
| 25>                          ****END OF INPUT****

CARTESIAN COORDINATES (ANGSTROEM)
---------------------------------
  C     -3.327709    0.001317   -0.052456
  C     -1.979122    0.706413    0.016523
  C     -0.847702   -0.295111    0.205280
  O      0.390051    0.423869    0.300724
  C      1.511044   -0.185006   -0.068593
  O      1.547357   -1.328207   -0.476136
  C      2.699459    0.715954    0.081863
  H     -3.519171   -0.546875    0.866243
  H     -4.121574    0.728464   -0.193878
  H     -3.348893   -0.700953   -0.882031
  H     -1.963284    1.408828    0.850461
  H     -1.802326    1.268460   -0.901511
  H     -0.980453   -0.869137    1.128298
  H     -0.783801   -0.997357   -0.632789
  H      2.807655    0.988366    1.128372
  H      2.533462    1.625972   -0.487776
  H      3.590705    0.205342   -0.267125

 Total Charge           Charge          ....    0
 Multiplicity           Mult            ....    1
 Number of Electrons    NEL             ....   56
 Basis Dimension        Dim             ....  118

ORBITAL ENERGIES
----------------

  NO   OCC          E(Eh)            E(eV)
   0   2.0000     -18.795385      -511.4484
   1   2.0000     -18.729132      -509.6456
   2   2.0000     -10.006631      -272.2943
   3   2.0000      -9.942992      -270.5626
   4   2.0000      -9.895563      -269.2720
   5   2.0000      -9.892970      -269.2014
   6   2.0000      -9.886067      -269.0136
   7   2.0000      -1.002519       -27.2799
   8   2.0000      -0.906299       -24.6616
   9   2.0000      -0.726095       -19.7581
  10   2.0000      -0.679810       -18.4986
  11   2.0000      -0.622599       -16.9418
  12   2.0000      -0.541486       -14.7346
  13   2.0000      -0.508451       -13.8357
  14   2.0000      -0.451547       -12.2872
  15   2.0000      -0.431088       -11.7305
  16   2.0000      -0.413955       -11.2643
  17   2.0000      -0.407365       -11.0850
  18   2.0000      -0.379827       -10.3356
  19   2.0000      -0.369294       -10.0490
  20   2.0000      -0.361352        -9.8329
  21   2.0000      -0.332069        -9.0360
  22   2.0000      -0.329149        -8.9566
  23   2.0000      -0.318175        -8.6580
  24   2.0000      -0.303679        -8.2635
  25   2.0000      -0.290549        -7.9062
  26   2.0000      -0.253841        -6.9074
  27   2.0000      -0.215081        -5.8526
  28   0.0000      -0.017021        -0.4632
  29   0.0000       0.034847         0.9482
  30   0.0000       0.052460         1.4275
  31   0.0000       0.071704         1.9512
  32   0.0000       0.079619         2.1665

MULLIKEN ATOMIC CHARGES
-----------------------
   0 C :   -0.291698
   1 C :   -0.185954
   2 C :   -0.005684
   3 O :   -0.243004
   4 C :    0.080254
   5 O :   -0.210223
   6 C :   -0.243861
   7 H :    0.105573
   8 H :    0.112741
   9 H :    0.106619
  10 H :    0.096998
  11 H :    0.096685
  12 H :    0.096423
  13 H :    0.106696
  14 H :    0.128692
  15 H :    0.126559
  16 H :    0.123181
Sum of atomic charges:    0.0000000

LOEWDIN ATOMIC CHARGES
----------------------
   0 C :   -0.339062
   1 C :   -0.244972
   2 C :   -0.105343
   3 O :   -0.075200
   4 C :    0.028372
   5 O :   -0.170560
   6 C :   -0.358590
   7 H :    0.119913
   8 H :    0.124766
   9 H :    0.120788
  10 H :    0.120776
  11 H :    0.120920
  12 H :    0.113546
  13 H :    0.117326
  14 H :    0.144903
  15 H :    0.143473
  16 H :    0.138945

  Mayer bond orders larger than 0.100000
B(  0-C ,  1-C ) :   1.1386 B(  0-C ,  7-H ) :   0.9552 B(  0-C ,  8-H ) :   0.9522
B(  0-C ,  9-H ) :   0.9548 B(  1-C ,  2-C ) :   1.1185 B(  1-C , 10-H ) :   0.9212
B(  1-C , 11-H ) :   0.9251 B(  2-C ,  3-O ) :   0.9254 B(  2-C , 12-H ) :   0.9324
B(  2-C , 13-H ) :   0.9158 B(  3-O ,  4-C ) :   1.1817 B(  4-C ,  5-O ) :   2.0687
B(  4-C ,  6-C ) :   1.0841 B(  6-C , 14-H ) :   0.9296 B(  6-C , 15-H ) :   0.9291
B(  6-C , 16-H ) :   0.9429

Dispersion correction           -0.011345437
FINAL SINGLE POINT ENERGY      -346.243946985998

DIPOLE MOMENT
-------------

Method             : SCF
Type of density    : Electron Density
Multiplicity       :   1
Irrep              :   0
Energy             :  -346.3087962799515367 Eh
Relativity type    :
Basis              : AO
                                X                 Y                 Z
Electronic contribution:      6.677196789      -2.230302791      -0.317740200
Nuclear contribution   :     -7.089788069       2.905333531       0.568054714
                        -----------------------------------------
Total Dipole Moment    :     -0.412591280       0.675030740       0.250314513
                        -----------------------------------------
Magnitude (a.u.)       :      0.829792396
Magnitude (Debye)      :      2.109164653

Rotational constants in cm-1:             0.254831             0.039077             0.035127
Rotational constants in MHz :          7639.631125          1171.509418          1053.086525

                             ****ORCA TERMINATED NORMALLY****
TOTAL RUN TIME: 0 days 0 hours 0 minutes 8 seconds 239 msec
