                         Program Version 6.0.0  -   RELEASE  -
|  1> ! pbe def2-sv(p) def2/J RI DEFGRID1 loosescf d4 GCP(DFT/SV(P)) printgap
|  2> %output
|  3>     printlevel normal
|  4> end
|  5> * xyz 0 1
|  6> C 0.073158989 -2.104926862 0.5089419131
|  7> C -0.0974567057 -1.1717890412 -0.6769717989
|  8> O 0.8875468303 -0.1716141274 -0.8882302228
|  9> C 1.7334387682 0.3177667475 0.0394898539
| 10> O 1.8980322981 -0.1387210251 1.1420252878
| 11> C 2.5009977862 1.4685851703 -0.5369212505
| 12> O -1.387901367 -0.5547882029 -0.6624830506
| 13> C -1.6677520871 0.4719886108 0.154214466
| 14> O -0.8693580919 0.969539241 0.9151009731
| 15> C -3.0829264175 0.9185149738 -0.0325322484
| 16> H -0.7003861274 -2.8652456373 0.4490084415
| 17> H -0.0199827594 -1.5610575529 1.4453923202
| 18> H 1.0519810877 -2.5727599361 0.4725024883
| 19> H -0.1094298658 -1.7384648643 -1.6172399161
| 20> H 3.373079616 1.0717362167 -1.0524942008
| 21> H 1.8881018013 2.0101565559 -1.2492309795
| 22> H 2.8322887093 2.1154642081 0.268809409
| 23> H -3.1755478154 1.3838519016 -1.0109155362
| 24> H -3.741912448 0.0560931656 -0.0058460965
| 25> H -3.3432023985 1.6327507524 0.7413538812
| 26> *
| 27>
| 28>                          ****END OF INPUT****

CARTESIAN COORDINATES (ANGSTROEM)
---------------------------------
  C      0.073159   -2.104927    0.508942
  C     -0.097457   -1.171789   -0.676972
  O      0.887547   -0.171614   -0.888230
  C      1.733439    0.317767    0.039490
  O      1.898032   -0.138721    1.142025
  C      2.500998    1.468585   -0.536921
  O     -1.387901   -0.554788   -0.662483
  C     -1.667752    0.471989    0.154214
  O     -0.869358    0.969539    0.915101
  C     -3.082926    0.918515   -0.032532
  H     -0.700386   -2.865246    0.449008
  H     -0.019983   -1.561058    1.445392
  H      1.051981   -2.572760    0.472502
  H     -0.109430   -1.738465   -1.617240
  H      3.373080    1.071736   -1.052494
  H      1.888102    2.010157   -1.249231
  H      2.832289    2.115464    0.268809
  H     -3.175548    1.383852   -1.010916
  H     -3.741912    0.056093   -0.005846
  H     -3.343202    1.632751    0.741354

 Total Charge           Charge          ....    0
 Multiplicity           Mult            ....    1
 Number of Electrons    NEL             ....   78
 Basis Dimension        Dim             ....  160

ORBITAL ENERGIES
----------------

  NO   OCC          E(Eh)            E(eV)
   0   2.0000     -18.805769      -511.7310
   1   2.0000     -18.800830      -511.5966
   2   2.0000     -18.739212      -509.9199
   3   2.0000     -18.729888      -509.6662
   4   2.0000     -10.019201      -272.6363
   5   2.0000     -10.017915      -272.6013
   6   2.0000     -10.011148      -272.4172
   7   2.0000      -9.898197      -269.3436
   8   2.0000      -9.889607      -269.1099
   9   2.0000      -9.887564      -269.0543
  10   2.0000      -1.027939       -27.9717
  11   2.0000      -0.988235       -26.8912
  12   2.0000      -0.925364       -25.1804
  13   2.0000      -0.907995       -24.7078
  14   2.0000      -0.728544       -19.8247
  15   2.0000      -0.680350       -18.5133
  16   2.0000      -0.661882       -18.0107
  17   2.0000      -0.614876       -16.7316
  18   2.0000      -0.564448       -15.3594
  19   2.0000      -0.480204       -13.0670
  20   2.0000      -0.448450       -12.2030
  21   2.0000      -0.431866       -11.7517
  22   2.0000      -0.429890       -11.6979
  23   2.0000      -0.421477       -11.4690
  24   2.0000      -0.412782       -11.2324
  25   2.0000      -0.402600       -10.9553
  26   2.0000      -0.380540       -10.3550
  27   2.0000      -0.374820       -10.1994
  28   2.0000      -0.367376        -9.9968
  29   2.0000      -0.359390        -9.7795
  30   2.0000      -0.350294        -9.5320
  31   2.0000      -0.339072        -9.2266
  32   2.0000      -0.330651        -8.9975
  33   2.0000      -0.314300        -8.5525
  34   2.0000      -0.302703        -8.2370
  35   2.0000      -0.270078        -7.3492
  36   2.0000      -0.263086        -7.1589
  37   2.0000      -0.221679        -6.0322
  38   2.0000      -0.213522        -5.8102
  39   0.0000      -0.030539        -0.8310
  40   0.0000      -0.019638        -0.5344
  41   0.0000       0.041397         1.1265
  42   0.0000       0.057637         1.5684
  43   0.0000       0.063532         1.7288

MULLIKEN ATOMIC CHARGES
-----------------------
   0 C :   -0.257270
   1 C :    0.182230
   2 O :   -0.257152
   3 C :    0.115454
   4 O :   -0.186192
   5 C :   -0.248903
   6 O :   -0.247386
   7 C :    0.096256
   8 O :   -0.191098
   9 C :   -0.244213
  10 H :    0.109107
  11 H :    0.148208
  12 H :    0.120274
  13 H :    0.089811
  14 H :    0.132360
  15 H :    0.119520
  16 H :    0.130721
  17 H :    0.134680
  18 H :    0.126733
  19 H :    0.126860
Sum of atomic charges:    0.0000000

LOEWDIN ATOMIC CHARGES
----------------------
   0 C :   -0.362268
   1 C :    0.056252
   2 O :   -0.078621
   3 C :    0.044326
   4 O :   -0.141419
   5 C :   -0.356283
   6 O :   -0.076038
   7 C :    0.038330
   8 O :   -0.152722
   9 C :   -0.357630
  10 H :    0.127197
  11 H :    0.142895
  12 H :    0.136127
  13 H :    0.117759
  14 H :    0.148391
  15 H :    0.136982
  16 H :    0.143443
  17 H :    0.149303
  18 H :    0.143153
  19 H :    0.140823

  Mayer bond orders larger than 0.100000
B(  0-C ,  1-C ) :   1.1491 B(  0-C , 10-H ) :   0.9233 B(  0-C , 11-H ) :   0.9232
B(  0-C , 12-H ) :   0.9335 B(  1-C ,  2-O ) :   0.9917 B(  1-C ,  6-O ) :   0.9476
B(  1-C , 13-H ) :   0.9263 B(  2-O ,  3-C ) :   1.1019 B(  3-C ,  4-O ) :   2.0976
B(  3-C ,  5-C ) :   1.0835 B(  5-C , 14-H ) :   0.9242 B(  5-C , 15-H ) :   0.9366
B(  5-C , 16-H ) :   0.9399 B(  6-O ,  7-C ) :   1.1416 B(  7-C ,  8-O ) :   2.0717
B(  7-C ,  9-C ) :   1.0841 B(  9-C , 17-H ) :   0.9245 B(  9-C , 18-H ) :   0.9297
B(  9-C , 19-H ) :   0.9409

Dispersion correction           -0.017790586
FINAL SINGLE POINT ENERGY      -534.460676765632

DIPOLE MOMENT
-------------

Method             : SCF
Type of density    : Electron Density
Multiplicity       :   1
Irrep              :   0
Energy             :  -534.5401511609017007 Eh
Relativity type    :
Basis              : AO
                                X                 Y                 Z
Electronic contribution:      1.298608536       0.149334241       0.481426415
Nuclear contribution   :     -1.816923005      -0.437024243      -1.454785583
                        -----------------------------------------
Total Dipole Moment    :     -0.518314469      -0.287690002      -0.973359168
                        -----------------------------------------
Magnitude (a.u.)       :      1.139668152
Magnitude (Debye)      :      2.896806229

Rotational constants in cm-1:             0.069962             0.033172             0.028202
Rotational constants in MHz :          2097.412269           994.471379           845.485762

                             ****ORCA TERMINATED NORMALLY****
TOTAL RUN TIME: 0 days 0 hours 0 minutes 13 seconds 236 msec
