                         Program Version 6.0.0  -   RELEASE  -
|  1> ! r2scan-3c def2/J RI DEFGRID2 scfconv6 printgap
|  2> %output
|  3>     printlevel normal
|  4> end
|  5> * xyz 0 1
|  6> C -1.3856904459 1.5868903874 0.1315858945
|  7> C -1.2945350231 0.1494230208 -0.3662351807
|  8> C -0.130048277 -0.6370777731 0.2483597846
|  9> H -0.1233731828 -0.4639226837 1.3295647864
| 10> C -0.3075278852 -2.1308251896 -0.0224971444
| 11> C 1.2319179549 -0.1825533231 -0.2907484722
| 12> O 1.6156448603 1.0442730312 0.2996994253
| 13> H -0.4615031865 2.121119656 -0.0667991105
| 14> H -2.2051619132 2.1059253932 -0.3602430788
| 15> H -1.5598203526 1.6039789511 1.2051482732
| 16> H -1.1911801314 0.144535185 -1.4540406339
| 17> H -2.2261566385 -0.3660316152 -0.1214997775
| 18> H -1.2563431732 -2.4758074333 0.3792370025
| 19> H 0.4903420156 -2.7061357659 0.4405070232
| 20> H -0.2961278773 -2.3224585273 -1.0932183269
| 21> H 1.1778491274 -0.0785666642 -1.3837089264
| 22> H 1.9789012009 -0.9530210631 -0.0543845467
| 23> H 2.4996407421 1.282366081 -0.0084728753
| 24> *
| 25>
| 26>                          ****END OF INPUT****

CARTESIAN COORDINATES (ANGSTROEM)
---------------------------------
  C     -1.385690    1.586890    0.131586
  C     -1.294535    0.149423   -0.366235
  C     -0.130048   -0.637078    0.248360
  H     -0.123373   -0.463923    1.329565
  C     -0.307528   -2.130825   -0.022497
  C      1.231918   -0.182553   -0.290748
  O      1.615645    1.044273    0.299699
  H     -0.461503    2.121120   -0.066799
  H     -2.205162    2.105925   -0.360243
  H     -1.559820    1.603979    1.205148
  H     -1.191180    0.144535   -1.454041
  H     -2.226157   -0.366032   -0.121500
  H     -1.256343   -2.475807    0.379237
  H      0.490342   -2.706136    0.440507
  H     -0.296128   -2.322459   -1.093218
  H      1.177849   -0.078567   -1.383709
  H      1.978901   -0.953021   -0.054385
  H      2.499641    1.282366   -0.008473

 Total Charge           Charge          ....    0
 Multiplicity           Mult            ....    1
 Number of Electrons    NEL             ....   50
 Basis Dimension        Dim             ....  179

ORBITAL ENERGIES
----------------

  NO   OCC          E(Eh)            E(eV)
   0   2.0000     -18.947376      -515.5843
   1   2.0000     -10.072937      -274.0985
   2   2.0000     -10.030552      -272.9452
   3   2.0000     -10.018328      -272.6126
   4   2.0000     -10.017645      -272.5940
   5   2.0000     -10.001550      -272.1560
   6   2.0000      -0.984202       -26.7815
   7   2.0000      -0.772349       -21.0167
   8   2.0000      -0.694375       -18.8949
   9   2.0000      -0.639219       -17.3940
  10   2.0000      -0.582867       -15.8606
  11   2.0000      -0.525602       -14.3024
  12   2.0000      -0.479541       -13.0490
  13   2.0000      -0.441671       -12.0185
  14   2.0000      -0.413896       -11.2627
  15   2.0000      -0.384690       -10.4679
  16   2.0000      -0.375884       -10.2283
  17   2.0000      -0.366966        -9.9856
  18   2.0000      -0.334986        -9.1154
  19   2.0000      -0.333084        -9.0637
  20   2.0000      -0.312766        -8.5108
  21   2.0000      -0.295929        -8.0526
  22   2.0000      -0.285199        -7.7607
  23   2.0000      -0.274095        -7.4585
  24   2.0000      -0.233000        -6.3402
  25   0.0000       0.058943         1.6039
  26   0.0000       0.089842         2.4447
  27   0.0000       0.117803         3.2056
  28   0.0000       0.127134         3.4595
  29   0.0000       0.134496         3.6598

MULLIKEN ATOMIC CHARGES
-----------------------
   0 C :   -0.507952
   1 C :   -0.254789
   2 C :   -0.010460
   3 H :    0.153191
   4 C :   -0.485650
   5 C :   -0.185589
   6 O :   -0.422390
   7 H :    0.177260
   8 H :    0.138965
   9 H :    0.142160
  10 H :    0.136928
  11 H :    0.137586
  12 H :    0.150460
  13 H :    0.148113
  14 H :    0.143736
  15 H :    0.131105
  16 H :    0.116366
  17 H :    0.290959
Sum of atomic charges:    0.0000000

LOEWDIN ATOMIC CHARGES
----------------------
   0 C :   -0.422550
   1 C :   -0.306157
   2 C :   -0.218904
   3 H :    0.168158
   4 C :   -0.413100
   5 C :    0.012070
   6 O :   -0.633983
   7 H :    0.168552
   8 H :    0.145428
   9 H :    0.150463
  10 H :    0.153945
  11 H :    0.152704
  12 H :    0.154987
  13 H :    0.152309
  14 H :    0.155497
  15 H :    0.157383
  16 H :    0.157696
  17 H :    0.265503

  Mayer bond orders larger than 0.100000
B(  0-C ,  1-C ) :   0.9030 B(  0-C ,  7-H ) :   0.9720 B(  0-C ,  8-H ) :   0.9762
B(  0-C ,  9-H ) :   0.9854 B(  1-C ,  2-C ) :   0.8999 B(  1-C , 10-H ) :   0.9768
B(  1-C , 11-H ) :   0.9752 B(  2-C ,  3-H ) :   0.9637 B(  2-C ,  4-C ) :   0.8976
B(  2-C ,  5-C ) :   0.9233 B(  4-C , 12-H ) :   0.9759 B(  4-C , 13-H ) :   0.9798
B(  4-C , 14-H ) :   0.9770 B(  5-C ,  6-O ) :   0.9398 B(  5-C , 15-H ) :   0.9789
B(  5-C , 16-H ) :   0.9630 B(  6-O , 17-H ) :   0.9009

Dispersion correction           -0.004369719
FINAL SINGLE POINT ENERGY      -272.895753487283

DIPOLE MOMENT
-------------

Method             : SCF
Type of density    : Electron Density
Multiplicity       :   1
Irrep              :   0
Energy             :  -272.9013197553368855 Eh
Relativity type    :
Basis              : AO
                                X                 Y                 Z
Electronic contribution:      3.325490911       1.680572854       0.792138017
Nuclear contribution   :     -2.952753783      -1.962168788      -1.110006459
                        -----------------------------------------
Total Dipole Moment    :      0.372737128      -0.281595934      -0.317868442
                        -----------------------------------------
Magnitude (a.u.)       :      0.565039453
Magnitude (Debye)      :      1.436216152

Rotational constants in cm-1:             0.115751             0.108637             0.061508
Rotational constants in MHz :          3470.139002          3256.866982          1843.976353

                             ****ORCA TERMINATED NORMALLY****
TOTAL RUN TIME: 0 days 0 hours 0 minutes 23 seconds 443 msec
