                         Program Version 6.0.0  -   RELEASE  -
|  1> ! r2scan-3c def2/J RI DEFGRID2 scfconv6 printgap
|  2> %output
|  3>     printlevel normal
|  4> end
|  5> %cpcm
|  6>     smd true
|  7>     smdsolvent "water"
|  8> end
|  9> * xyz 0 1
| 10> C -1.3856904459 1.5868903874 0.1315858945
| 11> C -1.2945350231 0.1494230208 -0.3662351807
| 12> C -0.130048277 -0.6370777731 0.2483597846
| 13> H -0.1233731828 -0.4639226837 1.3295647864
| 14> C -0.3075278852 -2.1308251896 -0.0224971444
| 15> C 1.2319179549 -0.1825533231 -0.2907484722
| 16> O 1.6156448603 1.0442730312 0.2996994253
| 17> H -0.4615031865 2.121119656 -0.0667991105
| 18> H -2.2051619132 2.1059253932 -0.3602430788
| 19> H -1.5598203526 1.6039789511 1.2051482732
| 20> H -1.1911801314 0.144535185 -1.4540406339
| 21> H -2.2261566385 -0.3660316152 -0.1214997775
| 22> H -1.2563431732 -2.4758074333 0.3792370025
| 23> H 0.4903420156 -2.7061357659 0.4405070232
| 24> H -0.2961278773 -2.3224585273 -1.0932183269
| 25> H 1.1778491274 -0.0785666642 -1.3837089264
| 26> H 1.9789012009 -0.9530210631 -0.0543845467
| 27> H 2.4996407421 1.282366081 -0.0084728753
| 28> *
| 29>
| 30>                          ****END OF INPUT****

CARTESIAN COORDINATES (ANGSTROEM)
---------------------------------
  C     -1.385690    1.586890    0.131586
  C     -1.294535    0.149423   -0.366235
  C     -0.130048   -0.637078    0.248360
  H     -0.123373   -0.463923    1.329565
  C     -0.307528   -2.130825   -0.022497
  C      1.231918   -0.182553   -0.290748
  O      1.615645    1.044273    0.299699
  H     -0.461503    2.121120   -0.066799
  H     -2.205162    2.105925   -0.360243
  H     -1.559820    1.603979    1.205148
  H     -1.191180    0.144535   -1.454041
  H     -2.226157   -0.366032   -0.121500
  H     -1.256343   -2.475807    0.379237
  H      0.490342   -2.706136    0.440507
  H     -0.296128   -2.322459   -1.093218
  H      1.177849   -0.078567   -1.383709
  H      1.978901   -0.953021   -0.054385
  H      2.499641    1.282366   -0.008473

 Total Charge           Charge          ....    0
 Multiplicity           Mult            ....    1
 Number of Electrons    NEL             ....   50
 Basis Dimension        Dim             ....  179

ORBITAL ENERGIES
----------------

  NO   OCC          E(Eh)            E(eV)
   0   2.0000     -18.947347      -515.5835
   1   2.0000     -10.065231      -273.8889
   2   2.0000     -10.025324      -272.8029
   3   2.0000     -10.014392      -272.5055
   4   2.0000     -10.009100      -272.3615
   5   2.0000     -10.003807      -272.2174
   6   2.0000      -0.983259       -26.7558
   7   2.0000      -0.767485       -20.8843
   8   2.0000      -0.692315       -18.8388
   9   2.0000      -0.632557       -17.2128
  10   2.0000      -0.580924       -15.8077
  11   2.0000      -0.520997       -14.1770
  12   2.0000      -0.474643       -12.9157
  13   2.0000      -0.437523       -11.9056
  14   2.0000      -0.409451       -11.1417
  15   2.0000      -0.380327       -10.3492
  16   2.0000      -0.373056       -10.1514
  17   2.0000      -0.363670        -9.8960
  18   2.0000      -0.335408        -9.1269
  19   2.0000      -0.329491        -8.9659
  20   2.0000      -0.311232        -8.4690
  21   2.0000      -0.292649        -7.9634
  22   2.0000      -0.281411        -7.6576
  23   2.0000      -0.271369        -7.3843
  24   2.0000      -0.233544        -6.3550
  25   0.0000       0.075490         2.0542
  26   0.0000       0.098243         2.6733
  27   0.0000       0.120686         3.2840
  28   0.0000       0.131774         3.5857
  29   0.0000       0.143279         3.8988

MULLIKEN ATOMIC CHARGES
-----------------------
   0 C :   -0.558496
   1 C :   -0.257908
   2 C :    0.001815
   3 H :    0.154713
   4 C :   -0.530018
   5 C :   -0.201605
   6 O :   -0.499764
   7 H :    0.168954
   8 H :    0.152894
   9 H :    0.158190
  10 H :    0.152008
  11 H :    0.150030
  12 H :    0.163066
  13 H :    0.161300
  14 H :    0.157606
  15 H :    0.149326
  16 H :    0.134516
  17 H :    0.343373
Sum of atomic charges:    0.0000000

LOEWDIN ATOMIC CHARGES
----------------------
   0 C :   -0.433145
   1 C :   -0.308633
   2 C :   -0.219779
   3 H :    0.166626
   4 C :   -0.419048
   5 C :    0.013750
   6 O :   -0.666278
   7 H :    0.162087
   8 H :    0.149521
   9 H :    0.152627
  10 H :    0.158379
  11 H :    0.156327
  12 H :    0.157768
  13 H :    0.156326
  14 H :    0.159331
  15 H :    0.165278
  16 H :    0.165411
  17 H :    0.283452

  Mayer bond orders larger than 0.100000
B(  0-C ,  1-C ) :   0.8823 B(  0-C ,  7-H ) :   0.9759 B(  0-C ,  8-H ) :   0.9725
B(  0-C ,  9-H ) :   0.9854 B(  1-C ,  2-C ) :   0.8889 B(  1-C , 10-H ) :   0.9744
B(  1-C , 11-H ) :   0.9740 B(  2-C ,  3-H ) :   0.9654 B(  2-C ,  4-C ) :   0.8962
B(  2-C ,  5-C ) :   0.9065 B(  4-C , 12-H ) :   0.9734 B(  4-C , 13-H ) :   0.9755
B(  4-C , 14-H ) :   0.9762 B(  5-C ,  6-O ) :   0.9266 B(  5-C , 15-H ) :   0.9795
B(  5-C , 16-H ) :   0.9632 B(  6-O , 17-H ) :   0.8747

Dispersion correction           -0.004369719
FINAL SINGLE POINT ENERGY      -272.900599584387

DIPOLE MOMENT
-------------

Method             : SCF
Type of density    : Electron Density
Multiplicity       :   1
Irrep              :   0
Energy             :  -272.9061658524405516 Eh
Relativity type    :
Basis              : AO
                                X                 Y                 Z
Electronic contribution:      3.421970634       1.508231672       0.611284782
Nuclear contribution   :     -2.952753783      -1.962168788      -1.110006459
                        -----------------------------------------
Total Dipole Moment    :      0.469216851      -0.453937116      -0.498721678
                        -----------------------------------------
Magnitude (a.u.)       :      0.821551381
Magnitude (Debye)      :      2.088217656

Rotational constants in cm-1:             0.115751             0.108637             0.061508
Rotational constants in MHz :          3470.139002          3256.866982          1843.976353

                             ****ORCA TERMINATED NORMALLY****
TOTAL RUN TIME: 0 days 0 hours 0 minutes 27 seconds 9 msec
