                         Program Version 6.0.0  -   RELEASE  -
|  1> ! pbe def2-sv(p) def2/J RI DEFGRID1 loosescf d4 GCP(DFT/SV(P)) printgap
|  2> %output
|  3>     printlevel normal
|  4> end
|  5> * xyz 0 1
|  6> C -2.8110120205 0.1920554049 9.42242e-05
|  7> C -1.4332574545 -0.4583012162 -0.0006160768
|  8> C -0.3212983135 0.588884257 0.0003426526
|  9> C 1.051029372 -0.0350308717 0.0001223846
| 10> O 1.2601676879 -1.2260480472 0.0001800715
| 11> O 2.0785711585 0.8170518157 -0.0001324006
| 12> H -2.9409175931 0.8122050832 0.8836597098
| 13> H -3.5859650026 -0.5692030402 -0.000707593
| 14> H -2.9409350128 0.8140882051 -0.8821444768
| 15> H -1.3202115651 -1.0981494921 0.8763836888
| 16> H -1.3203588149 -1.0965088021 -0.8788370424
| 17> H -0.4111085367 1.2244434436 -0.8841787436
| 18> H -0.4113027178 1.2230275838 0.8858757695
| 19> H 1.8134374394 1.7550764853 -0.0001309923
| 20> *
| 21>
| 22>                          ****END OF INPUT****

CARTESIAN COORDINATES (ANGSTROEM)
---------------------------------
  C     -2.811012    0.192055    0.000094
  C     -1.433257   -0.458301   -0.000616
  C     -0.321298    0.588884    0.000343
  C      1.051029   -0.035031    0.000122
  O      1.260168   -1.226048    0.000180
  O      2.078571    0.817052   -0.000132
  H     -2.940918    0.812205    0.883660
  H     -3.585965   -0.569203   -0.000708
  H     -2.940935    0.814088   -0.882144
  H     -1.320212   -1.098149    0.876384
  H     -1.320359   -1.096509   -0.878837
  H     -0.411109    1.224443   -0.884179
  H     -0.411303    1.223028    0.885876
  H      1.813437    1.755076   -0.000131

 Total Charge           Charge          ....    0
 Multiplicity           Mult            ....    1
 Number of Electrons    NEL             ....   48
 Basis Dimension        Dim             ....  100

ORBITAL ENERGIES
----------------

  NO   OCC          E(Eh)            E(eV)
   0   2.0000     -18.798033      -511.5205
   1   2.0000     -18.734993      -509.8051
   2   2.0000     -10.010816      -272.4082
   3   2.0000      -9.910291      -269.6727
   4   2.0000      -9.893227      -269.2084
   5   2.0000      -9.882285      -268.9106
   6   2.0000      -1.002284       -27.2735
   7   2.0000      -0.914195       -24.8765
   8   2.0000      -0.727144       -19.7866
   9   2.0000      -0.645600       -17.5677
  10   2.0000      -0.572288       -15.5728
  11   2.0000      -0.536494       -14.5988
  12   2.0000      -0.463182       -12.6038
  13   2.0000      -0.445305       -12.1174
  14   2.0000      -0.395416       -10.7598
  15   2.0000      -0.391322       -10.6484
  16   2.0000      -0.366284        -9.9671
  17   2.0000      -0.352509        -9.5923
  18   2.0000      -0.345847        -9.4110
  19   2.0000      -0.311081        -8.4649
  20   2.0000      -0.299816        -8.1584
  21   2.0000      -0.299496        -8.1497
  22   2.0000      -0.269964        -7.3461
  23   2.0000      -0.220208        -5.9922
  24   0.0000      -0.021865        -0.5950
  25   0.0000       0.005098         0.1387
  26   0.0000       0.033737         0.9180
  27   0.0000       0.073735         2.0064
  28   0.0000       0.081276         2.2116

MULLIKEN ATOMIC CHARGES
-----------------------
   0 C :   -0.259270
   1 C :   -0.192469
   2 C :   -0.277190
   3 C :    0.147885
   4 O :   -0.178464
   5 O :   -0.287230
   6 H :    0.096437
   7 H :    0.109297
   8 H :    0.096431
   9 H :    0.105292
  10 H :    0.105258
  11 H :    0.109468
  12 H :    0.109543
  13 H :    0.315011
Sum of atomic charges:    0.0000000

LOEWDIN ATOMIC CHARGES
----------------------
   0 C :   -0.340305
   1 C :   -0.228724
   2 C :   -0.276274
   3 C :    0.027172
   4 O :   -0.145628
   5 O :   -0.207895
   6 H :    0.116355
   7 H :    0.123291
   8 H :    0.116350
   9 H :    0.125132
  10 H :    0.125116
  11 H :    0.133814
  12 H :    0.133865
  13 H :    0.297732

  Mayer bond orders larger than 0.100000
B(  0-C ,  1-C ) :   1.1454 B(  0-C ,  6-H ) :   0.9537 B(  0-C ,  7-H ) :   0.9531
B(  0-C ,  8-H ) :   0.9537 B(  1-C ,  2-C ) :   1.1376 B(  1-C ,  9-H ) :   0.9286
B(  1-C , 10-H ) :   0.9286 B(  2-C ,  3-C ) :   0.9958 B(  2-C , 11-H ) :   0.8971
B(  2-C , 12-H ) :   0.8971 B(  3-C ,  4-O ) :   2.1331 B(  3-C ,  5-O ) :   1.2232
B(  5-O , 13-H ) :   0.8300

Dispersion correction           -0.009150457
FINAL SINGLE POINT ENERGY      -307.026155799838

DIPOLE MOMENT
-------------

Method             : SCF
Type of density    : Electron Density
Multiplicity       :   1
Irrep              :   0
Energy             :  -307.0806782137639175 Eh
Relativity type    :
Basis              : AO
                                X                 Y                 Z
Electronic contribution:      9.651346821      -1.464831294       0.000154844
Nuclear contribution   :    -10.380417720       2.869406495      -0.000074045
                        -----------------------------------------
Total Dipole Moment    :     -0.729070899       1.404575201       0.000080799
                        -----------------------------------------
Magnitude (a.u.)       :      1.582521999
Magnitude (Debye)      :      4.022451252

Rotational constants in cm-1:             0.297138             0.062217             0.052966
Rotational constants in MHz :          8907.987681          1865.224989          1587.870874

                             ****ORCA TERMINATED NORMALLY****
TOTAL RUN TIME: 0 days 0 hours 0 minutes 6 seconds 849 msec
