                         Program Version 6.0.0  -   RELEASE  -
|  1> ! pbe def2-sv(p) def2/J RI DEFGRID1 loosescf d4 GCP(DFT/SV(P)) printgap
|  2> %output
|  3>     printlevel normal
|  4> end
|  5> * xyz 0 1
|  6> C 1.7843980722 1.0640694288 -0.5681218694
|  7> C 1.3176340587 -0.3550809378 -0.2459075492
|  8> C 1.7100805262 -0.7514467146 1.1819750634
|  9> O -0.0557350241 -0.6088369749 -0.5367831109
| 10> C -1.064272864 0.3397796016 -0.1965316494
| 11> C -2.302409114 -0.0967559934 -0.9798228062
| 12> C -1.3750653551 0.3959126538 1.301150795
| 13> H 1.4692704609 1.3507927252 -1.5687602757
| 14> H 1.3907321082 1.7800185328 0.1497344667
| 15> H 2.8688819794 1.0934164201 -0.5227880448
| 16> H 1.8160637935 -1.0501931781 -0.9356733087
| 17> H 1.2435763425 -1.698341158 1.4402908518
| 18> H 1.4042522827 0.0002214713 1.9036048499
| 19> H 2.7890353724 -0.8648111774 1.238575484
| 20> H -0.7627569259 1.3389931534 -0.5422002253
| 21> H -2.0613495629 -0.171461083 -2.0364787696
| 22> H -2.6280514252 -1.0730429028 -0.6317023202
| 23> H -3.1044891301 0.6218872983 -0.8441002649
| 24> H -0.5792386834 0.884475228 1.8555881217
| 25> H -1.5068607003 -0.6117047249 1.6870125614
| 26> H -2.2928618855 0.9562813681 1.4558538461
| 27> *
| 28>
| 29>                          ****END OF INPUT****

CARTESIAN COORDINATES (ANGSTROEM)
---------------------------------
  C      1.784398    1.064069   -0.568122
  C      1.317634   -0.355081   -0.245908
  C      1.710081   -0.751447    1.181975
  O     -0.055735   -0.608837   -0.536783
  C     -1.064273    0.339780   -0.196532
  C     -2.302409   -0.096756   -0.979823
  C     -1.375065    0.395913    1.301151
  H      1.469270    1.350793   -1.568760
  H      1.390732    1.780019    0.149734
  H      2.868882    1.093416   -0.522788
  H      1.816064   -1.050193   -0.935673
  H      1.243576   -1.698341    1.440291
  H      1.404252    0.000221    1.903605
  H      2.789035   -0.864811    1.238575
  H     -0.762757    1.338993   -0.542200
  H     -2.061350   -0.171461   -2.036479
  H     -2.628051   -1.073043   -0.631702
  H     -3.104489    0.621887   -0.844100
  H     -0.579239    0.884475    1.855588
  H     -1.506861   -0.611705    1.687013
  H     -2.292862    0.956281    1.455854

 Total Charge           Charge          ....    0
 Multiplicity           Mult            ....    1
 Number of Electrons    NEL             ....   58
 Basis Dimension        Dim             ....  126

ORBITAL ENERGIES
----------------

  NO   OCC          E(Eh)            E(eV)
   0   2.0000     -18.737635      -509.8770
   1   2.0000      -9.936562      -270.3876
   2   2.0000      -9.934686      -270.3365
   3   2.0000      -9.877473      -268.7797
   4   2.0000      -9.871665      -268.6217
   5   2.0000      -9.870947      -268.6021
   6   2.0000      -9.868015      -268.5224
   7   2.0000      -0.917704       -24.9720
   8   2.0000      -0.714862       -19.4524
   9   2.0000      -0.673731       -18.3332
  10   2.0000      -0.617287       -16.7972
  11   2.0000      -0.609692       -16.5906
  12   2.0000      -0.549448       -14.9512
  13   2.0000      -0.484659       -13.1882
  14   2.0000      -0.443195       -12.0599
  15   2.0000      -0.416532       -11.3344
  16   2.0000      -0.402145       -10.9429
  17   2.0000      -0.372603       -10.1391
  18   2.0000      -0.371429       -10.1071
  19   2.0000      -0.356791        -9.7088
  20   2.0000      -0.346378        -9.4254
  21   2.0000      -0.341070        -9.2810
  22   2.0000      -0.334638        -9.1060
  23   2.0000      -0.318319        -8.6619
  24   2.0000      -0.312162        -8.4944
  25   2.0000      -0.296712        -8.0739
  26   2.0000      -0.285558        -7.7704
  27   2.0000      -0.242490        -6.5985
  28   2.0000      -0.197076        -5.3627
  29   0.0000       0.031473         0.8564
  30   0.0000       0.058673         1.5966
  31   0.0000       0.066042         1.7971
  32   0.0000       0.070992         1.9318
  33   0.0000       0.083441         2.2705

MULLIKEN ATOMIC CHARGES
-----------------------
   0 C :   -0.290459
   1 C :    0.019564
   2 C :   -0.253297
   3 O :   -0.331531
   4 C :   -0.005066
   5 C :   -0.239830
   6 C :   -0.257806
   7 H :    0.114579
   8 H :    0.107428
   9 H :    0.105861
  10 H :    0.071200
  11 H :    0.106536
  12 H :    0.095777
  13 H :    0.095367
  14 H :    0.062524
  15 H :    0.103203
  16 H :    0.099782
  17 H :    0.093982
  18 H :    0.105115
  19 H :    0.100986
  20 H :    0.096084
Sum of atomic charges:    0.0000000

LOEWDIN ATOMIC CHARGES
----------------------
   0 C :   -0.351432
   1 C :   -0.050296
   2 C :   -0.352024
   3 O :   -0.166176
   4 C :   -0.049310
   5 C :   -0.338859
   6 C :   -0.352003
   7 H :    0.123622
   8 H :    0.118391
   9 H :    0.127725
  10 H :    0.111650
  11 H :    0.123118
  12 H :    0.114863
  13 H :    0.121852
  14 H :    0.097184
  15 H :    0.121258
  16 H :    0.121263
  17 H :    0.119114
  18 H :    0.114581
  19 H :    0.123002
  20 H :    0.122477

  Mayer bond orders larger than 0.100000
B(  0-C ,  1-C ) :   1.1061 B(  0-C ,  7-H ) :   0.9401 B(  0-C ,  8-H ) :   0.9415
B(  0-C ,  9-H ) :   0.9406 B(  1-C ,  2-C ) :   1.1087 B(  1-C ,  3-O ) :   1.0360
B(  1-C , 10-H ) :   0.9162 B(  2-C , 11-H ) :   0.9433 B(  2-C , 12-H ) :   0.9390
B(  2-C , 13-H ) :   0.9400 B(  3-O ,  4-C ) :   1.0200 B(  4-C ,  5-C ) :   1.1140
B(  4-C ,  6-C ) :   1.1084 B(  4-C , 14-H ) :   0.8955 B(  5-C , 15-H ) :   0.9475
B(  5-C , 16-H ) :   0.9494 B(  5-C , 17-H ) :   0.9453 B(  6-C , 18-H ) :   0.9379
B(  6-C , 19-H ) :   0.9385 B(  6-C , 20-H ) :   0.9401

Dispersion correction           -0.016444845
FINAL SINGLE POINT ENERGY      -311.517873848039

DIPOLE MOMENT
-------------

Method             : SCF
Type of density    : Electron Density
Multiplicity       :   1
Irrep              :   0
Energy             :  -311.5957897745157652 Eh
Relativity type    :
Basis              : AO
                                X                 Y                 Z
Electronic contribution:      0.128806829      -2.009907598      -2.305112860
Nuclear contribution   :      0.042519782       2.389409492       2.477188593
                        -----------------------------------------
Total Dipole Moment    :      0.171326611       0.379501894       0.172075732
                        -----------------------------------------
Magnitude (a.u.)       :      0.450538071
Magnitude (Debye)      :      1.145176767

Rotational constants in cm-1:             0.131607             0.056259             0.050160
Rotational constants in MHz :          3945.464907          1686.590661          1503.767914

                             ****ORCA TERMINATED NORMALLY****
TOTAL RUN TIME: 0 days 0 hours 0 minutes 7 seconds 711 msec
