                         Program Version 6.0.0  -   RELEASE  -
|  1> ! pbe def2-sv(p) def2/J RI DEFGRID1 loosescf d4 GCP(DFT/SV(P)) printgap
|  2> %output
|  3>     printlevel normal
|  4> end
|  5> * xyz 0 1
|  6> C -2.5850543137 0.53223891 0.6349157278
|  7> C -1.728421441 0.3983040086 -0.6272752774
|  8> C -0.4258698315 -0.2768854642 -0.2833557426
|  9> O -0.1709774756 -1.4432152468 -0.5027807386
| 10> O 0.4048659852 0.555977402 0.3291502474
| 11> C 1.6848021582 0.0612561511 0.7554748789
| 12> C 2.7189093332 0.1950216481 -0.3519480469
| 13> H -2.0694946431 1.1374041105 1.3759000021
| 14> H -3.5300869049 1.0061793066 0.3874247963
| 15> H -2.7865427615 -0.4478601956 1.0608922971
| 16> H -1.5136085081 1.3868828219 -1.0312931913
| 17> H -2.2434123127 -0.2073523818 -1.3719623188
| 18> H 1.9453666747 0.6762070464 1.6175870724
| 19> H 1.5729826783 -0.985599265 1.0539886568
| 20> H 2.4443237775 -0.4337548955 -1.196061091
| 21> H 2.7793166374 1.2277652326 -0.6843904798
| 22> H 3.6881136853 -0.119430425 0.0210120591
| 23> *
| 24>
| 25>                          ****END OF INPUT****

CARTESIAN COORDINATES (ANGSTROEM)
---------------------------------
  C     -2.585054    0.532239    0.634916
  C     -1.728421    0.398304   -0.627275
  C     -0.425870   -0.276885   -0.283356
  O     -0.170977   -1.443215   -0.502781
  O      0.404866    0.555977    0.329150
  C      1.684802    0.061256    0.755475
  C      2.718909    0.195022   -0.351948
  H     -2.069495    1.137404    1.375900
  H     -3.530087    1.006179    0.387425
  H     -2.786543   -0.447860    1.060892
  H     -1.513609    1.386883   -1.031293
  H     -2.243412   -0.207352   -1.371962
  H      1.945367    0.676207    1.617587
  H      1.572983   -0.985599    1.053989
  H      2.444324   -0.433755   -1.196061
  H      2.779317    1.227765   -0.684390
  H      3.688114   -0.119430    0.021012

 Total Charge           Charge          ....    0
 Multiplicity           Mult            ....    1
 Number of Electrons    NEL             ....   56
 Basis Dimension        Dim             ....  118

ORBITAL ENERGIES
----------------

  NO   OCC          E(Eh)            E(eV)
   0   2.0000     -18.796936      -511.4906
   1   2.0000     -18.729837      -509.6648
   2   2.0000     -10.003892      -272.2197
   3   2.0000      -9.946187      -270.6495
   4   2.0000      -9.898288      -269.3461
   5   2.0000      -9.887564      -269.0543
   6   2.0000      -9.886503      -269.0254
   7   2.0000      -1.003718       -27.3126
   8   2.0000      -0.907071       -24.6827
   9   2.0000      -0.721786       -19.6408
  10   2.0000      -0.685869       -18.6634
  11   2.0000      -0.605847       -16.4859
  12   2.0000      -0.564046       -15.3485
  13   2.0000      -0.496860       -13.5203
  14   2.0000      -0.452473       -12.3124
  15   2.0000      -0.426220       -11.5980
  16   2.0000      -0.416779       -11.3411
  17   2.0000      -0.397536       -10.8175
  18   2.0000      -0.383632       -10.4392
  19   2.0000      -0.369667       -10.0592
  20   2.0000      -0.348880        -9.4935
  21   2.0000      -0.341343        -9.2884
  22   2.0000      -0.324801        -8.8383
  23   2.0000      -0.314743        -8.5646
  24   2.0000      -0.313408        -8.5283
  25   2.0000      -0.289584        -7.8800
  26   2.0000      -0.254446        -6.9238
  27   2.0000      -0.214317        -5.8319
  28   0.0000      -0.018945        -0.5155
  29   0.0000       0.045411         1.2357
  30   0.0000       0.056783         1.5451
  31   0.0000       0.080799         2.1987
  32   0.0000       0.087909         2.3921

MULLIKEN ATOMIC CHARGES
-----------------------
   0 C :   -0.304960
   1 C :   -0.129294
   2 C :    0.097519
   3 O :   -0.211635
   4 O :   -0.243994
   5 C :   -0.012587
   6 C :   -0.302666
   7 H :    0.114545
   8 H :    0.115315
   9 H :    0.115031
  10 H :    0.102437
  11 H :    0.103280
  12 H :    0.100016
  13 H :    0.107033
  14 H :    0.126021
  15 H :    0.112356
  16 H :    0.111583
Sum of atomic charges:    0.0000000

LOEWDIN ATOMIC CHARGES
----------------------
   0 C :   -0.331644
   1 C :   -0.249128
   2 C :    0.036392
   3 O :   -0.173195
   4 O :   -0.069670
   5 C :   -0.113198
   6 C :   -0.355765
   7 H :    0.122737
   8 H :    0.123619
   9 H :    0.124641
  10 H :    0.132577
  11 H :    0.133462
  12 H :    0.116088
  13 H :    0.118953
  14 H :    0.130374
  15 H :    0.123912
  16 H :    0.129843

  Mayer bond orders larger than 0.100000
B(  0-C ,  1-C ) :   1.1390 B(  0-C ,  7-H ) :   0.9538 B(  0-C ,  8-H ) :   0.9522
B(  0-C ,  9-H ) :   0.9537 B(  1-C ,  2-C ) :   1.0286 B(  1-C , 10-H ) :   0.9057
B(  1-C , 11-H ) :   0.9129 B(  2-C ,  3-O ) :   2.0480 B(  2-C ,  4-O ) :   1.1965
B(  4-O ,  5-C ) :   0.9224 B(  5-C ,  6-C ) :   1.1742 B(  5-C , 12-H ) :   0.9368
B(  5-C , 13-H ) :   0.9124 B(  6-C , 14-H ) :   0.9468 B(  6-C , 15-H ) :   0.9493
B(  6-C , 16-H ) :   0.9446

Dispersion correction           -0.012029230
FINAL SINGLE POINT ENERGY      -346.244307815750

DIPOLE MOMENT
-------------

Method             : SCF
Type of density    : Electron Density
Multiplicity       :   1
Irrep              :   0
Energy             :  -346.3088745737405247 Eh
Relativity type    :
Basis              : AO
                                X                 Y                 Z
Electronic contribution:     -0.113959305      -2.354955490      -0.891135657
Nuclear contribution   :      0.272682554       3.026921470       1.154277642
                        -----------------------------------------
Total Dipole Moment    :      0.158723250       0.671965981       0.263141985
                        -----------------------------------------
Magnitude (a.u.)       :      0.738901247
Magnitude (Debye)      :      1.878137713

Rotational constants in cm-1:             0.190453             0.050013             0.045174
Rotational constants in MHz :          5709.651489          1499.340090          1354.282435

                             ****ORCA TERMINATED NORMALLY****
TOTAL RUN TIME: 0 days 0 hours 0 minutes 9 seconds 466 msec
